Generated by trjconv : CNT in water t= 227.00000
33518
    1C        C    1   2.838   2.763   4.746
    1C        C    2   2.890   2.708   4.865
    1C        C    3   2.832   2.764   4.980
    1C        C    4   2.845   2.767   4.256
    1C        C    5   2.898   2.722   4.379
    1C        C    6   2.847   2.770   4.502
    1C        C    7   3.009   2.636   4.621
    1C        C    8   2.893   2.716   4.625
    1C        C    9   3.069   2.592   4.741
    1C        C   10   3.002   2.623   4.862
    1C        C   11   3.177   2.488   4.974
    1C        C   12   3.056   2.557   4.974
    1C        C   13   2.848   2.766   3.766
    1C        C   14   2.898   2.717   3.888
    1C        C   15   2.844   2.766   4.010
    1C        C   16   3.012   2.639   4.135
    1C        C   17   2.895   2.719   4.133
    1C        C   18   3.078   2.610   4.256
    1C        C   19   3.016   2.645   4.379
    1C        C   20   3.201   2.542   4.502
    1C        C   21   3.072   2.598   4.500
    1C        C   22   3.272   2.526   4.623
    1C        C   23   3.201   2.540   4.745
    1C        C   24   3.410   2.482   4.862
    1C        C   25   3.268   2.501   4.864
    1C        C   26   3.486   2.476   4.979
    1C        C   27   2.847   2.764   3.278
    1C        C   28   2.904   2.718   3.399
    1C        C   29   2.852   2.767   3.521
    1C        C   30   3.016   2.635   3.645
    1C        C   31   2.902   2.718   3.644
    1C        C   32   3.073   2.599   3.769
    1C        C   33   3.009   2.630   3.891
    1C        C   34   3.204   2.545   4.015
    1C        C   35   3.073   2.600   4.014
    1C        C   36   3.273   2.529   4.137
    1C        C   37   3.205   2.550   4.259
    1C        C   38   3.410   2.496   4.381
    1C        C   39   3.271   2.520   4.381
    1C        C   40   3.483   2.496   4.502
    1C        C   41   3.411   2.501   4.623
    1C        C   42   3.628   2.489   4.743
    1C        C   43   3.486   2.483   4.742
    1C        C   44   3.701   2.498   4.864
    1C        C   45   3.624   2.489   4.981
    1C        C   46   2.837   2.755   2.791
    1C        C   47   2.897   2.713   2.912
    1C        C   48   2.849   2.766   3.033
    1C        C   49   3.017   2.637   3.156
    1C        C   50   2.903   2.721   3.156
    1C        C   51   3.079   2.602   3.278
    1C        C   52   3.016   2.632   3.401
    1C        C   53   3.206   2.542   3.526
    1C        C   54   3.075   2.594   3.524
    1C        C   55   3.272   2.519   3.649
    1C        C   56   3.204   2.545   3.770
    1C        C   57   3.410   2.500   3.893
    1C        C   58   3.271   2.526   3.893
    1C        C   59   3.481   2.497   4.015
    1C        C   60   3.412   2.501   4.138
    1C        C   61   3.624   2.498   4.258
    1C        C   62   3.483   2.492   4.260
    1C        C   63   3.697   2.508   4.379
    1C        C   64   3.624   2.503   4.500
    1C        C   65   3.831   2.548   4.621
    1C        C   66   3.696   2.505   4.621
    1C        C   67   3.897   2.577   4.742
    1C        C   68   3.838   2.532   4.862
    1C        C   69   4.052   2.580   4.973
    1C        C   70   3.922   2.529   4.974
    1C        C   71   2.824   2.732   2.305
    1C        C   72   2.877   2.687   2.428
    1C        C   73   2.824   2.739   2.548
    1C        C   74   3.002   2.623   2.668
    1C        C   75   2.881   2.697   2.670
    1C        C   76   3.068   2.592   2.789
    1C        C   77   3.011   2.629   2.913
    1C        C   78   3.203   2.537   3.033
    1C        C   79   3.073   2.593   3.035
    1C        C   80   3.269   2.518   3.156
    1C        C   81   3.207   2.543   3.281
    1C        C   82   3.412   2.494   3.402
    1C        C   83   3.273   2.517   3.404
    1C        C   84   3.481   2.490   3.525
    1C        C   85   3.411   2.495   3.648
    1C        C   86   3.622   2.496   3.769
    1C        C   87   3.481   2.494   3.771
    1C        C   88   3.693   2.506   3.891
    1C        C   89   3.622   2.500   4.014
    1C        C   90   3.827   2.552   4.134
    1C        C   91   3.693   2.508   4.136
    1C        C   92   3.898   2.575   4.254
    1C        C   93   3.833   2.547   4.376
    1C        C   94   4.024   2.636   4.496
    1C        C   95   3.897   2.574   4.499
    1C        C   96   4.086   2.673   4.617
    1C        C   97   4.028   2.634   4.740
    1C        C   98   4.190   2.763   4.861
    1C        C   99   4.105   2.648   4.859
    1C        C  100   4.209   2.842   4.975
    1C        C  101   2.812   2.725   2.070
    1C        C  102   2.988   2.590   2.186
    1C        C  103   2.873   2.674   2.185
    1C        C  104   3.062   2.575   2.307
    1C        C  105   2.999   2.615   2.427
    1C        C  106   3.197   2.534   2.545
    1C        C  107   3.066   2.585   2.548
    1C        C  108   3.266   2.518   2.668
    1C        C  109   3.197   2.535   2.790
    1C        C  110   3.408   2.492   2.911
    1C        C  111   3.269   2.515   2.910
    1C        C  112   3.478   2.491   3.034
    1C        C  113   3.408   2.493   3.157
    1C        C  114   3.622   2.493   3.276
    1C        C  115   3.481   2.491   3.278
    1C        C  116   3.688   2.506   3.400
    1C        C  117   3.622   2.495   3.524
    1C        C  118   3.827   2.546   3.643
    1C        C  119   3.691   2.507   3.647
    1C        C  120   3.892   2.572   3.766
    1C        C  121   3.828   2.545   3.890
    1C        C  122   4.016   2.645   4.010
    1C        C  123   3.893   2.575   4.011
    1C        C  124   4.078   2.682   4.131
    1C        C  125   4.024   2.640   4.254
    1C        C  126   4.191   2.771   4.375
    1C        C  127   4.086   2.676   4.376
    1C        C  128   4.244   2.819   4.497
    1C        C  129   4.194   2.765   4.617
    1C        C  130   4.330   2.927   4.738
    1C        C  131   4.243   2.815   4.740
    1C        C  132   4.353   3.000   4.856
    1C        C  133   4.284   2.959   4.971
    1C        C  134   3.169   2.469   2.075
    1C        C  135   3.034   2.506   2.079
    1C        C  136   3.255   2.472   2.186
    1C        C  137   3.190   2.514   2.305
    1C        C  138   3.403   2.481   2.424
    1C        C  139   3.263   2.500   2.425
    1C        C  140   3.476   2.479   2.546
    1C        C  141   3.405   2.493   2.667
    1C        C  142   3.618   2.487   2.787
    1C        C  143   3.477   2.484   2.788
    1C        C  144   3.687   2.501   2.910
    1C        C  145   3.619   2.497   3.033
    1C        C  146   3.829   2.536   3.153
    1C        C  147   3.693   2.498   3.154
    1C        C  148   3.891   2.569   3.276
    1C        C  149   3.824   2.546   3.398
    1C        C  150   4.019   2.632   3.520
    1C        C  151   3.892   2.568   3.520
    1C        C  152   4.076   2.674   3.642
    1C        C  153   4.014   2.643   3.765
    1C        C  154   4.189   2.765   3.886
    1C        C  155   4.074   2.684   3.887
    1C        C  156   4.243   2.813   4.008
    1C        C  157   4.192   2.766   4.131
    1C        C  158   4.339   2.921   4.250
    1C        C  159   4.246   2.815   4.252
    1C        C  160   4.378   2.982   4.371
    1C        C  161   4.332   2.929   4.493
    1C        C  162   4.441   3.109   4.614
    1C        C  163   4.370   2.987   4.616
    1C        C  164   4.466   3.180   4.734
    1C        C  165   4.431   3.118   4.855
    1C        C  166   4.510   3.319   4.970
    1C        C  167   4.474   3.184   4.971
    1C        C  168   3.473   2.437   2.070
    1C        C  169   3.395   2.451   2.185
    1C        C  170   3.614   2.461   2.306
    1C        C  171   3.472   2.464   2.302
    1C        C  172   3.691   2.478   2.424
    1C        C  173   3.617   2.479   2.544
    1C        C  174   3.823   2.539   2.664
    1C        C  175   3.689   2.494   2.665
    1C        C  176   3.890   2.560   2.786
    1C        C  177   3.824   2.537   2.909
    1C        C  178   4.017   2.630   3.030
    1C        C  179   3.893   2.563   3.030
    1C        C  180   4.077   2.667   3.153
    1C        C  181   4.018   2.630   3.276
    1C        C  182   4.193   2.753   3.398
    1C        C  183   4.079   2.669   3.398
    1C        C  184   4.242   2.805   3.519
    1C        C  185   4.185   2.764   3.642
    1C        C  186   4.334   2.917   3.761
    1C        C  187   4.243   2.808   3.763
    1C        C  188   4.371   2.978   3.883
    1C        C  189   4.332   2.922   4.007
    1C        C  190   4.447   3.104   4.127
    1C        C  191   4.377   2.981   4.127
    1C        C  192   4.472   3.172   4.248
    1C        C  193   4.448   3.105   4.371
    1C        C  194   4.507   3.310   4.488
    1C        C  195   4.471   3.174   4.492
    1C        C  196   4.519   3.383   4.608
    1C        C  197   4.506   3.316   4.732
    1C        C  198   4.553   3.531   4.850
    1C        C  199   4.531   3.390   4.851
    1C        C  200   4.584   3.617   4.960
    1C        C  201   3.613   2.426   2.069
    1C        C  202   3.824   2.507   2.181
    1C        C  203   3.689   2.459   2.185
    1C        C  204   3.895   2.541   2.299
    1C        C  205   3.826   2.520   2.421
    1C        C  206   4.018   2.618   2.540
    1C        C  207   3.892   2.554   2.541
    1C        C  208   4.078   2.655   2.663
    1C        C  209   4.015   2.627   2.786
    1C        C  210   4.190   2.749   2.905
    1C        C  211   4.079   2.662   2.907
    1C        C  212   4.242   2.796   3.027
    1C        C  213   4.193   2.747   3.150
    1C        C  214   4.329   2.908   3.271
    1C        C  215   4.243   2.797   3.273
    1C        C  216   4.370   2.968   3.392
    1C        C  217   4.331   2.914   3.517
    1C        C  218   4.442   3.097   3.635
    1C        C  219   4.375   2.972   3.638
    1C        C  220   4.465   3.165   3.757
    1C        C  221   4.439   3.102   3.881
    1C        C  222   4.506   3.303   4.002
    1C        C  223   4.472   3.165   4.003
    1C        C  224   4.516   3.376   4.122
    1C        C  225   4.507   3.309   4.246
    1C        C  226   4.520   3.522   4.364
    1C        C  227   4.521   3.381   4.367
    1C        C  228   4.518   3.594   4.486
    1C        C  229   4.526   3.524   4.608
    1C        C  230   4.500   3.738   4.724
    1C        C  231   4.537   3.601   4.726
    1C        C  232   4.489   3.813   4.843
    1C        C  233   4.544   3.751   4.956
    1C        C  234   4.016   2.603   2.061
    1C        C  235   3.891   2.541   2.063
    1C        C  236   4.085   2.642   2.177
    1C        C  237   4.020   2.608   2.298
    1C        C  238   4.194   2.737   2.418
    1C        C  239   4.078   2.655   2.418
    1C        C  240   4.248   2.784   2.540
    1C        C  241   4.193   2.737   2.661
    1C        C  242   4.334   2.900   2.783
    1C        C  243   4.244   2.791   2.781
    1C        C  244   4.379   2.957   2.904
    1C        C  245   4.334   2.903   3.027
    1C        C  246   4.434   3.091   3.148
    1C        C  247   4.373   2.964   3.149
    1C        C  248   4.459   3.159   3.269
    1C        C  249   4.436   3.093   3.392
    1C        C  250   4.505   3.298   3.509
    1C        C  251   4.467   3.162   3.512
    1C        C  252   4.516   3.367   3.632
    1C        C  253   4.506   3.300   3.756
    1C        C  254   4.526   3.510   3.875
    1C        C  255   4.522   3.369   3.878
    1C        C  256   4.517   3.584   3.994
    1C        C  257   4.518   3.517   4.119
    1C        C  258   4.492   3.729   4.240
    1C        C  259   4.515   3.590   4.240
    1C        C  260   4.470   3.801   4.360
    1C        C  261   4.486   3.732   4.482
    1C        C  262   4.423   3.936   4.601
    1C        C  263   4.471   3.803   4.603
    1C        C  264   4.395   4.005   4.721
    1C        C  265   4.430   3.942   4.842
    1C        C  266   4.316   4.129   4.957
    1C        C  267   4.392   4.013   4.957
    1C        C  268   4.258   2.774   2.059
    1C        C  269   4.198   2.727   2.176
    1C        C  270   4.346   2.884   2.295
    1C        C  271   4.255   2.775   2.296
    1C        C  272   4.381   2.948   2.415
    1C        C  273   4.339   2.892   2.538
    1C        C  274   4.446   3.077   2.657
    1C        C  275   4.377   2.954   2.659
    1C        C  276   4.464   3.146   2.779
    1C        C  277   4.442   3.083   2.903
    1C        C  278   4.502   3.288   3.021
    1C        C  279   4.468   3.151   3.024
    1C        C  280   4.516   3.361   3.142
    1C        C  281   4.506   3.292   3.265
    1C        C  282   4.516   3.506   3.386
    1C        C  283   4.515   3.365   3.385
    1C        C  284   4.508   3.578   3.507
    1C        C  285   4.516   3.508   3.630
    1C        C  286   4.481   3.717   3.750
    1C        C  287   4.512   3.579   3.752
    1C        C  288   4.469   3.787   3.872
    1C        C  289   4.493   3.723   3.996
    1C        C  290   4.423   3.927   4.115
    1C        C  291   4.472   3.795   4.116
    1C        C  292   4.399   3.998   4.235
    1C        C  293   4.425   3.935   4.359
    1C        C  294   4.327   4.126   4.476
    1C        C  295   4.394   4.001   4.479
    1C        C  296   4.279   4.184   4.596
    1C        C  297   4.322   4.127   4.717
    1C        C  298   4.196   4.307   4.833
    1C        C  299   4.282   4.193   4.837
    1C        C  300   4.169   4.400   4.939
    1C        C  301   4.351   2.877   2.057
    1C        C  302   4.465   3.065   2.173
    1C        C  303   4.397   2.940   2.174
    1C        C  304   4.480   3.138   2.294
    1C        C  305   4.447   3.073   2.415
    1C        C  306   4.507   3.279   2.533
    1C        C  307   4.478   3.141   2.535
    1C        C  308   4.519   3.351   2.654
    1C        C  309   4.502   3.282   2.776
    1C        C  310   4.520   3.495   2.893
    1C        C  311   4.512   3.354   2.897
    1C        C  312   4.511   3.568   3.014
    1C        C  313   4.509   3.502   3.139
    1C        C  314   4.485   3.712   3.261
    1C        C  315   4.511   3.573   3.261
    1C        C  316   4.469   3.784   3.381
    1C        C  317   4.482   3.716   3.505
    1C        C  318   4.416   3.918   3.625
    1C        C  319   4.466   3.786   3.627
    1C        C  320   4.384   3.982   3.746
    1C        C  321   4.418   3.919   3.868
    1C        C  322   4.317   4.104   3.987
    1C        C  323   4.394   3.986   3.990
    1C        C  324   4.272   4.163   4.107
    1C        C  325   4.317   4.113   4.231
    1C        C  326   4.184   4.277   4.349
    1C        C  327   4.283   4.177   4.352
    1C        C  328   4.133   4.335   4.467
    1C        C  329   4.182   4.287   4.590
    1C        C  330   4.019   4.427   4.709
    1C        C  331   4.134   4.344   4.710
    1C        C  332   3.966   4.484   4.827
    1C        C  333   4.049   4.473   4.939
    1C        C  334   4.553   3.263   2.056
    1C        C  335   4.531   3.125   2.061
    1C        C  336   4.536   3.345   2.169
    1C        C  337   4.513   3.277   2.290
    1C        C  338   4.520   3.491   2.408
    1C        C  339   4.521   3.349   2.411
    1C        C  340   4.518   3.565   2.528
    1C        C  341   4.518   3.492   2.649
    1C        C  342   4.483   3.703   2.769
    1C        C  343   4.513   3.565   2.771
    1C        C  344   4.470   3.774   2.890
    1C        C  345   4.487   3.707   3.013
    1C        C  346   4.420   3.908   3.135
    1C        C  347   4.466   3.775   3.135
    1C        C  348   4.387   3.976   3.254
    1C        C  349   4.422   3.917   3.377
    1C        C  350   4.318   4.100   3.499
    1C        C  351   4.393   3.980   3.500
    1C        C  352   4.270   4.159   3.619
    1C        C  353   4.312   4.104   3.742
    1C        C  354   4.174   4.263   3.863
    1C        C  355   4.271   4.160   3.865
    1C        C  356   4.125   4.317   3.984
    1C        C  357   4.176   4.267   4.106
    1C        C  358   4.004   4.392   4.227
    1C        C  359   4.121   4.312   4.227
    1C        C  360   3.947   4.441   4.347
    1C        C  361   4.017   4.416   4.467
    1C        C  362   3.824   4.510   4.590
    1C        C  363   3.955   4.459   4.587
    1C        C  364   3.757   4.543   4.710
    1C        C  365   3.834   4.534   4.828
    1C        C  366   3.624   4.588   4.948
    1C        C  367   3.760   4.557   4.945
    1C        C  368   4.511   3.558   2.048
    1C        C  369   4.520   3.485   2.167
    1C        C  370   4.490   3.700   2.283
    1C        C  371   4.515   3.561   2.286
    1C        C  372   4.473   3.772   2.403
    1C        C  373   4.496   3.704   2.525
    1C        C  374   4.418   3.903   2.644
    1C        C  375   4.472   3.772   2.647
    1C        C  376   4.391   3.969   2.766
    1C        C  377   4.423   3.908   2.889
    1C        C  378   4.312   4.087   3.009
    1C        C  379   4.390   3.970   3.011
    1C        C  380   4.267   4.146   3.130
    1C        C  381   4.309   4.094   3.254
    1C        C  382   4.169   4.251   3.375
    1C        C  383   4.270   4.152   3.377
    1C        C  384   4.117   4.303   3.496
    1C        C  385   4.171   4.259   3.619
    1C        C  386   4.004   4.390   3.740
    1C        C  387   4.119   4.308   3.741
    1C        C  388   3.938   4.422   3.861
    1C        C  389   4.003   4.388   3.982
    1C        C  390   3.814   4.484   4.105
    1C        C  391   3.942   4.423   4.104
    1C        C  392   3.746   4.511   4.226
    1C        C  393   3.819   4.499   4.347
    1C        C  394   3.613   4.547   4.472
    1C        C  395   3.753   4.526   4.469
    1C        C  396   3.539   4.560   4.592
    1C        C  397   3.617   4.561   4.709
    1C        C  398   3.408   4.549   4.836
    1C        C  399   3.548   4.571   4.832
    1C        C  400   3.342   4.512   4.954
    1C        C  401   4.495   3.696   2.045
    1C        C  402   4.451   3.910   2.162
    1C        C  403   4.478   3.771   2.162
    1C        C  404   4.410   3.976   2.280
    1C        C  405   4.427   3.906   2.401
    1C        C  406   4.314   4.086   2.523
    1C        C  407   4.396   3.971   2.523
    1C        C  408   4.264   4.140   2.643
    1C        C  409   4.308   4.084   2.765
    1C        C  410   4.169   4.244   2.888
    1C        C  411   4.267   4.142   2.887
    1C        C  412   4.117   4.296   3.008
    1C        C  413   4.166   4.245   3.131
    1C        C  414   3.997   4.374   3.249
    1C        C  415   4.114   4.294   3.252
    1C        C  416   3.940   4.411   3.373
    1C        C  417   4.000   4.383   3.498
    1C        C  418   3.808   4.476   3.613
    1C        C  419   3.937   4.419   3.619
    1C        C  420   3.743   4.501   3.736
    1C        C  421   3.811   4.482   3.859
    1C        C  422   3.609   4.537   3.984
    1C        C  423   3.747   4.505   3.983
    1C        C  424   3.537   4.545   4.105
    1C        C  425   3.608   4.539   4.227
    1C        C  426   3.399   4.547   4.353
    1C        C  427   3.541   4.550   4.351
    1C        C  428   3.326   4.542   4.473
    1C        C  429   3.398   4.558   4.594
    1C        C  430   3.191   4.519   4.718
    1C        C  431   3.331   4.546   4.718
    1C        C  432   3.121   4.492   4.839
    1C        C  433   3.205   4.489   4.951
    1C        C  434   4.379   4.119   2.049
    1C        C  435   4.440   3.993   2.049
    1C        C  436   4.299   4.160   2.160
    1C        C  437   4.330   4.094   2.281
    1C        C  438   4.176   4.246   2.396
    1C        C  439   4.273   4.144   2.400
    1C        C  440   4.124   4.295   2.518
    1C        C  441   4.168   4.244   2.642
    1C        C  442   4.002   4.372   2.764
    1C        C  443   4.114   4.286   2.765
    1C        C  444   3.941   4.416   2.884
    1C        C  445   4.001   4.377   3.006
    1C        C  446   3.810   4.473   3.128
    1C        C  447   3.937   4.410   3.127
    1C        C  448   3.744   4.500   3.250
    1C        C  449   3.812   4.471   3.370
    1C        C  450   3.605   4.531   3.491
    1C        C  451   3.743   4.499   3.490
    1C        C  452   3.536   4.539   3.615
    1C        C  453   3.605   4.529   3.738
    1C        C  454   3.398   4.540   3.862
    1C        C  455   3.539   4.546   3.862
    1C        C  456   3.327   4.531   3.984
    1C        C  457   3.396   4.536   4.107
    1C        C  458   3.193   4.496   4.231
    1C        C  459   3.329   4.531   4.231
    1C        C  460   3.125   4.476   4.353
    1C        C  461   3.190   4.506   4.476
    1C        C  462   2.993   4.432   4.598
    1C        C  463   3.121   4.491   4.598
    1C        C  464   2.930   4.396   4.719
    1C        C  465   2.988   4.440   4.841
    1C        C  466   2.796   4.336   4.953
    1C        C  467   2.903   4.426   4.955
    1C        C  468   4.118   4.287   2.041
    1C        C  469   4.187   4.249   2.158
    1C        C  470   4.004   4.374   2.277
    1C        C  471   4.125   4.300   2.276
    1C        C  472   3.941   4.405   2.399
    1C        C  473   4.006   4.374   2.520
    1C        C  474   3.812   4.464   2.640
    1C        C  475   3.941   4.407   2.641
    1C        C  476   3.742   4.487   2.761
    1C        C  477   3.809   4.466   2.884
    1C        C  478   3.604   4.518   3.007
    1C        C  479   3.744   4.495   3.005
    1C        C  480   3.531   4.528   3.127
    1C        C  481   3.604   4.522   3.248
    1C        C  482   3.392   4.527   3.374
    1C        C  483   3.533   4.531   3.370
    1C        C  484   3.322   4.527   3.497
    1C        C  485   3.395   4.536   3.618
    1C        C  486   3.188   4.494   3.741
    1C        C  487   3.326   4.526   3.741
    1C        C  488   3.124   4.471   3.865
    1C        C  489   3.190   4.495   3.987
    1C        C  490   2.999   4.404   4.110
    1C        C  491   3.125   4.468   4.110
    1C        C  492   2.939   4.375   4.235
    1C        C  493   2.998   4.415   4.356
    1C        C  494   2.821   4.300   4.479
    1C        C  495   2.934   4.385   4.479
    1C        C  496   2.765   4.256   4.601
    1C        C  497   2.815   4.312   4.721
    1C        C  498   2.659   4.162   4.841
    1C        C  499   2.745   4.274   4.838
    1C        C  500   2.591   4.114   4.954
    1C        C  501   3.999   4.359   2.039
    1C        C  502   3.809   4.464   2.155
    1C        C  503   3.936   4.402   2.156
    1C        C  504   3.741   4.479   2.278
    1C        C  505   3.808   4.455   2.399
    1C        C  506   3.603   4.514   2.518
    1C        C  507   3.740   4.482   2.520
    1C        C  508   3.531   4.519   2.639
    1C        C  509   3.603   4.514   2.760
    1C        C  510   3.394   4.525   2.884
    1C        C  511   3.535   4.520   2.884
    1C        C  512   3.320   4.520   3.004
    1C        C  513   3.390   4.530   3.126
    1C        C  514   3.185   4.490   3.252
    1C        C  515   3.324   4.519   3.251
    1C        C  516   3.116   4.471   3.373
    1C        C  517   3.184   4.494   3.495
    1C        C  518   2.995   4.408   3.620
    1C        C  519   3.121   4.473   3.619
    1C        C  520   2.939   4.365   3.742
    1C        C  521   3.000   4.403   3.864
    1C        C  522   2.828   4.283   3.992
    1C        C  523   2.939   4.370   3.987
    1C        C  524   2.780   4.235   4.116
    1C        C  525   2.827   4.289   4.238
    1C        C  526   2.684   4.133   4.362
    1C        C  527   2.770   4.246   4.359
    1C        C  528   2.646   4.075   4.485
    1C        C  529   2.682   4.142   4.604
    1C        C  530   2.576   3.957   4.727
    1C        C  531   2.635   4.086   4.725
    1C        C  532   2.534   3.899   4.850
    1C        C  533   2.522   3.992   4.959
    1C        C  534   3.616   4.549   2.037
    1C        C  535   3.753   4.519   2.039
    1C        C  536   3.533   4.531   2.152
    1C        C  537   3.603   4.512   2.274
    1C        C  538   3.390   4.513   2.396
    1C        C  539   3.532   4.519   2.396
    1C        C  540   3.319   4.507   2.518
    1C        C  541   3.390   4.516   2.640
    1C        C  542   3.184   4.477   2.762
    1C        C  543   3.321   4.511   2.763
    1C        C  544   3.120   4.458   2.886
    1C        C  545   3.183   4.486   3.009
    1C        C  546   2.990   4.399   3.133
    1C        C  547   3.117   4.461   3.132
    1C        C  548   2.931   4.360   3.255
    1C        C  549   2.992   4.403   3.376
    1C        C  550   2.828   4.273   3.502
    1C        C  551   2.935   4.365   3.499
    1C        C  552   2.776   4.228   3.625
    1C        C  553   2.829   4.276   3.747
    1C        C  554   2.688   4.122   3.872
    1C        C  555   2.776   4.233   3.871
    1C        C  556   2.653   4.063   3.995
    1C        C  557   2.690   4.126   4.115
    1C        C  558   2.590   3.943   4.242
    1C        C  559   2.655   4.068   4.240
    1C        C  560   2.558   3.880   4.364
    1C        C  561   2.589   3.946   4.486
    1C        C  562   2.533   3.743   4.612
    1C        C  563   2.563   3.881   4.609
    1C        C  564   2.516   3.678   4.736
    1C        C  565   2.513   3.758   4.854
    1C        C  566   2.536   3.544   4.972
    1C        C  567   2.527   3.683   4.972
    1C        C  568   3.323   4.475   2.033
    1C        C  569   3.393   4.505   2.151
    1C        C  570   3.184   4.465   2.277
    1C        C  571   3.322   4.501   2.273
    1C        C  572   3.116   4.445   2.399
    1C        C  573   3.181   4.475   2.520
    1C        C  574   2.987   4.393   2.643
    1C        C  575   3.111   4.460   2.642
    1C        C  576   2.930   4.355   2.766
    1C        C  577   2.993   4.395   2.887
    1C        C  578   2.822   4.273   3.011
    1C        C  579   2.932   4.361   3.010
    1C        C  580   2.773   4.222   3.134
    1C        C  581   2.825   4.267   3.257
    1C        C  582   2.694   4.105   3.381
    1C        C  583   2.778   4.219   3.382
    1C        C  584   2.652   4.055   3.506
    1C        C  585   2.687   4.118   3.628
    1C        C  586   2.585   3.934   3.751
    1C        C  587   2.649   4.060   3.751
    1C        C  588   2.565   3.870   3.875
    1C        C  589   2.591   3.935   3.997
    1C        C  590   2.529   3.737   4.123
    1C        C  591   2.562   3.875   4.121
    1C        C  592   2.521   3.669   4.246
    1C        C  593   2.527   3.742   4.367
    1C        C  594   2.512   3.532   4.492
    1C        C  595   2.519   3.673   4.490
    1C        C  596   2.518   3.462   4.614
    1C        C  597   2.516   3.536   4.734
    1C        C  598   2.539   3.324   4.856
    1C        C  599   2.533   3.465   4.856
    1C        C  600   2.533   3.247   4.973
    1C        C  601   3.192   4.432   2.040
    1C        C  602   2.977   4.396   2.154
    1C        C  603   3.115   4.434   2.157
    1C        C  604   2.921   4.358   2.279
    1C        C  605   2.984   4.394   2.400
    1C        C  606   2.818   4.264   2.525
    1C        C  607   2.923   4.358   2.522
    1C        C  608   2.766   4.216   2.648
    1C        C  609   2.819   4.268   2.768
    1C        C  610   2.682   4.111   2.893
    1C        C  611   2.766   4.224   2.891
    1C        C  612   2.645   4.052   3.016
    1C        C  613   2.685   4.112   3.137
    1C        C  614   2.580   3.927   3.261
    1C        C  615   2.648   4.051   3.259
    1C        C  616   2.556   3.866   3.386
    1C        C  617   2.588   3.929   3.508
    1C        C  618   2.526   3.728   3.635
    1C        C  619   2.558   3.865   3.631
    1C        C  620   2.510   3.660   3.758
    1C        C  621   2.528   3.733   3.877
    1C        C  622   2.517   3.525   4.006
    1C        C  623   2.519   3.666   4.001
    1C        C  624   2.517   3.453   4.128
    1C        C  625   2.518   3.528   4.248
    1C        C  626   2.540   3.319   4.373
    1C        C  627   2.520   3.459   4.371
    1C        C  628   2.557   3.249   4.494
    1C        C  629   2.539   3.322   4.614
    1C        C  630   2.589   3.114   4.739
    1C        C  631   2.552   3.252   4.736
    1C        C  632   2.613   3.046   4.862
    1C        C  633   2.558   3.109   4.979
    1C        C  634   2.783   4.293   2.046
    1C        C  635   2.887   4.387   2.043
    1C        C  636   2.748   4.226   2.164
    1C        C  637   2.808   4.272   2.283
    1C        C  638   2.671   4.108   2.405
    1C        C  639   2.762   4.216   2.404
    1C        C  640   2.633   4.048   2.527
    1C        C  641   2.677   4.106   2.648
    1C        C  642   2.583   3.920   2.773
    1C        C  643   2.642   4.049   2.772
    1C        C  644   2.558   3.855   2.896
    1C        C  645   2.583   3.925   3.017
    1C        C  646   2.523   3.722   3.145
    1C        C  647   2.560   3.858   3.139
    1C        C  648   2.508   3.655   3.268
    1C        C  649   2.521   3.729   3.388
    1C        C  650   2.515   3.518   3.513
    1C        C  651   2.518   3.660   3.511
    1C        C  652   2.517   3.452   3.638
    1C        C  653   2.511   3.519   3.762
    1C        C  654   2.535   3.311   3.884
    1C        C  655   2.513   3.451   3.886
    1C        C  656   2.554   3.243   4.007
    1C        C  657   2.537   3.313   4.128
    1C        C  658   2.612   3.118   4.254
    1C        C  659   2.554   3.247   4.252
    1C        C  660   2.636   3.053   4.376
    1C        C  661   2.601   3.115   4.498
    1C        C  662   2.709   2.933   4.622
    1C        C  663   2.631   3.051   4.620
    1C        C  664   2.749   2.873   4.744
    1C        C  665   2.692   2.927   4.863
    1C        C  666   2.734   2.862   4.979
    1C        C  667   2.684   4.014   2.052
    1C        C  668   2.679   4.102   2.161
    1C        C  669   2.583   3.912   2.287
    1C        C  670   2.640   4.043   2.283
    1C        C  671   2.553   3.848   2.409
    1C        C  672   2.574   3.920   2.528
    1C        C  673   2.511   3.720   2.654
    1C        C  674   2.552   3.855   2.652
    1C        C  675   2.505   3.649   2.776
    1C        C  676   2.518   3.720   2.898
    1C        C  677   2.501   3.512   3.025
    1C        C  678   2.513   3.652   3.022
    1C        C  679   2.505   3.442   3.148
    1C        C  680   2.502   3.514   3.269
    1C        C  681   2.532   3.305   3.396
    1C        C  682   2.512   3.445   3.392
    1C        C  683   2.553   3.241   3.520
    1C        C  684   2.540   3.312   3.641
    1C        C  685   2.606   3.111   3.765
    1C        C  686   2.552   3.241   3.763
    1C        C  687   2.638   3.050   3.888
    1C        C  688   2.603   3.111   4.011
    1C        C  689   2.711   2.928   4.135
    1C        C  690   2.638   3.050   4.133
    1C        C  691   2.751   2.872   4.258
    1C        C  692   2.711   2.933   4.379
    1C        C  693   2.751   2.874   4.501
    1C        C  694   2.626   3.887   2.051
    1C        C  695   2.526   3.701   2.175
    1C        C  696   2.573   3.834   2.170
    1C        C  697   2.497   3.636   2.296
    1C        C  698   2.516   3.712   2.414
    1C        C  699   2.488   3.502   2.538
    1C        C  700   2.499   3.643   2.536
    1C        C  701   2.503   3.434   2.661
    1C        C  702   2.499   3.508   2.781
    1C        C  703   2.524   3.298   2.905
    1C        C  704   2.503   3.438   2.904
    1C        C  705   2.544   3.233   3.029
    1C        C  706   2.529   3.303   3.151
    1C        C  707   2.602   3.106   3.273
    1C        C  708   2.549   3.236   3.274
    1C        C  709   2.633   3.044   3.397
    1C        C  710   2.607   3.110   3.519
    1C        C  711   2.715   2.930   3.644
    1C        C  712   2.635   3.047   3.642
    1C        C  713   2.760   2.876   3.766
    1C        C  714   2.711   2.929   3.888
    1C        C  715   2.754   2.875   4.011
    1C        C  716   2.447   3.498   2.060
    1C        C  717   2.496   3.629   2.058
    1C        C  718   2.460   3.419   2.178
    1C        C  719   2.473   3.496   2.297
    1C        C  720   2.507   3.287   2.421
    1C        C  721   2.482   3.426   2.419
    1C        C  722   2.526   3.220   2.544
    1C        C  723   2.517   3.293   2.664
    1C        C  724   2.576   3.089   2.786
    1C        C  725   2.534   3.224   2.786
    1C        C  726   2.621   3.036   2.909
    1C        C  727   2.592   3.100   3.031
    1C        C  728   2.708   2.920   3.154
    1C        C  729   2.632   3.039   3.152
    1C        C  730   2.754   2.870   3.278
    1C        C  731   2.711   2.926   3.400
    1C        C  732   2.758   2.872   3.522
    1C        C  733   2.494   3.195   2.068
    1C        C  734   2.487   3.278   2.181
    1C        C  735   2.586   3.085   2.302
    1C        C  736   2.525   3.213   2.302
    1C        C  737   2.612   3.020   2.425
    1C        C  738   2.577   3.088   2.544
    1C        C  739   2.691   2.910   2.666
    1C        C  740   2.602   3.020   2.665
    1C        C  741   2.739   2.856   2.788
    1C        C  742   2.704   2.921   2.908
    1C        C  743   2.748   2.865   3.030
    1C        C  744   2.544   3.066   2.069
    1C        C  745   2.685   2.895   2.183
    1C        C  746   2.611   3.015   2.182
    1C        C  747   2.732   2.841   2.305
    1C        C  748   2.690   2.902   2.425
    1C        C  749   2.732   2.846   2.547
    1C        C  750   2.726   2.834   2.063
    1C        C  751   3.662   2.325   1.973
    1C        O  752   3.683   2.204   2.002
    1C        O  753   3.654   2.350   1.835
    1C        C  754   4.613   3.041   1.971
    1C        O  755   4.613   3.048   1.845
    1C        O  756   4.733   2.988   2.019
    1C        C  757   4.455   4.216   1.966
    1C        O  758   4.546   4.289   2.014
    1C        O  759   4.442   4.237   1.829
    1C        C  760   3.571   4.640   1.929
    1C        O  761   3.555   4.763   1.947
    1C        O  762   3.516   4.587   1.811
    1C        C  763   2.879   4.480   1.927
    1C        O  764   2.911   4.430   1.816
    1C        O  765   2.781   4.579   1.927
    1C        C  766   2.351   3.468   1.951
    1C        O  767   2.393   3.456   1.832
    1C        O  768   2.232   3.541   1.957
    1C        C  769   4.720   3.597   5.016
    1C        O  770   4.744   3.600   5.139
    1C        O  771   4.829   3.597   4.928
    1C        C  772   4.276   4.461   5.020
    1C        O  773   4.272   4.491   5.142
    1C        O  774   4.381   4.531   4.960
    1C        C  775   4.146   2.514   5.067
    1C        O  776   4.263   2.477   5.037
    1C        O  777   4.130   2.517   5.206
    1C        C  778   2.886   4.529   5.060
    1C        O  779   2.809   4.627   5.039
    1C        O  780   2.904   4.505   5.197
    1C        C  781   2.467   3.047   5.078
    1C        O  782   2.369   2.977   5.042
    1C        O  783   2.505   3.017   5.209
    1C        C  784   2.401   4.011   5.041
    1C        O  785   2.289   4.048   4.997
    1C        O  786   2.399   3.974   5.176
    1C        C  787   2.946   2.412   2.006
    1C        O  788   2.972   2.383   1.886
    1C        O  789   2.842   2.336   2.056
    1C        C  790   3.194   2.377   5.070
    1C        O  791   3.185   2.255   5.040
    1C        O  792   3.169   2.387   5.208
    1C        H  793   4.258   3.034   5.043
    1C        H  794   4.208   2.795   5.071
    1C        H  795   4.511   3.123   5.051
    1C        H  796   4.565   3.349   5.056
    1C        H  797   4.544   3.803   5.049
    1C        H  798   4.437   3.986   5.050
    1C        H  799   4.242   4.142   5.033
    1C        H  800   4.011   4.489   5.038
    1C        H  801   3.816   4.605   5.023
    1C        H  802   3.599   4.665   5.017
    1C        H  803   3.398   4.468   5.034
    1C        H  804   3.162   4.467   5.046
    1C        H  805   3.881   2.514   5.072
    1C        H  806   3.666   2.527   5.071
    1C        H  807   3.003   2.561   5.067
    1C        H  808   3.439   2.453   5.073
    1C        H  809   2.852   2.710   5.071
    1C        H  810   2.691   2.882   5.075
    1C        H  811   2.523   3.294   5.068
    1C        H  812   2.498   3.497   5.060
    1C        H  813   2.566   3.735   5.057
    1C        H  814   2.627   4.144   5.050
    1C        H  815   2.760   4.301   5.048
    1C        H  816   2.658   2.835   1.981
    1C        H  817   2.841   2.685   1.975
    1C        H  818   3.199   2.408   1.993
    1C        H  819   3.425   2.435   1.974
    1C        H  820   3.828   2.558   1.979
    1C        H  821   4.072   2.582   1.973
    1C        H  822   4.250   2.715   1.970
    1C        H  823   4.388   2.901   1.960
    1C        H  824   4.602   3.303   1.970
    1C        H  825   4.517   3.506   1.954
    1C        H  826   4.527   3.744   1.954
    1C        H  827   3.812   4.570   1.967
    1C        H  828   3.932   4.325   1.963
    1C        H  829   4.160   4.259   1.947
    1C        H  830   4.520   3.986   1.978
    1C        H  831   2.588   3.858   1.956
    1C        H  832   2.769   4.023   1.988
    1C        H  833   2.710   4.302   1.969
    1C        H  834   3.341   4.537   1.947
    1C        H  835   3.166   4.351   1.975
    1C        H  836   2.496   2.992   2.009
    1C        H  837   2.458   3.231   1.974
    1C        H  838   2.547   3.656   1.968
    2V3OU   H29  839   2.801   3.544   2.208
    2V3OU   C27  840   2.783   3.499   2.309
    2V3OU   H27  841   2.731   3.561   2.386
    2V3OU   H28  842   2.734   3.401   2.285
    2V3OU   O11  843   2.908   3.472   2.374
    2V3OU   C15  844   2.921   3.396   2.488
    2V3OU   C13  845   3.046   3.367   2.546
    2V3OU   C14  846   3.074   3.264   2.637
    2V3OU   C16  847   2.969   3.182   2.678
    2V3OU    H6  848   2.987   3.101   2.750
    2V3OU   C12  849   3.212   3.226   2.675
    2V3OU    O2  850   3.234   3.116   2.729
    2V3OU   C10  851   3.322   3.308   2.623
    2V3OU    C8  852   3.450   3.264   2.650
    2V3OU   O10  853   3.485   3.148   2.711
    2V3OU   H26  854   3.395   3.115   2.727
    2V3OU    C6  855   3.561   3.342   2.605
    2V3OU    C5  856   3.534   3.463   2.540
    2V3OU    C4  857   3.701   3.290   2.600
    2V3OU    H4  858   3.723   3.221   2.687
    2V3OU    H5  859   3.712   3.222   2.510
    2V3OU    C2  860   3.812   3.394   2.599
    2V3OU    O6  861   3.804   3.471   2.719
    2V3OU   H21  862   3.758   3.548   2.684
    2V3OU    C3  863   3.779   3.497   2.490
    2V3OU    H2  864   3.866   3.567   2.478
    2V3OU    H3  865   3.774   3.436   2.396
    2V3OU   C25  866   3.948   3.325   2.583
    2V3OU    O7  867   3.999   3.292   2.476
    2V3OU   C26  868   4.026   3.290   2.708
    2V3OU   H22  869   4.067   3.380   2.762
    2V3OU   H23  870   4.110   3.220   2.681
    2V3OU    O8  871   3.964   3.202   2.799
    2V3OU   H24  872   3.924   3.258   2.868
    2V3OU    C1  873   3.643   3.561   2.508
    2V3OU    H1  874   3.617   3.615   2.412
    2V3OU    O3  875   3.660   3.651   2.618
    2V3OU   C19  876   3.618   3.787   2.602
    2V3OU    H9  877   3.520   3.798   2.547
    2V3OU    O4  878   3.713   3.845   2.515
    2V3OU   C20  879   3.844   3.871   2.566
    2V3OU   H10  880   3.893   3.769   2.573
    2V3OU   C24  881   3.606   3.851   2.740
    2V3OU   H16  882   3.539   3.782   2.797
    2V3OU   H17  883   3.555   3.950   2.734
    2V3OU   C23  884   3.748   3.868   2.795
    2V3OU   H15  885   3.788   3.763   2.811
    2V3OU    N1  886   3.734   3.950   2.914
    2V3OU   H19  887   3.804   3.920   2.980
    2V3OU   H20  888   3.646   3.932   2.958
    2V3OU   C21  889   3.843   3.947   2.699
    2V3OU   H11  890   3.945   3.928   2.742
    2V3OU    O5  891   3.824   4.087   2.690
    2V3OU   H18  892   3.775   4.101   2.772
    2V3OU   C22  893   3.912   3.949   2.455
    2V3OU   H12  894   3.851   4.041   2.435
    2V3OU   H13  895   3.910   3.891   2.359
    2V3OU   H14  896   4.020   3.964   2.482
    2V3OU   C11  897   3.153   3.463   2.516
    2V3OU    O1  898   3.126   3.582   2.487
    2V3OU    C9  899   3.293   3.425   2.547
    2V3OU    C7  900   3.401   3.500   2.503
    2V3OU    O9  901   3.382   3.614   2.426
    2V3OU   H25  902   3.288   3.623   2.408
    2V3OU   C17  903   2.820   3.308   2.532
    2V3OU    H7  904   2.720   3.340   2.502
    2V3OU   C18  905   2.843   3.209   2.627
    2V3OU    H8  906   2.770   3.167   2.698
    3SOL     OW  907   3.095   5.198   0.783
    3SOL    HW1  908   3.074   5.275   0.724
    3SOL    HW2  909   3.079   5.224   0.879
    4SOL     OW  910   0.350   6.223   2.101
    4SOL    HW1  911   0.368   6.286   2.024
    4SOL    HW2  912   0.359   6.273   2.187
    5SOL     OW  913   4.252   1.065   2.799
    5SOL    HW1  914   4.217   1.072   2.705
    5SOL    HW2  915   4.175   1.049   2.861
    6SOL     OW  916   3.895   0.909   1.219
    6SOL    HW1  917   3.828   0.979   1.193
    6SOL    HW2  918   3.847   0.833   1.263
    7SOL     OW  919   6.790   3.331   2.239
    7SOL    HW1  920   6.776   3.232   2.244
    7SOL    HW2  921   6.786   3.369   2.331
    8SOL     OW  922   2.970   0.479   6.921
    8SOL    HW1  923   2.882   0.525   6.930
    8SOL    HW2  924   2.956   0.391   6.876
    9SOL     OW  925   5.615   0.206   6.264
    9SOL    HW1  926   5.547   0.160   6.206
    9SOL    HW2  927   5.704   0.201   6.221
   10SOL     OW  928   1.403   5.188   6.285
   10SOL    HW1  929   1.443   5.243   6.358
   10SOL    HW2  930   1.376   5.099   6.321
   11SOL     OW  931   2.914   0.168   5.868
   11SOL    HW1  932   2.885   0.096   5.930
   11SOL    HW2  933   3.011   0.156   5.846
   12SOL     OW  934   3.585   5.917   2.926
   12SOL    HW1  935   3.652   5.941   2.855
   12SOL    HW2  936   3.540   5.831   2.901
   13SOL     OW  937   4.308   6.261   3.984
   13SOL    HW1  938   4.327   6.333   3.918
   13SOL    HW2  939   4.252   6.190   3.941
   14SOL     OW  940   3.285   6.019   5.885
   14SOL    HW1  941   3.377   6.059   5.879
   14SOL    HW2  942   3.230   6.073   5.948
   15SOL     OW  943   1.878   6.644   1.863
   15SOL    HW1  944   1.961   6.635   1.809
   15SOL    HW2  945   1.809   6.692   1.810
   16SOL     OW  946   4.962   2.995   5.573
   16SOL    HW1  947   4.928   2.928   5.638
   16SOL    HW2  948   5.002   2.948   5.494
   17SOL     OW  949   5.112   5.710   6.041
   17SOL    HW1  950   5.107   5.641   5.968
   17SOL    HW2  951   5.158   5.792   6.007
   18SOL     OW  952   3.316   1.196   5.781
   18SOL    HW1  953   3.375   1.261   5.733
   18SOL    HW2  954   3.370   1.117   5.810
   19SOL     OW  955   0.552   1.155   3.379
   19SOL    HW1  956   0.538   1.238   3.324
   19SOL    HW2  957   0.636   1.109   3.351
   20SOL     OW  958   5.739   2.569   4.483
   20SOL    HW1  959   5.703   2.503   4.417
   20SOL    HW2  960   5.795   2.521   4.550
   21SOL     OW  961   3.782   2.143   2.495
   21SOL    HW1  962   3.802   2.147   2.398
   21SOL    HW2  963   3.685   2.163   2.511
   22SOL     OW  964   1.999   6.370   0.227
   22SOL    HW1  965   2.056   6.302   0.272
   22SOL    HW2  966   1.988   6.346   0.131
   23SOL     OW  967   5.370   6.120   3.361
   23SOL    HW1  968   5.346   6.028   3.330
   23SOL    HW2  969   5.424   6.113   3.446
   24SOL     OW  970   4.591   0.738   3.598
   24SOL    HW1  971   4.561   0.687   3.678
   24SOL    HW2  972   4.539   0.708   3.518
   25SOL     OW  973   2.923   0.611   5.013
   25SOL    HW1  974   2.995   0.562   4.963
   25SOL    HW2  975   2.894   0.555   5.091
   26SOL     OW  976   6.950   1.083   0.320
   26SOL    HW1  977   6.913   1.002   0.275
   26SOL    HW2  978   0.022   1.061   0.361
   27SOL     OW  979   1.021   2.197   2.447
   27SOL    HW1  980   1.094   2.260   2.474
   27SOL    HW2  981   0.935   2.247   2.438
   28SOL     OW  982   2.831   1.938   5.548
   28SOL    HW1  983   2.927   1.959   5.531
   28SOL    HW2  984   2.774   1.988   5.483
   29SOL     OW  985   5.736   1.926   2.131
   29SOL    HW1  986   5.663   1.938   2.198
   29SOL    HW2  987   5.752   2.012   2.082
   30SOL     OW  988   4.213   1.167   4.383
   30SOL    HW1  989   4.159   1.171   4.466
   30SOL    HW2  990   4.153   1.150   4.304
   31SOL     OW  991   1.259   2.638   6.684
   31SOL    HW1  992   1.233   2.717   6.739
   31SOL    HW2  993   1.320   2.667   6.610
   32SOL     OW  994   0.522   1.422   2.441
   32SOL    HW1  995   0.559   1.355   2.377
   32SOL    HW2  996   0.591   1.491   2.460
   33SOL     OW  997   2.194   4.510   6.079
   33SOL    HW1  998   2.228   4.586   6.023
   33SOL    HW2  999   2.266   4.481   6.142
   34SOL     OW 1000   2.789   0.606   4.288
   34SOL    HW1 1001   2.766   0.589   4.384
   34SOL    HW2 1002   2.710   0.647   4.242
   35SOL     OW 1003   3.501   3.741   7.006
   35SOL    HW1 1004   3.596   3.724   6.979
   35SOL    HW2 1005   3.445   3.756   6.924
   36SOL     OW 1006   6.044   1.088   4.735
   36SOL    HW1 1007   6.121   1.145   4.763
   36SOL    HW2 1008   6.074   1.025   4.663
   37SOL     OW 1009   1.195   1.727   0.683
   37SOL    HW1 1010   1.144   1.798   0.635
   37SOL    HW2 1011   1.240   1.667   0.617
   38SOL     OW 1012   6.599   4.710   2.337
   38SOL    HW1 1013   6.688   4.666   2.340
   38SOL    HW2 1014   6.610   4.809   2.336
   39SOL     OW 1015   6.937   4.732   6.943
   39SOL    HW1 1016   7.011   4.701   7.003
   39SOL    HW2 1017   6.893   4.812   6.983
   40SOL     OW 1018   5.180   1.986   0.400
   40SOL    HW1 1019   5.117   2.012   0.473
   40SOL    HW2 1020   5.261   2.046   0.403
   41SOL     OW 1021   0.039   5.893   3.763
   41SOL    HW1 1022   0.030   5.798   3.732
   41SOL    HW2 1023   6.978   5.947   3.731
   42SOL     OW 1024   2.856   5.175   5.508
   42SOL    HW1 1025   2.864   5.244   5.580
   42SOL    HW2 1026   2.917   5.099   5.527
   43SOL     OW 1027   6.088   6.749   5.412
   43SOL    HW1 1028   6.012   6.746   5.477
   43SOL    HW2 1029   6.166   6.699   5.450
   44SOL     OW 1030   4.433   2.002   6.220
   44SOL    HW1 1031   4.384   1.953   6.292
   44SOL    HW2 1032   4.501   1.942   6.178
   45SOL     OW 1033   4.090   6.238   3.093
   45SOL    HW1 1034   4.063   6.178   3.018
   45SOL    HW2 1035   4.010   6.287   3.128
   46SOL     OW 1036   0.899   3.007   3.127
   46SOL    HW1 1037   0.871   2.925   3.079
   46SOL    HW2 1038   0.913   3.082   3.061
   47SOL     OW 1039   4.568   4.193   0.672
   47SOL    HW1 1040   4.564   4.210   0.574
   47SOL    HW2 1041   4.598   4.277   0.719
   48SOL     OW 1042   0.046   3.302   5.798
   48SOL    HW1 1043   0.119   3.254   5.749
   48SOL    HW2 1044   0.036   3.263   5.889
   49SOL     OW 1045   5.161   4.134   1.642
   49SOL    HW1 1046   5.110   4.050   1.624
   49SOL    HW2 1047   5.233   4.116   1.709
   50SOL     OW 1048   5.495   0.704   4.835
   50SOL    HW1 1049   5.412   0.655   4.810
   50SOL    HW2 1050   5.508   0.700   4.934
   51SOL     OW 1051   2.003   6.885   3.230
   51SOL    HW1 1052   1.929   6.864   3.295
   51SOL    HW2 1053   2.088   6.845   3.263
   52SOL     OW 1054   6.123   2.575   2.711
   52SOL    HW1 1055   6.110   2.528   2.798
   52SOL    HW2 1056   6.220   2.593   2.697
   53SOL     OW 1057   3.718   6.687   4.137
   53SOL    HW1 1058   3.639   6.749   4.132
   53SOL    HW2 1059   3.780   6.718   4.209
   54SOL     OW 1060   3.487   5.005   0.922
   54SOL    HW1 1061   3.572   4.958   0.898
   54SOL    HW2 1062   3.480   5.011   1.022
   55SOL     OW 1063   2.568   2.127   6.645
   55SOL    HW1 1064   2.591   2.067   6.569
   55SOL    HW2 1065   2.493   2.188   6.617
   56SOL     OW 1066   0.083   6.826   0.960
   56SOL    HW1 1067   0.144   6.766   0.908
   56SOL    HW2 1068   0.011   6.770   1.003
   57SOL     OW 1069   5.227   1.154   1.107
   57SOL    HW1 1070   5.241   1.142   1.009
   57SOL    HW2 1071   5.199   1.067   1.148
   58SOL     OW 1072   6.856   6.536   5.825
   58SOL    HW1 1073   6.760   6.550   5.849
   58SOL    HW2 1074   6.866   6.538   5.725
   59SOL     OW 1075   0.745   1.559   5.119
   59SOL    HW1 1076   0.743   1.566   5.218
   59SOL    HW2 1077   0.827   1.509   5.091
   60SOL     OW 1078   5.457   2.542   5.042
   60SOL    HW1 1079   5.534   2.552   5.104
   60SOL    HW2 1080   5.487   2.495   4.958
   61SOL     OW 1081   5.638   2.225   4.592
   61SOL    HW1 1082   5.671   2.295   4.655
   61SOL    HW2 1083   5.709   2.157   4.577
   62SOL     OW 1084   1.137   1.243   1.664
   62SOL    HW1 1085   1.063   1.240   1.597
   62SOL    HW2 1086   1.105   1.291   1.746
   63SOL     OW 1087   5.138   1.109   3.313
   63SOL    HW1 1088   5.235   1.117   3.291
   63SOL    HW2 1089   5.091   1.056   3.241
   64SOL     OW 1090   6.883   3.503   5.847
   64SOL    HW1 1091   6.934   3.420   5.824
   64SOL    HW2 1092   6.894   3.523   5.944
   65SOL     OW 1093   0.333   4.982   6.528
   65SOL    HW1 1094   0.271   4.953   6.601
   65SOL    HW2 1095   0.280   5.026   6.455
   66SOL     OW 1096   4.017   1.418   5.542
   66SOL    HW1 1097   4.105   1.463   5.558
   66SOL    HW2 1098   3.985   1.377   5.628
   67SOL     OW 1099   5.291   4.306   5.678
   67SOL    HW1 1100   5.271   4.282   5.583
   67SOL    HW2 1101   5.389   4.323   5.688
   68SOL     OW 1102   5.972   1.061   6.646
   68SOL    HW1 1103   5.978   1.098   6.553
   68SOL    HW2 1104   5.884   1.017   6.659
   69SOL     OW 1105   0.792   3.454   5.909
   69SOL    HW1 1106   0.738   3.500   5.979
   69SOL    HW2 1107   0.780   3.500   5.821
   70SOL     OW 1108   5.465   4.071   4.966
   70SOL    HW1 1109   5.399   4.021   5.022
   70SOL    HW2 1110   5.514   4.007   4.907
   71SOL     OW 1111   4.558   1.520   3.292
   71SOL    HW1 1112   4.468   1.477   3.298
   71SOL    HW2 1113   4.571   1.581   3.370
   72SOL     OW 1114   1.807   6.458   4.409
   72SOL    HW1 1115   1.880   6.521   4.380
   72SOL    HW2 1116   1.844   6.366   4.417
   73SOL     OW 1117   3.839   0.662   1.303
   73SOL    HW1 1118   3.889   0.660   1.390
   73SOL    HW2 1119   3.893   0.616   1.233
   74SOL     OW 1120   4.360   6.710   6.918
   74SOL    HW1 1121   4.361   6.786   6.854
   74SOL    HW2 1122   4.398   6.739   7.006
   75SOL     OW 1123   4.705   0.729   0.852
   75SOL    HW1 1124   4.798   0.757   0.828
   75SOL    HW2 1125   4.709   0.650   0.914
   76SOL     OW 1126   3.178   3.393   1.125
   76SOL    HW1 1127   3.085   3.428   1.110
   76SOL    HW2 1128   3.173   3.309   1.180
   77SOL     OW 1129   0.374   6.854   3.408
   77SOL    HW1 1130   0.282   6.855   3.447
   77SOL    HW2 1131   0.426   6.778   3.446
   78SOL     OW 1132   6.282   1.846   6.965
   78SOL    HW1 1133   6.219   1.923   6.955
   78SOL    HW2 1134   6.336   1.858   0.031
   79SOL     OW 1135   3.251   6.052   0.833
   79SOL    HW1 1136   3.324   6.075   0.897
   79SOL    HW2 1137   3.179   6.002   0.881
   80SOL     OW 1138   5.177   1.282   4.548
   80SOL    HW1 1139   5.248   1.214   4.530
   80SOL    HW2 1140   5.111   1.282   4.473
   81SOL     OW 1141   1.984   7.000   2.687
   81SOL    HW1 1142   1.923   0.058   2.658
   81SOL    HW2 1143   1.975   6.924   2.623
   82SOL     OW 1144   6.096   4.611   1.082
   82SOL    HW1 1145   6.085   4.585   1.178
   82SOL    HW2 1146   6.174   4.673   1.073
   83SOL     OW 1147   0.563   0.885   0.181
   83SOL    HW1 1148   0.597   0.801   0.224
   83SOL    HW2 1149   0.466   0.896   0.204
   84SOL     OW 1150   6.077   2.980   3.138
   84SOL    HW1 1151   6.066   2.893   3.186
   84SOL    HW2 1152   6.114   2.962   3.046
   85SOL     OW 1153   1.606   1.115   4.132
   85SOL    HW1 1154   1.658   1.143   4.213
   85SOL    HW2 1155   1.613   1.187   4.063
   86SOL     OW 1156   6.825   1.170   5.104
   86SOL    HW1 1157   6.840   1.268   5.121
   86SOL    HW2 1158   6.793   1.126   5.188
   87SOL     OW 1159   4.707   3.732   0.993
   87SOL    HW1 1160   4.798   3.691   0.992
   87SOL    HW2 1161   4.640   3.664   0.964
   88SOL     OW 1162   3.422   1.589   5.289
   88SOL    HW1 1163   3.418   1.531   5.370
   88SOL    HW2 1164   3.482   1.668   5.307
   89SOL     OW 1165   1.439   2.689   5.778
   89SOL    HW1 1166   1.489   2.746   5.843
   89SOL    HW2 1167   1.497   2.612   5.749
   90SOL     OW 1168   3.325   5.252   2.723
   90SOL    HW1 1169   3.328   5.267   2.624
   90SOL    HW2 1170   3.339   5.155   2.743
   91SOL     OW 1171   5.608   4.208   5.357
   91SOL    HW1 1172   5.641   4.293   5.317
   91SOL    HW2 1173   5.675   4.136   5.341
   92SOL     OW 1174   4.395   4.834   0.688
   92SOL    HW1 1175   4.354   4.896   0.622
   92SOL    HW2 1176   4.363   4.741   0.671
   93SOL     OW 1177   3.305   4.236   0.313
   93SOL    HW1 1178   3.212   4.213   0.285
   93SOL    HW2 1179   3.317   4.215   0.410
   94SOL     OW 1180   2.186   5.775   6.571
   94SOL    HW1 1181   2.141   5.686   6.583
   94SOL    HW2 1182   2.199   5.818   6.661
   95SOL     OW 1183   0.835   0.652   3.772
   95SOL    HW1 1184   0.847   0.581   3.841
   95SOL    HW2 1185   0.863   0.618   3.683
   96SOL     OW 1186   3.373   0.843   4.914
   96SOL    HW1 1187   3.367   0.795   5.001
   96SOL    HW2 1188   3.350   0.781   4.839
   97SOL     OW 1189   2.347   3.238   5.892
   97SOL    HW1 1190   2.418   3.225   5.823
   97SOL    HW2 1191   2.389   3.272   5.976
   98SOL     OW 1192   0.455   3.357   0.686
   98SOL    HW1 1193   0.536   3.359   0.745
   98SOL    HW2 1194   0.479   3.317   0.598
   99SOL     OW 1195   3.662   3.186   1.255
   99SOL    HW1 1196   3.729   3.147   1.191
   99SOL    HW2 1197   3.689   3.163   1.349
  100SOL     OW 1198   7.015   6.919   5.022
  100SOL    HW1 1199   0.052   6.939   5.104
  100SOL    HW2 1200   6.948   6.848   5.043
  101SOL     OW 1201   1.545   5.129   2.035
  101SOL    HW1 1202   1.607   5.207   2.041
  101SOL    HW2 1203   1.495   5.120   2.122
  102SOL     OW 1204   4.560   5.785   2.110
  102SOL    HW1 1205   4.486   5.771   2.045
  102SOL    HW2 1206   4.643   5.742   2.077
  103SOL     OW 1207   2.136   1.984   1.712
  103SOL    HW1 1208   2.162   2.050   1.782
  103SOL    HW2 1209   2.039   1.998   1.688
  104SOL     OW 1210   1.354   5.531   2.498
  104SOL    HW1 1211   1.330   5.615   2.450
  104SOL    HW2 1212   1.303   5.454   2.460
  105SOL     OW 1213   6.601   2.337   6.872
  105SOL    HW1 1214   6.640   2.257   6.917
  105SOL    HW2 1215   6.582   2.408   6.939
  106SOL     OW 1216   3.435   6.394   4.655
  106SOL    HW1 1217   3.384   6.476   4.629
  106SOL    HW2 1218   3.385   6.313   4.626
  107SOL     OW 1219   1.343   1.020   1.419
  107SOL    HW1 1220   1.340   0.940   1.359
  107SOL    HW2 1221   1.405   1.004   1.495
  108SOL     OW 1222   2.384   6.603   5.744
  108SOL    HW1 1223   2.478   6.612   5.710
  108SOL    HW2 1224   2.358   6.507   5.742
  109SOL     OW 1225   0.438   0.390   1.695
  109SOL    HW1 1226   0.535   0.367   1.697
  109SOL    HW2 1227   0.384   0.307   1.678
  110SOL     OW 1228   3.120   5.781   4.808
  110SOL    HW1 1229   3.093   5.770   4.712
  110SOL    HW2 1230   3.052   5.738   4.867
  111SOL     OW 1231   1.884   1.077   4.651
  111SOL    HW1 1232   1.970   1.038   4.620
  111SOL    HW2 1233   1.888   1.093   4.750
  112SOL     OW 1234   3.566   6.313   6.446
  112SOL    HW1 1235   3.474   6.332   6.413
  112SOL    HW2 1236   3.624   6.284   6.370
  113SOL     OW 1237   0.271   5.433   3.349
  113SOL    HW1 1238   0.367   5.413   3.367
  113SOL    HW2 1239   0.228   5.353   3.307
  114SOL     OW 1240   1.169   0.121   2.467
  114SOL    HW1 1241   1.192   0.085   2.557
  114SOL    HW2 1242   1.073   0.150   2.466
  115SOL     OW 1243   4.567   1.528   2.995
  115SOL    HW1 1244   4.533   1.580   3.074
  115SOL    HW2 1245   4.666   1.522   3.000
  116SOL     OW 1246   6.218   5.533   2.247
  116SOL    HW1 1247   6.253   5.549   2.340
  116SOL    HW2 1248   6.129   5.489   2.253
  117SOL     OW 1249   1.878   2.410   0.626
  117SOL    HW1 1250   1.928   2.324   0.616
  117SOL    HW2 1251   1.783   2.397   0.595
  118SOL     OW 1252   1.657   0.808   2.420
  118SOL    HW1 1253   1.606   0.869   2.480
  118SOL    HW2 1254   1.754   0.815   2.439
  119SOL     OW 1255   0.512   0.388   0.118
  119SOL    HW1 1256   0.527   0.315   0.185
  119SOL    HW2 1257   0.600   0.421   0.084
  120SOL     OW 1258   5.492   6.959   6.576
  120SOL    HW1 1259   5.552   6.982   6.653
  120SOL    HW2 1260   5.481   0.023   6.517
  121SOL     OW 1261   1.063   3.389   5.939
  121SOL    HW1 1262   0.973   3.426   5.917
  121SOL    HW2 1263   1.114   3.372   5.855
  122SOL     OW 1264   1.882   3.754   5.808
  122SOL    HW1 1265   1.810   3.717   5.867
  122SOL    HW2 1266   1.940   3.680   5.775
  123SOL     OW 1267   0.568   1.040   2.681
  123SOL    HW1 1268   0.498   0.999   2.623
  123SOL    HW2 1269   0.543   1.134   2.703
  124SOL     OW 1270   3.487   2.971   0.423
  124SOL    HW1 1271   3.508   2.875   0.405
  124SOL    HW2 1272   3.483   2.986   0.522
  125SOL     OW 1273   3.258   2.040   0.437
  125SOL    HW1 1274   3.339   2.096   0.421
  125SOL    HW2 1275   3.280   1.967   0.502
  126SOL     OW 1276   2.139   4.347   0.710
  126SOL    HW1 1277   2.132   4.268   0.772
  126SOL    HW2 1278   2.198   4.324   0.633
  127SOL     OW 1279   0.731   5.095   6.708
  127SOL    HW1 1280   0.808   5.066   6.765
  127SOL    HW2 1281   0.686   5.014   6.669
  128SOL     OW 1282   5.216   2.540   1.331
  128SOL    HW1 1283   5.169   2.468   1.382
  128SOL    HW2 1284   5.292   2.575   1.386
  129SOL     OW 1285   2.474   3.413   6.066
  129SOL    HW1 1286   2.460   3.460   6.153
  129SOL    HW2 1287   2.476   3.480   5.992
  130SOL     OW 1288   1.485   1.731   4.589
  130SOL    HW1 1289   1.576   1.709   4.554
  130SOL    HW2 1290   1.491   1.749   4.687
  131SOL     OW 1291   4.800   0.800   3.252
  131SOL    HW1 1292   4.760   0.853   3.327
  131SOL    HW2 1293   4.728   0.748   3.206
  132SOL     OW 1294   3.109   3.052   1.706
  132SOL    HW1 1295   3.158   2.996   1.773
  132SOL    HW2 1296   3.023   3.083   1.745
  133SOL     OW 1297   5.314   0.352   4.419
  133SOL    HW1 1298   5.265   0.434   4.450
  133SOL    HW2 1299   5.402   0.347   4.466
  134SOL     OW 1300   6.725   0.450   2.445
  134SOL    HW1 1301   6.773   0.530   2.410
  134SOL    HW2 1302   6.636   0.478   2.482
  135SOL     OW 1303   5.628   3.443   3.613
  135SOL    HW1 1304   5.668   3.404   3.531
  135SOL    HW2 1305   5.627   3.543   3.606
  136SOL     OW 1306   1.896   4.819   6.306
  136SOL    HW1 1307   1.881   4.771   6.219
  136SOL    HW2 1308   1.819   4.880   6.324
  137SOL     OW 1309   5.720   2.549   3.171
  137SOL    HW1 1310   5.708   2.586   3.263
  137SOL    HW2 1311   5.802   2.492   3.168
  138SOL     OW 1312   1.372   4.641   2.595
  138SOL    HW1 1313   1.387   4.681   2.686
  138SOL    HW2 1314   1.291   4.582   2.598
  139SOL     OW 1315   1.546   0.250   5.263
  139SOL    HW1 1316   1.469   0.277   5.321
  139SOL    HW2 1317   1.516   0.243   5.169
  140SOL     OW 1318   1.235   6.422   3.896
  140SOL    HW1 1319   1.295   6.351   3.859
  140SOL    HW2 1320   1.178   6.458   3.822
  141SOL     OW 1321   0.197   2.330   5.173
  141SOL    HW1 1322   0.246   2.272   5.238
  141SOL    HW2 1323   0.260   2.363   5.103
  142SOL     OW 1324   1.518   3.674   0.980
  142SOL    HW1 1325   1.436   3.717   1.017
  142SOL    HW2 1326   1.505   3.657   0.882
  143SOL     OW 1327   5.714   4.310   0.366
  143SOL    HW1 1328   5.715   4.253   0.448
  143SOL    HW2 1329   5.770   4.267   0.295
  144SOL     OW 1330   1.484   4.784   6.100
  144SOL    HW1 1331   1.490   4.691   6.137
  144SOL    HW2 1332   1.567   4.805   6.048
  145SOL     OW 1333   0.637   5.660   0.640
  145SOL    HW1 1334   0.730   5.676   0.674
  145SOL    HW2 1335   0.632   5.568   0.600
  146SOL     OW 1336   4.802   0.452   6.123
  146SOL    HW1 1337   4.849   0.517   6.064
  146SOL    HW2 1338   4.723   0.413   6.074
  147SOL     OW 1339   5.678   3.448   6.835
  147SOL    HW1 1340   5.616   3.406   6.769
  147SOL    HW2 1341   5.722   3.377   6.889
  148SOL     OW 1342   6.713   5.491   0.872
  148SOL    HW1 1343   6.676   5.572   0.825
  148SOL    HW2 1344   6.652   5.467   0.948
  149SOL     OW 1345   3.887   2.128   4.015
  149SOL    HW1 1346   3.802   2.103   4.062
  149SOL    HW2 1347   3.960   2.138   4.082
  150SOL     OW 1348   5.931   6.861   1.013
  150SOL    HW1 1349   5.957   6.839   1.107
  150SOL    HW2 1350   5.972   6.949   0.987
  151SOL     OW 1351   3.094   2.640   1.119
  151SOL    HW1 1352   3.150   2.689   1.186
  151SOL    HW2 1353   3.150   2.618   1.039
  152SOL     OW 1354   0.525   0.753   1.609
  152SOL    HW1 1355   0.458   0.824   1.584
  152SOL    HW2 1356   0.545   0.697   1.529
  153SOL     OW 1357   2.833   0.887   3.020
  153SOL    HW1 1358   2.875   0.942   2.948
  153SOL    HW2 1359   2.904   0.837   3.070
  154SOL     OW 1360   0.697   3.071   2.028
  154SOL    HW1 1361   0.606   3.047   1.994
  154SOL    HW2 1362   0.708   3.170   2.025
  155SOL     OW 1363   0.582   1.715   3.949
  155SOL    HW1 1364   0.615   1.716   4.043
  155SOL    HW2 1365   0.551   1.807   3.923
  156SOL     OW 1366   6.766   1.244   0.461
  156SOL    HW1 1367   6.821   1.285   0.534
  156SOL    HW2 1368   6.827   1.206   0.391
  157SOL     OW 1369   5.252   3.440   2.025
  157SOL    HW1 1370   5.301   3.401   2.103
  157SOL    HW2 1371   5.261   3.378   1.946
  158SOL     OW 1372   1.739   4.414   2.554
  158SOL    HW1 1373   1.806   4.341   2.572
  158SOL    HW2 1374   1.782   4.485   2.498
  159SOL     OW 1375   4.863   3.858   2.633
  159SOL    HW1 1376   4.928   3.916   2.583
  159SOL    HW2 1377   4.774   3.904   2.638
  160SOL     OW 1378   5.374   5.857   0.977
  160SOL    HW1 1379   5.316   5.776   0.963
  160SOL    HW2 1380   5.408   5.858   1.071
  161SOL     OW 1381   1.734   6.234   4.008
  161SOL    HW1 1382   1.823   6.253   4.050
  161SOL    HW2 1383   1.689   6.320   3.985
  162SOL     OW 1384   3.570   6.195   0.524
  162SOL    HW1 1385   3.571   6.247   0.609
  162SOL    HW2 1386   3.656   6.209   0.475
  163SOL     OW 1387   5.916   5.608   1.197
  163SOL    HW1 1388   5.874   5.517   1.202
  163SOL    HW2 1389   5.888   5.653   1.113
  164SOL     OW 1390   0.083   4.086   2.022
  164SOL    HW1 1391   0.168   4.090   2.074
  164SOL    HW2 1392   0.089   4.146   1.943
  165SOL     OW 1393   5.230   3.412   1.534
  165SOL    HW1 1394   5.136   3.443   1.546
  165SOL    HW2 1395   5.231   3.327   1.481
  166SOL     OW 1396   0.933   3.680   2.699
  166SOL    HW1 1397   0.893   3.667   2.608
  166SOL    HW2 1398   0.861   3.675   2.768
  167SOL     OW 1399   5.213   2.790   6.679
  167SOL    HW1 1400   5.183   2.827   6.767
  167SOL    HW2 1401   5.284   2.848   6.640
  168SOL     OW 1402   3.049   3.461   1.491
  168SOL    HW1 1403   3.126   3.402   1.515
  168SOL    HW2 1404   3.027   3.449   1.394
  169SOL     OW 1405   5.447   2.100   1.733
  169SOL    HW1 1406   5.390   2.039   1.788
  169SOL    HW2 1407   5.414   2.194   1.742
  170SOL     OW 1408   0.694   0.492   3.036
  170SOL    HW1 1409   0.663   0.558   3.104
  170SOL    HW2 1410   0.740   0.539   2.961
  171SOL     OW 1411   3.195   4.719   6.600
  171SOL    HW1 1412   3.156   4.652   6.538
  171SOL    HW2 1413   3.193   4.684   6.693
  172SOL     OW 1414   6.363   1.301   2.928
  172SOL    HW1 1415   6.424   1.272   3.002
  172SOL    HW2 1416   6.319   1.221   2.887
  173SOL     OW 1417   5.667   1.305   4.112
  173SOL    HW1 1418   5.637   1.230   4.052
  173SOL    HW2 1419   5.621   1.389   4.086
  174SOL     OW 1420   4.259   5.373   3.597
  174SOL    HW1 1421   4.293   5.439   3.664
  174SOL    HW2 1422   4.275   5.280   3.631
  175SOL     OW 1423   3.383   0.412   1.883
  175SOL    HW1 1424   3.327   0.352   1.940
  175SOL    HW2 1425   3.349   0.409   1.789
  176SOL     OW 1426   0.145   4.451   1.015
  176SOL    HW1 1427   0.151   4.486   1.108
  176SOL    HW2 1428   0.235   4.459   0.971
  177SOL     OW 1429   5.269   2.762   2.678
  177SOL    HW1 1430   5.307   2.684   2.628
  177SOL    HW2 1431   5.261   2.841   2.618
  178SOL     OW 1432   2.109   3.425   6.441
  178SOL    HW1 1433   2.050   3.505   6.431
  178SOL    HW2 1434   2.088   3.358   6.370
  179SOL     OW 1435   4.082   1.710   5.401
  179SOL    HW1 1436   4.003   1.682   5.456
  179SOL    HW2 1437   4.050   1.741   5.312
  180SOL     OW 1438   2.047   6.790   6.958
  180SOL    HW1 1439   1.970   6.847   6.929
  180SOL    HW2 1440   2.016   6.727   0.013
  181SOL     OW 1441   3.195   3.286   6.244
  181SOL    HW1 1442   3.212   3.335   6.158
  181SOL    HW2 1443   3.203   3.188   6.229
  182SOL     OW 1444   3.559   1.840   5.336
  182SOL    HW1 1445   3.621   1.875   5.406
  182SOL    HW2 1446   3.465   1.865   5.359
  183SOL     OW 1447   3.748   2.121   3.352
  183SOL    HW1 1448   3.711   2.205   3.391
  183SOL    HW2 1449   3.844   2.134   3.328
  184SOL     OW 1450   0.702   6.441   4.573
  184SOL    HW1 1451   0.727   6.488   4.658
  184SOL    HW2 1452   0.766   6.367   4.555
  185SOL     OW 1453   1.083   1.115   6.028
  185SOL    HW1 1454   0.985   1.101   6.034
  185SOL    HW2 1455   1.129   1.028   6.011
  186SOL     OW 1456   5.575   0.386   4.485
  186SOL    HW1 1457   5.634   0.373   4.564
  186SOL    HW2 1458   5.624   0.361   4.401
  187SOL     OW 1459   4.737   0.229   2.305
  187SOL    HW1 1460   4.703   0.174   2.229
  187SOL    HW2 1461   4.837   0.227   2.307
  188SOL     OW 1462   0.918   2.535   3.252
  188SOL    HW1 1463   0.973   2.523   3.335
  188SOL    HW2 1464   0.828   2.493   3.266
  189SOL     OW 1465   2.353   5.136   1.401
  189SOL    HW1 1466   2.418   5.144   1.477
  189SOL    HW2 1467   2.308   5.047   1.405
  190SOL     OW 1468   5.154   2.722   5.060
  190SOL    HW1 1469   5.240   2.694   5.103
  190SOL    HW2 1470   5.156   2.697   4.963
  191SOL     OW 1471   5.691   0.452   6.937
  191SOL    HW1 1472   5.726   0.448   0.014
  191SOL    HW2 1473   5.752   0.402   6.876
  192SOL     OW 1474   1.135   5.614   1.735
  192SOL    HW1 1475   1.171   5.671   1.661
  192SOL    HW2 1476   1.035   5.615   1.732
  193SOL     OW 1477   4.559   3.791   5.339
  193SOL    HW1 1478   4.465   3.807   5.369
  193SOL    HW2 1479   4.575   3.693   5.331
  194SOL     OW 1480   4.323   1.203   3.107
  194SOL    HW1 1481   4.409   1.201   3.055
  194SOL    HW2 1482   4.264   1.129   3.075
  195SOL     OW 1483   1.900   0.247   5.068
  195SOL    HW1 1484   1.822   0.274   5.012
  195SOL    HW2 1485   1.898   0.297   5.155
  196SOL     OW 1486   2.582   0.614   0.901
  196SOL    HW1 1487   2.536   0.538   0.854
  196SOL    HW2 1488   2.513   0.673   0.944
  197SOL     OW 1489   2.574   0.306   1.402
  197SOL    HW1 1490   2.478   0.333   1.412
  197SOL    HW2 1491   2.603   0.258   1.485
  198SOL     OW 1492   5.184   0.213   1.534
  198SOL    HW1 1493   5.209   0.299   1.489
  198SOL    HW2 1494   5.196   0.223   1.633
  199SOL     OW 1495   0.332   1.562   3.791
  199SOL    HW1 1496   0.341   1.573   3.693
  199SOL    HW2 1497   0.422   1.541   3.831
  200SOL     OW 1498   0.874   4.106   1.702
  200SOL    HW1 1499   0.937   4.174   1.739
  200SOL    HW2 1500   0.863   4.121   1.604
  201SOL     OW 1501   6.530   6.932   5.821
  201SOL    HW1 1502   6.552   6.997   5.748
  201SOL    HW2 1503   6.449   6.880   5.796
  202SOL     OW 1504   4.497   1.133   0.030
  202SOL    HW1 1505   4.590   1.170   0.037
  202SOL    HW2 1506   4.451   1.172   6.967
  203SOL     OW 1507   5.094   2.200   5.147
  203SOL    HW1 1508   5.185   2.240   5.139
  203SOL    HW2 1509   5.048   2.202   5.058
  204SOL     OW 1510   0.928   0.918   5.676
  204SOL    HW1 1511   0.866   0.914   5.597
  204SOL    HW2 1512   0.881   0.884   5.757
  205SOL     OW 1513   0.644   1.299   2.932
  205SOL    HW1 1514   0.724   1.294   2.873
  205SOL    HW2 1515   0.564   1.261   2.884
  206SOL     OW 1516   6.974   4.236   1.026
  206SOL    HW1 1517   0.010   4.320   1.011
  206SOL    HW2 1518   6.877   4.256   1.014
  207SOL     OW 1519   5.828   1.877   3.245
  207SOL    HW1 1520   5.794   1.784   3.254
  207SOL    HW2 1521   5.885   1.899   3.324
  208SOL     OW 1522   5.992   2.912   5.073
  208SOL    HW1 1523   5.993   2.891   4.975
  208SOL    HW2 1524   6.017   3.007   5.087
  209SOL     OW 1525   0.431   4.503   3.669
  209SOL    HW1 1526   0.477   4.591   3.661
  209SOL    HW2 1527   0.436   4.471   3.764
  210SOL     OW 1528   4.093   2.345   0.984
  210SOL    HW1 1529   4.168   2.385   1.036
  210SOL    HW2 1530   4.076   2.252   1.016
  211SOL     OW 1531   2.202   6.179   2.888
  211SOL    HW1 1532   2.216   6.089   2.846
  211SOL    HW2 1533   2.105   6.197   2.897
  212SOL     OW 1534   1.306   4.135   1.745
  212SOL    HW1 1535   1.264   4.062   1.692
  212SOL    HW2 1536   1.393   4.103   1.784
  213SOL     OW 1537   3.393   0.763   0.369
  213SOL    HW1 1538   3.474   0.770   0.428
  213SOL    HW2 1539   3.403   0.685   0.307
  214SOL     OW 1540   4.464   4.969   1.629
  214SOL    HW1 1541   4.520   4.911   1.570
  214SOL    HW2 1542   4.454   5.059   1.588
  215SOL     OW 1543   2.447   3.816   0.668
  215SOL    HW1 1544   2.387   3.779   0.739
  215SOL    HW2 1545   2.475   3.742   0.607
  216SOL     OW 1546   2.088   5.863   3.746
  216SOL    HW1 1547   2.001   5.891   3.785
  216SOL    HW2 1548   2.158   5.862   3.818
  217SOL     OW 1549   1.016   2.367   3.696
  217SOL    HW1 1550   0.968   2.431   3.756
  217SOL    HW2 1551   1.009   2.274   3.733
  218SOL     OW 1552   0.165   3.864   4.562
  218SOL    HW1 1553   0.090   3.905   4.614
  218SOL    HW2 1554   0.141   3.862   4.465
  219SOL     OW 1555   4.666   0.238   6.552
  219SOL    HW1 1556   4.620   0.175   6.615
  219SOL    HW2 1557   4.655   0.332   6.584
  220SOL     OW 1558   2.661   6.993   1.027
  220SOL    HW1 1559   2.723   6.934   1.080
  220SOL    HW2 1560   2.667   0.070   1.060
  221SOL     OW 1561   0.076   3.164   0.974
  221SOL    HW1 1562   0.092   3.210   1.061
  221SOL    HW2 1563   0.159   3.166   0.918
  222SOL     OW 1564   1.910   5.277   5.745
  222SOL    HW1 1565   1.933   5.371   5.769
  222SOL    HW2 1566   1.862   5.277   5.657
  223SOL     OW 1567   5.997   2.991   6.655
  223SOL    HW1 1568   6.082   3.007   6.604
  223SOL    HW2 1569   5.927   2.954   6.594
  224SOL     OW 1570   1.737   1.421   4.786
  224SOL    HW1 1571   1.674   1.391   4.715
  224SOL    HW2 1572   1.831   1.406   4.755
  225SOL     OW 1573   4.215   3.217   6.285
  225SOL    HW1 1574   4.260   3.265   6.210
  225SOL    HW2 1575   4.134   3.268   6.314
  226SOL     OW 1576   2.192   1.107   6.034
  226SOL    HW1 1577   2.152   1.047   6.103
  226SOL    HW2 1578   2.120   1.143   5.975
  227SOL     OW 1579   1.735   3.730   2.207
  227SOL    HW1 1580   1.655   3.697   2.258
  227SOL    HW2 1581   1.800   3.772   2.270
  228SOL     OW 1582   2.954   6.263   3.855
  228SOL    HW1 1583   3.051   6.247   3.873
  228SOL    HW2 1584   2.905   6.176   3.855
  229SOL     OW 1585   5.674   5.871   6.873
  229SOL    HW1 1586   5.605   5.847   6.941
  229SOL    HW2 1587   5.713   5.960   6.895
  230SOL     OW 1588   3.126   5.263   3.855
  230SOL    HW1 1589   3.207   5.288   3.802
  230SOL    HW2 1590   3.111   5.331   3.926
  231SOL     OW 1591   6.336   1.821   5.780
  231SOL    HW1 1592   6.254   1.875   5.799
  231SOL    HW2 1593   6.352   1.756   5.855
  232SOL     OW 1594   0.878   3.054   6.656
  232SOL    HW1 1595   0.889   2.955   6.643
  232SOL    HW2 1596   0.840   3.071   6.747
  233SOL     OW 1597   2.846   1.631   3.254
  233SOL    HW1 1598   2.823   1.557   3.191
  233SOL    HW2 1599   2.796   1.618   3.340
  234SOL     OW 1600   5.274   0.275   5.455
  234SOL    HW1 1601   5.286   0.258   5.357
  234SOL    HW2 1602   5.217   0.356   5.468
  235SOL     OW 1603   3.694   2.632   1.421
  235SOL    HW1 1604   3.717   2.655   1.515
  235SOL    HW2 1605   3.769   2.581   1.379
  236SOL     OW 1606   4.885   2.970   6.606
  236SOL    HW1 1607   4.924   2.879   6.595
  236SOL    HW2 1608   4.808   2.981   6.543
  237SOL     OW 1609   6.008   4.490   1.971
  237SOL    HW1 1610   5.980   4.418   2.034
  237SOL    HW2 1611   6.013   4.453   1.879
  238SOL     OW 1612   4.775   2.347   0.604
  238SOL    HW1 1613   4.709   2.342   0.529
  238SOL    HW2 1614   4.729   2.322   0.690
  239SOL     OW 1615   0.683   5.476   6.807
  239SOL    HW1 1616   0.678   5.438   6.715
  239SOL    HW2 1617   0.597   5.523   6.828
  240SOL     OW 1618   0.402   2.714   3.213
  240SOL    HW1 1619   0.359   2.733   3.125
  240SOL    HW2 1620   0.367   2.628   3.249
  241SOL     OW 1621   2.196   0.948   4.912
  241SOL    HW1 1622   2.290   0.983   4.903
  241SOL    HW2 1623   2.197   0.865   4.968
  242SOL     OW 1624   3.222   3.015   4.693
  242SOL    HW1 1625   3.125   3.032   4.679
  242SOL    HW2 1626   3.237   2.977   4.785
  243SOL     OW 1627   3.857   0.680   5.719
  243SOL    HW1 1628   3.918   0.645   5.790
  243SOL    HW2 1629   3.879   0.637   5.632
  244SOL     OW 1630   6.112   2.922   4.828
  244SOL    HW1 1631   6.098   3.017   4.801
  244SOL    HW2 1632   6.084   2.861   4.753
  245SOL     OW 1633   5.848   4.209   3.763
  245SOL    HW1 1634   5.937   4.185   3.802
  245SOL    HW2 1635   5.794   4.125   3.749
  246SOL     OW 1636   4.570   2.582   3.730
  246SOL    HW1 1637   4.474   2.557   3.738
  246SOL    HW2 1638   4.601   2.625   3.814
  247SOL     OW 1639   2.945   1.553   1.442
  247SOL    HW1 1640   2.932   1.472   1.385
  247SOL    HW2 1641   2.928   1.635   1.388
  248SOL     OW 1642   3.548   1.369   2.737
  248SOL    HW1 1643   3.547   1.385   2.639
  248SOL    HW2 1644   3.455   1.382   2.774
  249SOL     OW 1645   4.592   0.648   5.190
  249SOL    HW1 1646   4.496   0.638   5.162
  249SOL    HW2 1647   4.631   0.558   5.210
  250SOL     OW 1648   5.159   2.418   0.890
  250SOL    HW1 1649   5.071   2.461   0.912
  250SOL    HW2 1650   5.183   2.353   0.962
  251SOL     OW 1651   4.471   4.172   5.900
  251SOL    HW1 1652   4.510   4.170   5.808
  251SOL    HW2 1653   4.371   4.177   5.894
  252SOL     OW 1654   6.484   6.105   0.344
  252SOL    HW1 1655   6.468   6.202   0.327
  252SOL    HW2 1656   6.414   6.070   0.406
  253SOL     OW 1657   2.748   5.533   6.718
  253SOL    HW1 1658   2.796   5.453   6.681
  253SOL    HW2 1659   2.668   5.502   6.769
  254SOL     OW 1660   5.017   2.762   3.720
  254SOL    HW1 1661   5.115   2.750   3.704
  254SOL    HW2 1662   4.966   2.718   3.646
  255SOL     OW 1663   1.816   3.408   4.748
  255SOL    HW1 1664   1.774   3.408   4.657
  255SOL    HW2 1665   1.798   3.496   4.792
  256SOL     OW 1666   6.445   3.774   6.034
  256SOL    HW1 1667   6.491   3.789   5.947
  256SOL    HW2 1668   6.488   3.831   6.104
  257SOL     OW 1669   4.972   6.762   3.421
  257SOL    HW1 1670   5.022   6.813   3.351
  257SOL    HW2 1671   4.947   6.672   3.385
  258SOL     OW 1672   2.009   5.096   4.962
  258SOL    HW1 1673   1.976   5.162   5.030
  258SOL    HW2 1674   2.094   5.054   4.994
  259SOL     OW 1675   0.800   1.912   2.013
  259SOL    HW1 1676   0.876   1.851   1.991
  259SOL    HW2 1677   0.819   2.003   1.978
  260SOL     OW 1678   4.482   1.145   0.911
  260SOL    HW1 1679   4.393   1.161   0.952
  260SOL    HW2 1680   4.525   1.065   0.953
  261SOL     OW 1681   6.572   3.193   0.907
  261SOL    HW1 1682   6.499   3.236   0.961
  261SOL    HW2 1683   6.604   3.257   0.837
  262SOL     OW 1684   6.678   4.158   0.659
  262SOL    HW1 1685   6.692   4.060   0.642
  262SOL    HW2 1686   6.765   4.201   0.680
  263SOL     OW 1687   1.242   1.108   3.555
  263SOL    HW1 1688   1.262   1.010   3.547
  263SOL    HW2 1689   1.269   1.140   3.646
  264SOL     OW 1690   5.473   3.283   6.679
  264SOL    HW1 1691   5.505   3.189   6.691
  264SOL    HW2 1692   5.374   3.287   6.690
  265SOL     OW 1693   4.999   5.523   2.655
  265SOL    HW1 1694   4.911   5.544   2.613
  265SOL    HW2 1695   5.035   5.438   2.616
  266SOL     OW 1696   2.967   2.997   5.631
  266SOL    HW1 1697   3.044   3.057   5.651
  266SOL    HW2 1698   2.882   3.050   5.636
  267SOL     OW 1699   0.703   1.611   6.479
  267SOL    HW1 1700   0.616   1.660   6.469
  267SOL    HW2 1701   0.685   1.516   6.507
  268SOL     OW 1702   3.617   0.606   5.866
  268SOL    HW1 1703   3.705   0.614   5.821
  268SOL    HW2 1704   3.603   0.686   5.925
  269SOL     OW 1705   1.096   3.882   1.899
  269SOL    HW1 1706   0.998   3.864   1.899
  269SOL    HW2 1707   1.127   3.896   1.805
  270SOL     OW 1708   0.149   0.378   0.109
  270SOL    HW1 1709   0.165   0.282   0.086
  270SOL    HW2 1710   0.236   0.427   0.107
  271SOL     OW 1711   1.144   1.695   7.003
  271SOL    HW1 1712   1.224   1.754   7.009
  271SOL    HW2 1713   1.061   1.749   0.004
  272SOL     OW 1714   3.333   5.279   4.237
  272SOL    HW1 1715   3.245   5.301   4.196
  272SOL    HW2 1716   3.343   5.329   4.323
  273SOL     OW 1717   2.126   4.199   4.715
  273SOL    HW1 1718   2.130   4.221   4.813
  273SOL    HW2 1719   2.150   4.103   4.702
  274SOL     OW 1720   4.306   1.956   2.862
  274SOL    HW1 1721   4.335   1.885   2.797
  274SOL    HW2 1722   4.206   1.956   2.868
  275SOL     OW 1723   6.051   5.074   5.518
  275SOL    HW1 1724   6.128   5.137   5.517
  275SOL    HW2 1725   6.015   5.063   5.425
  276SOL     OW 1726   0.140   5.817   2.464
  276SOL    HW1 1727   0.104   5.897   2.513
  276SOL    HW2 1728   0.072   5.785   2.399
  277SOL     OW 1729   1.334   3.859   0.642
  277SOL    HW1 1730   1.359   3.919   0.718
  277SOL    HW2 1731   1.274   3.909   0.579
  278SOL     OW 1732   6.179   5.108   2.108
  278SOL    HW1 1733   6.219   5.193   2.073
  278SOL    HW2 1734   6.220   5.030   2.062
  279SOL     OW 1735   6.277   2.743   4.529
  279SOL    HW1 1736   6.282   2.692   4.443
  279SOL    HW2 1737   6.181   2.756   4.555
  280SOL     OW 1738   3.199   7.016   3.306
  280SOL    HW1 1739   3.197   6.927   3.352
  280SOL    HW2 1740   3.106   0.035   3.299
  281SOL     OW 1741   2.870   4.833   2.369
  281SOL    HW1 1742   2.832   4.926   2.362
  281SOL    HW2 1743   2.878   4.793   2.278
  282SOL     OW 1744   3.381   1.347   5.413
  282SOL    HW1 1745   3.306   1.374   5.473
  282SOL    HW2 1746   3.348   1.278   5.348
  283SOL     OW 1747   6.514   1.564   5.810
  283SOL    HW1 1748   6.549   1.551   5.717
  283SOL    HW2 1749   6.535   1.483   5.865
  284SOL     OW 1750   1.063   3.915   4.303
  284SOL    HW1 1751   1.156   3.947   4.320
  284SOL    HW2 1752   1.007   3.929   4.385
  285SOL     OW 1753   6.252   4.807   5.757
  285SOL    HW1 1754   6.320   4.793   5.686
  285SOL    HW2 1755   6.162   4.821   5.715
  286SOL     OW 1756   3.783   5.766   5.235
  286SOL    HW1 1757   3.816   5.829   5.164
  286SOL    HW2 1758   3.729   5.817   5.302
  287SOL     OW 1759   0.139   4.303   0.073
  287SOL    HW1 1760   0.187   4.320   0.159
  287SOL    HW2 1761   0.177   4.222   0.029
  288SOL     OW 1762   3.480   1.783   5.769
  288SOL    HW1 1763   3.490   1.866   5.825
  288SOL    HW2 1764   3.505   1.703   5.824
  289SOL     OW 1765   0.197   4.898   4.810
  289SOL    HW1 1766   0.290   4.867   4.830
  289SOL    HW2 1767   0.198   4.995   4.786
  290SOL     OW 1768   5.681   2.430   4.242
  290SOL    HW1 1769   5.733   2.345   4.253
  290SOL    HW2 1770   5.585   2.408   4.224
  291SOL     OW 1771   1.727   1.941   4.724
  291SOL    HW1 1772   1.639   1.973   4.759
  291SOL    HW2 1773   1.766   1.876   4.790
  292SOL     OW 1774   1.470   1.989   2.937
  292SOL    HW1 1775   1.473   1.958   3.032
  292SOL    HW2 1776   1.377   1.981   2.902
  293SOL     OW 1777   4.219   5.204   1.730
  293SOL    HW1 1778   4.201   5.120   1.779
  293SOL    HW2 1779   4.133   5.249   1.705
  294SOL     OW 1780   6.391   5.316   6.882
  294SOL    HW1 1781   6.352   5.227   6.907
  294SOL    HW2 1782   6.345   5.351   6.800
  295SOL     OW 1783   2.911   2.053   4.310
  295SOL    HW1 1784   2.855   1.970   4.309
  295SOL    HW2 1785   2.985   2.042   4.376
  296SOL     OW 1786   4.834   1.731   3.045
  296SOL    HW1 1787   4.923   1.756   3.005
  296SOL    HW2 1788   4.844   1.645   3.096
  297SOL     OW 1789   2.188   4.194   2.688
  297SOL    HW1 1790   2.240   4.266   2.642
  297SOL    HW2 1791   2.243   4.112   2.695
  298SOL     OW 1792   3.524   6.331   0.764
  298SOL    HW1 1793   3.444   6.388   0.743
  298SOL    HW2 1794   3.600   6.390   0.790
  299SOL     OW 1795   4.119   3.800   6.731
  299SOL    HW1 1796   4.048   3.855   6.774
  299SOL    HW2 1797   4.197   3.858   6.708
  300SOL     OW 1798   5.884   0.975   1.395
  300SOL    HW1 1799   5.864   0.926   1.479
  300SOL    HW2 1800   5.851   1.069   1.403
  301SOL     OW 1801   5.205   3.136   1.164
  301SOL    HW1 1802   5.195   3.064   1.232
  301SOL    HW2 1803   5.181   3.224   1.204
  302SOL     OW 1804   0.432   0.534   3.449
  302SOL    HW1 1805   0.473   0.623   3.428
  302SOL    HW2 1806   0.505   0.468   3.469
  303SOL     OW 1807   6.097   0.108   1.303
  303SOL    HW1 1808   6.188   0.083   1.271
  303SOL    HW2 1809   6.105   0.158   1.389
  304SOL     OW 1810   2.539   0.347   4.251
  304SOL    HW1 1811   2.610   0.277   4.261
  304SOL    HW2 1812   2.547   0.412   4.327
  305SOL     OW 1813   0.823   3.056   0.480
  305SOL    HW1 1814   0.762   3.051   0.402
  305SOL    HW2 1815   0.906   3.002   0.462
  306SOL     OW 1816   2.103   0.637   3.974
  306SOL    HW1 1817   2.099   0.736   3.957
  306SOL    HW2 1818   2.044   0.614   4.051
  307SOL     OW 1819   5.212   6.638   0.450
  307SOL    HW1 1820   5.238   6.564   0.513
  307SOL    HW2 1821   5.114   6.630   0.428
  308SOL     OW 1822   5.901   3.495   5.322
  308SOL    HW1 1823   5.967   3.480   5.248
  308SOL    HW2 1824   5.810   3.470   5.290
  309SOL     OW 1825   3.483   5.402   6.984
  309SOL    HW1 1826   3.432   5.393   0.053
  309SOL    HW2 1827   3.518   5.495   6.975
  310SOL     OW 1828   6.354   7.001   5.219
  310SOL    HW1 1829   6.368   6.943   5.299
  310SOL    HW2 1830   6.443   0.004   5.177
  311SOL     OW 1831   5.210   4.570   2.804
  311SOL    HW1 1832   5.278   4.621   2.752
  311SOL    HW2 1833   5.217   4.473   2.781
  312SOL     OW 1834   4.258   1.236   5.743
  312SOL    HW1 1835   4.169   1.215   5.703
  312SOL    HW2 1836   4.327   1.173   5.707
  313SOL     OW 1837   3.320   3.767   2.062
  313SOL    HW1 1838   3.352   3.679   2.026
  313SOL    HW2 1839   3.366   3.785   2.150
  314SOL     OW 1840   3.825   5.142   6.736
  314SOL    HW1 1841   3.887   5.171   6.809
  314SOL    HW2 1842   3.802   5.221   6.679
  315SOL     OW 1843   1.405   2.661   3.677
  315SOL    HW1 1844   1.458   2.599   3.619
  315SOL    HW2 1845   1.427   2.756   3.653
  316SOL     OW 1846   3.029   1.370   3.505
  316SOL    HW1 1847   3.070   1.461   3.506
  316SOL    HW2 1848   3.040   1.329   3.414
  317SOL     OW 1849   0.433   0.616   1.018
  317SOL    HW1 1850   0.448   0.550   0.945
  317SOL    HW2 1851   0.440   0.709   0.982
  318SOL     OW 1852   1.057   5.965   6.759
  318SOL    HW1 1853   0.993   5.889   6.743
  318SOL    HW2 1854   1.117   5.975   6.680
  319SOL     OW 1855   6.830   0.550   3.804
  319SOL    HW1 1856   6.815   0.622   3.871
  319SOL    HW2 1857   6.805   0.461   3.843
  320SOL     OW 1858   6.144   2.252   0.547
  320SOL    HW1 1859   6.244   2.247   0.543
  320SOL    HW2 1860   6.105   2.169   0.508
  321SOL     OW 1861   3.979   1.384   0.541
  321SOL    HW1 1862   4.030   1.438   0.608
  321SOL    HW2 1863   4.043   1.325   0.490
  322SOL     OW 1864   4.118   3.576   4.547
  322SOL    HW1 1865   4.023   3.607   4.542
  322SOL    HW2 1866   4.159   3.605   4.633
  323SOL     OW 1867   1.103   2.847   6.435
  323SOL    HW1 1868   1.123   2.835   6.532
  323SOL    HW2 1869   1.095   2.944   6.414
  324SOL     OW 1870   2.298   1.634   4.351
  324SOL    HW1 1871   2.371   1.566   4.357
  324SOL    HW2 1872   2.320   1.711   4.411
  325SOL     OW 1873   0.833   2.844   1.761
  325SOL    HW1 1874   0.839   2.834   1.860
  325SOL    HW2 1875   0.866   2.934   1.734
  326SOL     OW 1876   0.933   5.083   6.948
  326SOL    HW1 1877   0.957   5.177   6.924
  326SOL    HW2 1878   0.885   5.082   0.019
  327SOL     OW 1879   1.495   5.051   3.730
  327SOL    HW1 1880   1.410   5.064   3.781
  327SOL    HW2 1881   1.525   5.138   3.691
  328SOL     OW 1882   1.302   5.382   1.618
  328SOL    HW1 1883   1.327   5.329   1.699
  328SOL    HW2 1884   1.253   5.465   1.647
  329SOL     OW 1885   4.005   3.968   4.499
  329SOL    HW1 1886   4.049   4.058   4.500
  329SOL    HW2 1887   3.982   3.944   4.405
  330SOL     OW 1888   2.985   0.058   1.132
  330SOL    HW1 1889   3.076   0.085   1.161
  330SOL    HW2 1890   2.955   0.116   1.057
  331SOL     OW 1891   4.125   5.753   0.709
  331SOL    HW1 1892   4.049   5.689   0.722
  331SOL    HW2 1893   4.158   5.747   0.615
  332SOL     OW 1894   3.119   1.871   4.126
  332SOL    HW1 1895   3.180   1.950   4.128
  332SOL    HW2 1896   3.138   1.812   4.204
  333SOL     OW 1897   3.536   6.731   5.965
  333SOL    HW1 1898   3.515   6.696   6.056
  333SOL    HW2 1899   3.630   6.766   5.964
  334SOL     OW 1900   2.745   0.813   1.345
  334SOL    HW1 1901   2.755   0.802   1.246
  334SOL    HW2 1902   2.734   0.723   1.387
  335SOL     OW 1903   3.554   6.886   4.643
  335SOL    HW1 1904   3.622   6.877   4.570
  335SOL    HW2 1905   3.508   6.798   4.657
  336SOL     OW 1906   2.040   0.923   3.859
  336SOL    HW1 1907   2.067   0.883   3.771
  336SOL    HW2 1908   1.950   0.965   3.850
  337SOL     OW 1909   0.066   3.083   0.091
  337SOL    HW1 1910   0.124   3.023   0.146
  337SOL    HW2 1911   0.017   3.147   0.150
  338SOL     OW 1912   3.038   2.887   1.451
  338SOL    HW1 1913   3.083   2.914   1.536
  338SOL    HW2 1914   2.979   2.961   1.420
  339SOL     OW 1915   2.879   6.790   4.314
  339SOL    HW1 1916   2.852   6.854   4.242
  339SOL    HW2 1917   2.942   6.836   4.376
  340SOL     OW 1918   4.883   4.628   5.647
  340SOL    HW1 1919   4.901   4.595   5.554
  340SOL    HW2 1920   4.785   4.625   5.665
  341SOL     OW 1921   6.602   1.408   4.477
  341SOL    HW1 1922   6.610   1.318   4.519
  341SOL    HW2 1923   6.692   1.437   4.444
  342SOL     OW 1924   6.048   3.848   6.992
  342SOL    HW1 1925   6.068   3.808   6.902
  342SOL    HW2 1926   6.068   3.945   6.991
  343SOL     OW 1927   1.542   4.853   0.810
  343SOL    HW1 1928   1.606   4.799   0.864
  343SOL    HW2 1929   1.592   4.908   0.743
  344SOL     OW 1930   1.023   5.069   1.861
  344SOL    HW1 1931   1.008   5.089   1.958
  344SOL    HW2 1932   1.103   5.010   1.852
  345SOL     OW 1933   5.860   1.354   3.874
  345SOL    HW1 1934   5.840   1.317   3.965
  345SOL    HW2 1935   5.894   1.281   3.815
  346SOL     OW 1936   1.928   0.879   2.469
  346SOL    HW1 1937   2.005   0.903   2.528
  346SOL    HW2 1938   1.960   0.821   2.394
  347SOL     OW 1939   3.290   5.695   6.101
  347SOL    HW1 1940   3.263   5.601   6.123
  347SOL    HW2 1941   3.271   5.713   6.004
  348SOL     OW 1942   5.422   4.490   1.619
  348SOL    HW1 1943   5.346   4.483   1.684
  348SOL    HW2 1944   5.500   4.534   1.663
  349SOL     OW 1945   6.970   4.307   0.623
  349SOL    HW1 1946   6.954   4.405   0.636
  349SOL    HW2 1947   0.051   4.288   0.623
  350SOL     OW 1948   3.554   2.997   0.718
  350SOL    HW1 1949   3.466   3.008   0.765
  350SOL    HW2 1950   3.611   2.932   0.768
  351SOL     OW 1951   2.084   2.472   7.002
  351SOL    HW1 1952   2.156   2.520   0.036
  351SOL    HW2 1953   1.994   2.498   0.022
  352SOL     OW 1954   3.354   0.971   4.543
  352SOL    HW1 1955   3.377   1.046   4.604
  352SOL    HW2 1956   3.337   1.007   4.451
  353SOL     OW 1957   2.425   6.476   0.606
  353SOL    HW1 1958   2.377   6.436   0.684
  353SOL    HW2 1959   2.505   6.527   0.639
  354SOL     OW 1960   3.322   2.741   0.109
  354SOL    HW1 1961   3.252   2.670   0.104
  354SOL    HW2 1962   3.285   2.827   0.074
  355SOL     OW 1963   0.254   3.200   3.176
  355SOL    HW1 1964   0.266   3.157   3.087
  355SOL    HW2 1965   0.241   3.130   3.246
  356SOL     OW 1966   3.569   6.465   5.060
  356SOL    HW1 1967   3.546   6.462   4.963
  356SOL    HW2 1968   3.665   6.443   5.073
  357SOL     OW 1969   6.349   6.600   5.506
  357SOL    HW1 1970   6.362   6.522   5.568
  357SOL    HW2 1971   6.435   6.619   5.459
  358SOL     OW 1972   5.400   0.050   1.558
  358SOL    HW1 1973   5.320   0.108   1.539
  358SOL    HW2 1974   5.383   6.975   1.522
  359SOL     OW 1975   1.219   2.146   2.236
  359SOL    HW1 1976   1.155   2.174   2.307
  359SOL    HW2 1977   1.304   2.199   2.246
  360SOL     OW 1978   1.153   5.852   6.314
  360SOL    HW1 1979   1.059   5.854   6.347
  360SOL    HW2 1980   1.167   5.927   6.249
  361SOL     OW 1981   5.696   5.873   3.217
  361SOL    HW1 1982   5.749   5.844   3.297
  361SOL    HW2 1983   5.754   5.869   3.136
  362SOL     OW 1984   3.719   4.061   1.364
  362SOL    HW1 1985   3.654   4.073   1.439
  362SOL    HW2 1986   3.719   3.966   1.334
  363SOL     OW 1987   5.010   4.695   3.794
  363SOL    HW1 1988   5.008   4.713   3.892
  363SOL    HW2 1989   4.943   4.752   3.748
  364SOL     OW 1990   6.298   5.990   6.374
  364SOL    HW1 1991   6.350   5.905   6.380
  364SOL    HW2 1992   6.336   6.048   6.302
  365SOL     OW 1993   5.661   5.331   2.202
  365SOL    HW1 1994   5.740   5.343   2.141
  365SOL    HW2 1995   5.679   5.255   2.264
  366SOL     OW 1996   6.355   0.745   6.772
  366SOL    HW1 1997   6.294   0.694   6.833
  366SOL    HW2 1998   6.303   0.819   6.728
  367SOL     OW 1999   4.834   3.163   1.422
  367SOL    HW1 2000   4.804   3.214   1.341
  367SOL    HW2 2001   4.795   3.071   1.420
  368SOL     OW 2002   6.876   3.240   4.727
  368SOL    HW1 2003   6.932   3.273   4.803
  368SOL    HW2 2004   6.784   3.278   4.734
  369SOL     OW 2005   6.588   5.768   1.884
  369SOL    HW1 2006   6.565   5.684   1.834
  369SOL    HW2 2007   6.662   5.815   1.836
  370SOL     OW 2008   2.587   2.029   5.734
  370SOL    HW1 2009   2.665   1.990   5.685
  370SOL    HW2 2010   2.618   2.070   5.819
  371SOL     OW 2011   2.444   3.544   6.746
  371SOL    HW1 2012   2.383   3.621   6.764
  371SOL    HW2 2013   2.522   3.576   6.692
  372SOL     OW 2014   0.544   0.027   5.810
  372SOL    HW1 2015   0.464   0.086   5.797
  372SOL    HW2 2016   0.627   0.080   5.801
  373SOL     OW 2017   6.136   6.076   5.087
  373SOL    HW1 2018   6.154   6.048   5.181
  373SOL    HW2 2019   6.145   6.175   5.079
  374SOL     OW 2020   2.776   1.903   2.663
  374SOL    HW1 2021   2.704   1.971   2.673
  374SOL    HW2 2022   2.784   1.849   2.747
  375SOL     OW 2023   0.835   4.264   3.967
  375SOL    HW1 2024   0.766   4.244   4.037
  375SOL    HW2 2025   0.820   4.205   3.888
  376SOL     OW 2026   2.098   1.729   4.715
  376SOL    HW1 2027   2.082   1.695   4.808
  376SOL    HW2 2028   2.134   1.654   4.659
  377SOL     OW 2029   0.279   2.752   2.121
  377SOL    HW1 2030   0.372   2.766   2.086
  377SOL    HW2 2031   0.231   2.686   2.063
  378SOL     OW 2032   3.106   2.782   5.559
  378SOL    HW1 2033   3.162   2.792   5.476
  378SOL    HW2 2034   3.036   2.852   5.561
  379SOL     OW 2035   5.870   3.960   1.407
  379SOL    HW1 2036   5.836   3.951   1.500
  379SOL    HW2 2037   5.796   3.941   1.342
  380SOL     OW 2038   3.072   1.192   1.489
  380SOL    HW1 2039   3.127   1.246   1.426
  380SOL    HW2 2040   3.044   1.107   1.445
  381SOL     OW 2041   1.483   4.309   2.729
  381SOL    HW1 2042   1.530   4.377   2.785
  381SOL    HW2 2043   1.429   4.354   2.659
  382SOL     OW 2044   5.148   6.401   5.973
  382SOL    HW1 2045   5.213   6.365   6.041
  382SOL    HW2 2046   5.160   6.500   5.964
  383SOL     OW 2047   5.501   3.345   6.214
  383SOL    HW1 2048   5.527   3.405   6.138
  383SOL    HW2 2049   5.531   3.252   6.195
  384SOL     OW 2050   6.252   5.000   4.383
  384SOL    HW1 2051   6.219   5.060   4.310
  384SOL    HW2 2052   6.352   4.994   4.378
  385SOL     OW 2053   4.553   5.806   5.686
  385SOL    HW1 2054   4.505   5.725   5.720
  385SOL    HW2 2055   4.646   5.808   5.724
  386SOL     OW 2056   3.168   6.008   5.079
  386SOL    HW1 2057   3.247   5.967   5.033
  386SOL    HW2 2058   3.198   6.048   5.166
  387SOL     OW 2059   0.799   6.661   2.894
  387SOL    HW1 2060   0.763   6.635   2.984
  387SOL    HW2 2061   0.751   6.742   2.861
  388SOL     OW 2062   1.943   2.251   3.941
  388SOL    HW1 2063   1.920   2.259   4.038
  388SOL    HW2 2064   1.926   2.157   3.910
  389SOL     OW 2065   4.249   3.952   1.659
  389SOL    HW1 2066   4.228   3.915   1.749
  389SOL    HW2 2067   4.229   4.050   1.657
  390SOL     OW 2068   3.790   1.125   6.778
  390SOL    HW1 2069   3.827   1.182   6.704
  390SOL    HW2 2070   3.723   1.178   6.830
  391SOL     OW 2071   2.035   4.263   5.203
  391SOL    HW1 2072   2.101   4.213   5.258
  391SOL    HW2 2073   2.070   4.275   5.110
  392SOL     OW 2074   1.852   3.832   1.461
  392SOL    HW1 2075   1.877   3.898   1.390
  392SOL    HW2 2076   1.827   3.881   1.544
  393SOL     OW 2077   1.037   4.830   6.905
  393SOL    HW1 2078   0.943   4.799   6.892
  393SOL    HW2 2079   1.038   4.928   6.921
  394SOL     OW 2080   0.401   2.870   0.002
  394SOL    HW1 2081   0.457   2.849   6.938
  394SOL    HW2 2082   0.306   2.886   6.990
  395SOL     OW 2083   4.876   4.708   3.299
  395SOL    HW1 2084   4.974   4.718   3.285
  395SOL    HW2 2085   4.846   4.619   3.263
  396SOL     OW 2086   2.842   3.138   1.811
  396SOL    HW1 2087   2.787   3.078   1.754
  396SOL    HW2 2088   2.794   3.225   1.825
  397SOL     OW 2089   5.466   2.055   6.212
  397SOL    HW1 2090   5.438   2.119   6.284
  397SOL    HW2 2091   5.414   1.970   6.220
  398SOL     OW 2092   1.692   6.545   3.588
  398SOL    HW1 2093   1.592   6.537   3.596
  398SOL    HW2 2094   1.735   6.460   3.617
  399SOL     OW 2095   5.778   6.475   4.657
  399SOL    HW1 2096   5.759   6.389   4.705
  399SOL    HW2 2097   5.721   6.548   4.696
  400SOL     OW 2098   5.789   6.336   6.027
  400SOL    HW1 2099   5.748   6.426   6.034
  400SOL    HW2 2100   5.801   6.297   6.118
  401SOL     OW 2101   5.257   6.959   6.043
  401SOL    HW1 2102   5.268   6.866   6.079
  401SOL    HW2 2103   5.338   6.984   5.991
  402SOL     OW 2104   6.332   0.590   2.976
  402SOL    HW1 2105   6.403   0.542   2.924
  402SOL    HW2 2106   6.245   0.582   2.928
  403SOL     OW 2107   3.677   0.630   5.411
  403SOL    HW1 2108   3.625   0.714   5.393
  403SOL    HW2 2109   3.705   0.589   5.325
  404SOL     OW 2110   1.860   4.956   5.262
  404SOL    HW1 2111   1.795   5.029   5.242
  404SOL    HW2 2112   1.878   4.903   5.179
  405SOL     OW 2113   1.976   3.523   2.996
  405SOL    HW1 2114   2.014   3.472   3.073
  405SOL    HW2 2115   1.876   3.521   3.000
  406SOL     OW 2116   0.413   4.712   4.794
  406SOL    HW1 2117   0.396   4.623   4.837
  406SOL    HW2 2118   0.473   4.700   4.715
  407SOL     OW 2119   1.990   2.130   4.944
  407SOL    HW1 2120   2.061   2.101   4.880
  407SOL    HW2 2121   2.010   2.093   5.035
  408SOL     OW 2122   3.345   2.127   3.046
  408SOL    HW1 2123   3.418   2.136   2.978
  408SOL    HW2 2124   3.257   2.114   3.000
  409SOL     OW 2125   6.460   2.970   1.502
  409SOL    HW1 2126   6.421   2.947   1.592
  409SOL    HW2 2127   6.519   3.050   1.511
  410SOL     OW 2128   1.137   1.873   1.225
  410SOL    HW1 2129   1.135   1.937   1.149
  410SOL    HW2 2130   1.188   1.791   1.199
  411SOL     OW 2131   6.039   0.642   1.594
  411SOL    HW1 2132   6.011   0.662   1.688
  411SOL    HW2 2133   5.958   0.635   1.535
  412SOL     OW 2134   3.281   5.001   3.257
  412SOL    HW1 2135   3.356   4.968   3.313
  412SOL    HW2 2136   3.303   4.988   3.160
  413SOL     OW 2137   4.583   4.386   1.673
  413SOL    HW1 2138   4.558   4.318   1.742
  413SOL    HW2 2139   4.503   4.438   1.646
  414SOL     OW 2140   3.126   6.477   4.055
  414SOL    HW1 2141   3.026   6.483   4.058
  414SOL    HW2 2142   3.153   6.388   4.017
  415SOL     OW 2143   0.411   0.678   6.947
  415SOL    HW1 2144   0.508   0.666   6.927
  415SOL    HW2 2145   0.393   0.654   0.025
  416SOL     OW 2146   5.081   5.179   4.853
  416SOL    HW1 2147   5.131   5.098   4.821
  416SOL    HW2 2148   5.032   5.220   4.776
  417SOL     OW 2149   2.081   0.748   6.475
  417SOL    HW1 2150   2.083   0.844   6.504
  417SOL    HW2 2151   2.051   0.690   6.551
  418SOL     OW 2152   2.568   6.961   5.943
  418SOL    HW1 2153   2.546   6.998   5.853
  418SOL    HW2 2154   2.624   0.010   5.994
  419SOL     OW 2155   0.537   0.295   2.915
  419SOL    HW1 2156   0.593   0.366   2.958
  419SOL    HW2 2157   0.443   0.302   2.949
  420SOL     OW 2158   5.718   1.344   6.222
  420SOL    HW1 2159   5.678   1.253   6.215
  420SOL    HW2 2160   5.735   1.381   6.131
  421SOL     OW 2161   5.862   3.665   4.966
  421SOL    HW1 2162   5.824   3.754   4.990
  421SOL    HW2 2163   5.947   3.677   4.916
  422SOL     OW 2164   4.992   2.975   0.927
  422SOL    HW1 2165   4.908   2.974   0.981
  422SOL    HW2 2166   5.068   3.008   0.984
  423SOL     OW 2167   2.487   1.357   6.926
  423SOL    HW1 2168   2.514   1.451   6.946
  423SOL    HW2 2169   2.507   1.299   7.005
  424SOL     OW 2170   1.765   4.974   2.849
  424SOL    HW1 2171   1.671   5.009   2.844
  424SOL    HW2 2172   1.816   5.024   2.918
  425SOL     OW 2173   5.096   1.603   4.654
  425SOL    HW1 2174   5.078   1.570   4.747
  425SOL    HW2 2175   5.103   1.526   4.591
  426SOL     OW 2176   2.470   2.587   4.771
  426SOL    HW1 2177   2.537   2.516   4.790
  426SOL    HW2 2178   2.436   2.625   4.857
  427SOL     OW 2179   6.249   0.231   3.742
  427SOL    HW1 2180   6.270   0.133   3.737
  427SOL    HW2 2181   6.224   0.265   3.651
  428SOL     OW 2182   3.672   0.479   2.716
  428SOL    HW1 2183   3.594   0.464   2.777
  428SOL    HW2 2184   3.703   0.574   2.724
  429SOL     OW 2185   0.960   5.221   3.769
  429SOL    HW1 2186   0.871   5.266   3.758
  429SOL    HW2 2187   1.024   5.285   3.813
  430SOL     OW 2188   1.225   0.081   3.925
  430SOL    HW1 2189   1.314   0.072   3.968
  430SOL    HW2 2190   1.155   0.092   3.996
  431SOL     OW 2191   2.791   1.971   0.854
  431SOL    HW1 2192   2.878   1.923   0.842
  431SOL    HW2 2193   2.720   1.927   0.799
  432SOL     OW 2194   6.057   2.370   0.822
  432SOL    HW1 2195   6.076   2.350   0.725
  432SOL    HW2 2196   5.965   2.408   0.831
  433SOL     OW 2197   2.667   6.366   6.166
  433SOL    HW1 2198   2.576   6.331   6.143
  433SOL    HW2 2199   2.714   6.394   6.083
  434SOL     OW 2200   4.049   5.625   3.753
  434SOL    HW1 2201   3.957   5.630   3.790
  434SOL    HW2 2202   4.047   5.640   3.654
  435SOL     OW 2203   3.845   2.106   5.340
  435SOL    HW1 2204   3.896   2.045   5.278
  435SOL    HW2 2205   3.829   2.193   5.294
  436SOL     OW 2206   3.532   5.875   2.395
  436SOL    HW1 2207   3.531   5.776   2.415
  436SOL    HW2 2208   3.463   5.920   2.451
  437SOL     OW 2209   0.397   1.175   5.357
  437SOL    HW1 2210   0.427   1.159   5.263
  437SOL    HW2 2211   0.309   1.130   5.372
  438SOL     OW 2212   1.774   3.435   3.846
  438SOL    HW1 2213   1.700   3.386   3.891
  438SOL    HW2 2214   1.756   3.533   3.850
  439SOL     OW 2215   5.985   6.360   2.331
  439SOL    HW1 2216   6.035   6.371   2.418
  439SOL    HW2 2217   6.006   6.271   2.292
  440SOL     OW 2218   3.457   1.563   6.303
  440SOL    HW1 2219   3.552   1.548   6.329
  440SOL    HW2 2220   3.444   1.659   6.278
  441SOL     OW 2221   5.809   4.199   3.314
  441SOL    HW1 2222   5.888   4.215   3.374
  441SOL    HW2 2223   5.725   4.220   3.364
  442SOL     OW 2224   4.930   5.120   5.510
  442SOL    HW1 2225   4.892   5.209   5.484
  442SOL    HW2 2226   4.857   5.063   5.547
  443SOL     OW 2227   5.808   4.195   4.376
  443SOL    HW1 2228   5.836   4.244   4.294
  443SOL    HW2 2229   5.829   4.250   4.457
  444SOL     OW 2230   4.427   1.178   6.779
  444SOL    HW1 2231   4.495   1.172   6.706
  444SOL    HW2 2232   4.347   1.228   6.746
  445SOL     OW 2233   2.103   5.932   3.483
  445SOL    HW1 2234   2.147   5.911   3.570
  445SOL    HW2 2235   2.171   5.964   3.417
  446SOL     OW 2236   3.977   5.729   2.887
  446SOL    HW1 2237   3.987   5.637   2.850
  446SOL    HW2 2238   4.068   5.767   2.904
  447SOL     OW 2239   6.388   3.114   4.807
  447SOL    HW1 2240   6.308   3.164   4.775
  447SOL    HW2 2241   6.467   3.175   4.811
  448SOL     OW 2242   1.923   1.043   2.783
  448SOL    HW1 2243   1.996   1.035   2.715
  448SOL    HW2 2244   1.919   1.137   2.818
  449SOL     OW 2245   2.301   1.780   3.254
  449SOL    HW1 2246   2.317   1.685   3.226
  449SOL    HW2 2247   2.251   1.780   3.341
  450SOL     OW 2248   1.989   4.553   3.474
  450SOL    HW1 2249   1.910   4.493   3.491
  450SOL    HW2 2250   1.959   4.648   3.475
  451SOL     OW 2251   1.624   2.260   4.281
  451SOL    HW1 2252   1.575   2.306   4.356
  451SOL    HW2 2253   1.704   2.212   4.318
  452SOL     OW 2254   4.114   0.381   1.324
  452SOL    HW1 2255   4.079   0.446   1.256
  452SOL    HW2 2256   4.049   0.305   1.334
  453SOL     OW 2257   3.474   6.702   6.235
  453SOL    HW1 2258   3.486   6.798   6.209
  453SOL    HW2 2259   3.376   6.681   6.241
  454SOL     OW 2260   6.929   3.915   6.784
  454SOL    HW1 2261   6.906   3.940   6.690
  454SOL    HW2 2262   0.012   3.912   6.794
  455SOL     OW 2263   6.506   3.103   5.248
  455SOL    HW1 2264   6.429   3.062   5.200
  455SOL    HW2 2265   6.591   3.062   5.215
  456SOL     OW 2266   1.933   0.676   4.559
  456SOL    HW1 2267   1.871   0.614   4.512
  456SOL    HW2 2268   1.973   0.739   4.493
  457SOL     OW 2269   1.289   4.617   4.413
  457SOL    HW1 2270   1.267   4.558   4.491
  457SOL    HW2 2271   1.241   4.583   4.331
  458SOL     OW 2272   3.696   0.436   3.102
  458SOL    HW1 2273   3.746   0.376   3.039
  458SOL    HW2 2274   3.696   0.529   3.065
  459SOL     OW 2275   1.959   0.369   5.727
  459SOL    HW1 2276   1.869   0.413   5.731
  459SOL    HW2 2277   1.950   0.272   5.747
  460SOL     OW 2278   1.222   0.748   4.891
  460SOL    HW1 2279   1.276   0.810   4.835
  460SOL    HW2 2280   1.257   0.747   4.985
  461SOL     OW 2281   6.602   5.250   5.728
  461SOL    HW1 2282   6.547   5.276   5.807
  461SOL    HW2 2283   6.662   5.174   5.753
  462SOL     OW 2284   4.121   3.825   5.112
  462SOL    HW1 2285   4.208   3.863   5.081
  462SOL    HW2 2286   4.048   3.890   5.090
  463SOL     OW 2287   6.731   0.305   2.973
  463SOL    HW1 2288   6.812   0.325   2.917
  463SOL    HW2 2289   6.761   0.277   3.064
  464SOL     OW 2290   2.961   0.524   5.732
  464SOL    HW1 2291   2.965   0.511   5.831
  464SOL    HW2 2292   2.924   0.441   5.689
  465SOL     OW 2293   0.841   2.623   6.958
  465SOL    HW1 2294   0.788   2.683   6.898
  465SOL    HW2 2295   0.858   2.669   0.029
  466SOL     OW 2296   2.621   6.394   3.959
  466SOL    HW1 2297   2.561   6.445   3.897
  466SOL    HW2 2298   2.705   6.445   3.973
  467SOL     OW 2299   1.108   1.938   2.564
  467SOL    HW1 2300   1.086   2.034   2.547
  467SOL    HW2 2301   1.032   1.881   2.535
  468SOL     OW 2302   4.247   6.239   5.825
  468SOL    HW1 2303   4.254   6.317   5.886
  468SOL    HW2 2304   4.310   6.167   5.855
  469SOL     OW 2305   3.087   4.354   5.675
  469SOL    HW1 2306   3.008   4.321   5.623
  469SOL    HW2 2307   3.148   4.404   5.614
  470SOL     OW 2308   4.265   5.684   2.535
  470SOL    HW1 2309   4.179   5.724   2.567
  470SOL    HW2 2310   4.284   5.716   2.442
  471SOL     OW 2311   3.012   2.211   4.053
  471SOL    HW1 2312   2.961   2.199   4.138
  471SOL    HW2 2313   3.110   2.199   4.071
  472SOL     OW 2314   5.802   4.946   6.904
  472SOL    HW1 2315   5.800   4.914   6.809
  472SOL    HW2 2316   5.853   4.881   6.960
  473SOL     OW 2317   6.915   2.031   2.589
  473SOL    HW1 2318   6.857   2.091   2.643
  473SOL    HW2 2319   6.999   2.080   2.563
  474SOL     OW 2320   6.108   5.372   5.740
  474SOL    HW1 2321   6.127   5.364   5.838
  474SOL    HW2 2322   6.011   5.357   5.723
  475SOL     OW 2323   6.261   3.524   0.138
  475SOL    HW1 2324   6.317   3.452   0.098
  475SOL    HW2 2325   6.321   3.597   0.172
  476SOL     OW 2326   0.220   3.913   1.737
  476SOL    HW1 2327   0.243   3.905   1.640
  476SOL    HW2 2328   0.120   3.913   1.748
  477SOL     OW 2329   2.146   5.614   3.652
  477SOL    HW1 2330   2.115   5.702   3.690
  477SOL    HW2 2331   2.089   5.540   3.688
  478SOL     OW 2332   4.203   6.457   3.576
  478SOL    HW1 2333   4.196   6.358   3.587
  478SOL    HW2 2334   4.204   6.500   3.666
  479SOL     OW 2335   3.170   3.325   4.852
  479SOL    HW1 2336   3.209   3.347   4.763
  479SOL    HW2 2337   3.123   3.236   4.847
  480SOL     OW 2338   2.097   0.512   2.146
  480SOL    HW1 2339   2.049   0.461   2.218
  480SOL    HW2 2340   2.078   0.471   2.057
  481SOL     OW 2341   0.806   6.950   1.641
  481SOL    HW1 2342   0.815   6.980   1.546
  481SOL    HW2 2343   0.849   0.000   1.702
  482SOL     OW 2344   4.770   5.026   2.863
  482SOL    HW1 2345   4.783   5.125   2.857
  482SOL    HW2 2346   4.845   4.979   2.816
  483SOL     OW 2347   6.733   2.199   2.687
  483SOL    HW1 2348   6.704   2.216   2.781
  483SOL    HW2 2349   6.679   2.254   2.624
  484SOL     OW 2350   1.502   4.420   5.021
  484SOL    HW1 2351   1.482   4.422   5.119
  484SOL    HW2 2352   1.601   4.407   5.008
  485SOL     OW 2353   5.404   3.610   2.470
  485SOL    HW1 2354   5.459   3.616   2.387
  485SOL    HW2 2355   5.456   3.644   2.548
  486SOL     OW 2356   5.848   1.369   6.464
  486SOL    HW1 2357   5.810   1.390   6.373
  486SOL    HW2 2358   5.902   1.286   6.459
  487SOL     OW 2359   0.841   0.274   3.126
  487SOL    HW1 2360   0.934   0.287   3.160
  487SOL    HW2 2361   0.808   0.360   3.086
  488SOL     OW 2362   1.779   6.754   3.335
  488SOL    HW1 2363   1.789   6.720   3.242
  488SOL    HW2 2364   1.720   6.693   3.387
  489SOL     OW 2365   5.822   5.544   5.130
  489SOL    HW1 2366   5.756   5.574   5.061
  489SOL    HW2 2367   5.893   5.614   5.141
  490SOL     OW 2368   1.708   6.022   4.544
  490SOL    HW1 2369   1.638   5.952   4.556
  490SOL    HW2 2370   1.692   6.070   4.457
  491SOL     OW 2371   0.873   3.159   0.146
  491SOL    HW1 2372   0.820   3.241   0.126
  491SOL    HW2 2373   0.952   3.184   0.202
  492SOL     OW 2374   1.851   1.146   5.917
  492SOL    HW1 2375   1.785   1.144   5.842
  492SOL    HW2 2376   1.806   1.177   6.000
  493SOL     OW 2377   2.504   7.016   5.662
  493SOL    HW1 2378   2.450   0.077   5.629
  493SOL    HW2 2379   2.444   6.937   5.675
  494SOL     OW 2380   2.150   1.326   6.345
  494SOL    HW1 2381   2.090   1.257   6.304
  494SOL    HW2 2382   2.233   1.335   6.289
  495SOL     OW 2383   3.823   6.384   5.187
  495SOL    HW1 2384   3.886   6.448   5.144
  495SOL    HW2 2385   3.852   6.364   5.280
  496SOL     OW 2386   6.163   1.404   2.415
  496SOL    HW1 2387   6.172   1.390   2.316
  496SOL    HW2 2388   6.230   1.347   2.463
  497SOL     OW 2389   3.863   0.971   4.426
  497SOL    HW1 2390   3.794   0.929   4.485
  497SOL    HW2 2391   3.920   0.900   4.385
  498SOL     OW 2392   0.819   4.663   2.040
  498SOL    HW1 2393   0.748   4.680   1.971
  498SOL    HW2 2394   0.839   4.749   2.088
  499SOL     OW 2395   2.148   5.843   5.352
  499SOL    HW1 2396   2.048   5.847   5.360
  499SOL    HW2 2397   2.173   5.827   5.256
  500SOL     OW 2398   5.354   3.235   5.688
  500SOL    HW1 2399   5.262   3.225   5.650
  500SOL    HW2 2400   5.418   3.176   5.638
  501SOL     OW 2401   3.056   0.433   1.966
  501SOL    HW1 2402   3.064   0.372   2.045
  501SOL    HW2 2403   3.019   0.383   1.889
  502SOL     OW 2404   1.047   4.638   6.622
  502SOL    HW1 2405   0.973   4.706   6.617
  502SOL    HW2 2406   1.020   4.556   6.573
  503SOL     OW 2407   1.864   5.219   6.409
  503SOL    HW1 2408   1.833   5.248   6.319
  503SOL    HW2 2409   1.956   5.181   6.402
  504SOL     OW 2410   0.604   5.515   1.923
  504SOL    HW1 2411   0.509   5.482   1.921
  504SOL    HW2 2412   0.628   5.543   2.016
  505SOL     OW 2413   4.009   0.423   5.076
  505SOL    HW1 2414   3.982   0.335   5.115
  505SOL    HW2 2415   4.047   0.408   4.985
  506SOL     OW 2416   3.019   5.888   2.520
  506SOL    HW1 2417   2.962   5.806   2.508
  506SOL    HW2 2418   3.025   5.938   2.434
  507SOL     OW 2419   3.977   0.660   2.080
  507SOL    HW1 2420   3.982   0.732   2.011
  507SOL    HW2 2421   3.881   0.645   2.105
  508SOL     OW 2422   6.698   2.143   3.228
  508SOL    HW1 2423   6.665   2.073   3.164
  508SOL    HW2 2424   6.796   2.157   3.216
  509SOL     OW 2425   4.533   0.676   0.187
  509SOL    HW1 2426   4.631   0.680   0.208
  509SOL    HW2 2427   4.515   0.727   0.103
  510SOL     OW 2428   6.737   4.648   6.114
  510SOL    HW1 2429   6.766   4.552   6.112
  510SOL    HW2 2430   6.654   4.658   6.059
  511SOL     OW 2431   1.089   1.842   6.719
  511SOL    HW1 2432   1.115   1.934   6.746
  511SOL    HW2 2433   1.124   1.776   6.786
  512SOL     OW 2434   5.995   2.889   6.926
  512SOL    HW1 2435   5.958   2.936   6.847
  512SOL    HW2 2436   6.071   2.941   6.964
  513SOL     OW 2437   5.180   6.607   2.386
  513SOL    HW1 2438   5.194   6.561   2.298
  513SOL    HW2 2439   5.253   6.580   2.449
  514SOL     OW 2440   0.326   0.166   4.563
  514SOL    HW1 2441   0.415   0.174   4.520
  514SOL    HW2 2442   0.313   0.072   4.594
  515SOL     OW 2443   2.263   0.449   6.604
  515SOL    HW1 2444   2.280   0.378   6.536
  515SOL    HW2 2445   2.168   0.446   6.633
  516SOL     OW 2446   2.327   4.460   2.095
  516SOL    HW1 2447   2.254   4.456   2.163
  516SOL    HW2 2448   2.408   4.504   2.135
  517SOL     OW 2449   3.366   4.915   2.459
  517SOL    HW1 2450   3.290   4.883   2.514
  517SOL    HW2 2451   3.353   4.887   2.364
  518SOL     OW 2452   2.443   2.211   3.764
  518SOL    HW1 2453   2.476   2.302   3.785
  518SOL    HW2 2454   2.465   2.149   3.839
  519SOL     OW 2455   0.540   6.504   3.228
  519SOL    HW1 2456   0.601   6.450   3.170
  519SOL    HW2 2457   0.448   6.506   3.188
  520SOL     OW 2458   0.686   3.872   6.520
  520SOL    HW1 2459   0.711   3.784   6.479
  520SOL    HW2 2460   0.717   3.947   6.461
  521SOL     OW 2461   4.453   5.799   4.770
  521SOL    HW1 2462   4.387   5.817   4.697
  521SOL    HW2 2463   4.491   5.708   4.759
  522SOL     OW 2464   4.098   3.680   2.242
  522SOL    HW1 2465   4.052   3.591   2.241
  522SOL    HW2 2466   4.197   3.667   2.245
  523SOL     OW 2467   0.103   5.910   1.928
  523SOL    HW1 2468   0.067   6.003   1.921
  523SOL    HW2 2469   0.027   5.844   1.924
  524SOL     OW 2470   1.034   3.143   2.399
  524SOL    HW1 2471   0.981   3.212   2.448
  524SOL    HW2 2472   1.112   3.114   2.456
  525SOL     OW 2473   2.157   4.234   6.623
  525SOL    HW1 2474   2.102   4.256   6.542
  525SOL    HW2 2475   2.105   4.176   6.684
  526SOL     OW 2476   2.856   6.818   3.693
  526SOL    HW1 2477   2.790   6.765   3.745
  526SOL    HW2 2478   2.940   6.765   3.681
  527SOL     OW 2479   0.581   2.484   6.962
  527SOL    HW1 2480   0.563   2.450   0.038
  527SOL    HW2 2481   0.680   2.495   6.949
  528SOL     OW 2482   1.409   2.680   4.027
  528SOL    HW1 2483   1.340   2.632   3.973
  528SOL    HW2 2484   1.384   2.776   4.036
  529SOL     OW 2485   2.133   0.120   5.375
  529SOL    HW1 2486   2.110   0.215   5.400
  529SOL    HW2 2487   2.154   0.116   5.278
  530SOL     OW 2488   3.756   2.954   2.506
  530SOL    HW1 2489   3.810   2.922   2.584
  530SOL    HW2 2490   3.660   2.926   2.518
  531SOL     OW 2491   1.181   0.869   2.709
  531SOL    HW1 2492   1.138   0.869   2.619
  531SOL    HW2 2493   1.149   0.790   2.762
  532SOL     OW 2494   1.459   3.798   0.312
  532SOL    HW1 2495   1.559   3.797   0.316
  532SOL    HW2 2496   1.428   3.754   0.228
  533SOL     OW 2497   4.841   6.927   4.054
  533SOL    HW1 2498   4.861   6.958   3.961
  533SOL    HW2 2499   4.884   6.989   4.120
  534SOL     OW 2500   6.727   6.240   2.248
  534SOL    HW1 2501   6.673   6.161   2.278
  534SOL    HW2 2502   6.685   6.280   2.167
  535SOL     OW 2503   0.127   4.235   3.093
  535SOL    HW1 2504   0.220   4.219   3.063
  535SOL    HW2 2505   0.069   4.255   3.014
  536SOL     OW 2506   6.569   5.075   2.869
  536SOL    HW1 2507   6.523   5.107   2.952
  536SOL    HW2 2508   6.531   4.987   2.842
  537SOL     OW 2509   3.512   0.052   4.399
  537SOL    HW1 2510   3.515   0.017   4.493
  537SOL    HW2 2511   3.582   0.122   4.388
  538SOL     OW 2512   1.007   4.360   4.696
  538SOL    HW1 2513   1.048   4.451   4.697
  538SOL    HW2 2514   1.079   4.291   4.699
  539SOL     OW 2515   1.848   5.442   1.792
  539SOL    HW1 2516   1.789   5.417   1.869
  539SOL    HW2 2517   1.859   5.362   1.732
  540SOL     OW 2518   1.744   0.525   4.011
  540SOL    HW1 2519   1.783   0.554   4.098
  540SOL    HW2 2520   1.663   0.580   3.991
  541SOL     OW 2521   4.836   5.666   3.943
  541SOL    HW1 2522   4.875   5.702   4.028
  541SOL    HW2 2523   4.746   5.708   3.928
  542SOL     OW 2524   3.939   5.946   6.445
  542SOL    HW1 2525   4.002   6.003   6.498
  542SOL    HW2 2526   3.895   5.880   6.505
  543SOL     OW 2527   5.741   3.420   3.367
  543SOL    HW1 2528   5.809   3.377   3.308
  543SOL    HW2 2529   5.692   3.490   3.315
  544SOL     OW 2530   0.470   5.226   0.378
  544SOL    HW1 2531   0.402   5.232   0.305
  544SOL    HW2 2532   0.505   5.133   0.384
  545SOL     OW 2533   4.400   1.397   0.724
  545SOL    HW1 2534   4.481   1.428   0.775
  545SOL    HW2 2535   4.418   1.306   0.685
  546SOL     OW 2536   1.459   4.011   2.121
  546SOL    HW1 2537   1.509   3.961   2.051
  546SOL    HW2 2538   1.362   4.017   2.095
  547SOL     OW 2539   3.126   2.909   0.797
  547SOL    HW1 2540   3.217   2.912   0.838
  547SOL    HW2 2541   3.115   2.823   0.748
  548SOL     OW 2542   3.753   3.794   1.302
  548SOL    HW1 2543   3.843   3.766   1.336
  548SOL    HW2 2544   3.757   3.806   1.202
  549SOL     OW 2545   5.148   2.581   1.765
  549SOL    HW1 2546   5.192   2.660   1.722
  549SOL    HW2 2547   5.103   2.610   1.849
  550SOL     OW 2548   1.076   5.131   3.248
  550SOL    HW1 2549   1.106   5.226   3.236
  550SOL    HW2 2550   1.016   5.105   3.172
  551SOL     OW 2551   6.852   0.209   1.543
  551SOL    HW1 2552   6.881   0.292   1.589
  551SOL    HW2 2553   6.924   0.178   1.481
  552SOL     OW 2554   5.722   3.908   5.537
  552SOL    HW1 2555   5.654   3.880   5.604
  552SOL    HW2 2556   5.703   3.863   5.449
  553SOL     OW 2557   3.019   6.673   3.211
  553SOL    HW1 2558   3.059   6.746   3.156
  553SOL    HW2 2559   2.925   6.656   3.182
  554SOL     OW 2560   5.721   6.509   0.099
  554SOL    HW1 2561   5.731   6.594   0.150
  554SOL    HW2 2562   5.710   6.433   0.162
  555SOL     OW 2563   2.655   4.950   4.946
  555SOL    HW1 2564   2.644   5.050   4.941
  555SOL    HW2 2565   2.710   4.927   5.027
  556SOL     OW 2566   4.648   1.442   4.343
  556SOL    HW1 2567   4.690   1.357   4.309
  556SOL    HW2 2568   4.550   1.428   4.355
  557SOL     OW 2569   6.962   5.112   6.403
  557SOL    HW1 2570   6.890   5.059   6.359
  557SOL    HW2 2571   0.031   5.101   6.353
  558SOL     OW 2572   3.057   3.226   4.053
  558SOL    HW1 2573   3.123   3.280   4.106
  558SOL    HW2 2574   3.106   3.156   4.002
  559SOL     OW 2575   6.848   5.544   5.467
  559SOL    HW1 2576   6.844   5.455   5.512
  559SOL    HW2 2577   6.877   5.532   5.372
  560SOL     OW 2578   6.757   4.179   3.075
  560SOL    HW1 2579   6.734   4.268   3.035
  560SOL    HW2 2580   6.672   4.130   3.097
  561SOL     OW 2581   0.357   2.440   0.574
  561SOL    HW1 2582   0.307   2.503   0.515
  561SOL    HW2 2583   0.377   2.485   0.661
  562SOL     OW 2584   3.976   0.959   5.907
  562SOL    HW1 2585   4.059   0.963   5.961
  562SOL    HW2 2586   3.998   0.969   5.810
  563SOL     OW 2587   1.828   1.378   3.245
  563SOL    HW1 2588   1.904   1.409   3.188
  563SOL    HW2 2589   1.792   1.455   3.297
  564SOL     OW 2590   1.506   2.873   0.277
  564SOL    HW1 2591   1.410   2.858   0.298
  564SOL    HW2 2592   1.563   2.811   0.331
  565SOL     OW 2593   3.141   3.461   3.498
  565SOL    HW1 2594   3.220   3.455   3.437
  565SOL    HW2 2595   3.111   3.369   3.524
  566SOL     OW 2596   1.577   3.239   3.911
  566SOL    HW1 2597   1.625   3.163   3.955
  566SOL    HW2 2598   1.493   3.258   3.961
  567SOL     OW 2599   3.285   2.771   1.321
  567SOL    HW1 2600   3.355   2.838   1.348
  567SOL    HW2 2601   3.199   2.793   1.367
  568SOL     OW 2602   4.921   6.875   0.286
  568SOL    HW1 2603   4.827   6.890   0.317
  568SOL    HW2 2604   4.982   6.938   0.334
  569SOL     OW 2605   1.103   2.960   0.665
  569SOL    HW1 2606   1.050   2.903   0.727
  569SOL    HW2 2607   1.063   3.052   0.662
  570SOL     OW 2608   2.910   0.204   6.528
  570SOL    HW1 2609   2.869   0.294   6.543
  570SOL    HW2 2610   2.982   0.189   6.597
  571SOL     OW 2611   2.857   5.188   4.230
  571SOL    HW1 2612   2.817   5.168   4.141
  571SOL    HW2 2613   2.784   5.206   4.296
  572SOL     OW 2614   1.991   5.007   5.485
  572SOL    HW1 2615   1.936   4.964   5.414
  572SOL    HW2 2616   2.087   5.011   5.456
  573SOL     OW 2617   5.991   1.247   6.014
  573SOL    HW1 2618   5.948   1.310   6.078
  573SOL    HW2 2619   6.085   1.278   5.995
  574SOL     OW 2620   3.645   0.315   5.004
  574SOL    HW1 2621   3.628   0.254   5.080
  574SOL    HW2 2622   3.683   0.263   4.927
  575SOL     OW 2623   4.230   2.726   1.667
  575SOL    HW1 2624   4.190   2.803   1.716
  575SOL    HW2 2625   4.157   2.668   1.631
  576SOL     OW 2626   1.067   3.328   3.181
  576SOL    HW1 2627   1.098   3.298   3.272
  576SOL    HW2 2628   1.145   3.357   3.127
  577SOL     OW 2629   1.599   1.039   2.193
  577SOL    HW1 2630   1.600   1.019   2.095
  577SOL    HW2 2631   1.584   0.955   2.245
  578SOL     OW 2632   0.464   5.149   4.854
  578SOL    HW1 2633   0.394   5.164   4.924
  578SOL    HW2 2634   0.428   5.179   4.765
  579SOL     OW 2635   1.684   4.156   3.177
  579SOL    HW1 2636   1.644   4.112   3.096
  579SOL    HW2 2637   1.670   4.097   3.257
  580SOL     OW 2638   4.199   5.099   5.692
  580SOL    HW1 2639   4.174   5.078   5.597
  580SOL    HW2 2640   4.153   5.035   5.753
  581SOL     OW 2641   2.102   3.408   2.143
  581SOL    HW1 2642   2.161   3.455   2.077
  581SOL    HW2 2643   2.006   3.431   2.125
  582SOL     OW 2644   4.329   5.252   2.513
  582SOL    HW1 2645   4.324   5.173   2.574
  582SOL    HW2 2646   4.357   5.333   2.564
  583SOL     OW 2647   2.605   6.314   5.330
  583SOL    HW1 2648   2.589   6.412   5.314
  583SOL    HW2 2649   2.534   6.279   5.391
  584SOL     OW 2650   2.990   6.673   6.252
  584SOL    HW1 2651   2.999   6.772   6.240
  584SOL    HW2 2652   2.902   6.652   6.294
  585SOL     OW 2653   4.130   0.800   7.001
  585SOL    HW1 2654   4.084   0.887   6.981
  585SOL    HW2 2655   4.228   0.816   7.015
  586SOL     OW 2656   3.511   0.514   0.335
  586SOL    HW1 2657   3.506   0.472   0.426
  586SOL    HW2 2658   3.602   0.555   0.322
  587SOL     OW 2659   4.373   2.361   3.158
  587SOL    HW1 2660   4.392   2.278   3.212
  587SOL    HW2 2661   4.293   2.346   3.100
  588SOL     OW 2662   2.243   4.875   1.408
  588SOL    HW1 2663   2.244   4.813   1.330
  588SOL    HW2 2664   2.148   4.902   1.428
  589SOL     OW 2665   3.491   5.619   2.186
  589SOL    HW1 2666   3.489   5.570   2.098
  589SOL    HW2 2667   3.570   5.680   2.188
  590SOL     OW 2668   5.382   1.647   0.953
  590SOL    HW1 2669   5.353   1.732   0.997
  590SOL    HW2 2670   5.476   1.626   0.978
  591SOL     OW 2671   3.604   6.331   3.500
  591SOL    HW1 2672   3.506   6.338   3.518
  591SOL    HW2 2673   3.653   6.395   3.559
  592SOL     OW 2674   4.379   0.665   2.016
  592SOL    HW1 2675   4.304   0.600   2.029
  592SOL    HW2 2676   4.460   0.631   2.063
  593SOL     OW 2677   4.583   2.161   3.827
  593SOL    HW1 2678   4.646   2.219   3.880
  593SOL    HW2 2679   4.630   2.125   3.747
  594SOL     OW 2680   5.953   0.361   0.875
  594SOL    HW1 2681   5.998   0.445   0.906
  594SOL    HW2 2682   5.881   0.383   0.810
  595SOL     OW 2683   5.318   6.623   3.438
  595SOL    HW1 2684   5.300   6.705   3.493
  595SOL    HW2 2685   5.334   6.650   3.343
  596SOL     OW 2686   0.223   5.044   2.925
  596SOL    HW1 2687   0.187   4.972   2.985
  596SOL    HW2 2688   0.323   5.037   2.921
  597SOL     OW 2689   2.966   6.590   6.674
  597SOL    HW1 2690   3.046   6.612   6.730
  597SOL    HW2 2691   2.970   6.494   6.646
  598SOL     OW 2692   3.694   4.172   4.561
  598SOL    HW1 2693   3.699   4.113   4.480
  598SOL    HW2 2694   3.612   4.229   4.556
  599SOL     OW 2695   2.250   5.924   2.801
  599SOL    HW1 2696   2.161   5.890   2.768
  599SOL    HW2 2697   2.267   5.888   2.893
  600SOL     OW 2698   6.261   2.139   6.296
  600SOL    HW1 2699   6.331   2.075   6.264
  600SOL    HW2 2700   6.279   2.230   6.258
  601SOL     OW 2701   1.511   0.796   4.096
  601SOL    HW1 2702   1.479   0.748   4.015
  601SOL    HW2 2703   1.510   0.733   4.174
  602SOL     OW 2704   2.254   0.326   6.358
  602SOL    HW1 2705   2.158   0.344   6.377
  602SOL    HW2 2706   2.262   0.269   6.277
  603SOL     OW 2707   2.908   2.358   5.251
  603SOL    HW1 2708   3.007   2.362   5.237
  603SOL    HW2 2709   2.876   2.447   5.284
  604SOL     OW 2710   0.970   1.432   1.342
  604SOL    HW1 2711   0.981   1.529   1.364
  604SOL    HW2 2712   0.929   1.423   1.252
  605SOL     OW 2713   6.369   4.558   0.891
  605SOL    HW1 2714   6.438   4.486   0.889
  605SOL    HW2 2715   6.285   4.525   0.849
  606SOL     OW 2716   5.036   6.467   5.604
  606SOL    HW1 2717   5.003   6.429   5.517
  606SOL    HW2 2718   5.133   6.488   5.595
  607SOL     OW 2719   6.469   4.647   5.110
  607SOL    HW1 2720   6.549   4.663   5.167
  607SOL    HW2 2721   6.411   4.577   5.152
  608SOL     OW 2722   3.945   6.213   0.036
  608SOL    HW1 2723   3.885   6.168   6.986
  608SOL    HW2 2724   3.993   6.144   0.090
  609SOL     OW 2725   3.270   2.979   2.484
  609SOL    HW1 2726   3.227   3.037   2.415
  609SOL    HW2 2727   3.231   2.999   2.574
  610SOL     OW 2728   5.532   3.207   0.469
  610SOL    HW1 2729   5.618   3.157   0.472
  610SOL    HW2 2730   5.518   3.246   0.378
  611SOL     OW 2731   4.712   0.326   1.579
  611SOL    HW1 2732   4.663   0.409   1.554
  611SOL    HW2 2733   4.671   0.248   1.533
  612SOL     OW 2734   3.318   5.805   4.449
  612SOL    HW1 2735   3.318   5.707   4.471
  612SOL    HW2 2736   3.328   5.858   4.533
  613SOL     OW 2737   4.445   4.977   5.625
  613SOL    HW1 2738   4.369   5.041   5.639
  613SOL    HW2 2739   4.471   4.937   5.713
  614SOL     OW 2740   4.885   5.088   5.815
  614SOL    HW1 2741   4.983   5.069   5.802
  614SOL    HW2 2742   4.849   5.029   5.887
  615SOL     OW 2743   6.797   2.074   1.127
  615SOL    HW1 2744   6.795   2.117   1.217
  615SOL    HW2 2745   6.770   2.141   1.058
  616SOL     OW 2746   0.089   2.235   2.102
  616SOL    HW1 2747   0.006   2.187   2.128
  616SOL    HW2 2748   0.168   2.195   2.149
  617SOL     OW 2749   0.278   4.501   5.789
  617SOL    HW1 2750   0.355   4.526   5.731
  617SOL    HW2 2751   0.214   4.446   5.737
  618SOL     OW 2752   1.008   2.336   0.672
  618SOL    HW1 2753   1.043   2.395   0.745
  618SOL    HW2 2754   0.960   2.393   0.604
  619SOL     OW 2755   3.261   1.520   0.878
  619SOL    HW1 2756   3.320   1.593   0.912
  619SOL    HW2 2757   3.283   1.435   0.926
  620SOL     OW 2758   4.570   2.108   1.016
  620SOL    HW1 2759   4.634   2.047   0.969
  620SOL    HW2 2760   4.487   2.117   0.961
  621SOL     OW 2761   3.353   5.973   6.787
  621SOL    HW1 2762   3.364   5.927   6.699
  621SOL    HW2 2763   3.284   5.925   6.842
  622SOL     OW 2764   0.952   0.739   5.874
  622SOL    HW1 2765   0.991   0.647   5.886
  622SOL    HW2 2766   1.004   0.804   5.929
  623SOL     OW 2767   1.268   5.835   5.695
  623SOL    HW1 2768   1.196   5.806   5.757
  623SOL    HW2 2769   1.301   5.755   5.643
  624SOL     OW 2770   0.136   2.319   1.294
  624SOL    HW1 2771   0.096   2.311   1.203
  624SOL    HW2 2772   0.205   2.392   1.293
  625SOL     OW 2773   2.400   1.858   1.762
  625SOL    HW1 2774   2.306   1.881   1.736
  625SOL    HW2 2775   2.400   1.821   1.855
  626SOL     OW 2776   2.689   5.426   3.745
  626SOL    HW1 2777   2.714   5.361   3.674
  626SOL    HW2 2778   2.604   5.397   3.789
  627SOL     OW 2779   5.145   7.013   0.442
  627SOL    HW1 2780   5.120   0.093   0.448
  627SOL    HW2 2781   5.206   6.999   0.365
  628SOL     OW 2782   5.833   5.427   5.729
  628SOL    HW1 2783   5.814   5.518   5.765
  628SOL    HW2 2784   5.753   5.392   5.681
  629SOL     OW 2785   6.972   6.722   0.590
  629SOL    HW1 2786   6.902   6.791   0.610
  629SOL    HW2 2787   0.039   6.768   0.561
  630SOL     OW 2788   6.736   1.303   2.372
  630SOL    HW1 2789   6.656   1.299   2.312
  630SOL    HW2 2790   6.728   1.233   2.443
  631SOL     OW 2791   3.131   6.861   4.940
  631SOL    HW1 2792   3.079   6.781   4.910
  631SOL    HW2 2793   3.174   6.842   5.028
  632SOL     OW 2794   2.778   1.654   0.454
  632SOL    HW1 2795   2.813   1.655   0.360
  632SOL    HW2 2796   2.845   1.613   0.515
  633SOL     OW 2797   4.627   4.505   0.448
  633SOL    HW1 2798   4.722   4.486   0.475
  633SOL    HW2 2799   4.618   4.497   0.349
  634SOL     OW 2800   4.648   4.507   1.928
  634SOL    HW1 2801   4.599   4.423   1.952
  634SOL    HW2 2802   4.671   4.505   1.831
  635SOL     OW 2803   4.714   5.170   1.459
  635SOL    HW1 2804   4.622   5.163   1.422
  635SOL    HW2 2805   4.742   5.266   1.462
  636SOL     OW 2806   4.840   5.950   6.864
  636SOL    HW1 2807   4.847   6.030   6.923
  636SOL    HW2 2808   4.881   5.871   6.909
  637SOL     OW 2809   6.555   3.537   1.896
  637SOL    HW1 2810   6.498   3.461   1.927
  637SOL    HW2 2811   6.496   3.607   1.855
  638SOL     OW 2812   5.119   2.046   2.179
  638SOL    HW1 2813   5.166   2.029   2.266
  638SOL    HW2 2814   5.122   2.144   2.158
  639SOL     OW 2815   5.533   4.113   2.592
  639SOL    HW1 2816   5.578   4.058   2.521
  639SOL    HW2 2817   5.435   4.097   2.590
  640SOL     OW 2818   0.683   4.968   4.904
  640SOL    HW1 2819   0.724   4.899   4.844
  640SOL    HW2 2820   0.594   4.995   4.867
  641SOL     OW 2821   6.951   5.676   4.432
  641SOL    HW1 2822   6.930   5.687   4.335
  641SOL    HW2 2823   7.007   5.753   4.463
  642SOL     OW 2824   6.759   4.185   4.251
  642SOL    HW1 2825   6.709   4.185   4.165
  642SOL    HW2 2826   6.747   4.096   4.296
  643SOL     OW 2827   5.678   4.801   5.097
  643SOL    HW1 2828   5.656   4.857   5.177
  643SOL    HW2 2829   5.766   4.756   5.110
  644SOL     OW 2830   1.118   6.223   4.020
  644SOL    HW1 2831   1.162   6.297   3.968
  644SOL    HW2 2832   1.123   6.243   4.117
  645SOL     OW 2833   5.273   2.502   4.430
  645SOL    HW1 2834   5.272   2.468   4.524
  645SOL    HW2 2835   5.249   2.428   4.368
  646SOL     OW 2836   2.126   1.440   3.478
  646SOL    HW1 2837   2.120   1.540   3.485
  646SOL    HW2 2838   2.178   1.404   3.556
  647SOL     OW 2839   5.509   2.330   5.778
  647SOL    HW1 2840   5.483   2.262   5.846
  647SOL    HW2 2841   5.602   2.362   5.795
  648SOL     OW 2842   0.099   4.090   3.312
  648SOL    HW1 2843   0.086   3.994   3.291
  648SOL    HW2 2844   0.105   4.143   3.227
  649SOL     OW 2845   3.922   4.337   0.846
  649SOL    HW1 2846   3.823   4.337   0.833
  649SOL    HW2 2847   3.947   4.261   0.907
  650SOL     OW 2848   5.160   4.204   0.733
  650SOL    HW1 2849   5.259   4.199   0.730
  650SOL    HW2 2850   5.121   4.112   0.736
  651SOL     OW 2851   6.809   6.506   6.733
  651SOL    HW1 2852   6.777   6.423   6.688
  651SOL    HW2 2853   6.861   6.482   6.815
  652SOL     OW 2854   5.728   6.091   3.559
  652SOL    HW1 2855   5.753   5.999   3.529
  652SOL    HW2 2856   5.805   6.132   3.608
  653SOL     OW 2857   3.476   6.206   4.923
  653SOL    HW1 2858   3.488   6.191   4.825
  653SOL    HW2 2859   3.379   6.221   4.942
  654SOL     OW 2860   0.206   3.918   5.844
  654SOL    HW1 2861   0.139   3.962   5.784
  654SOL    HW2 2862   0.176   3.824   5.862
  655SOL     OW 2863   0.859   6.669   2.260
  655SOL    HW1 2864   0.899   6.614   2.334
  655SOL    HW2 2865   0.865   6.766   2.283
  656SOL     OW 2866   1.723   5.554   1.534
  656SOL    HW1 2867   1.737   5.506   1.621
  656SOL    HW2 2868   1.763   5.500   1.460
  657SOL     OW 2869   1.813   1.989   1.638
  657SOL    HW1 2870   1.819   2.027   1.731
  657SOL    HW2 2871   1.769   1.900   1.642
  658SOL     OW 2872   2.937   3.934   6.337
  658SOL    HW1 2873   2.990   3.944   6.421
  658SOL    HW2 2874   2.977   3.862   6.281
  659SOL     OW 2875   2.421   6.272   6.101
  659SOL    HW1 2876   2.407   6.173   6.092
  659SOL    HW2 2877   2.372   6.319   6.029
  660SOL     OW 2878   5.331   3.898   1.705
  660SOL    HW1 2879   5.349   3.803   1.731
  660SOL    HW2 2880   5.402   3.929   1.642
  661SOL     OW 2881   4.392   6.692   3.865
  661SOL    HW1 2882   4.478   6.654   3.831
  661SOL    HW2 2883   4.373   6.779   3.819
  662SOL     OW 2884   4.339   1.311   5.264
  662SOL    HW1 2885   4.437   1.293   5.249
  662SOL    HW2 2886   4.326   1.408   5.284
  663SOL     OW 2887   2.698   4.032   6.212
  663SOL    HW1 2888   2.687   3.967   6.137
  663SOL    HW2 2889   2.786   4.015   6.258
  664SOL     OW 2890   6.992   5.975   6.547
  664SOL    HW1 2891   6.993   6.072   6.521
  664SOL    HW2 2892   6.911   5.931   6.509
  665SOL     OW 2893   4.307   5.470   1.662
  665SOL    HW1 2894   4.263   5.392   1.706
  665SOL    HW2 2895   4.402   5.477   1.692
  666SOL     OW 2896   5.181   1.446   1.857
  666SOL    HW1 2897   5.249   1.448   1.785
  666SOL    HW2 2898   5.226   1.432   1.945
  667SOL     OW 2899   1.179   4.922   2.590
  667SOL    HW1 2900   1.243   4.847   2.570
  667SOL    HW2 2901   1.086   4.892   2.569
  668SOL     OW 2902   4.699   6.150   6.034
  668SOL    HW1 2903   4.699   6.192   5.943
  668SOL    HW2 2904   4.690   6.221   6.104
  669SOL     OW 2905   5.436   6.751   3.230
  669SOL    HW1 2906   5.528   6.721   3.203
  669SOL    HW2 2907   5.439   6.848   3.254
  670SOL     OW 2908   3.177   2.439   1.736
  670SOL    HW1 2909   3.201   2.529   1.772
  670SOL    HW2 2910   3.089   2.411   1.774
  671SOL     OW 2911   3.080   6.573   1.046
  671SOL    HW1 2912   3.151   6.635   1.013
  671SOL    HW2 2913   3.004   6.573   0.981
  672SOL     OW 2914   6.961   5.679   1.888
  672SOL    HW1 2915   6.995   5.594   1.847
  672SOL    HW2 2916   6.875   5.660   1.936
  673SOL     OW 2917   6.409   0.297   1.587
  673SOL    HW1 2918   6.474   0.302   1.663
  673SOL    HW2 2919   6.355   0.381   1.583
  674SOL     OW 2920   0.190   1.218   5.007
  674SOL    HW1 2921   0.284   1.186   5.021
  674SOL    HW2 2922   0.192   1.311   4.971
  675SOL     OW 2923   6.938   2.237   1.828
  675SOL    HW1 2924   0.005   2.226   1.881
  675SOL    HW2 2925   6.899   2.328   1.844
  676SOL     OW 2926   3.102   5.379   3.562
  676SOL    HW1 2927   3.052   5.298   3.591
  676SOL    HW2 2928   3.194   5.353   3.532
  677SOL     OW 2929   5.356   1.595   0.217
  677SOL    HW1 2930   5.317   1.599   0.125
  677SOL    HW2 2931   5.427   1.665   0.226
  678SOL     OW 2932   2.575   6.677   4.933
  678SOL    HW1 2933   2.622   6.612   4.874
  678SOL    HW2 2934   2.494   6.712   4.885
  679SOL     OW 2935   4.852   2.180   3.975
  679SOL    HW1 2936   4.886   2.153   4.066
  679SOL    HW2 2937   4.891   2.119   3.906
  680SOL     OW 2938   5.323   5.599   4.925
  680SOL    HW1 2939   5.302   5.508   4.961
  680SOL    HW2 2940   5.381   5.648   4.991
  681SOL     OW 2941   4.380   5.206   1.500
  681SOL    HW1 2942   4.387   5.292   1.449
  681SOL    HW2 2943   4.328   5.220   1.583
  682SOL     OW 2944   6.383   0.573   1.383
  682SOL    HW1 2945   6.303   0.545   1.331
  682SOL    HW2 2946   6.359   0.582   1.480
  683SOL     OW 2947   5.281   2.657   0.780
  683SOL    HW1 2948   5.199   2.688   0.732
  683SOL    HW2 2949   5.268   2.564   0.815
  684SOL     OW 2950   6.252   1.324   0.690
  684SOL    HW1 2951   6.250   1.232   0.730
  684SOL    HW2 2952   6.324   1.377   0.734
  685SOL     OW 2953   3.557   1.662   4.093
  685SOL    HW1 2954   3.503   1.734   4.137
  685SOL    HW2 2955   3.505   1.623   4.017
  686SOL     OW 2956   4.652   2.691   3.969
  686SOL    HW1 2957   4.675   2.762   4.037
  686SOL    HW2 2958   4.633   2.605   4.016
  687SOL     OW 2959   0.951   2.058   4.266
  687SOL    HW1 2960   1.024   2.068   4.198
  687SOL    HW2 2961   0.991   2.042   4.356
  688SOL     OW 2962   0.589   2.221   6.535
  688SOL    HW1 2963   0.516   2.276   6.575
  688SOL    HW2 2964   0.666   2.281   6.511
  689SOL     OW 2965   1.182   4.790   6.422
  689SOL    HW1 2966   1.144   4.746   6.503
  689SOL    HW2 2967   1.116   4.787   6.347
  690SOL     OW 2968   0.055   2.920   3.323
  690SOL    HW1 2969   0.027   3.015   3.338
  690SOL    HW2 2970   0.145   2.904   3.364
  691SOL     OW 2971   3.068   0.998   0.110
  691SOL    HW1 2972   3.008   0.919   0.117
  691SOL    HW2 2973   3.122   0.993   0.026
  692SOL     OW 2974   3.906   1.611   3.777
  692SOL    HW1 2975   3.842   1.669   3.827
  692SOL    HW2 2976   3.923   1.650   3.687
  693SOL     OW 2977   5.464   0.087   4.031
  693SOL    HW1 2978   5.500   7.012   4.015
  693SOL    HW2 2979   5.386   0.082   4.094
  694SOL     OW 2980   4.571   0.009   4.352
  694SOL    HW1 2981   4.666   0.037   4.365
  694SOL    HW2 2982   4.557   6.936   4.394
  695SOL     OW 2983   4.270   0.064   4.001
  695SOL    HW1 2984   4.366   0.046   4.025
  695SOL    HW2 2985   4.258   0.162   3.983
  696SOL     OW 2986   4.484   4.876   3.784
  696SOL    HW1 2987   4.541   4.796   3.803
  696SOL    HW2 2988   4.391   4.847   3.764
  697SOL     OW 2989   1.378   4.083   2.832
  697SOL    HW1 2990   1.405   4.059   2.925
  697SOL    HW2 2991   1.429   4.164   2.803
  698SOL     OW 2992   5.060   6.521   1.014
  698SOL    HW1 2993   5.047   6.600   0.955
  698SOL    HW2 2994   5.103   6.549   1.100
  699SOL     OW 2995   1.874   3.694   6.891
  699SOL    HW1 2996   1.849   3.695   6.794
  699SOL    HW2 2997   1.806   3.641   6.943
  700SOL     OW 2998   3.513   1.405   2.437
  700SOL    HW1 2999   3.604   1.417   2.400
  700SOL    HW2 3000   3.450   1.470   2.394
  701SOL     OW 3001   6.543   3.658   6.964
  701SOL    HW1 3002   6.520   3.561   6.955
  701SOL    HW2 3003   6.577   3.692   6.877
  702SOL     OW 3004   1.445   6.099   4.927
  702SOL    HW1 3005   1.400   6.125   4.842
  702SOL    HW2 3006   1.483   6.180   4.971
  703SOL     OW 3007   3.457   3.052   6.028
  703SOL    HW1 3008   3.404   3.023   6.107
  703SOL    HW2 3009   3.522   2.980   6.004
  704SOL     OW 3010   1.757   2.836   6.316
  704SOL    HW1 3011   1.704   2.915   6.346
  704SOL    HW2 3012   1.778   2.845   6.218
  705SOL     OW 3013   6.398   4.853   2.890
  705SOL    HW1 3014   6.419   4.761   2.859
  705SOL    HW2 3015   6.324   4.892   2.834
  706SOL     OW 3016   4.074   1.689   4.799
  706SOL    HW1 3017   4.097   1.781   4.833
  706SOL    HW2 3018   4.064   1.626   4.876
  707SOL     OW 3019   4.508   5.020   3.431
  707SOL    HW1 3020   4.440   5.069   3.376
  707SOL    HW2 3021   4.508   5.057   3.524
  708SOL     OW 3022   2.970   0.675   2.669
  708SOL    HW1 3023   2.948   0.737   2.593
  708SOL    HW2 3024   3.062   0.639   2.657
  709SOL     OW 3025   0.538   5.883   0.474
  709SOL    HW1 3026   0.595   5.844   0.547
  709SOL    HW2 3027   0.597   5.917   0.400
  710SOL     OW 3028   4.088   2.281   1.295
  710SOL    HW1 3029   4.137   2.366   1.313
  710SOL    HW2 3030   4.153   2.210   1.270
  711SOL     OW 3031   0.050   3.110   6.016
  711SOL    HW1 3032   0.030   3.168   6.095
  711SOL    HW2 3033   0.141   3.069   6.027
  712SOL     OW 3034   4.655   2.329   1.200
  712SOL    HW1 3035   4.718   2.274   1.146
  712SOL    HW2 3036   4.617   2.274   1.274
  713SOL     OW 3037   3.587   3.519   6.094
  713SOL    HW1 3038   3.498   3.515   6.140
  713SOL    HW2 3039   3.600   3.436   6.039
  714SOL     OW 3040   0.207   5.159   3.691
  714SOL    HW1 3041   0.112   5.184   3.672
  714SOL    HW2 3042   0.218   5.060   3.680
  715SOL     OW 3043   5.234   5.952   6.823
  715SOL    HW1 3044   5.232   5.869   6.768
  715SOL    HW2 3045   5.172   6.020   6.784
  716SOL     OW 3046   0.762   1.162   1.850
  716SOL    HW1 3047   0.773   1.239   1.787
  716SOL    HW2 3048   0.823   1.087   1.823
  717SOL     OW 3049   6.881   4.756   3.971
  717SOL    HW1 3050   6.930   4.668   3.968
  717SOL    HW2 3051   6.946   4.830   3.955
  718SOL     OW 3052   4.835   3.564   6.067
  718SOL    HW1 3053   4.810   3.631   6.137
  718SOL    HW2 3054   4.933   3.571   6.047
  719SOL     OW 3055   6.348   6.959   2.587
  719SOL    HW1 3056   6.249   6.945   2.595
  719SOL    HW2 3057   6.366   0.016   2.522
  720SOL     OW 3058   2.235   7.014   6.348
  720SOL    HW1 3059   2.220   0.069   6.280
  720SOL    HW2 3060   2.328   0.005   6.384
  721SOL     OW 3061   2.290   2.001   2.096
  721SOL    HW1 3062   2.370   2.059   2.079
  721SOL    HW2 3063   2.214   2.033   2.039
  722SOL     OW 3064   2.402   0.994   5.603
  722SOL    HW1 3065   2.498   0.966   5.605
  722SOL    HW2 3066   2.371   1.014   5.696
  723SOL     OW 3067   2.211   4.428   3.573
  723SOL    HW1 3068   2.193   4.362   3.647
  723SOL    HW2 3069   2.125   4.474   3.550
  724SOL     OW 3070   0.680   1.412   3.664
  724SOL    HW1 3071   0.651   1.317   3.673
  724SOL    HW2 3072   0.665   1.443   3.570
  725SOL     OW 3073   1.638   5.675   2.653
  725SOL    HW1 3074   1.563   5.621   2.616
  725SOL    HW2 3075   1.649   5.655   2.751
  726SOL     OW 3076   3.100   5.062   1.668
  726SOL    HW1 3077   3.162   5.069   1.746
  726SOL    HW2 3078   3.093   5.150   1.622
  727SOL     OW 3079   6.167   4.584   5.928
  727SOL    HW1 3080   6.219   4.633   5.858
  727SOL    HW2 3081   6.176   4.485   5.914
  728SOL     OW 3082   6.397   3.271   3.732
  728SOL    HW1 3083   6.306   3.236   3.713
  728SOL    HW2 3084   6.464   3.198   3.721
  729SOL     OW 3085   0.321   2.238   0.957
  729SOL    HW1 3086   0.244   2.180   0.986
  729SOL    HW2 3087   0.407   2.196   0.984
  730SOL     OW 3088   6.707   0.105   4.376
  730SOL    HW1 3089   6.783   0.125   4.314
  730SOL    HW2 3090   6.743   0.072   4.464
  731SOL     OW 3091   4.054   5.187   6.275
  731SOL    HW1 3092   3.967   5.225   6.246
  731SOL    HW2 3093   4.059   5.189   6.375
  732SOL     OW 3094   5.996   2.901   1.583
  732SOL    HW1 3095   5.951   2.866   1.501
  732SOL    HW2 3096   6.014   2.826   1.646
  733SOL     OW 3097   5.598   6.969   4.825
  733SOL    HW1 3098   5.694   6.988   4.802
  733SOL    HW2 3099   5.551   0.039   4.843
  734SOL     OW 3100   6.130   4.701   2.707
  734SOL    HW1 3101   6.115   4.799   2.690
  734SOL    HW2 3102   6.046   4.659   2.741
  735SOL     OW 3103   4.109   1.805   0.790
  735SOL    HW1 3104   4.080   1.815   0.695
  735SOL    HW2 3105   4.055   1.867   0.848
  736SOL     OW 3106   1.005   1.245   3.574
  736SOL    HW1 3107   1.025   1.325   3.630
  736SOL    HW2 3108   1.090   1.199   3.549
  737SOL     OW 3109   4.974   1.959   5.576
  737SOL    HW1 3110   4.975   1.983   5.673
  737SOL    HW2 3111   4.881   1.933   5.549
  738SOL     OW 3112   3.012   4.004   1.506
  738SOL    HW1 3113   2.944   3.962   1.445
  738SOL    HW2 3114   2.965   4.065   1.570
  739SOL     OW 3115   5.100   0.777   4.401
  739SOL    HW1 3116   5.022   0.772   4.464
  739SOL    HW2 3117   5.067   0.767   4.307
  740SOL     OW 3118   5.908   0.985   2.729
  740SOL    HW1 3119   5.845   0.932   2.785
  740SOL    HW2 3120   5.859   1.025   2.652
  741SOL     OW 3121   1.681   0.238   3.347
  741SOL    HW1 3122   1.699   0.306   3.275
  741SOL    HW2 3123   1.627   0.164   3.309
  742SOL     OW 3124   2.273   6.824   1.922
  742SOL    HW1 3125   2.356   6.859   1.879
  742SOL    HW2 3126   2.211   6.787   1.853
  743SOL     OW 3127   0.730   5.269   3.009
  743SOL    HW1 3128   0.822   5.229   3.011
  743SOL    HW2 3129   0.662   5.197   3.020
  744SOL     OW 3130   5.818   1.097   1.024
  744SOL    HW1 3131   5.778   1.016   1.066
  744SOL    HW2 3132   5.890   1.133   1.084
  745SOL     OW 3133   1.564   5.485   5.143
  745SOL    HW1 3134   1.546   5.576   5.181
  745SOL    HW2 3135   1.661   5.476   5.122
  746SOL     OW 3136   6.212   3.962   6.012
  746SOL    HW1 3137   6.225   4.009   6.100
  746SOL    HW2 3138   6.298   3.922   5.982
  747SOL     OW 3139   3.930   5.999   4.754
  747SOL    HW1 3140   3.911   5.979   4.658
  747SOL    HW2 3141   3.857   5.963   4.811
  748SOL     OW 3142   4.342   5.015   2.712
  748SOL    HW1 3143   4.401   5.084   2.754
  748SOL    HW2 3144   4.396   4.959   2.649
  749SOL     OW 3145   6.185   3.718   4.524
  749SOL    HW1 3146   6.117   3.710   4.451
  749SOL    HW2 3147   6.276   3.733   4.484
  750SOL     OW 3148   2.911   1.085   0.950
  750SOL    HW1 3149   2.961   1.003   0.978
  750SOL    HW2 3150   2.815   1.062   0.934
  751SOL     OW 3151   4.571   1.828   0.264
  751SOL    HW1 3152   4.613   1.798   0.349
  751SOL    HW2 3153   4.602   1.771   0.189
  752SOL     OW 3154   2.578   2.944   0.944
  752SOL    HW1 3155   2.635   2.934   1.026
  752SOL    HW2 3156   2.620   3.009   0.881
  753SOL     OW 3157   0.626   3.704   5.842
  753SOL    HW1 3158   0.673   3.685   5.755
  753SOL    HW2 3159   0.568   3.785   5.831
  754SOL     OW 3160   4.577   1.237   6.554
  754SOL    HW1 3161   4.601   1.315   6.612
  754SOL    HW2 3162   4.656   1.210   6.499
  755SOL     OW 3163   1.759   4.470   5.001
  755SOL    HW1 3164   1.826   4.497   5.070
  755SOL    HW2 3165   1.806   4.436   4.920
  756SOL     OW 3166   2.358   5.736   0.175
  756SOL    HW1 3167   2.309   5.804   0.120
  756SOL    HW2 3168   2.292   5.682   0.226
  757SOL     OW 3169   0.364   6.517   4.351
  757SOL    HW1 3170   0.450   6.500   4.400
  757SOL    HW2 3171   0.381   6.515   4.253
  758SOL     OW 3172   4.496   0.581   3.358
  758SOL    HW1 3173   4.511   0.624   3.269
  758SOL    HW2 3174   4.579   0.531   3.386
  759SOL     OW 3175   0.456   2.689   2.560
  759SOL    HW1 3176   0.555   2.705   2.550
  759SOL    HW2 3177   0.406   2.763   2.515
  760SOL     OW 3178   6.037   6.884   3.619
  760SOL    HW1 3179   5.993   6.930   3.542
  760SOL    HW2 3180   6.076   6.797   3.588
  761SOL     OW 3181   5.245   4.262   6.377
  761SOL    HW1 3182   5.256   4.283   6.474
  761SOL    HW2 3183   5.336   4.258   6.334
  762SOL     OW 3184   3.042   0.406   5.395
  762SOL    HW1 3185   3.040   0.317   5.440
  762SOL    HW2 3186   3.137   0.436   5.384
  763SOL     OW 3187   4.003   5.914   6.165
  763SOL    HW1 3188   4.051   5.863   6.236
  763SOL    HW2 3189   3.933   5.972   6.206
  764SOL     OW 3190   5.599   1.133   5.828
  764SOL    HW1 3191   5.614   1.045   5.871
  764SOL    HW2 3192   5.643   1.135   5.738
  765SOL     OW 3193   1.552   5.983   0.877
  765SOL    HW1 3194   1.607   6.054   0.920
  765SOL    HW2 3195   1.499   5.935   0.946
  766SOL     OW 3196   2.650   2.074   5.405
  766SOL    HW1 3197   2.687   2.152   5.455
  766SOL    HW2 3198   2.641   2.097   5.308
  767SOL     OW 3199   6.544   6.336   3.795
  767SOL    HW1 3200   6.464   6.279   3.774
  767SOL    HW2 3201   6.581   6.373   3.710
  768SOL     OW 3202   1.691   4.976   3.236
  768SOL    HW1 3203   1.648   4.993   3.324
  768SOL    HW2 3204   1.789   4.993   3.243
  769SOL     OW 3205   2.563   1.029   5.313
  769SOL    HW1 3206   2.498   0.970   5.265
  769SOL    HW2 3207   2.596   0.982   5.395
  770SOL     OW 3208   1.640   5.436   4.098
  770SOL    HW1 3209   1.689   5.384   4.168
  770SOL    HW2 3210   1.548   5.399   4.088
  771SOL     OW 3211   1.008   4.763   2.979
  771SOL    HW1 3212   0.935   4.732   2.918
  771SOL    HW2 3213   0.981   4.850   3.021
  772SOL     OW 3214   6.136   4.608   0.129
  772SOL    HW1 3215   6.191   4.643   0.053
  772SOL    HW2 3216   6.095   4.521   0.103
  773SOL     OW 3217   0.434   4.333   3.310
  773SOL    HW1 3218   0.464   4.266   3.242
  773SOL    HW2 3219   0.513   4.361   3.366
  774SOL     OW 3220   1.668   1.755   1.703
  774SOL    HW1 3221   1.636   1.747   1.798
  774SOL    HW2 3222   1.591   1.744   1.641
  775SOL     OW 3223   2.037   1.645   3.877
  775SOL    HW1 3224   2.087   1.706   3.816
  775SOL    HW2 3225   2.100   1.576   3.914
  776SOL     OW 3226   6.974   0.445   6.164
  776SOL    HW1 3227   6.934   0.449   6.073
  776SOL    HW2 3228   0.021   0.522   6.176
  777SOL     OW 3229   1.854   4.097   1.325
  777SOL    HW1 3230   1.940   4.137   1.291
  777SOL    HW2 3231   1.777   4.142   1.280
  778SOL     OW 3232   2.323   0.356   1.300
  778SOL    HW1 3233   2.246   0.316   1.349
  778SOL    HW2 3234   2.336   0.307   1.214
  779SOL     OW 3235   6.736   2.298   2.322
  779SOL    HW1 3236   6.827   2.339   2.325
  779SOL    HW2 3237   6.678   2.340   2.391
  780SOL     OW 3238   0.614   2.623   4.287
  780SOL    HW1 3239   0.702   2.605   4.243
  780SOL    HW2 3240   0.577   2.538   4.323
  781SOL     OW 3241   5.711   6.182   0.942
  781SOL    HW1 3242   5.627   6.177   0.996
  781SOL    HW2 3243   5.716   6.272   0.897
  782SOL     OW 3244   1.603   3.377   5.626
  782SOL    HW1 3245   1.641   3.443   5.561
  782SOL    HW2 3246   1.678   3.335   5.678
  783SOL     OW 3247   4.897   4.612   1.968
  783SOL    HW1 3248   4.806   4.570   1.973
  783SOL    HW2 3249   4.963   4.555   2.017
  784SOL     OW 3250   3.714   5.147   1.699
  784SOL    HW1 3251   3.729   5.076   1.768
  784SOL    HW2 3252   3.753   5.117   1.612
  785SOL     OW 3253   0.702   1.519   3.404
  785SOL    HW1 3254   0.696   1.519   3.305
  785SOL    HW2 3255   0.678   1.609   3.440
  786SOL     OW 3256   0.082   0.136   2.506
  786SOL    HW1 3257   0.128   0.220   2.479
  786SOL    HW2 3258   0.149   0.068   2.537
  787SOL     OW 3259   1.522   0.750   6.989
  787SOL    HW1 3260   1.479   0.665   6.959
  787SOL    HW2 3261   1.491   0.773   0.064
  788SOL     OW 3262   4.516   2.019   1.298
  788SOL    HW1 3263   4.568   2.022   1.213
  788SOL    HW2 3264   4.563   2.074   1.368
  789SOL     OW 3265   4.194   4.985   1.894
  789SOL    HW1 3266   4.238   4.901   1.924
  789SOL    HW2 3267   4.095   4.970   1.886
  790SOL     OW 3268   2.809   1.770   2.909
  790SOL    HW1 3269   2.825   1.675   2.938
  790SOL    HW2 3270   2.821   1.830   2.988
  791SOL     OW 3271   2.333   6.249   4.899
  791SOL    HW1 3272   2.265   6.180   4.877
  791SOL    HW2 3273   2.393   6.215   4.972
  792SOL     OW 3274   1.172   0.765   1.911
  792SOL    HW1 3275   1.087   0.746   1.960
  792SOL    HW2 3276   1.185   0.864   1.904
  793SOL     OW 3277   5.111   5.642   4.615
  793SOL    HW1 3278   5.134   5.559   4.565
  793SOL    HW2 3279   5.126   5.628   4.713
  794SOL     OW 3280   2.877   4.144   5.780
  794SOL    HW1 3281   2.800   4.134   5.718
  794SOL    HW2 3282   2.960   4.112   5.735
  795SOL     OW 3283   4.230   0.466   5.507
  795SOL    HW1 3284   4.299   0.539   5.500
  795SOL    HW2 3285   4.142   0.500   5.473
  796SOL     OW 3286   0.866   2.873   0.119
  796SOL    HW1 3287   0.966   2.873   0.118
  796SOL    HW2 3288   0.832   2.957   0.162
  797SOL     OW 3289   4.864   0.478   0.751
  797SOL    HW1 3290   4.920   0.398   0.773
  797SOL    HW2 3291   4.786   0.482   0.814
  798SOL     OW 3292   3.553   6.894   2.372
  798SOL    HW1 3293   3.584   6.804   2.342
  798SOL    HW2 3294   3.458   6.908   2.343
  799SOL     OW 3295   0.286   0.349   6.661
  799SOL    HW1 3296   0.260   0.444   6.677
  799SOL    HW2 3297   0.360   0.324   6.724
  800SOL     OW 3298   6.459   0.783   2.236
  800SOL    HW1 3299   6.447   0.852   2.308
  800SOL    HW2 3300   6.483   0.828   2.150
  801SOL     OW 3301   2.163   4.663   5.111
  801SOL    HW1 3302   2.094   4.619   5.169
  801SOL    HW2 3303   2.249   4.614   5.119
  802SOL     OW 3304   3.195   2.473   0.072
  802SOL    HW1 3305   3.206   2.406   7.015
  802SOL    HW2 3306   3.112   2.526   0.057
  803SOL     OW 3307   1.380   0.397   5.880
  803SOL    HW1 3308   1.322   0.436   5.809
  803SOL    HW2 3309   1.331   0.397   5.967
  804SOL     OW 3310   6.421   6.355   1.227
  804SOL    HW1 3311   6.322   6.364   1.236
  804SOL    HW2 3312   6.461   6.446   1.214
  805SOL     OW 3313   2.157   1.270   4.429
  805SOL    HW1 3314   2.123   1.220   4.509
  805SOL    HW2 3315   2.095   1.345   4.407
  806SOL     OW 3316   5.519   0.499   5.720
  806SOL    HW1 3317   5.448   0.515   5.651
  806SOL    HW2 3318   5.518   0.573   5.787
  807SOL     OW 3319   0.494   0.420   4.574
  807SOL    HW1 3320   0.515   0.387   4.666
  807SOL    HW2 3321   0.465   0.343   4.517
  808SOL     OW 3322   4.728   3.198   0.047
  808SOL    HW1 3323   4.701   3.127   0.113
  808SOL    HW2 3324   4.713   3.288   0.088
  809SOL     OW 3325   0.808   4.785   0.967
  809SOL    HW1 3326   0.711   4.762   0.968
  809SOL    HW2 3327   0.859   4.718   1.021
  810SOL     OW 3328   3.403   4.551   0.449
  810SOL    HW1 3329   3.441   4.468   0.410
  810SOL    HW2 3330   3.330   4.586   0.391
  811SOL     OW 3331   5.229   5.651   4.035
  811SOL    HW1 3332   5.296   5.637   3.963
  811SOL    HW2 3333   5.275   5.678   4.119
  812SOL     OW 3334   0.121   1.519   2.580
  812SOL    HW1 3335   0.083   1.466   2.505
  812SOL    HW2 3336   0.085   1.612   2.577
  813SOL     OW 3337   3.579   0.399   4.290
  813SOL    HW1 3338   3.640   0.341   4.344
  813SOL    HW2 3339   3.484   0.379   4.314
  814SOL     OW 3340   6.314   5.324   2.559
  814SOL    HW1 3341   6.413   5.313   2.565
  814SOL    HW2 3342   6.292   5.421   2.543
  815SOL     OW 3343   6.108   3.307   3.437
  815SOL    HW1 3344   6.057   3.266   3.362
  815SOL    HW2 3345   6.062   3.391   3.467
  816SOL     OW 3346   5.686   5.261   0.659
  816SOL    HW1 3347   5.669   5.163   0.668
  816SOL    HW2 3348   5.688   5.285   0.561
  817SOL     OW 3349   1.003   5.353   0.943
  817SOL    HW1 3350   1.071   5.285   0.972
  817SOL    HW2 3351   0.929   5.307   0.894
  818SOL     OW 3352   6.621   3.432   3.688
  818SOL    HW1 3353   6.683   3.435   3.609
  818SOL    HW2 3354   6.551   3.362   3.673
  819SOL     OW 3355   6.203   3.081   1.395
  819SOL    HW1 3356   6.277   3.015   1.403
  819SOL    HW2 3357   6.148   3.062   1.314
  820SOL     OW 3358   2.776   2.133   4.870
  820SOL    HW1 3359   2.855   2.136   4.931
  820SOL    HW2 3360   2.792   2.065   4.798
  821SOL     OW 3361   6.486   4.973   6.362
  821SOL    HW1 3362   6.472   4.874   6.374
  821SOL    HW2 3363   6.515   5.013   6.449
  822SOL     OW 3364   6.979   3.428   3.171
  822SOL    HW1 3365   6.947   3.480   3.092
  822SOL    HW2 3366   0.004   3.343   3.140
  823SOL     OW 3367   6.345   4.568   6.151
  823SOL    HW1 3368   6.338   4.612   6.241
  823SOL    HW2 3369   6.275   4.606   6.090
  824SOL     OW 3370   4.520   0.959   6.219
  824SOL    HW1 3371   4.443   0.951   6.283
  824SOL    HW2 3372   4.485   0.985   6.128
  825SOL     OW 3373   6.188   5.350   1.225
  825SOL    HW1 3374   6.246   5.369   1.304
  825SOL    HW2 3375   6.213   5.411   1.150
  826SOL     OW 3376   3.902   2.660   5.595
  826SOL    HW1 3377   3.897   2.715   5.511
  826SOL    HW2 3378   3.996   2.629   5.609
  827SOL     OW 3379   2.471   4.357   5.292
  827SOL    HW1 3380   2.405   4.282   5.291
  827SOL    HW2 3381   2.451   4.420   5.217
  828SOL     OW 3382   5.665   6.572   6.625
  828SOL    HW1 3383   5.719   6.619   6.694
  828SOL    HW2 3384   5.704   6.482   6.607
  829SOL     OW 3385   4.041   3.303   1.961
  829SOL    HW1 3386   4.000   3.217   1.931
  829SOL    HW2 3387   3.979   3.379   1.940
  830SOL     OW 3388   5.523   4.838   6.628
  830SOL    HW1 3389   5.470   4.802   6.706
  830SOL    HW2 3390   5.597   4.775   6.607
  831SOL     OW 3391   5.712   0.125   0.656
  831SOL    HW1 3392   5.616   0.126   0.625
  831SOL    HW2 3393   5.732   0.038   0.701
  832SOL     OW 3394   4.197   2.218   3.943
  832SOL    HW1 3395   4.109   2.252   3.974
  832SOL    HW2 3396   4.200   2.119   3.952
  833SOL     OW 3397   1.909   3.647   6.380
  833SOL    HW1 3398   1.947   3.720   6.324
  833SOL    HW2 3399   1.812   3.664   6.397
  834SOL     OW 3400   5.336   3.576   1.359
  834SOL    HW1 3401   5.267   3.525   1.410
  834SOL    HW2 3402   5.306   3.671   1.347
  835SOL     OW 3403   2.855   6.943   4.913
  835SOL    HW1 3404   2.934   7.000   4.935
  835SOL    HW2 3405   2.834   6.884   4.991
  836SOL     OW 3406   4.244   0.093   5.199
  836SOL    HW1 3407   4.288   0.060   5.283
  836SOL    HW2 3408   4.154   0.130   5.222
  837SOL     OW 3409   0.085   0.805   0.916
  837SOL    HW1 3410   0.001   0.775   0.961
  837SOL    HW2 3411   0.126   0.880   0.967
  838SOL     OW 3412   2.751   6.599   4.458
  838SOL    HW1 3413   2.685   6.597   4.383
  838SOL    HW2 3414   2.827   6.659   4.434
  839SOL     OW 3415   2.316   1.250   2.051
  839SOL    HW1 3416   2.391   1.186   2.036
  839SOL    HW2 3417   2.230   1.208   2.020
  840SOL     OW 3418   6.423   5.749   0.195
  840SOL    HW1 3419   6.342   5.788   0.240
  840SOL    HW2 3420   6.457   5.672   0.249
  841SOL     OW 3421   3.282   5.741   5.819
  841SOL    HW1 3422   3.351   5.703   5.757
  841SOL    HW2 3423   3.304   5.836   5.840
  842SOL     OW 3424   3.778   0.418   6.007
  842SOL    HW1 3425   3.849   0.485   5.985
  842SOL    HW2 3426   3.690   0.450   5.973
  843SOL     OW 3427   0.960   1.761   1.449
  843SOL    HW1 3428   1.022   1.838   1.436
  843SOL    HW2 3429   0.910   1.744   1.364
  844SOL     OW 3430   6.782   6.909   0.590
  844SOL    HW1 3431   6.797   6.938   0.495
  844SOL    HW2 3432   6.693   6.866   0.599
  845SOL     OW 3433   5.084   4.379   3.332
  845SOL    HW1 3434   5.072   4.285   3.363
  845SOL    HW2 3435   5.045   4.441   3.400
  846SOL     OW 3436   2.086   0.535   6.175
  846SOL    HW1 3437   2.123   0.595   6.104
  846SOL    HW2 3438   2.144   0.537   6.256
  847SOL     OW 3439   1.160   3.382   1.502
  847SOL    HW1 3440   1.090   3.373   1.572
  847SOL    HW2 3441   1.128   3.340   1.417
  848SOL     OW 3442   6.742   6.801   5.981
  848SOL    HW1 3443   6.659   6.823   5.930
  848SOL    HW2 3444   6.822   6.819   5.923
  849SOL     OW 3445   6.034   4.327   6.489
  849SOL    HW1 3446   6.062   4.401   6.427
  849SOL    HW2 3447   6.014   4.245   6.435
  850SOL     OW 3448   6.098   0.183   4.759
  850SOL    HW1 3449   6.129   0.137   4.842
  850SOL    HW2 3450   6.175   0.199   4.699
  851SOL     OW 3451   6.910   2.605   0.625
  851SOL    HW1 3452   6.877   2.535   0.688
  851SOL    HW2 3453   6.861   2.598   0.538
  852SOL     OW 3454   0.864   4.309   0.107
  852SOL    HW1 3455   0.921   4.339   0.184
  852SOL    HW2 3456   0.922   4.263   0.039
  853SOL     OW 3457   0.727   4.734   0.215
  853SOL    HW1 3458   0.692   4.803   0.152
  853SOL    HW2 3459   0.656   4.666   0.232
  854SOL     OW 3460   4.713   5.739   0.411
  854SOL    HW1 3461   4.666   5.825   0.428
  854SOL    HW2 3462   4.678   5.668   0.473
  855SOL     OW 3463   6.406   6.913   1.089
  855SOL    HW1 3464   6.506   6.908   1.095
  855SOL    HW2 3465   6.372   6.971   1.163
  856SOL     OW 3466   1.337   1.417   6.919
  856SOL    HW1 3467   1.431   1.421   6.887
  856SOL    HW2 3468   1.335   1.387   7.014
  857SOL     OW 3469   5.917   5.081   2.057
  857SOL    HW1 3470   6.015   5.078   2.037
  857SOL    HW2 3471   5.873   4.999   2.021
  858SOL     OW 3472   3.218   4.303   1.423
  858SOL    HW1 3473   3.202   4.225   1.362
  858SOL    HW2 3474   3.234   4.270   1.516
  859SOL     OW 3475   5.897   6.367   5.212
  859SOL    HW1 3476   5.938   6.290   5.261
  859SOL    HW2 3477   5.968   6.413   5.158
  860SOL     OW 3478   6.572   2.780   6.840
  860SOL    HW1 3479   6.579   2.722   6.759
  860SOL    HW2 3480   6.509   2.855   6.823
  861SOL     OW 3481   2.006   4.637   3.848
  861SOL    HW1 3482   1.907   4.639   3.833
  861SOL    HW2 3483   2.037   4.542   3.854
  862SOL     OW 3484   1.902   3.937   2.953
  862SOL    HW1 3485   1.848   4.017   2.928
  862SOL    HW2 3486   1.853   3.854   2.926
  863SOL     OW 3487   5.895   1.030   6.148
  863SOL    HW1 3488   5.925   1.099   6.082
  863SOL    HW2 3489   5.912   0.939   6.110
  864SOL     OW 3490   3.850   5.998   3.851
  864SOL    HW1 3491   3.939   6.035   3.877
  864SOL    HW2 3492   3.862   5.909   3.806
  865SOL     OW 3493   1.397   6.868   5.886
  865SOL    HW1 3494   1.483   6.836   5.847
  865SOL    HW2 3495   1.404   6.872   5.985
  866SOL     OW 3496   3.161   0.786   0.499
  866SOL    HW1 3497   3.249   0.768   0.455
  866SOL    HW2 3498   3.171   0.860   0.565
  867SOL     OW 3499   5.177   3.489   0.605
  867SOL    HW1 3500   5.155   3.457   0.512
  867SOL    HW2 3501   5.196   3.587   0.602
  868SOL     OW 3502   6.641   0.883   1.273
  868SOL    HW1 3503   6.548   0.916   1.259
  868SOL    HW2 3504   6.679   0.922   1.358
  869SOL     OW 3505   0.378   4.134   2.986
  869SOL    HW1 3506   0.388   4.036   3.003
  869SOL    HW2 3507   0.374   4.151   2.888
  870SOL     OW 3508   4.128   3.821   0.561
  870SOL    HW1 3509   4.197   3.778   0.620
  870SOL    HW2 3510   4.170   3.896   0.510
  871SOL     OW 3511   5.031   2.230   3.542
  871SOL    HW1 3512   5.127   2.258   3.535
  871SOL    HW2 3513   4.975   2.309   3.565
  872SOL     OW 3514   5.615   3.029   3.880
  872SOL    HW1 3515   5.684   3.067   3.819
  872SOL    HW2 3516   5.538   2.995   3.826
  873SOL     OW 3517   5.263   5.331   4.986
  873SOL    HW1 3518   5.197   5.282   4.930
  873SOL    HW2 3519   5.222   5.353   5.075
  874SOL     OW 3520   6.114   3.739   6.367
  874SOL    HW1 3521   6.100   3.688   6.452
  874SOL    HW2 3522   6.190   3.802   6.378
  875SOL     OW 3523   4.977   5.144   1.245
  875SOL    HW1 3524   4.919   5.143   1.327
  875SOL    HW2 3525   5.027   5.230   1.240
  876SOL     OW 3526   0.323   5.078   2.220
  876SOL    HW1 3527   0.278   5.027   2.147
  876SOL    HW2 3528   0.422   5.074   2.207
  877SOL     OW 3529   3.748   4.780   5.795
  877SOL    HW1 3530   3.808   4.830   5.733
  877SOL    HW2 3531   3.793   4.694   5.822
  878SOL     OW 3532   4.983   6.627   4.501
  878SOL    HW1 3533   5.026   6.569   4.432
  878SOL    HW2 3534   4.987   6.722   4.472
  879SOL     OW 3535   4.246   1.199   1.700
  879SOL    HW1 3536   4.177   1.149   1.647
  879SOL    HW2 3537   4.233   1.297   1.687
  880SOL     OW 3538   3.387   3.715   3.896
  880SOL    HW1 3539   3.466   3.757   3.942
  880SOL    HW2 3540   3.413   3.626   3.861
  881SOL     OW 3541   4.941   3.902   6.040
  881SOL    HW1 3542   4.968   3.997   6.056
  881SOL    HW2 3543   4.990   3.866   5.960
  882SOL     OW 3544   1.285   2.045   3.654
  882SOL    HW1 3545   1.326   2.104   3.585
  882SOL    HW2 3546   1.200   2.087   3.687
  883SOL     OW 3547   3.192   0.199   0.964
  883SOL    HW1 3548   3.122   0.198   0.893
  883SOL    HW2 3549   3.153   0.236   1.049
  884SOL     OW 3550   6.775   4.123   6.922
  884SOL    HW1 3551   6.816   4.212   6.905
  884SOL    HW2 3552   6.826   4.053   6.871
  885SOL     OW 3553   4.419   0.493   4.891
  885SOL    HW1 3554   4.423   0.563   4.962
  885SOL    HW2 3555   4.418   0.402   4.934
  886SOL     OW 3556   3.673   0.230   0.525
  886SOL    HW1 3557   3.716   0.236   0.435
  886SOL    HW2 3558   3.573   0.235   0.515
  887SOL     OW 3559   3.791   6.498   3.635
  887SOL    HW1 3560   3.885   6.469   3.617
  887SOL    HW2 3561   3.771   6.581   3.583
  888SOL     OW 3562   0.757   6.056   3.468
  888SOL    HW1 3563   0.783   6.152   3.480
  888SOL    HW2 3564   0.693   6.030   3.539
  889SOL     OW 3565   0.279   1.499   6.643
  889SOL    HW1 3566   0.353   1.490   6.710
  889SOL    HW2 3567   0.203   1.548   6.685
  890SOL     OW 3568   2.497   4.869   2.851
  890SOL    HW1 3569   2.555   4.824   2.919
  890SOL    HW2 3570   2.401   4.860   2.878
  891SOL     OW 3571   6.735   3.896   0.920
  891SOL    HW1 3572   6.737   3.805   0.961
  891SOL    HW2 3573   6.713   3.964   0.989
  892SOL     OW 3574   3.249   3.724   4.834
  892SOL    HW1 3575   3.243   3.693   4.739
  892SOL    HW2 3576   3.166   3.698   4.883
  893SOL     OW 3577   2.109   6.774   3.899
  893SOL    HW1 3578   2.051   6.817   3.830
  893SOL    HW2 3579   2.063   6.776   3.987
  894SOL     OW 3580   1.214   3.027   2.565
  894SOL    HW1 3581   1.275   2.979   2.502
  894SOL    HW2 3582   1.238   3.003   2.659
  895SOL     OW 3583   1.072   5.195   4.091
  895SOL    HW1 3584   1.021   5.150   4.164
  895SOL    HW2 3585   1.038   5.288   4.079
  896SOL     OW 3586   5.485   4.869   1.638
  896SOL    HW1 3587   5.506   4.954   1.685
  896SOL    HW2 3588   5.519   4.873   1.544
  897SOL     OW 3589   3.831   0.974   6.484
  897SOL    HW1 3590   3.767   1.020   6.546
  897SOL    HW2 3591   3.881   0.903   6.534
  898SOL     OW 3592   3.920   6.590   2.945
  898SOL    HW1 3593   3.893   6.533   2.867
  898SOL    HW2 3594   3.915   6.686   2.918
  899SOL     OW 3595   0.407   6.453   0.144
  899SOL    HW1 3596   0.409   6.404   0.057
  899SOL    HW2 3597   0.456   6.399   0.213
  900SOL     OW 3598   5.451   6.776   6.933
  900SOL    HW1 3599   5.513   6.833   6.987
  900SOL    HW2 3600   5.386   6.834   6.884
  901SOL     OW 3601   1.428   0.641   3.891
  901SOL    HW1 3602   1.351   0.585   3.923
  901SOL    HW2 3603   1.407   0.676   3.800
  902SOL     OW 3604   1.141   2.952   1.455
  902SOL    HW1 3605   1.164   2.895   1.375
  902SOL    HW2 3606   1.225   2.983   1.499
  903SOL     OW 3607   1.012   3.289   6.723
  903SOL    HW1 3608   0.982   3.201   6.686
  903SOL    HW2 3609   0.932   3.344   6.747
  904SOL     OW 3610   1.649   2.456   2.472
  904SOL    HW1 3611   1.683   2.387   2.536
  904SOL    HW2 3612   1.668   2.547   2.509
  905SOL     OW 3613   5.141   3.870   6.626
  905SOL    HW1 3614   5.225   3.888   6.574
  905SOL    HW2 3615   5.147   3.780   6.668
  906SOL     OW 3616   0.514   2.016   6.358
  906SOL    HW1 3617   0.604   1.981   6.331
  906SOL    HW2 3618   0.525   2.083   6.431
  907SOL     OW 3619   5.045   2.793   0.721
  907SOL    HW1 3620   5.046   2.873   0.782
  907SOL    HW2 3621   5.026   2.823   0.628
  908SOL     OW 3622   2.420   4.357   3.226
  908SOL    HW1 3623   2.349   4.353   3.156
  908SOL    HW2 3624   2.498   4.410   3.193
  909SOL     OW 3625   3.912   6.772   1.992
  909SOL    HW1 3626   3.863   6.685   1.992
  909SOL    HW2 3627   3.968   6.780   1.910
  910SOL     OW 3628   3.231   1.697   1.256
  910SOL    HW1 3629   3.175   1.737   1.183
  910SOL    HW2 3630   3.187   1.713   1.344
  911SOL     OW 3631   1.165   6.438   6.765
  911SOL    HW1 3632   1.196   6.458   6.858
  911SOL    HW2 3633   1.082   6.490   6.746
  912SOL     OW 3634   5.976   1.062   3.006
  912SOL    HW1 3635   5.989   1.065   2.907
  912SOL    HW2 3636   5.915   1.136   3.034
  913SOL     OW 3637   3.157   0.735   4.066
  913SOL    HW1 3638   3.150   0.674   3.987
  913SOL    HW2 3639   3.112   0.693   4.145
  914SOL     OW 3640   1.878   6.704   5.577
  914SOL    HW1 3641   1.924   6.772   5.519
  914SOL    HW2 3642   1.945   6.637   5.609
  915SOL     OW 3643   6.943   3.360   0.179
  915SOL    HW1 3644   6.863   3.380   0.235
  915SOL    HW2 3645   0.007   3.402   0.220
  916SOL     OW 3646   1.797   3.164   2.641
  916SOL    HW1 3647   1.852   3.246   2.659
  916SOL    HW2 3648   1.847   3.103   2.579
  917SOL     OW 3649   0.887   6.926   2.294
  917SOL    HW1 3650   0.976   6.964   2.271
  917SOL    HW2 3651   0.856   6.965   2.381
  918SOL     OW 3652   3.587   0.059   0.782
  918SOL    HW1 3653   3.593   0.046   0.683
  918SOL    HW2 3654   3.679   0.074   0.819
  919SOL     OW 3655   6.678   6.717   2.900
  919SOL    HW1 3656   6.729   6.648   2.952
  919SOL    HW2 3657   6.726   6.804   2.906
  920SOL     OW 3658   2.385   4.367   2.575
  920SOL    HW1 3659   2.438   4.285   2.552
  920SOL    HW2 3660   2.328   4.392   2.497
  921SOL     OW 3661   3.972   5.654   4.193
  921SOL    HW1 3662   3.946   5.588   4.122
  921SOL    HW2 3663   3.890   5.698   4.229
  922SOL     OW 3664   3.107   3.758   4.081
  922SOL    HW1 3665   3.122   3.728   3.987
  922SOL    HW2 3666   3.165   3.838   4.100
  923SOL     OW 3667   2.300   3.735   6.336
  923SOL    HW1 3668   2.277   3.747   6.240
  923SOL    HW2 3669   2.348   3.648   6.348
  924SOL     OW 3670   6.419   3.358   2.017
  924SOL    HW1 3671   6.456   3.277   2.061
  924SOL    HW2 3672   6.323   3.370   2.044
  925SOL     OW 3673   0.034   2.330   6.926
  925SOL    HW1 3674   0.046   2.374   6.837
  925SOL    HW2 3675   0.003   2.398   6.992
  926SOL     OW 3676   6.642   0.630   1.342
  926SOL    HW1 3677   6.546   0.606   1.357
  926SOL    HW2 3678   6.648   0.712   1.286
  927SOL     OW 3679   5.652   4.138   3.007
  927SOL    HW1 3680   5.555   4.132   3.030
  927SOL    HW2 3681   5.707   4.134   3.091
  928SOL     OW 3682   1.516   6.106   0.401
  928SOL    HW1 3683   1.524   6.011   0.371
  928SOL    HW2 3684   1.574   6.120   0.482
  929SOL     OW 3685   0.578   0.838   6.720
  929SOL    HW1 3686   0.553   0.860   6.626
  929SOL    HW2 3687   0.539   0.906   6.782
  930SOL     OW 3688   5.286   6.281   6.160
  930SOL    HW1 3689   5.318   6.352   6.223
  930SOL    HW2 3690   5.364   6.234   6.120
  931SOL     OW 3691   6.574   1.207   4.880
  931SOL    HW1 3692   6.550   1.158   4.964
  931SOL    HW2 3693   6.610   1.297   4.903
  932SOL     OW 3694   3.410   0.544   3.304
  932SOL    HW1 3695   3.496   0.570   3.348
  932SOL    HW2 3696   3.353   0.493   3.369
  933SOL     OW 3697   1.660   5.943   3.570
  933SOL    HW1 3698   1.582   5.897   3.527
  933SOL    HW2 3699   1.630   5.992   3.651
  934SOL     OW 3700   2.470   6.240   6.840
  934SOL    HW1 3701   2.399   6.270   6.776
  934SOL    HW2 3702   2.501   6.148   6.815
  935SOL     OW 3703   5.161   3.838   4.312
  935SOL    HW1 3704   5.067   3.869   4.325
  935SOL    HW2 3705   5.196   3.800   4.398
  936SOL     OW 3706   6.896   0.460   5.889
  936SOL    HW1 3707   6.841   0.387   5.849
  936SOL    HW2 3708   6.987   0.458   5.849
  937SOL     OW 3709   5.292   1.825   6.105
  937SOL    HW1 3710   5.309   1.803   6.009
  937SOL    HW2 3711   5.320   1.748   6.163
  938SOL     OW 3712   5.907   4.670   6.520
  938SOL    HW1 3713   5.892   4.614   6.438
  938SOL    HW2 3714   5.865   4.625   6.599
  939SOL     OW 3715   0.246   0.124   4.228
  939SOL    HW1 3716   0.311   0.199   4.237
  939SOL    HW2 3717   0.183   0.123   4.305
  940SOL     OW 3718   0.570   4.175   1.502
  940SOL    HW1 3719   0.561   4.111   1.578
  940SOL    HW2 3720   0.657   4.159   1.455
  941SOL     OW 3721   6.128   2.085   6.846
  941SOL    HW1 3722   6.162   2.178   6.831
  941SOL    HW2 3723   6.038   2.089   6.889
  942SOL     OW 3724   6.058   6.754   2.913
  942SOL    HW1 3725   5.996   6.705   2.974
  942SOL    HW2 3726   6.133   6.792   2.967
  943SOL     OW 3727   1.564   3.931   3.020
  943SOL    HW1 3728   1.493   3.867   3.052
  943SOL    HW2 3729   1.622   3.885   2.953
  944SOL     OW 3730   0.246   5.226   6.071
  944SOL    HW1 3731   0.199   5.279   6.001
  944SOL    HW2 3732   0.342   5.255   6.076
  945SOL     OW 3733   0.239   3.928   6.130
  945SOL    HW1 3734   0.238   3.932   6.030
  945SOL    HW2 3735   0.330   3.904   6.161
  946SOL     OW 3736   5.192   4.207   5.049
  946SOL    HW1 3737   5.271   4.180   4.994
  946SOL    HW2 3738   5.223   4.260   5.127
  947SOL     OW 3739   3.744   3.382   3.479
  947SOL    HW1 3740   3.808   3.318   3.521
  947SOL    HW2 3741   3.794   3.449   3.425
  948SOL     OW 3742   4.979   1.099   2.617
  948SOL    HW1 3743   5.018   1.087   2.709
  948SOL    HW2 3744   4.907   1.032   2.603
  949SOL     OW 3745   1.904   5.994   0.927
  949SOL    HW1 3746   1.848   6.072   0.957
  949SOL    HW2 3747   1.956   6.019   0.846
  950SOL     OW 3748   5.396   5.471   2.320
  950SOL    HW1 3749   5.394   5.406   2.396
  950SOL    HW2 3750   5.481   5.523   2.323
  951SOL     OW 3751   1.450   0.407   4.150
  951SOL    HW1 3752   1.454   0.396   4.051
  951SOL    HW2 3753   1.482   0.323   4.194
  952SOL     OW 3754   4.222   2.269   3.480
  952SOL    HW1 3755   4.272   2.283   3.394
  952SOL    HW2 3756   4.265   2.323   3.552
  953SOL     OW 3757   5.559   5.906   4.765
  953SOL    HW1 3758   5.467   5.875   4.739
  953SOL    HW2 3759   5.579   5.993   4.720
  954SOL     OW 3760   3.903   5.949   2.008
  954SOL    HW1 3761   3.821   5.893   2.012
  954SOL    HW2 3762   3.916   5.984   1.916
  955SOL     OW 3763   0.649   3.653   0.936
  955SOL    HW1 3764   0.660   3.688   0.843
  955SOL    HW2 3765   0.670   3.727   1.001
  956SOL     OW 3766   6.162   0.189   1.557
  956SOL    HW1 3767   6.261   0.195   1.546
  956SOL    HW2 3768   6.139   0.111   1.616
  957SOL     OW 3769   5.554   2.988   3.040
  957SOL    HW1 3770   5.518   2.917   2.979
  957SOL    HW2 3771   5.598   2.944   3.119
  958SOL     OW 3772   4.508   1.092   1.275
  958SOL    HW1 3773   4.416   1.078   1.311
  958SOL    HW2 3774   4.575   1.050   1.337
  959SOL     OW 3775   3.211   6.578   4.297
  959SOL    HW1 3776   3.167   6.543   4.214
  959SOL    HW2 3777   3.224   6.677   4.288
  960SOL     OW 3778   0.758   0.363   2.668
  960SOL    HW1 3779   0.845   0.314   2.668
  960SOL    HW2 3780   0.698   0.323   2.737
  961SOL     OW 3781   4.393   6.517   3.272
  961SOL    HW1 3782   4.298   6.490   3.289
  961SOL    HW2 3783   4.403   6.615   3.288
  962SOL     OW 3784   6.805   1.037   4.849
  962SOL    HW1 3785   6.787   1.097   4.926
  962SOL    HW2 3786   6.767   1.077   4.766
  963SOL     OW 3787   5.173   1.305   6.361
  963SOL    HW1 3788   5.095   1.287   6.421
  963SOL    HW2 3789   5.164   1.396   6.321
  964SOL     OW 3790   5.236   4.899   0.339
  964SOL    HW1 3791   5.242   4.801   0.322
  964SOL    HW2 3792   5.267   4.918   0.432
  965SOL     OW 3793   5.555   1.527   2.124
  965SOL    HW1 3794   5.596   1.536   2.215
  965SOL    HW2 3795   5.523   1.617   2.093
  966SOL     OW 3796   5.627   2.828   2.514
  966SOL    HW1 3797   5.655   2.875   2.431
  966SOL    HW2 3798   5.708   2.801   2.567
  967SOL     OW 3799   2.959   4.410   1.397
  967SOL    HW1 3800   3.055   4.387   1.412
  967SOL    HW2 3801   2.901   4.346   1.447
  968SOL     OW 3802   4.538   0.801   1.594
  968SOL    HW1 3803   4.453   0.840   1.558
  968SOL    HW2 3804   4.577   0.863   1.663
  969SOL     OW 3805   2.805   4.390   5.610
  969SOL    HW1 3806   2.798   4.489   5.616
  969SOL    HW2 3807   2.766   4.359   5.523
  970SOL     OW 3808   5.667   1.034   6.617
  970SOL    HW1 3809   5.595   0.980   6.661
  970SOL    HW2 3810   5.690   0.993   6.528
  971SOL     OW 3811   0.299   2.894   2.471
  971SOL    HW1 3812   0.218   2.875   2.416
  971SOL    HW2 3813   0.298   2.990   2.501
  972SOL     OW 3814   5.944   1.874   1.771
  972SOL    HW1 3815   5.846   1.895   1.765
  972SOL    HW2 3816   5.958   1.777   1.753
  973SOL     OW 3817   0.877   5.772   6.626
  973SOL    HW1 3818   0.867   5.819   6.538
  973SOL    HW2 3819   0.942   5.696   6.617
  974SOL     OW 3820   5.846   5.911   2.376
  974SOL    HW1 3821   5.888   5.989   2.329
  974SOL    HW2 3822   5.796   5.856   2.309
  975SOL     OW 3823   1.865   0.360   0.469
  975SOL    HW1 3824   1.858   0.431   0.539
  975SOL    HW2 3825   1.958   0.323   0.469
  976SOL     OW 3826   0.203   3.898   1.450
  976SOL    HW1 3827   0.150   3.818   1.479
  976SOL    HW2 3828   0.143   3.977   1.441
  977SOL     OW 3829   0.419   0.402   2.156
  977SOL    HW1 3830   0.478   0.480   2.175
  977SOL    HW2 3831   0.376   0.413   2.066
  978SOL     OW 3832   5.618   2.384   6.450
  978SOL    HW1 3833   5.619   2.457   6.519
  978SOL    HW2 3834   5.546   2.319   6.472
  979SOL     OW 3835   0.619   2.868   6.805
  979SOL    HW1 3836   0.662   2.956   6.826
  979SOL    HW2 3837   0.670   2.822   6.732
  980SOL     OW 3838   5.162   2.046   3.948
  980SOL    HW1 3839   5.109   2.089   4.021
  980SOL    HW2 3840   5.101   2.021   3.873
  981SOL     OW 3841   6.910   1.587   4.657
  981SOL    HW1 3842   6.979   1.515   4.661
  981SOL    HW2 3843   6.821   1.549   4.680
  982SOL     OW 3844   0.839   1.190   4.822
  982SOL    HW1 3845   0.845   1.277   4.773
  982SOL    HW2 3846   0.754   1.144   4.800
  983SOL     OW 3847   6.426   2.625   3.273
  983SOL    HW1 3848   6.470   2.713   3.292
  983SOL    HW2 3849   6.496   2.553   3.271
  984SOL     OW 3850   2.585   2.264   4.240
  984SOL    HW1 3851   2.508   2.204   4.265
  984SOL    HW2 3852   2.633   2.225   4.162
  985SOL     OW 3853   6.607   3.267   4.898
  985SOL    HW1 3854   6.591   3.365   4.908
  985SOL    HW2 3855   6.669   3.236   4.970
  986SOL     OW 3856   4.579   4.863   1.086
  986SOL    HW1 3857   4.499   4.909   1.123
  986SOL    HW2 3858   4.660   4.888   1.138
  987SOL     OW 3859   4.927   6.673   2.522
  987SOL    HW1 3860   4.851   6.637   2.468
  987SOL    HW2 3861   5.010   6.620   2.501
  988SOL     OW 3862   3.181   4.753   1.215
  988SOL    HW1 3863   3.232   4.675   1.251
  988SOL    HW2 3864   3.107   4.720   1.156
  989SOL     OW 3865   6.703   2.272   6.624
  989SOL    HW1 3866   6.632   2.238   6.562
  989SOL    HW2 3867   6.661   2.310   6.705
  990SOL     OW 3868   3.687   1.232   1.748
  990SOL    HW1 3869   3.680   1.132   1.746
  990SOL    HW2 3870   3.712   1.262   1.839
  991SOL     OW 3871   0.830   3.288   3.891
  991SOL    HW1 3872   0.858   3.384   3.894
  991SOL    HW2 3873   0.761   3.277   3.819
  992SOL     OW 3874   0.659   3.339   1.981
  992SOL    HW1 3875   0.636   3.400   2.057
  992SOL    HW2 3876   0.577   3.293   1.949
  993SOL     OW 3877   6.995   4.578   0.772
  993SOL    HW1 3878   0.069   4.549   0.802
  993SOL    HW2 3879   6.991   4.677   0.768
  994SOL     OW 3880   3.927   4.997   1.923
  994SOL    HW1 3881   3.924   5.096   1.938
  994SOL    HW2 3882   3.882   4.951   1.999
  995SOL     OW 3883   3.763   3.235   5.821
  995SOL    HW1 3884   3.791   3.296   5.747
  995SOL    HW2 3885   3.809   3.147   5.811
  996SOL     OW 3886   3.486   5.226   5.091
  996SOL    HW1 3887   3.423   5.156   5.126
  996SOL    HW2 3888   3.578   5.186   5.082
  997SOL     OW 3889   1.282   6.840   2.851
  997SOL    HW1 3890   1.216   6.886   2.911
  997SOL    HW2 3891   1.239   6.757   2.813
  998SOL     OW 3892   5.646   0.676   6.067
  998SOL    HW1 3893   5.553   0.649   6.039
  998SOL    HW2 3894   5.712   0.609   6.033
  999SOL     OW 3895   5.464   3.907   2.241
  999SOL    HW1 3896   5.371   3.921   2.206
  999SOL    HW2 3897   5.488   3.810   2.230
 1000SOL     OW 3898   4.145   1.742   1.639
 1000SOL    HW1 3899   4.118   1.688   1.718
 1000SOL    HW2 3900   4.120   1.694   1.555
 1001SOL     OW 3901   4.559   5.993   1.554
 1001SOL    HW1 3902   4.519   6.081   1.578
 1001SOL    HW2 3903   4.495   5.920   1.577
 1002SOL     OW 3904   5.841   2.165   0.716
 1002SOL    HW1 3905   5.895   2.243   0.686
 1002SOL    HW2 3906   5.902   2.088   0.736
 1003SOL     OW 3907   1.938   5.652   3.167
 1003SOL    HW1 3908   2.025   5.603   3.176
 1003SOL    HW2 3909   1.919   5.700   3.253
 1004SOL     OW 3910   0.686   0.880   2.127
 1004SOL    HW1 3911   0.674   0.789   2.086
 1004SOL    HW2 3912   0.669   0.950   2.059
 1005SOL     OW 3913   2.281   2.328   4.465
 1005SOL    HW1 3914   2.225   2.342   4.384
 1005SOL    HW2 3915   2.351   2.399   4.470
 1006SOL     OW 3916   1.248   4.286   0.495
 1006SOL    HW1 3917   1.298   4.199   0.496
 1006SOL    HW2 3918   1.313   4.361   0.502
 1007SOL     OW 3919   4.604   1.025   5.320
 1007SOL    HW1 3920   4.670   1.094   5.348
 1007SOL    HW2 3921   4.512   1.052   5.350
 1008SOL     OW 3922   0.752   2.202   5.849
 1008SOL    HW1 3923   0.850   2.198   5.869
 1008SOL    HW2 3924   0.738   2.200   5.750
 1009SOL     OW 3925   0.170   5.547   5.649
 1009SOL    HW1 3926   0.265   5.544   5.618
 1009SOL    HW2 3927   0.140   5.643   5.653
 1010SOL     OW 3928   2.685   2.122   1.078
 1010SOL    HW1 3929   2.708   2.053   1.010
 1010SOL    HW2 3930   2.625   2.083   1.148
 1011SOL     OW 3931   1.206   5.572   3.404
 1011SOL    HW1 3932   1.232   5.516   3.482
 1011SOL    HW2 3933   1.120   5.539   3.366
 1012SOL     OW 3934   0.532   6.854   2.260
 1012SOL    HW1 3935   0.609   6.812   2.309
 1012SOL    HW2 3936   0.534   6.825   2.164
 1013SOL     OW 3937   0.793   1.063   6.398
 1013SOL    HW1 3938   0.845   1.073   6.483
 1013SOL    HW2 3939   0.720   0.996   6.411
 1014SOL     OW 3940   0.559   3.919   5.371
 1014SOL    HW1 3941   0.470   3.880   5.396
 1014SOL    HW2 3942   0.628   3.846   5.370
 1015SOL     OW 3943   2.284   6.992   5.968
 1015SOL    HW1 3944   2.240   0.000   5.882
 1015SOL    HW2 3945   2.382   6.976   5.952
 1016SOL     OW 3946   4.047   3.625   0.332
 1016SOL    HW1 3947   4.076   3.675   0.250
 1016SOL    HW2 3948   4.058   3.683   0.412
 1017SOL     OW 3949   4.266   2.056   1.167
 1017SOL    HW1 3950   4.282   2.075   1.070
 1017SOL    HW2 3951   4.353   2.037   1.212
 1018SOL     OW 3952   0.865   3.975   4.112
 1018SOL    HW1 3953   0.936   3.955   4.180
 1018SOL    HW2 3954   0.776   3.981   4.157
 1019SOL     OW 3955   0.103   5.945   1.207
 1019SOL    HW1 3956   0.163   5.893   1.268
 1019SOL    HW2 3957   0.093   5.896   1.121
 1020SOL     OW 3958   6.343   1.042   1.535
 1020SOL    HW1 3959   6.441   1.034   1.549
 1020SOL    HW2 3960   6.296   1.035   1.623
 1021SOL     OW 3961   5.811   6.931   1.882
 1021SOL    HW1 3962   5.751   6.922   1.802
 1021SOL    HW2 3963   5.812   0.010   1.912
 1022SOL     OW 3964   2.829   4.706   5.384
 1022SOL    HW1 3965   2.867   4.622   5.347
 1022SOL    HW2 3966   2.770   4.685   5.462
 1023SOL     OW 3967   0.361   0.929   2.565
 1023SOL    HW1 3968   0.322   0.876   2.490
 1023SOL    HW2 3969   0.297   0.931   2.641
 1024SOL     OW 3970   0.176   2.271   4.038
 1024SOL    HW1 3971   0.166   2.353   3.981
 1024SOL    HW2 3972   0.210   2.195   3.982
 1025SOL     OW 3973   3.642   3.373   0.956
 1025SOL    HW1 3974   3.655   3.275   0.971
 1025SOL    HW2 3975   3.680   3.423   1.033
 1026SOL     OW 3976   2.641   3.024   1.645
 1026SOL    HW1 3977   2.567   3.083   1.613
 1026SOL    HW2 3978   2.603   2.944   1.692
 1027SOL     OW 3979   3.046   0.278   2.201
 1027SOL    HW1 3980   2.995   0.200   2.237
 1027SOL    HW2 3981   3.004   0.363   2.234
 1028SOL     OW 3982   1.629   6.781   2.778
 1028SOL    HW1 3983   1.658   6.688   2.799
 1028SOL    HW2 3984   1.601   6.827   2.862
 1029SOL     OW 3985   1.530   1.592   5.953
 1029SOL    HW1 3986   1.610   1.563   6.005
 1029SOL    HW2 3987   1.453   1.605   6.015
 1030SOL     OW 3988   3.380   3.160   1.920
 1030SOL    HW1 3989   3.415   3.151   2.013
 1030SOL    HW2 3990   3.339   3.251   1.908
 1031SOL     OW 3991   4.939   3.477   1.536
 1031SOL    HW1 3992   4.894   3.544   1.477
 1031SOL    HW2 3993   4.897   3.387   1.522
 1032SOL     OW 3994   0.656   1.256   5.113
 1032SOL    HW1 3995   0.700   1.254   5.023
 1032SOL    HW2 3996   0.660   1.349   5.150
 1033SOL     OW 3997   1.438   5.804   1.069
 1033SOL    HW1 3998   1.457   5.859   1.150
 1033SOL    HW2 3999   1.449   5.707   1.091
 1034SOL     OW 4000   1.880   5.292   4.480
 1034SOL    HW1 4001   1.814   5.225   4.513
 1034SOL    HW2 4002   1.935   5.325   4.556
 1035SOL     OW 4003   0.164   1.465   6.226
 1035SOL    HW1 4004   0.170   1.561   6.251
 1035SOL    HW2 4005   0.145   1.458   6.128
 1036SOL     OW 4006   4.058   0.948   1.926
 1036SOL    HW1 4007   4.044   1.023   1.991
 1036SOL    HW2 4008   4.156   0.931   1.916
 1037SOL     OW 4009   1.589   1.546   2.777
 1037SOL    HW1 4010   1.623   1.638   2.757
 1037SOL    HW2 4011   1.661   1.479   2.757
 1038SOL     OW 4012   1.846   1.365   5.252
 1038SOL    HW1 4013   1.779   1.439   5.260
 1038SOL    HW2 4014   1.843   1.309   5.334
 1039SOL     OW 4015   3.822   3.707   4.252
 1039SOL    HW1 4016   3.829   3.607   4.251
 1039SOL    HW2 4017   3.767   3.736   4.330
 1040SOL     OW 4018   4.581   0.921   2.247
 1040SOL    HW1 4019   4.602   0.990   2.315
 1040SOL    HW2 4020   4.522   0.851   2.287
 1041SOL     OW 4021   6.962   6.344   2.943
 1041SOL    HW1 4022   0.044   6.328   2.937
 1041SOL    HW2 4023   6.945   6.439   2.969
 1042SOL     OW 4024   4.116   5.163   2.727
 1042SOL    HW1 4025   4.182   5.091   2.749
 1042SOL    HW2 4026   4.146   5.249   2.769
 1043SOL     OW 4027   3.331   1.893   3.176
 1043SOL    HW1 4028   3.330   1.987   3.142
 1043SOL    HW2 4029   3.406   1.882   3.241
 1044SOL     OW 4030   5.662   4.908   2.877
 1044SOL    HW1 4031   5.706   4.827   2.917
 1044SOL    HW2 4032   5.732   4.968   2.839
 1045SOL     OW 4033   4.239   0.745   2.503
 1045SOL    HW1 4034   4.213   0.839   2.522
 1045SOL    HW2 4035   4.178   0.707   2.433
 1046SOL     OW 4036   1.623   1.330   0.348
 1046SOL    HW1 4037   1.717   1.296   0.340
 1046SOL    HW2 4038   1.613   1.413   0.294
 1047SOL     OW 4039   2.409   6.984   4.043
 1047SOL    HW1 4040   2.373   6.893   4.022
 1047SOL    HW2 4041   2.399   7.001   4.141
 1048SOL     OW 4042   3.486   6.204   2.580
 1048SOL    HW1 4043   3.526   6.273   2.639
 1048SOL    HW2 4044   3.387   6.201   2.593
 1049SOL     OW 4045   6.229   6.820   3.957
 1049SOL    HW1 4046   6.294   6.747   3.938
 1049SOL    HW2 4047   6.200   6.815   4.053
 1050SOL     OW 4048   3.348   4.967   2.735
 1050SOL    HW1 4049   3.425   4.921   2.691
 1050SOL    HW2 4050   3.262   4.934   2.696
 1051SOL     OW 4051   0.368   5.146   0.784
 1051SOL    HW1 4052   0.468   5.142   0.786
 1051SOL    HW2 4053   0.339   5.241   0.770
 1052SOL     OW 4054   4.345   1.055   5.356
 1052SOL    HW1 4055   4.260   1.014   5.388
 1052SOL    HW2 4056   4.324   1.140   5.307
 1053SOL     OW 4057   6.468   3.648   2.716
 1053SOL    HW1 4058   6.398   3.622   2.783
 1053SOL    HW2 4059   6.443   3.735   2.674
 1054SOL     OW 4060   2.954   3.494   0.909
 1054SOL    HW1 4061   3.033   3.556   0.907
 1054SOL    HW2 4062   2.984   3.402   0.887
 1055SOL     OW 4063   4.189   6.649   5.198
 1055SOL    HW1 4064   4.122   6.599   5.144
 1055SOL    HW2 4065   4.253   6.696   5.137
 1056SOL     OW 4066   1.761   3.166   6.902
 1056SOL    HW1 4067   1.764   3.214   6.989
 1056SOL    HW2 4068   1.795   3.226   6.829
 1057SOL     OW 4069   3.669   3.467   1.420
 1057SOL    HW1 4070   3.765   3.478   1.394
 1057SOL    HW2 4071   3.621   3.415   1.350
 1058SOL     OW 4072   5.256   2.470   3.814
 1058SOL    HW1 4073   5.246   2.516   3.726
 1058SOL    HW2 4074   5.166   2.434   3.843
 1059SOL     OW 4075   2.058   0.767   2.263
 1059SOL    HW1 4076   2.127   0.766   2.336
 1059SOL    HW2 4077   2.069   0.686   2.205
 1060SOL     OW 4078   0.239   4.873   3.673
 1060SOL    HW1 4079   0.200   4.876   3.581
 1060SOL    HW2 4080   0.327   4.825   3.670
 1061SOL     OW 4081   6.603   3.861   6.294
 1061SOL    HW1 4082   6.654   3.820   6.369
 1061SOL    HW2 4083   6.509   3.880   6.324
 1062SOL     OW 4084   5.395   5.303   5.723
 1062SOL    HW1 4085   5.339   5.284   5.642
 1062SOL    HW2 4086   5.363   5.246   5.799
 1063SOL     OW 4087   0.947   5.689   0.379
 1063SOL    HW1 4088   1.009   5.676   0.302
 1063SOL    HW2 4089   0.909   5.781   0.377
 1064SOL     OW 4090   1.583   4.465   2.975
 1064SOL    HW1 4091   1.500   4.482   3.028
 1064SOL    HW2 4092   1.655   4.432   3.036
 1065SOL     OW 4093   4.506   1.024   2.847
 1065SOL    HW1 4094   4.410   1.044   2.826
 1065SOL    HW2 4095   4.545   1.098   2.902
 1066SOL     OW 4096   4.808   6.841   2.688
 1066SOL    HW1 4097   4.835   6.771   2.621
 1066SOL    HW2 4098   4.734   6.805   2.745
 1067SOL     OW 4099   1.158   2.920   0.087
 1067SOL    HW1 4100   1.246   2.872   0.090
 1067SOL    HW2 4101   1.152   2.973   0.002
 1068SOL     OW 4102   6.847   4.719   1.874
 1068SOL    HW1 4103   6.752   4.750   1.879
 1068SOL    HW2 4104   6.899   4.763   1.947
 1069SOL     OW 4105   5.082   6.058   0.681
 1069SOL    HW1 4106   5.062   5.977   0.627
 1069SOL    HW2 4107   5.094   6.137   0.620
 1070SOL     OW 4108   1.081   0.199   1.413
 1070SOL    HW1 4109   1.092   0.199   1.513
 1070SOL    HW2 4110   1.069   0.293   1.381
 1071SOL     OW 4111   1.846   1.084   3.597
 1071SOL    HW1 4112   1.905   1.149   3.645
 1071SOL    HW2 4113   1.787   1.037   3.662
 1072SOL     OW 4114   2.467   1.030   1.153
 1072SOL    HW1 4115   2.450   1.004   1.248
 1072SOL    HW2 4116   2.498   1.125   1.150
 1073SOL     OW 4117   4.851   0.619   3.698
 1073SOL    HW1 4118   4.817   0.666   3.617
 1073SOL    HW2 4119   4.921   0.553   3.671
 1074SOL     OW 4120   2.533   5.243   1.678
 1074SOL    HW1 4121   2.584   5.302   1.615
 1074SOL    HW2 4122   2.587   5.227   1.760
 1075SOL     OW 4123   5.651   6.989   2.997
 1075SOL    HW1 4124   5.566   0.005   2.956
 1075SOL    HW2 4125   5.692   6.919   2.938
 1076SOL     OW 4126   0.852   2.476   5.470
 1076SOL    HW1 4127   0.943   2.496   5.434
 1076SOL    HW2 4128   0.830   2.542   5.542
 1077SOL     OW 4129   6.212   6.969   0.593
 1077SOL    HW1 4130   6.160   0.033   0.562
 1077SOL    HW2 4131   6.226   6.975   0.692
 1078SOL     OW 4132   6.781   0.865   2.126
 1078SOL    HW1 4133   6.689   0.900   2.105
 1078SOL    HW2 4134   6.822   0.831   2.042
 1079SOL     OW 4135   1.644   5.985   2.247
 1079SOL    HW1 4136   1.595   5.958   2.330
 1079SOL    HW2 4137   1.712   6.055   2.269
 1080SOL     OW 4138   1.897   5.456   3.449
 1080SOL    HW1 4139   1.891   5.419   3.541
 1080SOL    HW2 4140   1.816   5.431   3.397
 1081SOL     OW 4141   6.676   5.349   5.229
 1081SOL    HW1 4142   6.619   5.272   5.199
 1081SOL    HW2 4143   6.681   5.349   5.329
 1082SOL     OW 4144   5.403   2.379   5.519
 1082SOL    HW1 4145   5.440   2.364   5.611
 1082SOL    HW2 4146   5.476   2.368   5.452
 1083SOL     OW 4147   4.527   4.054   0.414
 1083SOL    HW1 4148   4.529   4.077   0.316
 1083SOL    HW2 4149   4.585   3.973   0.429
 1084SOL     OW 4150   6.490   6.603   6.301
 1084SOL    HW1 4151   6.420   6.657   6.346
 1084SOL    HW2 4152   6.471   6.506   6.312
 1085SOL     OW 4153   1.355   3.918   4.282
 1085SOL    HW1 4154   1.350   3.823   4.249
 1085SOL    HW2 4155   1.408   3.920   4.367
 1086SOL     OW 4156   6.942   4.128   0.138
 1086SOL    HW1 4157   7.011   4.187   0.097
 1086SOL    HW2 4158   6.875   4.103   0.068
 1087SOL     OW 4159   0.244   2.162   4.685
 1087SOL    HW1 4160   0.269   2.258   4.673
 1087SOL    HW2 4161   0.325   2.110   4.711
 1088SOL     OW 4162   0.023   3.235   2.583
 1088SOL    HW1 4163   7.009   3.151   2.537
 1088SOL    HW2 4164   6.986   3.250   2.666
 1089SOL     OW 4165   6.629   5.902   4.395
 1089SOL    HW1 4166   6.543   5.952   4.386
 1089SOL    HW2 4167   6.637   5.868   4.489
 1090SOL     OW 4168   3.295   1.723   2.951
 1090SOL    HW1 4169   3.308   1.750   3.046
 1090SOL    HW2 4170   3.219   1.774   2.911
 1091SOL     OW 4171   2.568   2.110   4.539
 1091SOL    HW1 4172   2.477   2.121   4.499
 1091SOL    HW2 4173   2.615   2.033   4.494
 1092SOL     OW 4174   1.002   4.619   0.155
 1092SOL    HW1 4175   0.903   4.633   0.156
 1092SOL    HW2 4176   1.034   4.607   0.249
 1093SOL     OW 4177   2.497   6.995   1.432
 1093SOL    HW1 4178   2.423   6.952   1.485
 1093SOL    HW2 4179   2.464   7.014   1.340
 1094SOL     OW 4180   1.147   6.509   3.403
 1094SOL    HW1 4181   1.169   6.562   3.321
 1094SOL    HW2 4182   1.055   6.470   3.394
 1095SOL     OW 4183   0.616   2.805   5.779
 1095SOL    HW1 4184   0.528   2.770   5.811
 1095SOL    HW2 4185   0.668   2.841   5.857
 1096SOL     OW 4186   3.330   4.557   1.309
 1096SOL    HW1 4187   3.369   4.534   1.220
 1096SOL    HW2 4188   3.273   4.481   1.341
 1097SOL     OW 4189   2.575   4.674   3.962
 1097SOL    HW1 4190   2.551   4.617   4.040
 1097SOL    HW2 4191   2.506   4.745   3.950
 1098SOL     OW 4192   4.654   3.530   6.742
 1098SOL    HW1 4193   4.737   3.554   6.691
 1098SOL    HW2 4194   4.626   3.609   6.798
 1099SOL     OW 4195   3.740   1.039   6.015
 1099SOL    HW1 4196   3.830   1.021   5.974
 1099SOL    HW2 4197   3.729   0.983   6.097
 1100SOL     OW 4198   4.161   1.539   4.288
 1100SOL    HW1 4199   4.080   1.511   4.339
 1100SOL    HW2 4200   4.139   1.540   4.190
 1101SOL     OW 4201   5.769   3.774   5.809
 1101SOL    HW1 4202   5.787   3.677   5.788
 1101SOL    HW2 4203   5.854   3.817   5.838
 1102SOL     OW 4204   0.818   0.780   4.861
 1102SOL    HW1 4205   0.828   0.851   4.930
 1102SOL    HW2 4206   0.793   0.821   4.773
 1103SOL     OW 4207   3.873   0.981   0.186
 1103SOL    HW1 4208   3.927   0.968   0.269
 1103SOL    HW2 4209   3.933   1.005   0.110
 1104SOL     OW 4210   1.959   3.077   4.503
 1104SOL    HW1 4211   2.010   3.157   4.536
 1104SOL    HW2 4212   2.009   3.035   4.427
 1105SOL     OW 4213   5.976   3.432   5.073
 1105SOL    HW1 4214   6.031   3.430   4.990
 1105SOL    HW2 4215   5.895   3.489   5.058
 1106SOL     OW 4216   0.619   2.485   0.793
 1106SOL    HW1 4217   0.675   2.403   0.781
 1106SOL    HW2 4218   0.652   2.556   0.730
 1107SOL     OW 4219   1.366   0.524   6.974
 1107SOL    HW1 4220   1.360   0.518   0.057
 1107SOL    HW2 4221   1.353   0.434   6.934
 1108SOL     OW 4222   3.712   6.923   5.694
 1108SOL    HW1 4223   3.792   6.919   5.634
 1108SOL    HW2 4224   3.633   6.883   5.647
 1109SOL     OW 4225   5.568   1.030   4.186
 1109SOL    HW1 4226   5.603   0.977   4.263
 1109SOL    HW2 4227   5.470   1.011   4.174
 1110SOL     OW 4228   4.125   2.206   3.055
 1110SOL    HW1 4229   4.149   2.230   2.961
 1110SOL    HW2 4230   4.146   2.110   3.071
 1111SOL     OW 4231   5.561   5.509   6.682
 1111SOL    HW1 4232   5.482   5.449   6.680
 1111SOL    HW2 4233   5.570   5.555   6.593
 1112SOL     OW 4234   5.863   1.322   2.390
 1112SOL    HW1 4235   5.843   1.241   2.445
 1112SOL    HW2 4236   5.959   1.322   2.363
 1113SOL     OW 4237   5.607   4.507   1.402
 1113SOL    HW1 4238   5.551   4.570   1.348
 1113SOL    HW2 4239   5.548   4.438   1.444
 1114SOL     OW 4240   2.609   1.186   6.128
 1114SOL    HW1 4241   2.691   1.136   6.156
 1114SOL    HW2 4242   2.635   1.275   6.091
 1115SOL     OW 4243   3.643   3.670   5.878
 1115SOL    HW1 4244   3.740   3.652   5.865
 1115SOL    HW2 4245   3.610   3.618   5.958
 1116SOL     OW 4246   4.537   6.723   6.585
 1116SOL    HW1 4247   4.533   6.775   6.500
 1116SOL    HW2 4248   4.485   6.638   6.574
 1117SOL     OW 4249   1.022   2.124   1.991
 1117SOL    HW1 4250   1.065   2.178   1.919
 1117SOL    HW2 4251   1.078   2.127   2.074
 1118SOL     OW 4252   2.469   4.925   0.405
 1118SOL    HW1 4253   2.400   4.866   0.447
 1118SOL    HW2 4254   2.547   4.870   0.376
 1119SOL     OW 4255   4.042   4.483   1.705
 1119SOL    HW1 4256   3.980   4.553   1.739
 1119SOL    HW2 4257   4.119   4.473   1.768
 1120SOL     OW 4258   5.918   5.855   0.752
 1120SOL    HW1 4259   6.010   5.894   0.763
 1120SOL    HW2 4260   5.857   5.923   0.712
 1121SOL     OW 4261   6.997   4.717   4.890
 1121SOL    HW1 4262   6.972   4.755   4.802
 1121SOL    HW2 4263   0.059   4.767   4.927
 1122SOL     OW 4264   5.258   2.786   1.624
 1122SOL    HW1 4265   5.333   2.751   1.568
 1122SOL    HW2 4266   5.183   2.816   1.565
 1123SOL     OW 4267   5.466   2.366   3.269
 1123SOL    HW1 4268   5.472   2.345   3.172
 1123SOL    HW2 4269   5.554   2.401   3.301
 1124SOL     OW 4270   0.041   3.608   5.539
 1124SOL    HW1 4271   6.995   3.540   5.500
 1124SOL    HW2 4272   0.019   3.698   5.503
 1125SOL     OW 4273   2.141   1.786   3.507
 1125SOL    HW1 4274   2.060   1.840   3.486
 1125SOL    HW2 4275   2.188   1.825   3.586
 1126SOL     OW 4276   5.845   5.889   6.118
 1126SOL    HW1 4277   5.793   5.927   6.195
 1126SOL    HW2 4278   5.943   5.897   6.137
 1127SOL     OW 4279   5.339   6.137   4.635
 1127SOL    HW1 4280   5.311   6.228   4.605
 1127SOL    HW2 4281   5.289   6.112   4.718
 1128SOL     OW 4282   5.522   1.545   4.051
 1128SOL    HW1 4283   5.517   1.551   3.951
 1128SOL    HW2 4284   5.463   1.616   4.091
 1129SOL     OW 4285   1.707   6.869   0.862
 1129SOL    HW1 4286   1.688   6.869   0.960
 1129SOL    HW2 4287   1.784   6.931   0.843
 1130SOL     OW 4288   1.971   5.452   0.586
 1130SOL    HW1 4289   2.055   5.427   0.539
 1130SOL    HW2 4290   1.950   5.384   0.657
 1131SOL     OW 4291   0.970   6.975   5.520
 1131SOL    HW1 4292   0.957   6.919   5.602
 1131SOL    HW2 4293   0.994   0.052   5.546
 1132SOL     OW 4294   4.810   0.087   2.760
 1132SOL    HW1 4295   4.868   0.116   2.685
 1132SOL    HW2 4296   4.800   7.004   2.759
 1133SOL     OW 4297   1.117   1.180   0.265
 1133SOL    HW1 4298   1.100   1.083   0.285
 1133SOL    HW2 4299   1.030   1.230   0.270
 1134SOL     OW 4300   5.018   0.130   2.554
 1134SOL    HW1 4301   5.048   0.035   2.567
 1134SOL    HW2 4302   5.004   0.147   2.457
 1135SOL     OW 4303   2.539   6.593   4.301
 1135SOL    HW1 4304   2.473   6.532   4.344
 1135SOL    HW2 4305   2.494   6.647   4.230
 1136SOL     OW 4306   4.367   4.570   3.629
 1136SOL    HW1 4307   4.397   4.490   3.576
 1136SOL    HW2 4308   4.334   4.540   3.718
 1137SOL     OW 4309   1.320   0.085   0.485
 1137SOL    HW1 4310   1.377   0.050   0.559
 1137SOL    HW2 4311   1.253   0.016   0.458
 1138SOL     OW 4312   0.174   1.079   5.952
 1138SOL    HW1 4313   0.119   1.046   5.875
 1138SOL    HW2 4314   0.269   1.052   5.938
 1139SOL     OW 4315   2.696   4.783   3.072
 1139SOL    HW1 4316   2.728   4.838   2.995
 1139SOL    HW2 4317   2.769   4.775   3.140
 1140SOL     OW 4318   2.687   1.148   2.475
 1140SOL    HW1 4319   2.760   1.201   2.434
 1140SOL    HW2 4320   2.610   1.208   2.498
 1141SOL     OW 4321   0.377   5.968   0.203
 1141SOL    HW1 4322   0.293   5.932   0.244
 1141SOL    HW2 4323   0.435   5.893   0.173
 1142SOL     OW 4324   3.178   0.135   4.019
 1142SOL    HW1 4325   3.249   0.204   4.031
 1142SOL    HW2 4326   3.184   0.097   3.927
 1143SOL     OW 4327   2.338   2.489   3.188
 1143SOL    HW1 4328   2.407   2.461   3.254
 1143SOL    HW2 4329   2.347   2.587   3.171
 1144SOL     OW 4330   6.375   4.808   3.686
 1144SOL    HW1 4331   6.292   4.753   3.685
 1144SOL    HW2 4332   6.451   4.753   3.721
 1145SOL     OW 4333   6.836   3.058   1.010
 1145SOL    HW1 4334   6.933   3.082   0.999
 1145SOL    HW2 4335   6.782   3.109   0.942
 1146SOL     OW 4336   0.167   0.816   1.811
 1146SOL    HW1 4337   0.173   0.809   1.712
 1146SOL    HW2 4338   0.071   0.827   1.839
 1147SOL     OW 4339   3.161   5.510   1.841
 1147SOL    HW1 4340   3.137   5.607   1.841
 1147SOL    HW2 4341   3.246   5.497   1.790
 1148SOL     OW 4342   4.715   6.328   0.415
 1148SOL    HW1 4343   4.725   6.263   0.490
 1148SOL    HW2 4344   4.788   6.312   0.348
 1149SOL     OW 4345   5.428   2.622   2.478
 1149SOL    HW1 4346   5.469   2.531   2.487
 1149SOL    HW2 4347   5.500   2.690   2.470
 1150SOL     OW 4348   0.705   4.245   6.800
 1150SOL    HW1 4349   0.757   4.326   6.825
 1150SOL    HW2 4350   0.767   4.173   6.769
 1151SOL     OW 4351   6.013   4.817   5.618
 1151SOL    HW1 4352   5.931   4.805   5.673
 1151SOL    HW2 4353   6.028   4.914   5.600
 1152SOL     OW 4354   4.528   5.731   6.401
 1152SOL    HW1 4355   4.497   5.800   6.335
 1152SOL    HW2 4356   4.587   5.665   6.354
 1153SOL     OW 4357   0.143   6.875   2.222
 1153SOL    HW1 4358   0.210   6.900   2.292
 1153SOL    HW2 4359   0.053   6.864   2.264
 1154SOL     OW 4360   0.589   4.606   1.000
 1154SOL    HW1 4361   0.647   4.551   1.060
 1154SOL    HW2 4362   0.521   4.655   1.055
 1155SOL     OW 4363   2.906   4.656   5.951
 1155SOL    HW1 4364   2.999   4.679   5.979
 1155SOL    HW2 4365   2.899   4.557   5.938
 1156SOL     OW 4366   4.371   1.807   5.184
 1156SOL    HW1 4367   4.372   1.869   5.263
 1156SOL    HW2 4368   4.328   1.853   5.106
 1157SOL     OW 4369   5.183   1.129   6.154
 1157SOL    HW1 4370   5.181   1.205   6.219
 1157SOL    HW2 4371   5.271   1.127   6.108
 1158SOL     OW 4372   6.545   5.103   5.190
 1158SOL    HW1 4373   6.557   5.123   5.093
 1158SOL    HW2 4374   6.603   5.026   5.216
 1159SOL     OW 4375   6.795   0.027   4.007
 1159SOL    HW1 4376   6.842   0.011   3.920
 1159SOL    HW2 4377   6.778   6.956   4.052
 1160SOL     OW 4378   4.818   4.792   1.319
 1160SOL    HW1 4379   4.903   4.774   1.368
 1160SOL    HW2 4380   4.837   4.799   1.221
 1161SOL     OW 4381   6.593   5.592   5.924
 1161SOL    HW1 4382   6.653   5.533   5.870
 1161SOL    HW2 4383   6.550   5.660   5.865
 1162SOL     OW 4384   2.238   1.756   6.445
 1162SOL    HW1 4385   2.222   1.767   6.543
 1162SOL    HW2 4386   2.323   1.704   6.431
 1163SOL     OW 4387   6.494   4.190   2.183
 1163SOL    HW1 4388   6.467   4.268   2.126
 1163SOL    HW2 4389   6.489   4.106   2.129
 1164SOL     OW 4390   4.831   2.428   3.667
 1164SOL    HW1 4391   4.739   2.460   3.689
 1164SOL    HW2 4392   4.888   2.432   3.750
 1165SOL     OW 4393   4.246   5.805   3.802
 1165SOL    HW1 4394   4.340   5.793   3.836
 1165SOL    HW2 4395   4.197   5.718   3.810
 1166SOL     OW 4396   2.933   6.489   0.274
 1166SOL    HW1 4397   2.983   6.405   0.296
 1166SOL    HW2 4398   2.969   6.527   0.189
 1167SOL     OW 4399   4.060   6.795   0.778
 1167SOL    HW1 4400   3.985   6.861   0.771
 1167SOL    HW2 4401   4.027   6.704   0.753
 1168SOL     OW 4402   5.535   2.902   1.525
 1168SOL    HW1 4403   5.606   2.924   1.458
 1168SOL    HW2 4404   5.448   2.940   1.494
 1169SOL     OW 4405   4.343   2.002   5.933
 1169SOL    HW1 4406   4.310   1.958   5.850
 1169SOL    HW2 4407   4.381   1.933   5.994
 1170SOL     OW 4408   5.080   6.809   2.791
 1170SOL    HW1 4409   4.986   6.792   2.762
 1170SOL    HW2 4410   5.103   6.748   2.866
 1171SOL     OW 4411   3.413   6.244   6.832
 1171SOL    HW1 4412   3.348   6.277   6.899
 1171SOL    HW2 4413   3.405   6.145   6.823
 1172SOL     OW 4414   3.674   4.024   0.736
 1172SOL    HW1 4415   3.740   3.999   0.665
 1172SOL    HW2 4416   3.703   4.110   0.779
 1173SOL     OW 4417   3.651   1.043   0.685
 1173SOL    HW1 4418   3.700   1.117   0.732
 1173SOL    HW2 4419   3.686   1.035   0.592
 1174SOL     OW 4420   2.656   4.159   1.604
 1174SOL    HW1 4421   2.596   4.232   1.638
 1174SOL    HW2 4422   2.735   4.151   1.663
 1175SOL     OW 4423   4.154   3.954   6.246
 1175SOL    HW1 4424   4.117   3.942   6.154
 1175SOL    HW2 4425   4.079   3.953   6.312
 1176SOL     OW 4426   5.200   3.786   0.612
 1176SOL    HW1 4427   5.289   3.758   0.647
 1176SOL    HW2 4428   5.213   3.852   0.538
 1177SOL     OW 4429   6.554   3.699   4.663
 1177SOL    HW1 4430   6.512   3.746   4.586
 1177SOL    HW2 4431   6.588   3.767   4.729
 1178SOL     OW 4432   3.250   4.217   1.022
 1178SOL    HW1 4433   3.337   4.243   1.065
 1178SOL    HW2 4434   3.174   4.249   1.077
 1179SOL     OW 4435   3.013   5.992   1.010
 1179SOL    HW1 4436   2.942   6.061   0.994
 1179SOL    HW2 4437   2.999   5.915   0.947
 1180SOL     OW 4438   2.425   6.068   3.945
 1180SOL    HW1 4439   2.342   6.017   3.969
 1180SOL    HW2 4440   2.493   6.006   3.908
 1181SOL     OW 4441   0.134   5.170   4.876
 1181SOL    HW1 4442   0.190   5.194   4.955
 1181SOL    HW2 4443   0.038   5.170   4.902
 1182SOL     OW 4444   5.360   5.593   3.786
 1182SOL    HW1 4445   5.331   5.621   3.695
 1182SOL    HW2 4446   5.336   5.497   3.801
 1183SOL     OW 4447   2.721   4.701   0.584
 1183SOL    HW1 4448   2.622   4.711   0.592
 1183SOL    HW2 4449   2.763   4.713   0.674
 1184SOL     OW 4450   6.882   1.505   5.037
 1184SOL    HW1 4451   6.836   1.593   5.037
 1184SOL    HW2 4452   6.958   1.507   4.972
 1185SOL     OW 4453   0.809   0.897   0.994
 1185SOL    HW1 4454   0.853   0.928   0.910
 1185SOL    HW2 4455   0.800   0.797   0.993
 1186SOL     OW 4456   4.863   6.074   5.438
 1186SOL    HW1 4457   4.790   6.007   5.447
 1186SOL    HW2 4458   4.913   6.081   5.525
 1187SOL     OW 4459   4.693   0.097   5.843
 1187SOL    HW1 4460   4.617   0.122   5.783
 1187SOL    HW2 4461   4.768   0.163   5.832
 1188SOL     OW 4462   3.295   6.241   6.087
 1188SOL    HW1 4463   3.323   6.237   5.991
 1188SOL    HW2 4464   3.196   6.254   6.092
 1189SOL     OW 4465   6.211   1.648   1.625
 1189SOL    HW1 4466   6.239   1.664   1.530
 1189SOL    HW2 4467   6.269   1.701   1.686
 1190SOL     OW 4468   3.612   6.142   3.840
 1190SOL    HW1 4469   3.704   6.104   3.837
 1190SOL    HW2 4470   3.600   6.194   3.924
 1191SOL     OW 4471   4.159   5.340   4.719
 1191SOL    HW1 4472   4.228   5.360   4.649
 1191SOL    HW2 4473   4.071   5.378   4.691
 1192SOL     OW 4474   5.158   4.353   2.648
 1192SOL    HW1 4475   5.073   4.329   2.695
 1192SOL    HW2 4476   5.188   4.276   2.592
 1193SOL     OW 4477   0.088   2.034   4.863
 1193SOL    HW1 4478   0.051   1.961   4.804
 1193SOL    HW2 4479   0.143   2.096   4.807
 1194SOL     OW 4480   5.805   0.097   1.634
 1194SOL    HW1 4481   5.879   0.163   1.619
 1194SOL    HW2 4482   5.828   0.011   1.590
 1195SOL     OW 4483   0.210   4.162   0.919
 1195SOL    HW1 4484   0.114   4.174   0.948
 1195SOL    HW2 4485   0.216   4.170   0.820
 1196SOL     OW 4486   6.729   5.246   3.607
 1196SOL    HW1 4487   6.685   5.173   3.658
 1196SOL    HW2 4488   6.733   5.222   3.510
 1197SOL     OW 4489   4.694   6.852   4.932
 1197SOL    HW1 4490   4.682   6.951   4.927
 1197SOL    HW2 4491   4.744   6.829   5.016
 1198SOL     OW 4492   1.471   3.257   3.038
 1198SOL    HW1 4493   1.563   3.242   3.004
 1198SOL    HW2 4494   1.474   3.276   3.136
 1199SOL     OW 4495   3.468   4.133   1.224
 1199SOL    HW1 4496   3.526   4.120   1.305
 1199SOL    HW2 4497   3.413   4.052   1.209
 1200SOL     OW 4498   3.573   4.035   4.343
 1200SOL    HW1 4499   3.561   4.064   4.248
 1200SOL    HW2 4500   3.517   4.090   4.403
 1201SOL     OW 4501   1.085   1.341   4.200
 1201SOL    HW1 4502   1.075   1.345   4.299
 1201SOL    HW2 4503   1.017   1.277   4.163
 1202SOL     OW 4504   0.430   5.448   5.583
 1202SOL    HW1 4505   0.505   5.484   5.638
 1202SOL    HW2 4506   0.458   5.446   5.487
 1203SOL     OW 4507   6.947   5.954   0.206
 1203SOL    HW1 4508   6.947   6.044   0.163
 1203SOL    HW2 4509   7.001   5.891   0.151
 1204SOL     OW 4510   4.696   1.497   1.395
 1204SOL    HW1 4511   4.732   1.435   1.465
 1204SOL    HW2 4512   4.646   1.445   1.327
 1205SOL     OW 4513   3.822   3.114   0.932
 1205SOL    HW1 4514   3.764   3.064   0.868
 1205SOL    HW2 4515   3.873   3.185   0.884
 1206SOL     OW 4516   2.806   2.602   5.327
 1206SOL    HW1 4517   2.829   2.699   5.321
 1206SOL    HW2 4518   2.727   2.582   5.270
 1207SOL     OW 4519   2.255   6.436   1.242
 1207SOL    HW1 4520   2.265   6.341   1.272
 1207SOL    HW2 4521   2.343   6.471   1.211
 1208SOL     OW 4522   3.648   3.592   1.139
 1208SOL    HW1 4523   3.674   3.597   1.235
 1208SOL    HW2 4524   3.548   3.598   1.131
 1209SOL     OW 4525   4.468   0.494   4.135
 1209SOL    HW1 4526   4.398   0.465   4.071
 1209SOL    HW2 4527   4.424   0.525   4.220
 1210SOL     OW 4528   3.429   6.863   3.112
 1210SOL    HW1 4529   3.456   6.779   3.065
 1210SOL    HW2 4530   3.509   6.923   3.121
 1211SOL     OW 4531   0.398   3.667   2.812
 1211SOL    HW1 4532   0.435   3.587   2.860
 1211SOL    HW2 4533   0.356   3.728   2.879
 1212SOL     OW 4534   6.018   0.668   0.022
 1212SOL    HW1 4535   6.048   0.759   0.051
 1212SOL    HW2 4536   5.957   0.676   6.960
 1213SOL     OW 4537   5.851   2.543   0.819
 1213SOL    HW1 4538   5.752   2.542   0.833
 1213SOL    HW2 4539   5.896   2.583   0.898
 1214SOL     OW 4540   1.106   3.094   6.887
 1214SOL    HW1 4541   1.195   3.137   6.906
 1214SOL    HW2 4542   1.047   3.160   6.840
 1215SOL     OW 4543   1.120   4.564   3.661
 1215SOL    HW1 4544   1.213   4.529   3.664
 1215SOL    HW2 4545   1.106   4.614   3.575
 1216SOL     OW 4546   4.886   0.030   0.935
 1216SOL    HW1 4547   4.910   0.112   0.884
 1216SOL    HW2 4548   4.794   0.000   0.908
 1217SOL     OW 4549   2.587   4.604   1.034
 1217SOL    HW1 4550   2.629   4.636   1.119
 1217SOL    HW2 4551   2.543   4.515   1.049
 1218SOL     OW 4552   1.485   3.642   4.962
 1218SOL    HW1 4553   1.483   3.739   4.987
 1218SOL    HW2 4554   1.419   3.592   5.018
 1219SOL     OW 4555   5.022   5.767   2.206
 1219SOL    HW1 4556   4.996   5.844   2.264
 1219SOL    HW2 4557   5.119   5.747   2.217
 1220SOL     OW 4558   0.626   4.435   3.493
 1220SOL    HW1 4559   0.709   4.402   3.537
 1220SOL    HW2 4560   0.556   4.452   3.562
 1221SOL     OW 4561   4.858   4.230   6.323
 1221SOL    HW1 4562   4.837   4.308   6.381
 1221SOL    HW2 4563   4.922   4.169   6.371
 1222SOL     OW 4564   6.670   0.572   0.064
 1222SOL    HW1 4565   6.607   0.644   0.094
 1222SOL    HW2 4566   6.681   0.577   6.982
 1223SOL     OW 4567   4.285   1.998   0.067
 1223SOL    HW1 4568   4.248   1.937   0.138
 1223SOL    HW2 4569   4.278   2.092   0.098
 1224SOL     OW 4570   3.573   5.612   0.940
 1224SOL    HW1 4571   3.584   5.522   0.982
 1224SOL    HW2 4572   3.611   5.611   0.848
 1225SOL     OW 4573   2.980   3.184   6.370
 1225SOL    HW1 4574   3.056   3.238   6.334
 1225SOL    HW2 4575   2.903   3.245   6.390
 1226SOL     OW 4576   2.370   6.158   2.089
 1226SOL    HW1 4577   2.287   6.113   2.055
 1226SOL    HW2 4578   2.355   6.257   2.092
 1227SOL     OW 4579   6.649   4.545   5.764
 1227SOL    HW1 4580   6.745   4.514   5.764
 1227SOL    HW2 4581   6.631   4.596   5.680
 1228SOL     OW 4582   3.175   1.755   6.233
 1228SOL    HW1 4583   3.138   1.848   6.233
 1228SOL    HW2 4584   3.163   1.714   6.323
 1229SOL     OW 4585   3.725   5.014   5.468
 1229SOL    HW1 4586   3.664   5.063   5.530
 1229SOL    HW2 4587   3.676   4.992   5.384
 1230SOL     OW 4588   4.666   6.469   2.634
 1230SOL    HW1 4589   4.576   6.439   2.666
 1230SOL    HW2 4590   4.664   6.477   2.534
 1231SOL     OW 4591   2.145   2.748   4.859
 1231SOL    HW1 4592   2.048   2.756   4.837
 1231SOL    HW2 4593   2.199   2.774   4.779
 1232SOL     OW 4594   0.720   2.013   5.440
 1232SOL    HW1 4595   0.661   2.003   5.359
 1232SOL    HW2 4596   0.684   1.958   5.515
 1233SOL     OW 4597   0.922   4.463   5.119
 1233SOL    HW1 4598   0.866   4.438   5.040
 1233SOL    HW2 4599   0.873   4.529   5.176
 1234SOL     OW 4600   6.601   3.429   5.182
 1234SOL    HW1 4601   6.541   3.448   5.105
 1234SOL    HW2 4602   6.592   3.333   5.209
 1235SOL     OW 4603   0.056   5.771   2.750
 1235SOL    HW1 4604   0.112   5.774   2.667
 1235SOL    HW2 4605   0.056   5.861   2.794
 1236SOL     OW 4606   4.318   1.517   6.939
 1236SOL    HW1 4607   4.352   1.610   6.953
 1236SOL    HW2 4608   4.333   1.463   0.006
 1237SOL     OW 4609   2.406   5.279   5.500
 1237SOL    HW1 4610   2.481   5.338   5.470
 1237SOL    HW2 4611   2.385   5.298   5.596
 1238SOL     OW 4612   2.521   1.246   0.149
 1238SOL    HW1 4613   2.546   1.149   0.157
 1238SOL    HW2 4614   2.488   1.279   0.237
 1239SOL     OW 4615   7.011   0.030   6.079
 1239SOL    HW1 4616   6.943   0.014   6.150
 1239SOL    HW2 4617   6.981   7.004   5.993
 1240SOL     OW 4618   5.500   6.904   1.804
 1240SOL    HW1 4619   5.458   6.923   1.894
 1240SOL    HW2 4620   5.428   6.886   1.737
 1241SOL     OW 4621   5.239   3.589   4.236
 1241SOL    HW1 4622   5.218   3.682   4.267
 1241SOL    HW2 4623   5.221   3.582   4.138
 1242SOL     OW 4624   0.579   3.712   1.659
 1242SOL    HW1 4625   0.553   3.636   1.718
 1242SOL    HW2 4626   0.541   3.698   1.567
 1243SOL     OW 4627   7.009   0.105   4.822
 1243SOL    HW1 4628   0.088   0.135   4.828
 1243SOL    HW2 4629   6.989   0.042   4.898
 1244SOL     OW 4630   6.457   6.955   4.312
 1244SOL    HW1 4631   6.543   7.006   4.311
 1244SOL    HW2 4632   6.445   6.912   4.402
 1245SOL     OW 4633   4.985   4.925   0.639
 1245SOL    HW1 4634   4.950   4.833   0.660
 1245SOL    HW2 4635   4.956   4.950   0.547
 1246SOL     OW 4636   2.295   6.442   1.803
 1246SOL    HW1 4637   2.228   6.401   1.865
 1246SOL    HW2 4638   2.367   6.486   1.856
 1247SOL     OW 4639   2.033   0.350   6.934
 1247SOL    HW1 4640   1.956   0.379   6.877
 1247SOL    HW2 4641   2.090   0.430   6.955
 1248SOL     OW 4642   2.291   0.347   5.161
 1248SOL    HW1 4643   2.225   0.292   5.110
 1248SOL    HW2 4644   2.246   0.429   5.196
 1249SOL     OW 4645   5.885   2.234   2.821
 1249SOL    HW1 4646   5.915   2.240   2.916
 1249SOL    HW2 4647   5.934   2.159   2.775
 1250SOL     OW 4648   6.034   4.996   4.551
 1250SOL    HW1 4649   6.117   4.988   4.497
 1250SOL    HW2 4650   6.053   4.966   4.645
 1251SOL     OW 4651   3.540   0.816   4.264
 1251SOL    HW1 4652   3.537   0.724   4.302
 1251SOL    HW2 4653   3.499   0.880   4.329
 1252SOL     OW 4654   3.744   3.817   5.232
 1252SOL    HW1 4655   3.689   3.749   5.280
 1252SOL    HW2 4656   3.840   3.807   5.258
 1253SOL     OW 4657   3.224   5.691   2.226
 1253SOL    HW1 4658   3.321   5.672   2.237
 1253SOL    HW2 4659   3.212   5.769   2.164
 1254SOL     OW 4660   1.229   2.369   2.750
 1254SOL    HW1 4661   1.135   2.349   2.776
 1254SOL    HW2 4662   1.233   2.396   2.654
 1255SOL     OW 4663   6.439   2.270   4.920
 1255SOL    HW1 4664   6.449   2.256   4.821
 1255SOL    HW2 4665   6.527   2.255   4.965
 1256SOL     OW 4666   6.670   6.454   3.277
 1256SOL    HW1 4667   6.610   6.530   3.250
 1256SOL    HW2 4668   6.761   6.488   3.297
 1257SOL     OW 4669   0.079   6.684   4.895
 1257SOL    HW1 4670   0.080   6.784   4.893
 1257SOL    HW2 4671   0.008   6.653   4.958
 1258SOL     OW 4672   1.586   5.281   3.594
 1258SOL    HW1 4673   1.548   5.367   3.627
 1258SOL    HW2 4674   1.678   5.269   3.632
 1259SOL     OW 4675   3.777   1.098   4.200
 1259SOL    HW1 4676   3.774   1.197   4.216
 1259SOL    HW2 4677   3.809   1.052   4.282
 1260SOL     OW 4678   1.540   1.926   0.255
 1260SOL    HW1 4679   1.627   1.958   0.218
 1260SOL    HW2 4680   1.480   2.004   0.274
 1261SOL     OW 4681   0.450   5.585   6.531
 1261SOL    HW1 4682   0.521   5.574   6.462
 1261SOL    HW2 4683   0.426   5.682   6.539
 1262SOL     OW 4684   4.869   4.493   1.657
 1262SOL    HW1 4685   4.893   4.445   1.741
 1262SOL    HW2 4686   4.771   4.488   1.642
 1263SOL     OW 4687   0.307   1.607   2.338
 1263SOL    HW1 4688   0.373   1.532   2.341
 1263SOL    HW2 4689   0.225   1.581   2.389
 1264SOL     OW 4690   6.479   4.437   0.172
 1264SOL    HW1 4691   6.462   4.499   0.248
 1264SOL    HW2 4692   6.566   4.389   0.186
 1265SOL     OW 4693   5.808   4.964   4.917
 1265SOL    HW1 4694   5.838   4.911   4.837
 1265SOL    HW2 4695   5.751   4.906   4.976
 1266SOL     OW 4696   0.494   1.197   4.161
 1266SOL    HW1 4697   0.515   1.254   4.081
 1266SOL    HW2 4698   0.479   1.103   4.132
 1267SOL     OW 4699   5.444   1.302   1.174
 1267SOL    HW1 4700   5.352   1.280   1.140
 1267SOL    HW2 4701   5.512   1.262   1.113
 1268SOL     OW 4702   2.824   2.725   6.520
 1268SOL    HW1 4703   2.762   2.690   6.590
 1268SOL    HW2 4704   2.820   2.666   6.440
 1269SOL     OW 4705   5.897   3.257   4.201
 1269SOL    HW1 4706   5.834   3.183   4.224
 1269SOL    HW2 4707   5.881   3.335   4.261
 1270SOL     OW 4708   1.282   3.969   2.608
 1270SOL    HW1 4709   1.183   3.971   2.592
 1270SOL    HW2 4710   1.303   4.022   2.689
 1271SOL     OW 4711   3.920   1.857   2.382
 1271SOL    HW1 4712   4.017   1.868   2.406
 1271SOL    HW2 4713   3.882   1.947   2.361
 1272SOL     OW 4714   5.782   4.558   6.760
 1272SOL    HW1 4715   5.686   4.573   6.737
 1272SOL    HW2 4716   5.813   4.471   6.721
 1273SOL     OW 4717   0.983   3.574   6.336
 1273SOL    HW1 4718   0.914   3.582   6.408
 1273SOL    HW2 4719   0.951   3.509   6.267
 1274SOL     OW 4720   6.877   4.373   1.352
 1274SOL    HW1 4721   6.956   4.420   1.311
 1274SOL    HW2 4722   6.822   4.438   1.404
 1275SOL     OW 4723   3.878   1.671   3.484
 1275SOL    HW1 4724   3.886   1.726   3.401
 1275SOL    HW2 4725   3.781   1.651   3.501
 1276SOL     OW 4726   6.181   5.147   5.141
 1276SOL    HW1 4727   6.207   5.197   5.223
 1276SOL    HW2 4728   6.235   5.179   5.063
 1277SOL     OW 4729   1.939   5.766   6.147
 1277SOL    HW1 4730   1.889   5.761   6.234
 1277SOL    HW2 4731   2.024   5.714   6.155
 1278SOL     OW 4732   0.765   0.319   5.020
 1278SOL    HW1 4733   0.744   0.417   5.025
 1278SOL    HW2 4734   0.826   0.294   5.095
 1279SOL     OW 4735   1.610   5.157   6.863
 1279SOL    HW1 4736   1.708   5.159   6.882
 1279SOL    HW2 4737   1.595   5.103   6.780
 1280SOL     OW 4738   4.396   0.209   4.336
 1280SOL    HW1 4739   4.462   0.141   4.369
 1280SOL    HW2 4740   4.422   0.239   4.245
 1281SOL     OW 4741   2.184   5.985   3.209
 1281SOL    HW1 4742   2.146   6.067   3.165
 1281SOL    HW2 4743   2.186   5.910   3.143
 1282SOL     OW 4744   6.667   2.230   6.234
 1282SOL    HW1 4745   6.598   2.159   6.221
 1282SOL    HW2 4746   6.655   2.272   6.324
 1283SOL     OW 4747   6.581   2.964   4.993
 1283SOL    HW1 4748   6.512   3.021   4.950
 1283SOL    HW2 4749   6.572   2.870   4.960
 1284SOL     OW 4750   4.766   1.788   1.898
 1284SOL    HW1 4751   4.803   1.729   1.826
 1284SOL    HW2 4752   4.703   1.854   1.859
 1285SOL     OW 4753   4.609   1.323   5.839
 1285SOL    HW1 4754   4.687   1.378   5.870
 1285SOL    HW2 4755   4.630   1.284   5.750
 1286SOL     OW 4756   4.104   3.505   0.846
 1286SOL    HW1 4757   4.044   3.580   0.875
 1286SOL    HW2 4758   4.132   3.452   0.926
 1287SOL     OW 4759   5.345   4.194   5.414
 1287SOL    HW1 4760   5.443   4.174   5.421
 1287SOL    HW2 4761   5.330   4.265   5.345
 1288SOL     OW 4762   3.501   3.782   6.495
 1288SOL    HW1 4763   3.572   3.807   6.429
 1288SOL    HW2 4764   3.420   3.840   6.480
 1289SOL     OW 4765   0.501   0.004   1.340
 1289SOL    HW1 4766   0.594   0.021   1.306
 1289SOL    HW2 4767   0.441   7.001   1.262
 1290SOL     OW 4768   1.133   6.764   0.538
 1290SOL    HW1 4769   1.132   6.807   0.628
 1290SOL    HW2 4770   1.162   6.830   0.469
 1291SOL     OW 4771   0.453   4.450   3.961
 1291SOL    HW1 4772   0.529   4.448   4.026
 1291SOL    HW2 4773   0.409   4.360   3.957
 1292SOL     OW 4774   0.898   5.594   2.336
 1292SOL    HW1 4775   0.969   5.542   2.290
 1292SOL    HW2 4776   0.812   5.542   2.336
 1293SOL     OW 4777   2.364   2.240   0.133
 1293SOL    HW1 4778   2.374   2.260   0.230
 1293SOL    HW2 4779   2.276   2.273   0.100
 1294SOL     OW 4780   0.410   3.139   5.812
 1294SOL    HW1 4781   0.356   3.164   5.731
 1294SOL    HW2 4782   0.494   3.093   5.783
 1295SOL     OW 4783   0.303   3.694   1.024
 1295SOL    HW1 4784   0.214   3.732   1.048
 1295SOL    HW2 4785   0.365   3.767   0.998
 1296SOL     OW 4786   4.152   6.215   5.258
 1296SOL    HW1 4787   4.087   6.141   5.275
 1296SOL    HW2 4788   4.118   6.299   5.299
 1297SOL     OW 4789   0.942   0.061   1.192
 1297SOL    HW1 4790   0.891   7.007   1.242
 1297SOL    HW2 4791   0.998   0.112   1.257
 1298SOL     OW 4792   4.945   5.634   3.295
 1298SOL    HW1 4793   4.910   5.685   3.217
 1298SOL    HW2 4794   4.870   5.583   3.339
 1299SOL     OW 4795   2.578   2.428   3.876
 1299SOL    HW1 4796   2.599   2.453   3.971
 1299SOL    HW2 4797   2.528   2.503   3.832
 1300SOL     OW 4798   2.053   2.788   0.733
 1300SOL    HW1 4799   2.114   2.756   0.660
 1300SOL    HW2 4800   2.054   2.888   0.735
 1301SOL     OW 4801   0.601   6.172   1.658
 1301SOL    HW1 4802   0.503   6.160   1.676
 1301SOL    HW2 4803   0.623   6.269   1.656
 1302SOL     OW 4804   4.817   6.707   5.179
 1302SOL    HW1 4805   4.726   6.676   5.208
 1302SOL    HW2 4806   4.830   6.802   5.206
 1303SOL     OW 4807   4.301   1.381   1.289
 1303SOL    HW1 4808   4.202   1.368   1.299
 1303SOL    HW2 4809   4.336   1.435   1.366
 1304SOL     OW 4810   1.789   0.121   0.644
 1304SOL    HW1 4811   1.781   0.050   0.574
 1304SOL    HW2 4812   1.808   0.209   0.600
 1305SOL     OW 4813   5.500   3.675   0.497
 1305SOL    HW1 4814   5.442   3.721   0.430
 1305SOL    HW2 4815   5.552   3.603   0.453
 1306SOL     OW 4816   1.330   5.889   4.326
 1306SOL    HW1 4817   1.341   5.796   4.289
 1306SOL    HW2 4818   1.327   5.954   4.250
 1307SOL     OW 4819   2.248   4.436   4.114
 1307SOL    HW1 4820   2.177   4.367   4.129
 1307SOL    HW2 4821   2.280   4.431   4.019
 1308SOL     OW 4822   6.566   0.047   6.124
 1308SOL    HW1 4823   6.635   0.092   6.181
 1308SOL    HW2 4824   6.607   0.021   6.036
 1309SOL     OW 4825   5.793   4.852   5.761
 1309SOL    HW1 4826   5.785   4.948   5.733
 1309SOL    HW2 4827   5.754   4.793   5.691
 1310SOL     OW 4828   0.093   3.653   3.294
 1310SOL    HW1 4829   0.079   3.560   3.260
 1310SOL    HW2 4830   0.174   3.656   3.351
 1311SOL     OW 4831   6.732   5.793   6.135
 1311SOL    HW1 4832   6.698   5.706   6.100
 1311SOL    HW2 4833   6.655   5.856   6.147
 1312SOL     OW 4834   1.190   6.924   0.331
 1312SOL    HW1 4835   1.232   6.847   0.284
 1312SOL    HW2 4836   1.102   6.945   0.289
 1313SOL     OW 4837   0.355   4.999   2.684
 1313SOL    HW1 4838   0.332   4.932   2.613
 1313SOL    HW2 4839   0.271   5.032   2.727
 1314SOL     OW 4840   3.946   1.435   4.460
 1314SOL    HW1 4841   3.931   1.513   4.521
 1314SOL    HW2 4842   3.883   1.361   4.485
 1315SOL     OW 4843   0.055   1.803   2.597
 1315SOL    HW1 4844   7.003   1.873   2.616
 1315SOL    HW2 4845   0.141   1.846   2.570
 1316SOL     OW 4846   3.592   0.278   5.807
 1316SOL    HW1 4847   3.673   0.276   5.748
 1316SOL    HW2 4848   3.587   0.193   5.859
 1317SOL     OW 4849   2.345   4.044   5.855
 1317SOL    HW1 4850   2.380   4.061   5.764
 1317SOL    HW2 4851   2.247   4.025   5.850
 1318SOL     OW 4852   1.101   2.490   0.897
 1318SOL    HW1 4853   1.188   2.451   0.929
 1318SOL    HW2 4854   1.043   2.511   0.975
 1319SOL     OW 4855   6.914   6.224   1.012
 1319SOL    HW1 4856   6.901   6.142   1.068
 1319SOL    HW2 4857   6.984   6.282   1.053
 1320SOL     OW 4858   3.788   4.491   6.641
 1320SOL    HW1 4859   3.803   4.530   6.732
 1320SOL    HW2 4860   3.703   4.527   6.603
 1321SOL     OW 4861   5.121   2.770   6.324
 1321SOL    HW1 4862   5.221   2.767   6.330
 1321SOL    HW2 4863   5.092   2.857   6.286
 1322SOL     OW 4864   3.779   1.786   4.178
 1322SOL    HW1 4865   3.754   1.880   4.199
 1322SOL    HW2 4866   3.696   1.730   4.172
 1323SOL     OW 4867   3.944   6.507   6.089
 1323SOL    HW1 4868   3.862   6.480   6.038
 1323SOL    HW2 4869   3.992   6.425   6.121
 1324SOL     OW 4870   0.493   3.183   6.829
 1324SOL    HW1 4871   0.444   3.132   6.758
 1324SOL    HW2 4872   0.471   3.280   6.822
 1325SOL     OW 4873   3.677   6.436   4.783
 1325SOL    HW1 4874   3.755   6.411   4.725
 1325SOL    HW2 4875   3.594   6.397   4.744
 1326SOL     OW 4876   5.032   3.531   5.139
 1326SOL    HW1 4877   4.937   3.560   5.126
 1326SOL    HW2 4878   5.093   3.591   5.087
 1327SOL     OW 4879   0.932   6.459   1.039
 1327SOL    HW1 4880   0.958   6.443   1.134
 1327SOL    HW2 4881   1.011   6.445   0.979
 1328SOL     OW 4882   2.602   3.603   0.119
 1328SOL    HW1 4883   2.678   3.545   0.148
 1328SOL    HW2 4884   2.633   3.665   0.047
 1329SOL     OW 4885   0.987   2.249   2.757
 1329SOL    HW1 4886   0.986   2.213   2.850
 1329SOL    HW2 4887   0.894   2.245   2.719
 1330SOL     OW 4888   1.659   1.266   1.400
 1330SOL    HW1 4889   1.618   1.324   1.330
 1330SOL    HW2 4890   1.592   1.199   1.431
 1331SOL     OW 4891   4.738   2.914   3.026
 1331SOL    HW1 4892   4.718   2.818   3.004
 1331SOL    HW2 4893   4.777   2.959   2.946
 1332SOL     OW 4894   2.254   0.013   0.662
 1332SOL    HW1 4895   2.266   0.010   0.761
 1332SOL    HW2 4896   2.317   0.079   0.622
 1333SOL     OW 4897   2.918   3.523   3.240
 1333SOL    HW1 4898   2.904   3.616   3.204
 1333SOL    HW2 4899   2.929   3.528   3.339
 1334SOL     OW 4900   6.400   1.717   3.702
 1334SOL    HW1 4901   6.329   1.647   3.713
 1334SOL    HW2 4902   6.484   1.686   3.746
 1335SOL     OW 4903   2.550   1.993   2.296
 1335SOL    HW1 4904   2.583   1.901   2.317
 1335SOL    HW2 4905   2.623   2.045   2.252
 1336SOL     OW 4906   2.635   1.755   4.815
 1336SOL    HW1 4907   2.623   1.762   4.914
 1336SOL    HW2 4908   2.684   1.671   4.793
 1337SOL     OW 4909   0.937   1.850   2.897
 1337SOL    HW1 4910   0.932   1.828   2.994
 1337SOL    HW2 4911   1.031   1.877   2.874
 1338SOL     OW 4912   6.864   2.980   4.622
 1338SOL    HW1 4913   6.861   3.072   4.659
 1338SOL    HW2 4914   6.772   2.941   4.621
 1339SOL     OW 4915   6.644   2.084   6.960
 1339SOL    HW1 4916   6.730   2.035   6.976
 1339SOL    HW2 4917   6.574   2.050   0.006
 1340SOL     OW 4918   5.464   1.571   2.805
 1340SOL    HW1 4919   5.365   1.570   2.821
 1340SOL    HW2 4920   5.512   1.577   2.893
 1341SOL     OW 4921   4.131   6.408   6.391
 1341SOL    HW1 4922   4.084   6.368   6.313
 1341SOL    HW2 4923   4.064   6.430   6.463
 1342SOL     OW 4924   3.081   5.473   6.299
 1342SOL    HW1 4925   2.990   5.435   6.311
 1342SOL    HW2 4926   3.086   5.563   6.344
 1343SOL     OW 4927   5.120   5.456   2.978
 1343SOL    HW1 4928   5.082   5.546   2.956
 1343SOL    HW2 4929   5.141   5.452   3.076
 1344SOL     OW 4930   6.888   5.966   4.644
 1344SOL    HW1 4931   6.961   5.901   4.622
 1344SOL    HW2 4932   6.803   5.934   4.603
 1345SOL     OW 4933   0.969   5.558   3.010
 1345SOL    HW1 4934   0.882   5.561   2.962
 1345SOL    HW2 4935   1.012   5.648   3.005
 1346SOL     OW 4936   1.909   5.805   4.855
 1346SOL    HW1 4937   1.816   5.825   4.885
 1346SOL    HW2 4938   1.915   5.814   4.756
 1347SOL     OW 4939   6.983   6.873   5.855
 1347SOL    HW1 4940   6.915   6.893   5.785
 1347SOL    HW2 4941   0.049   6.836   5.812
 1348SOL     OW 4942   6.029   6.539   4.278
 1348SOL    HW1 4943   6.025   6.582   4.369
 1348SOL    HW2 4944   5.937   6.518   4.246
 1349SOL     OW 4945   5.399   2.854   4.893
 1349SOL    HW1 4946   5.316   2.818   4.937
 1349SOL    HW2 4947   5.414   2.948   4.924
 1350SOL     OW 4948   5.085   4.961   5.324
 1350SOL    HW1 4949   5.058   5.002   5.237
 1350SOL    HW2 4950   5.028   4.997   5.398
 1351SOL     OW 4951   5.624   2.095   2.834
 1351SOL    HW1 4952   5.613   2.047   2.922
 1351SOL    HW2 4953   5.703   2.156   2.839
 1352SOL     OW 4954   6.473   5.623   3.995
 1352SOL    HW1 4955   6.477   5.530   4.031
 1352SOL    HW2 4956   6.427   5.682   4.060
 1353SOL     OW 4957   0.895   2.425   0.211
 1353SOL    HW1 4958   0.894   2.469   0.121
 1353SOL    HW2 4959   0.805   2.388   0.230
 1354SOL     OW 4960   0.624   4.709   1.581
 1354SOL    HW1 4961   0.649   4.805   1.565
 1354SOL    HW2 4962   0.571   4.675   1.503
 1355SOL     OW 4963   5.988   3.703   4.339
 1355SOL    HW1 4964   6.020   3.625   4.284
 1355SOL    HW2 4965   5.892   3.722   4.317
 1356SOL     OW 4966   3.010   3.247   2.018
 1356SOL    HW1 4967   2.963   3.204   1.941
 1356SOL    HW2 4968   3.039   3.176   2.083
 1357SOL     OW 4969   0.138   4.468   6.459
 1357SOL    HW1 4970   0.102   4.393   6.403
 1357SOL    HW2 4971   0.083   4.475   6.543
 1358SOL     OW 4972   5.205   6.322   6.525
 1358SOL    HW1 4973   5.229   6.415   6.554
 1358SOL    HW2 4974   5.106   6.315   6.514
 1359SOL     OW 4975   5.820   4.734   3.022
 1359SOL    HW1 4976   5.786   4.678   3.098
 1359SOL    HW2 4977   5.871   4.812   3.059
 1360SOL     OW 4978   2.980   3.917   0.301
 1360SOL    HW1 4979   2.921   3.966   0.365
 1360SOL    HW2 4980   2.926   3.886   0.223
 1361SOL     OW 4981   6.391   5.005   5.391
 1361SOL    HW1 4982   6.428   5.052   5.311
 1361SOL    HW2 4983   6.330   5.066   5.441
 1362SOL     OW 4984   3.760   3.824   3.621
 1362SOL    HW1 4985   3.791   3.863   3.535
 1362SOL    HW2 4986   3.669   3.858   3.643
 1363SOL     OW 4987   0.049   5.237   4.020
 1363SOL    HW1 4988   0.053   5.257   3.922
 1363SOL    HW2 4989   0.130   5.184   4.046
 1364SOL     OW 4990   5.065   4.358   0.976
 1364SOL    HW1 4991   5.061   4.302   0.893
 1364SOL    HW2 4992   5.156   4.348   1.018
 1365SOL     OW 4993   6.992   4.260   6.368
 1365SOL    HW1 4994   6.912   4.207   6.341
 1365SOL    HW2 4995   0.004   4.234   6.460
 1366SOL     OW 4996   1.668   5.849   0.225
 1366SOL    HW1 4997   1.623   5.808   0.305
 1366SOL    HW2 4998   1.742   5.790   0.194
 1367SOL     OW 4999   2.172   0.318   3.265
 1367SOL    HW1 5000   2.119   0.236   3.244
 1367SOL    HW2 5001   2.252   0.323   3.204
 1368SOL     OW 5002   5.556   6.911   3.832
 1368SOL    HW1 5003   5.529   7.005   3.813
 1368SOL    HW2 5004   5.644   6.891   3.789
 1369SOL     OW 5005   2.062   6.422   2.724
 1369SOL    HW1 5006   2.033   6.517   2.733
 1369SOL    HW2 5007   2.161   6.418   2.719
 1370SOL     OW 5008   3.340   1.257   0.998
 1370SOL    HW1 5009   3.371   1.195   0.926
 1370SOL    HW2 5010   3.411   1.324   1.018
 1371SOL     OW 5011   5.134   1.571   4.261
 1371SOL    HW1 5012   5.187   1.648   4.297
 1371SOL    HW2 5013   5.101   1.594   4.169
 1372SOL     OW 5014   1.286   2.705   0.789
 1372SOL    HW1 5015   1.249   2.771   0.724
 1372SOL    HW2 5016   1.211   2.648   0.825
 1373SOL     OW 5017   6.073   3.992   6.729
 1373SOL    HW1 5018   6.172   3.991   6.721
 1373SOL    HW2 5019   6.047   4.045   6.810
 1374SOL     OW 5020   4.011   2.222   0.553
 1374SOL    HW1 5021   3.994   2.136   0.602
 1374SOL    HW2 5022   3.934   2.242   0.492
 1375SOL     OW 5023   0.161   4.731   6.403
 1375SOL    HW1 5024   0.177   4.640   6.441
 1375SOL    HW2 5025   0.233   4.753   6.337
 1376SOL     OW 5026   4.869   3.333   3.768
 1376SOL    HW1 5027   4.822   3.286   3.843
 1376SOL    HW2 5028   4.895   3.267   3.698
 1377SOL     OW 5029   6.750   3.949   5.088
 1377SOL    HW1 5030   6.825   3.884   5.096
 1377SOL    HW2 5031   6.713   3.947   4.995
 1378SOL     OW 5032   6.291   1.871   4.644
 1378SOL    HW1 5033   6.319   1.941   4.578
 1378SOL    HW2 5034   6.353   1.793   4.639
 1379SOL     OW 5035   3.291   0.205   2.042
 1379SOL    HW1 5036   3.256   0.139   1.976
 1379SOL    HW2 5037   3.217   0.231   2.105
 1380SOL     OW 5038   0.297   6.897   2.463
 1380SOL    HW1 5039   0.355   6.977   2.478
 1380SOL    HW2 5040   0.354   6.819   2.437
 1381SOL     OW 5041   5.412   2.716   6.984
 1381SOL    HW1 5042   5.463   2.713   0.054
 1381SOL    HW2 5043   5.325   2.762   6.998
 1382SOL     OW 5044   5.391   4.375   0.087
 1382SOL    HW1 5045   5.303   4.327   0.091
 1382SOL    HW2 5046   5.413   4.397   7.009
 1383SOL     OW 5047   0.536   1.190   0.233
 1383SOL    HW1 5048   0.478   1.167   0.311
 1383SOL    HW2 5049   0.605   1.119   0.221
 1384SOL     OW 5050   3.873   1.007   2.700
 1384SOL    HW1 5051   3.913   0.918   2.675
 1384SOL    HW2 5052   3.782   0.992   2.739
 1385SOL     OW 5053   0.691   2.864   2.783
 1385SOL    HW1 5054   0.594   2.888   2.784
 1385SOL    HW2 5055   0.738   2.922   2.716
 1386SOL     OW 5056   2.640   1.831   4.388
 1386SOL    HW1 5057   2.633   1.880   4.301
 1386SOL    HW2 5058   2.720   1.771   4.386
 1387SOL     OW 5059   3.822   0.486   3.546
 1387SOL    HW1 5060   3.776   0.524   3.466
 1387SOL    HW2 5061   3.754   0.452   3.610
 1388SOL     OW 5062   0.124   6.845   4.100
 1388SOL    HW1 5063   0.031   6.808   4.100
 1388SOL    HW2 5064   0.120   6.944   4.115
 1389SOL     OW 5065   0.531   0.796   3.441
 1389SOL    HW1 5066   0.533   0.866   3.513
 1389SOL    HW2 5067   0.623   0.786   3.402
 1390SOL     OW 5068   4.786   1.314   6.779
 1390SOL    HW1 5069   4.787   1.214   6.774
 1390SOL    HW2 5070   4.852   1.345   6.847
 1391SOL     OW 5071   6.088   1.432   5.384
 1391SOL    HW1 5072   5.998   1.475   5.385
 1391SOL    HW2 5073   6.154   1.494   5.340
 1392SOL     OW 5074   5.497   5.231   5.267
 1392SOL    HW1 5075   5.443   5.149   5.252
 1392SOL    HW2 5076   5.569   5.212   5.334
 1393SOL     OW 5077   5.667   3.185   6.940
 1393SOL    HW1 5078   5.702   3.142   0.006
 1393SOL    HW2 5079   5.617   3.117   6.886
 1394SOL     OW 5080   3.833   6.826   3.657
 1394SOL    HW1 5081   3.924   6.822   3.616
 1394SOL    HW2 5082   3.815   6.920   3.688
 1395SOL     OW 5083   0.355   4.185   2.699
 1395SOL    HW1 5084   0.453   4.198   2.692
 1395SOL    HW2 5085   0.325   4.123   2.626
 1396SOL     OW 5086   1.897   0.163   4.194
 1396SOL    HW1 5087   1.996   0.155   4.206
 1396SOL    HW2 5088   1.876   0.171   4.096
 1397SOL     OW 5089   0.354   6.369   5.093
 1397SOL    HW1 5090   0.384   6.443   5.032
 1397SOL    HW2 5091   0.267   6.395   5.135
 1398SOL     OW 5092   1.713   1.144   0.877
 1398SOL    HW1 5093   1.629   1.121   0.828
 1398SOL    HW2 5094   1.756   1.061   0.912
 1399SOL     OW 5095   4.074   0.556   0.826
 1399SOL    HW1 5096   4.123   0.471   0.842
 1399SOL    HW2 5097   4.126   0.633   0.864
 1400SOL     OW 5098   6.119   0.889   4.132
 1400SOL    HW1 5099   6.059   0.814   4.102
 1400SOL    HW2 5100   6.137   0.950   4.056
 1401SOL     OW 5101   5.973   0.009   4.313
 1401SOL    HW1 5102   6.022   0.090   4.345
 1401SOL    HW2 5103   5.931   0.028   4.224
 1402SOL     OW 5104   6.078   4.128   6.992
 1402SOL    HW1 5105   6.177   4.119   6.997
 1402SOL    HW2 5106   6.053   4.224   6.985
 1403SOL     OW 5107   2.472   3.191   0.244
 1403SOL    HW1 5108   2.510   3.184   0.336
 1403SOL    HW2 5109   2.454   3.287   0.223
 1404SOL     OW 5110   4.670   0.512   1.026
 1404SOL    HW1 5111   4.622   0.430   1.058
 1404SOL    HW2 5112   4.642   0.591   1.082
 1405SOL     OW 5113   1.811   3.532   0.761
 1405SOL    HW1 5114   1.712   3.520   0.772
 1405SOL    HW2 5115   1.858   3.477   0.830
 1406SOL     OW 5116   2.128   4.089   1.509
 1406SOL    HW1 5117   2.060   4.158   1.484
 1406SOL    HW2 5118   2.149   4.096   1.607
 1407SOL     OW 5119   1.286   3.307   2.622
 1407SOL    HW1 5120   1.255   3.213   2.608
 1407SOL    HW2 5121   1.384   3.312   2.608
 1408SOL     OW 5122   6.192   6.657   6.923
 1408SOL    HW1 5123   6.124   6.699   6.863
 1408SOL    HW2 5124   6.151   6.640   7.012
 1409SOL     OW 5125   0.002   0.865   5.740
 1409SOL    HW1 5126   7.012   0.954   5.696
 1409SOL    HW2 5127   0.087   0.820   5.713
 1410SOL     OW 5128   2.580   3.286   6.379
 1410SOL    HW1 5129   2.633   3.284   6.463
 1410SOL    HW2 5130   2.555   3.192   6.353
 1411SOL     OW 5131   3.511   5.859   6.532
 1411SOL    HW1 5132   3.563   5.942   6.548
 1411SOL    HW2 5133   3.500   5.845   6.434
 1412SOL     OW 5134   0.709   3.374   0.832
 1412SOL    HW1 5135   0.661   3.417   0.909
 1412SOL    HW2 5136   0.784   3.434   0.802
 1413SOL     OW 5137   1.752   1.663   4.550
 1413SOL    HW1 5138   1.801   1.682   4.464
 1413SOL    HW2 5139   1.772   1.735   4.616
 1414SOL     OW 5140   1.240   3.102   1.819
 1414SOL    HW1 5141   1.271   3.196   1.803
 1414SOL    HW2 5142   1.318   3.046   1.846
 1415SOL     OW 5143   2.464   1.760   4.587
 1415SOL    HW1 5144   2.519   1.761   4.671
 1415SOL    HW2 5145   2.522   1.782   4.509
 1416SOL     OW 5146   4.365   0.970   5.026
 1416SOL    HW1 5147   4.379   1.008   5.117
 1416SOL    HW2 5148   4.436   1.007   4.964
 1417SOL     OW 5149   3.447   3.272   5.849
 1417SOL    HW1 5150   3.542   3.277   5.818
 1417SOL    HW2 5151   3.433   3.187   5.901
 1418SOL     OW 5152   3.273   3.975   0.863
 1418SOL    HW1 5153   3.347   3.923   0.905
 1418SOL    HW2 5154   3.280   4.071   0.892
 1419SOL     OW 5155   1.815   5.003   4.205
 1419SOL    HW1 5156   1.908   4.969   4.216
 1419SOL    HW2 5157   1.755   4.929   4.174
 1420SOL     OW 5158   4.172   4.940   2.946
 1420SOL    HW1 5159   4.209   4.896   3.028
 1420SOL    HW2 5160   4.236   4.927   2.870
 1421SOL     OW 5161   0.824   4.490   4.329
 1421SOL    HW1 5162   0.824   4.415   4.396
 1421SOL    HW2 5163   0.912   4.491   4.282
 1422SOL     OW 5164   2.354   4.729   6.026
 1422SOL    HW1 5165   2.290   4.795   5.989
 1422SOL    HW2 5166   2.379   4.754   6.120
 1423SOL     OW 5167   3.972   1.799   4.376
 1423SOL    HW1 5168   3.891   1.793   4.318
 1423SOL    HW2 5169   3.975   1.720   4.437
 1424SOL     OW 5170   6.569   3.804   6.710
 1424SOL    HW1 5171   6.636   3.753   6.655
 1424SOL    HW2 5172   6.534   3.881   6.657
 1425SOL     OW 5173   2.852   6.282   5.039
 1425SOL    HW1 5174   2.787   6.207   5.026
 1425SOL    HW2 5175   2.945   6.247   5.036
 1426SOL     OW 5176   1.702   1.311   6.593
 1426SOL    HW1 5177   1.686   1.214   6.578
 1426SOL    HW2 5178   1.744   1.351   6.511
 1427SOL     OW 5179   1.062   0.348   3.280
 1427SOL    HW1 5180   1.062   0.393   3.369
 1427SOL    HW2 5181   1.108   0.260   3.288
 1428SOL     OW 5182   0.292   2.536   1.295
 1428SOL    HW1 5183   0.375   2.519   1.242
 1428SOL    HW2 5184   0.235   2.603   1.248
 1429SOL     OW 5185   6.368   1.380   6.582
 1429SOL    HW1 5186   6.392   1.315   6.653
 1429SOL    HW2 5187   6.323   1.460   6.623
 1430SOL     OW 5188   2.488   4.494   4.474
 1430SOL    HW1 5189   2.439   4.577   4.449
 1430SOL    HW2 5190   2.429   4.415   4.459
 1431SOL     OW 5191   2.583   2.468   5.607
 1431SOL    HW1 5192   2.631   2.391   5.566
 1431SOL    HW2 5193   2.486   2.464   5.582
 1432SOL     OW 5194   2.187   1.332   0.391
 1432SOL    HW1 5195   2.134   1.344   0.475
 1432SOL    HW2 5196   2.277   1.296   0.413
 1433SOL     OW 5197   4.176   0.247   3.626
 1433SOL    HW1 5198   4.110   0.242   3.701
 1433SOL    HW2 5199   4.265   0.276   3.661
 1434SOL     OW 5200   0.303   2.107   6.199
 1434SOL    HW1 5201   0.344   2.165   6.129
 1434SOL    HW2 5202   0.369   2.088   6.271
 1435SOL     OW 5203   0.224   0.564   4.015
 1435SOL    HW1 5204   0.249   0.627   3.941
 1435SOL    HW2 5205   0.138   0.594   4.056
 1436SOL     OW 5206   6.255   3.504   0.681
 1436SOL    HW1 5207   6.262   3.418   0.731
 1436SOL    HW2 5208   6.159   3.532   0.674
 1437SOL     OW 5209   3.141   1.413   5.564
 1437SOL    HW1 5210   3.151   1.432   5.662
 1437SOL    HW2 5211   3.086   1.486   5.522
 1438SOL     OW 5212   3.433   1.125   1.335
 1438SOL    HW1 5213   3.506   1.169   1.285
 1438SOL    HW2 5214   3.354   1.186   1.341
 1439SOL     OW 5215   0.561   5.799   0.103
 1439SOL    HW1 5216   0.621   5.854   0.161
 1439SOL    HW2 5217   0.576   5.702   0.123
 1440SOL     OW 5218   3.672   3.250   4.501
 1440SOL    HW1 5219   3.576   3.229   4.487
 1440SOL    HW2 5220   3.715   3.176   4.553
 1441SOL     OW 5221   6.815   3.962   3.300
 1441SOL    HW1 5222   6.801   3.980   3.202
 1441SOL    HW2 5223   6.906   3.993   3.327
 1442SOL     OW 5224   5.400   5.181   1.128
 1442SOL    HW1 5225   5.464   5.226   1.066
 1442SOL    HW2 5226   5.427   5.198   1.223
 1443SOL     OW 5227   0.540   0.507   4.001
 1443SOL    HW1 5228   0.495   0.425   3.965
 1443SOL    HW2 5229   0.565   0.567   3.924
 1444SOL     OW 5230   3.923   5.752   3.142
 1444SOL    HW1 5231   3.949   5.723   3.050
 1444SOL    HW2 5232   4.005   5.783   3.191
 1445SOL     OW 5233   0.178   2.974   1.997
 1445SOL    HW1 5234   0.170   2.938   1.904
 1445SOL    HW2 5235   0.201   2.900   2.060
 1446SOL     OW 5236   5.160   2.878   6.957
 1446SOL    HW1 5237   5.062   2.888   6.970
 1446SOL    HW2 5238   5.207   2.953   7.004
 1447SOL     OW 5239   6.713   0.225   5.424
 1447SOL    HW1 5240   6.660   0.157   5.475
 1447SOL    HW2 5241   6.766   0.179   5.353
 1448SOL     OW 5242   6.037   1.717   0.125
 1448SOL    HW1 5243   6.103   1.688   0.194
 1448SOL    HW2 5244   6.066   1.804   0.085
 1449SOL     OW 5245   6.047   6.647   0.141
 1449SOL    HW1 5246   5.993   6.729   0.162
 1449SOL    HW2 5247   6.045   6.585   0.219
 1450SOL     OW 5248   6.866   2.598   2.101
 1450SOL    HW1 5249   6.960   2.591   2.133
 1450SOL    HW2 5250   6.852   2.536   2.024
 1451SOL     OW 5251   3.062   0.795   2.925
 1451SOL    HW1 5252   3.108   0.706   2.928
 1451SOL    HW2 5253   2.993   0.795   2.853
 1452SOL     OW 5254   4.755   1.513   4.695
 1452SOL    HW1 5255   4.798   1.482   4.611
 1452SOL    HW2 5256   4.815   1.493   4.773
 1453SOL     OW 5257   5.831   3.660   4.590
 1453SOL    HW1 5258   5.799   3.566   4.596
 1453SOL    HW2 5259   5.892   3.670   4.510
 1454SOL     OW 5260   5.610   3.008   2.733
 1454SOL    HW1 5261   5.555   2.975   2.810
 1454SOL    HW2 5262   5.609   2.942   2.659
 1455SOL     OW 5263   1.042   0.660   1.662
 1455SOL    HW1 5264   1.073   0.702   1.747
 1455SOL    HW2 5265   0.942   0.649   1.666
 1456SOL     OW 5266   6.580   6.652   5.361
 1456SOL    HW1 5267   6.581   6.709   5.279
 1456SOL    HW2 5268   6.598   6.557   5.336
 1457SOL     OW 5269   1.291   0.041   2.698
 1457SOL    HW1 5270   1.292   6.978   2.759
 1457SOL    HW2 5271   1.346   0.115   2.738
 1458SOL     OW 5272   5.348   6.831   4.803
 1458SOL    HW1 5273   5.277   6.897   4.778
 1458SOL    HW2 5274   5.435   6.879   4.817
 1459SOL     OW 5275   2.713   4.888   0.161
 1459SOL    HW1 5276   2.752   4.979   0.175
 1459SOL    HW2 5277   2.768   4.819   0.208
 1460SOL     OW 5278   0.045   5.683   6.474
 1460SOL    HW1 5279   0.073   5.589   6.494
 1460SOL    HW2 5280   0.108   5.723   6.407
 1461SOL     OW 5281   6.631   5.012   3.692
 1461SOL    HW1 5282   6.535   4.985   3.701
 1461SOL    HW2 5283   6.690   4.933   3.707
 1462SOL     OW 5284   6.763   1.984   0.280
 1462SOL    HW1 5285   6.847   1.930   0.266
 1462SOL    HW2 5286   6.783   2.080   0.262
 1463SOL     OW 5287   0.417   7.016   6.085
 1463SOL    HW1 5288   0.424   0.091   6.046
 1463SOL    HW2 5289   0.423   6.947   6.012
 1464SOL     OW 5290   0.254   6.668   0.807
 1464SOL    HW1 5291   0.313   6.652   0.727
 1464SOL    HW2 5292   0.169   6.616   0.797
 1465SOL     OW 5293   1.239   1.427   2.984
 1465SOL    HW1 5294   1.296   1.440   2.903
 1465SOL    HW2 5295   1.290   1.455   3.065
 1466SOL     OW 5296   0.257   6.811   3.143
 1466SOL    HW1 5297   0.324   6.829   3.215
 1466SOL    HW2 5298   0.285   6.732   3.089
 1467SOL     OW 5299   1.825   0.193   2.100
 1467SOL    HW1 5300   1.736   0.188   2.055
 1467SOL    HW2 5301   1.819   0.254   2.179
 1468SOL     OW 5302   5.313   6.000   3.027
 1468SOL    HW1 5303   5.320   5.915   3.079
 1468SOL    HW2 5304   5.380   6.066   3.060
 1469SOL     OW 5305   0.632   1.044   3.066
 1469SOL    HW1 5306   0.670   1.116   3.008
 1469SOL    HW2 5307   0.684   1.038   3.151
 1470SOL     OW 5308   0.854   1.050   2.307
 1470SOL    HW1 5309   0.804   0.986   2.249
 1470SOL    HW2 5310   0.952   1.031   2.300
 1471SOL     OW 5311   0.947   0.579   6.621
 1471SOL    HW1 5312   1.008   0.555   6.696
 1471SOL    HW2 5313   0.919   0.674   6.629
 1472SOL     OW 5314   4.579   6.099   4.479
 1472SOL    HW1 5315   4.653   6.064   4.537
 1472SOL    HW2 5316   4.598   6.194   4.454
 1473SOL     OW 5317   6.100   5.773   3.527
 1473SOL    HW1 5318   6.102   5.682   3.486
 1473SOL    HW2 5319   6.100   5.765   3.627
 1474SOL     OW 5320   6.472   6.106   3.554
 1474SOL    HW1 5321   6.544   6.056   3.504
 1474SOL    HW2 5322   6.513   6.183   3.602
 1475SOL     OW 5323   0.545   0.538   1.435
 1475SOL    HW1 5324   0.534   0.474   1.359
 1475SOL    HW2 5325   0.522   0.491   1.521
 1476SOL     OW 5326   1.344   0.824   1.229
 1476SOL    HW1 5327   1.307   0.891   1.164
 1476SOL    HW2 5328   1.293   0.739   1.223
 1477SOL     OW 5329   2.694   0.146   6.361
 1477SOL    HW1 5330   2.772   0.166   6.421
 1477SOL    HW2 5331   2.615   0.200   6.389
 1478SOL     OW 5332   5.707   4.484   0.738
 1478SOL    HW1 5333   5.709   4.467   0.837
 1478SOL    HW2 5334   5.727   4.581   0.721
 1479SOL     OW 5335   1.360   4.449   0.089
 1479SOL    HW1 5336   1.430   4.447   0.018
 1479SOL    HW2 5337   1.374   4.371   0.151
 1480SOL     OW 5338   2.920   0.776   0.109
 1480SOL    HW1 5339   2.914   0.807   0.014
 1480SOL    HW2 5340   2.987   0.702   0.115
 1481SOL     OW 5341   5.683   1.951   5.048
 1481SOL    HW1 5342   5.778   1.971   5.026
 1481SOL    HW2 5343   5.680   1.898   5.133
 1482SOL     OW 5344   5.684   1.809   0.935
 1482SOL    HW1 5345   5.664   1.723   0.981
 1482SOL    HW2 5346   5.751   1.794   0.863
 1483SOL     OW 5347   0.221   3.259   6.450
 1483SOL    HW1 5348   0.219   3.174   6.503
 1483SOL    HW2 5349   0.219   3.337   6.513
 1484SOL     OW 5350   6.562   4.300   3.663
 1484SOL    HW1 5351   6.598   4.272   3.574
 1484SOL    HW2 5352   6.468   4.268   3.673
 1485SOL     OW 5353   4.662   2.504   2.588
 1485SOL    HW1 5354   4.644   2.528   2.492
 1485SOL    HW2 5355   4.661   2.587   2.644
 1486SOL     OW 5356   4.581   2.559   3.447
 1486SOL    HW1 5357   4.538   2.559   3.538
 1486SOL    HW2 5358   4.615   2.467   3.427
 1487SOL     OW 5359   6.824   1.979   6.341
 1487SOL    HW1 5360   6.734   1.972   6.385
 1487SOL    HW2 5361   6.816   1.951   6.245
 1488SOL     OW 5362   5.779   2.461   2.712
 1488SOL    HW1 5363   5.826   2.390   2.764
 1488SOL    HW2 5364   5.808   2.457   2.616
 1489SOL     OW 5365   3.816   4.999   4.598
 1489SOL    HW1 5366   3.885   4.926   4.601
 1489SOL    HW2 5367   3.836   5.066   4.669
 1490SOL     OW 5368   1.361   2.365   0.918
 1490SOL    HW1 5369   1.396   2.292   0.976
 1490SOL    HW2 5370   1.381   2.345   0.823
 1491SOL     OW 5371   6.898   3.547   2.951
 1491SOL    HW1 5372   6.818   3.561   2.892
 1491SOL    HW2 5373   6.973   3.508   2.898
 1492SOL     OW 5374   5.990   1.807   2.074
 1492SOL    HW1 5375   5.894   1.807   2.102
 1492SOL    HW2 5376   5.994   1.802   1.974
 1493SOL     OW 5377   5.096   0.771   4.786
 1493SOL    HW1 5378   5.041   0.792   4.705
 1493SOL    HW2 5379   5.038   0.727   4.854
 1494SOL     OW 5380   4.368   2.603   5.720
 1494SOL    HW1 5381   4.313   2.687   5.719
 1494SOL    HW2 5382   4.453   2.620   5.768
 1495SOL     OW 5383   0.504   3.482   3.490
 1495SOL    HW1 5384   0.576   3.471   3.560
 1495SOL    HW2 5385   0.541   3.457   3.401
 1496SOL     OW 5386   0.699   0.635   1.992
 1496SOL    HW1 5387   0.618   0.655   1.936
 1496SOL    HW2 5388   0.761   0.575   1.940
 1497SOL     OW 5389   0.368   3.961   3.320
 1497SOL    HW1 5390   0.290   4.022   3.335
 1497SOL    HW2 5391   0.341   3.867   3.343
 1498SOL     OW 5392   1.810   4.991   6.638
 1498SOL    HW1 5393   1.906   5.015   6.650
 1498SOL    HW2 5394   1.782   5.010   6.545
 1499SOL     OW 5395   1.188   3.934   5.093
 1499SOL    HW1 5396   1.204   3.873   5.171
 1499SOL    HW2 5397   1.092   3.959   5.090
 1500SOL     OW 5398   5.969   6.930   0.264
 1500SOL    HW1 5399   5.930   0.005   0.252
 1500SOL    HW2 5400   5.941   6.893   0.353
 1501SOL     OW 5401   4.468   0.660   6.128
 1501SOL    HW1 5402   4.514   0.734   6.078
 1501SOL    HW2 5403   4.486   0.670   6.226
 1502SOL     OW 5404   6.165   6.738   0.475
 1502SOL    HW1 5405   6.250   6.708   0.434
 1502SOL    HW2 5406   6.179   6.827   0.520
 1503SOL     OW 5407   2.424   2.458   1.152
 1503SOL    HW1 5408   2.445   2.468   1.249
 1503SOL    HW2 5409   2.477   2.524   1.099
 1504SOL     OW 5410   2.709   0.368   5.115
 1504SOL    HW1 5411   2.639   0.427   5.075
 1504SOL    HW2 5412   2.730   0.294   5.051
 1505SOL     OW 5413   5.025   0.422   6.727
 1505SOL    HW1 5414   5.108   0.374   6.757
 1505SOL    HW2 5415   5.035   0.450   6.632
 1506SOL     OW 5416   1.071   4.922   3.399
 1506SOL    HW1 5417   1.043   4.946   3.491
 1506SOL    HW2 5418   1.076   5.004   3.342
 1507SOL     OW 5419   1.754   1.702   4.862
 1507SOL    HW1 5420   1.722   1.612   4.832
 1507SOL    HW2 5421   1.838   1.691   4.915
 1508SOL     OW 5422   4.575   0.278   1.221
 1508SOL    HW1 5423   4.613   0.226   1.145
 1508SOL    HW2 5424   4.482   0.246   1.240
 1509SOL     OW 5425   4.324   2.886   6.020
 1509SOL    HW1 5426   4.396   2.828   6.057
 1509SOL    HW2 5427   4.240   2.832   6.009
 1510SOL     OW 5428   5.431   2.114   3.972
 1510SOL    HW1 5429   5.496   2.063   3.917
 1510SOL    HW2 5430   5.339   2.077   3.957
 1511SOL     OW 5431   2.414   1.817   6.860
 1511SOL    HW1 5432   2.468   1.751   6.912
 1511SOL    HW2 5433   2.446   1.909   6.880
 1512SOL     OW 5434   6.856   6.552   1.534
 1512SOL    HW1 5435   6.914   6.484   1.489
 1512SOL    HW2 5436   6.835   6.522   1.627
 1513SOL     OW 5437   4.637   0.854   3.999
 1513SOL    HW1 5438   4.628   0.835   4.097
 1513SOL    HW2 5439   4.572   0.925   3.973
 1514SOL     OW 5440   5.573   1.867   4.823
 1514SOL    HW1 5441   5.601   1.922   4.902
 1514SOL    HW2 5442   5.654   1.828   4.779
 1515SOL     OW 5443   0.039   2.386   5.894
 1515SOL    HW1 5444   0.058   2.482   5.875
 1515SOL    HW2 5445   6.966   2.378   5.938
 1516SOL     OW 5446   0.486   0.863   0.867
 1516SOL    HW1 5447   0.481   0.942   0.928
 1516SOL    HW2 5448   0.496   0.894   0.772
 1517SOL     OW 5449   4.863   5.466   4.210
 1517SOL    HW1 5450   4.913   5.382   4.192
 1517SOL    HW2 5451   4.900   5.540   4.154
 1518SOL     OW 5452   0.308   3.097   6.670
 1518SOL    HW1 5453   0.240   3.129   6.735
 1518SOL    HW2 5454   0.285   3.004   6.641
 1519SOL     OW 5455   0.094   4.306   1.814
 1519SOL    HW1 5456   0.134   4.346   1.731
 1519SOL    HW2 5457   0.001   4.274   1.794
 1520SOL     OW 5458   1.751   3.373   2.333
 1520SOL    HW1 5459   1.757   3.367   2.234
 1520SOL    HW2 5460   1.698   3.454   2.359
 1521SOL     OW 5461   2.046   3.406   6.727
 1521SOL    HW1 5462   2.098   3.343   6.669
 1521SOL    HW2 5463   1.949   3.396   6.709
 1522SOL     OW 5464   6.857   1.650   5.602
 1522SOL    HW1 5465   6.950   1.631   5.569
 1522SOL    HW2 5466   6.828   1.741   5.571
 1523SOL     OW 5467   5.095   4.010   6.883
 1523SOL    HW1 5468   5.190   4.004   6.913
 1523SOL    HW2 5469   5.079   3.945   6.808
 1524SOL     OW 5470   0.575   2.191   1.748
 1524SOL    HW1 5471   0.634   2.190   1.829
 1524SOL    HW2 5472   0.618   2.246   1.677
 1525SOL     OW 5473   4.818   2.267   5.683
 1525SOL    HW1 5474   4.829   2.207   5.763
 1525SOL    HW2 5475   4.907   2.305   5.657
 1526SOL     OW 5476   0.625   1.203   1.220
 1526SOL    HW1 5477   0.592   1.278   1.278
 1526SOL    HW2 5478   0.710   1.167   1.258
 1527SOL     OW 5479   3.865   1.176   4.751
 1527SOL    HW1 5480   3.848   1.231   4.669
 1527SOL    HW2 5481   3.778   1.156   4.796
 1528SOL     OW 5482   4.625   5.862   3.100
 1528SOL    HW1 5483   4.671   5.935   3.151
 1528SOL    HW2 5484   4.577   5.902   3.022
 1529SOL     OW 5485   4.379   1.468   5.871
 1529SOL    HW1 5486   4.463   1.416   5.858
 1529SOL    HW2 5487   4.301   1.414   5.840
 1530SOL     OW 5488   3.011   0.366   1.106
 1530SOL    HW1 5489   2.928   0.394   1.058
 1530SOL    HW2 5490   3.019   0.416   1.192
 1531SOL     OW 5491   6.060   1.013   5.050
 1531SOL    HW1 5492   6.092   0.943   5.114
 1531SOL    HW2 5493   6.063   0.977   4.957
 1532SOL     OW 5494   2.725   2.405   4.558
 1532SOL    HW1 5495   2.670   2.321   4.550
 1532SOL    HW2 5496   2.786   2.413   4.479
 1533SOL     OW 5497   0.185   3.511   6.612
 1533SOL    HW1 5498   0.234   3.597   6.618
 1533SOL    HW2 5499   0.164   3.477   6.704
 1534SOL     OW 5500   1.562   5.137   0.209
 1534SOL    HW1 5501   1.661   5.142   0.196
 1534SOL    HW2 5502   1.522   5.082   0.135
 1535SOL     OW 5503   6.074   5.693   4.133
 1535SOL    HW1 5504   6.099   5.709   4.229
 1535SOL    HW2 5505   6.014   5.767   4.102
 1536SOL     OW 5506   3.264   5.250   4.523
 1536SOL    HW1 5507   3.218   5.168   4.490
 1536SOL    HW2 5508   3.243   5.264   4.620
 1537SOL     OW 5509   3.901   5.640   3.537
 1537SOL    HW1 5510   3.988   5.675   3.501
 1537SOL    HW2 5511   3.826   5.696   3.503
 1538SOL     OW 5512   3.466   4.823   5.730
 1538SOL    HW1 5513   3.408   4.894   5.770
 1538SOL    HW2 5514   3.562   4.840   5.754
 1539SOL     OW 5515   4.251   4.227   1.621
 1539SOL    HW1 5516   4.315   4.217   1.545
 1539SOL    HW2 5517   4.301   4.253   1.704
 1540SOL     OW 5518   0.508   6.904   5.184
 1540SOL    HW1 5519   0.463   6.923   5.097
 1540SOL    HW2 5520   0.507   6.985   5.241
 1541SOL     OW 5521   3.883   2.742   1.026
 1541SOL    HW1 5522   3.947   2.752   1.102
 1541SOL    HW2 5523   3.873   2.645   1.003
 1542SOL     OW 5524   0.085   6.324   1.672
 1542SOL    HW1 5525   0.183   6.345   1.668
 1542SOL    HW2 5526   0.038   6.369   1.596
 1543SOL     OW 5527   2.966   3.838   3.393
 1543SOL    HW1 5528   2.933   3.755   3.437
 1543SOL    HW2 5529   2.952   3.832   3.294
 1544SOL     OW 5530   3.123   3.984   2.342
 1544SOL    HW1 5531   3.084   3.900   2.303
 1544SOL    HW2 5532   3.106   4.060   2.280
 1545SOL     OW 5533   5.417   0.969   5.386
 1545SOL    HW1 5534   5.349   0.938   5.453
 1545SOL    HW2 5535   5.430   0.897   5.317
 1546SOL     OW 5536   5.052   0.059   5.952
 1546SOL    HW1 5537   4.997   0.070   6.035
 1546SOL    HW2 5538   5.140   0.018   5.976
 1547SOL     OW 5539   2.020   4.236   2.236
 1547SOL    HW1 5540   1.928   4.208   2.266
 1547SOL    HW2 5541   2.072   4.154   2.211
 1548SOL     OW 5542   4.498   4.283   5.314
 1548SOL    HW1 5543   4.555   4.202   5.327
 1548SOL    HW2 5544   4.402   4.257   5.305
 1549SOL     OW 5545   6.356   1.178   2.340
 1549SOL    HW1 5546   6.382   1.101   2.398
 1549SOL    HW2 5547   6.439   1.226   2.310
 1550SOL     OW 5548   2.981   6.660   5.806
 1550SOL    HW1 5549   2.977   6.734   5.872
 1550SOL    HW2 5550   2.937   6.688   5.721
 1551SOL     OW 5551   1.509   3.541   1.221
 1551SOL    HW1 5552   1.508   3.568   1.125
 1551SOL    HW2 5553   1.592   3.575   1.265
 1552SOL     OW 5554   0.844   6.669   1.665
 1552SOL    HW1 5555   0.807   6.760   1.650
 1552SOL    HW2 5556   0.893   6.666   1.752
 1553SOL     OW 5557   6.502   2.020   6.204
 1553SOL    HW1 5558   6.478   2.034   6.108
 1553SOL    HW2 5559   6.494   1.923   6.227
 1554SOL     OW 5560   3.626   2.072   2.903
 1554SOL    HW1 5561   3.662   2.043   2.814
 1554SOL    HW2 5562   3.692   2.050   2.975
 1555SOL     OW 5563   4.784   2.255   5.164
 1555SOL    HW1 5564   4.711   2.215   5.108
 1555SOL    HW2 5565   4.825   2.332   5.116
 1556SOL     OW 5566   3.980   0.345   0.657
 1556SOL    HW1 5567   3.913   0.316   0.590
 1556SOL    HW2 5568   3.990   0.445   0.654
 1557SOL     OW 5569   2.604   2.632   1.046
 1557SOL    HW1 5570   2.610   2.721   1.091
 1557SOL    HW2 5571   2.689   2.581   1.063
 1558SOL     OW 5572   5.887   2.409   4.603
 1558SOL    HW1 5573   5.971   2.462   4.587
 1558SOL    HW2 5574   5.911   2.323   4.649
 1559SOL     OW 5575   0.446   3.432   1.483
 1559SOL    HW1 5576   0.373   3.395   1.539
 1559SOL    HW2 5577   0.435   3.530   1.473
 1560SOL     OW 5578   3.048   1.258   6.405
 1560SOL    HW1 5579   3.091   1.292   6.321
 1560SOL    HW2 5580   3.088   1.306   6.484
 1561SOL     OW 5581   4.739   5.458   3.433
 1561SOL    HW1 5582   4.751   5.445   3.532
 1561SOL    HW2 5583   4.646   5.490   3.415
 1562SOL     OW 5584   3.409   6.322   2.305
 1562SOL    HW1 5585   3.415   6.258   2.381
 1562SOL    HW2 5586   3.343   6.288   2.238
 1563SOL     OW 5587   2.846   1.928   4.723
 1563SOL    HW1 5588   2.938   1.888   4.732
 1563SOL    HW2 5589   2.779   1.864   4.759
 1564SOL     OW 5590   1.418   1.531   2.195
 1564SOL    HW1 5591   1.466   1.606   2.238
 1564SOL    HW2 5592   1.322   1.532   2.224
 1565SOL     OW 5593   4.383   5.500   4.801
 1565SOL    HW1 5594   4.452   5.479   4.731
 1565SOL    HW2 5595   4.306   5.437   4.791
 1566SOL     OW 5596   6.187   4.806   4.173
 1566SOL    HW1 5597   6.274   4.806   4.124
 1566SOL    HW2 5598   6.160   4.900   4.191
 1567SOL     OW 5599   5.756   5.215   6.969
 1567SOL    HW1 5600   5.740   5.117   6.954
 1567SOL    HW2 5601   5.850   5.228   7.002
 1568SOL     OW 5602   2.943   5.931   3.549
 1568SOL    HW1 5603   2.899   5.870   3.614
 1568SOL    HW2 5604   2.874   5.988   3.504
 1569SOL     OW 5605   3.617   0.257   3.305
 1569SOL    HW1 5606   3.645   0.333   3.245
 1569SOL    HW2 5607   3.523   0.274   3.336
 1570SOL     OW 5608   2.378   6.472   6.313
 1570SOL    HW1 5609   2.446   6.538   6.282
 1570SOL    HW2 5610   2.383   6.390   6.256
 1571SOL     OW 5611   1.168   3.050   3.531
 1571SOL    HW1 5612   1.085   3.000   3.510
 1571SOL    HW2 5613   1.147   3.148   3.537
 1572SOL     OW 5614   1.763   5.266   2.133
 1572SOL    HW1 5615   1.857   5.264   2.099
 1572SOL    HW2 5616   1.764   5.281   2.232
 1573SOL     OW 5617   5.611   5.085   2.331
 1573SOL    HW1 5618   5.513   5.075   2.314
 1573SOL    HW2 5619   5.662   5.023   2.271
 1574SOL     OW 5620   6.079   2.890   1.920
 1574SOL    HW1 5621   6.157   2.833   1.948
 1574SOL    HW2 5622   6.113   2.973   1.877
 1575SOL     OW 5623   2.255   0.636   1.693
 1575SOL    HW1 5624   2.299   0.547   1.684
 1575SOL    HW2 5625   2.170   0.638   1.640
 1576SOL     OW 5626   1.135   6.075   2.992
 1576SOL    HW1 5627   1.185   6.095   2.907
 1576SOL    HW2 5628   1.093   6.158   3.027
 1577SOL     OW 5629   2.527   0.354   6.437
 1577SOL    HW1 5630   2.552   0.451   6.429
 1577SOL    HW2 5631   2.436   0.340   6.399
 1578SOL     OW 5632   4.738   0.869   6.512
 1578SOL    HW1 5633   4.782   0.857   6.601
 1578SOL    HW2 5634   4.744   0.965   6.485
 1579SOL     OW 5635   0.322   2.719   1.573
 1579SOL    HW1 5636   0.271   2.664   1.507
 1579SOL    HW2 5637   0.383   2.782   1.523
 1580SOL     OW 5638   3.110   4.005   3.066
 1580SOL    HW1 5639   3.055   4.088   3.078
 1580SOL    HW2 5640   3.172   3.994   3.144
 1581SOL     OW 5641   6.858   4.273   5.633
 1581SOL    HW1 5642   6.803   4.190   5.630
 1581SOL    HW2 5643   6.830   4.336   5.560
 1582SOL     OW 5644   3.615   5.928   4.745
 1582SOL    HW1 5645   3.635   5.953   4.650
 1582SOL    HW2 5646   3.674   5.852   4.772
 1583SOL     OW 5647   0.357   5.557   4.865
 1583SOL    HW1 5648   0.318   5.534   4.776
 1583SOL    HW2 5649   0.440   5.503   4.880
 1584SOL     OW 5650   2.065   5.033   6.755
 1584SOL    HW1 5651   2.031   4.938   6.758
 1584SOL    HW2 5652   2.161   5.035   6.780
 1585SOL     OW 5653   4.200   1.421   2.933
 1585SOL    HW1 5654   4.125   1.363   2.901
 1585SOL    HW2 5655   4.250   1.374   3.005
 1586SOL     OW 5656   2.929   4.758   3.195
 1586SOL    HW1 5657   3.004   4.746   3.131
 1586SOL    HW2 5658   2.963   4.803   3.278
 1587SOL     OW 5659   1.831   5.242   5.478
 1587SOL    HW1 5660   1.744   5.204   5.511
 1587SOL    HW2 5661   1.899   5.169   5.474
 1588SOL     OW 5662   4.472   0.693   2.340
 1588SOL    HW1 5663   4.389   0.731   2.381
 1588SOL    HW2 5664   4.490   0.603   2.379
 1589SOL     OW 5665   6.896   3.258   2.811
 1589SOL    HW1 5666   6.879   3.168   2.853
 1589SOL    HW2 5667   6.819   3.318   2.831
 1590SOL     OW 5668   5.469   1.271   3.541
 1590SOL    HW1 5669   5.374   1.302   3.537
 1590SOL    HW2 5670   5.475   1.189   3.598
 1591SOL     OW 5671   6.887   5.756   1.220
 1591SOL    HW1 5672   6.801   5.706   1.215
 1591SOL    HW2 5673   6.870   5.852   1.243
 1592SOL     OW 5674   1.673   4.174   0.037
 1592SOL    HW1 5675   1.766   4.158   0.071
 1592SOL    HW2 5676   1.647   4.097   6.994
 1593SOL     OW 5677   0.780   0.151   6.263
 1593SOL    HW1 5678   0.706   0.218   6.269
 1593SOL    HW2 5679   0.743   0.059   6.272
 1594SOL     OW 5680   0.343   6.154   1.712
 1594SOL    HW1 5681   0.320   6.190   1.802
 1594SOL    HW2 5682   0.272   6.181   1.646
 1595SOL     OW 5683   0.853   4.349   0.740
 1595SOL    HW1 5684   0.837   4.429   0.682
 1595SOL    HW2 5685   0.951   4.340   0.757
 1596SOL     OW 5686   6.251   2.743   2.316
 1596SOL    HW1 5687   6.171   2.734   2.375
 1596SOL    HW2 5688   6.222   2.766   2.223
 1597SOL     OW 5689   2.639   5.856   1.362
 1597SOL    HW1 5690   2.677   5.809   1.283
 1597SOL    HW2 5691   2.619   5.951   1.338
 1598SOL     OW 5692   1.213   5.407   6.502
 1598SOL    HW1 5693   1.304   5.373   6.525
 1598SOL    HW2 5694   1.149   5.331   6.495
 1599SOL     OW 5695   4.685   4.945   5.158
 1599SOL    HW1 5696   4.759   5.010   5.175
 1599SOL    HW2 5697   4.654   4.906   5.244
 1600SOL     OW 5698   2.759   1.128   2.126
 1600SOL    HW1 5699   2.807   1.040   2.117
 1600SOL    HW2 5700   2.800   1.180   2.200
 1601SOL     OW 5701   0.245   6.733   4.461
 1601SOL    HW1 5702   0.309   6.657   4.450
 1601SOL    HW2 5703   0.152   6.702   4.439
 1602SOL     OW 5704   4.611   5.480   4.619
 1602SOL    HW1 5705   4.664   5.542   4.560
 1602SOL    HW2 5706   4.663   5.463   4.703
 1603SOL     OW 5707   2.586   5.059   3.660
 1603SOL    HW1 5708   2.646   5.023   3.731
 1603SOL    HW2 5709   2.616   5.026   3.571
 1604SOL     OW 5710   3.658   5.408   1.617
 1604SOL    HW1 5711   3.560   5.425   1.630
 1604SOL    HW2 5712   3.681   5.318   1.654
 1605SOL     OW 5713   6.357   5.430   1.424
 1605SOL    HW1 5714   6.417   5.510   1.430
 1605SOL    HW2 5715   6.313   5.415   1.512
 1606SOL     OW 5716   3.982   5.463   5.407
 1606SOL    HW1 5717   4.027   5.529   5.347
 1606SOL    HW2 5718   4.034   5.452   5.491
 1607SOL     OW 5719   4.488   0.302   0.869
 1607SOL    HW1 5720   4.433   0.380   0.899
 1607SOL    HW2 5721   4.506   0.309   0.771
 1608SOL     OW 5722   6.941   1.263   2.674
 1608SOL    HW1 5723   6.983   1.173   2.689
 1608SOL    HW2 5724   7.005   1.322   2.626
 1609SOL     OW 5725   3.346   6.997   0.881
 1609SOL    HW1 5726   3.295   0.063   0.906
 1609SOL    HW2 5727   3.429   0.007   0.832
 1610SOL     OW 5728   5.234   6.343   0.884
 1610SOL    HW1 5729   5.168   6.404   0.928
 1610SOL    HW2 5730   5.239   6.257   0.934
 1611SOL     OW 5731   1.734   3.535   0.496
 1611SOL    HW1 5732   1.793   3.526   0.576
 1611SOL    HW2 5733   1.723   3.632   0.473
 1612SOL     OW 5734   3.084   6.679   1.443
 1612SOL    HW1 5735   3.027   6.614   1.494
 1612SOL    HW2 5736   3.028   6.726   1.375
 1613SOL     OW 5737   0.625   5.623   2.205
 1613SOL    HW1 5738   0.648   5.721   2.211
 1613SOL    HW2 5739   0.550   5.603   2.268
 1614SOL     OW 5740   5.685   1.982   6.068
 1614SOL    HW1 5741   5.694   2.018   5.975
 1614SOL    HW2 5742   5.599   2.012   6.107
 1615SOL     OW 5743   6.642   5.387   6.521
 1615SOL    HW1 5744   6.549   5.401   6.555
 1615SOL    HW2 5745   6.691   5.474   6.522
 1616SOL     OW 5746   4.356   0.456   3.612
 1616SOL    HW1 5747   4.315   0.476   3.524
 1616SOL    HW2 5748   4.321   0.520   3.681
 1617SOL     OW 5749   4.666   6.089   3.232
 1617SOL    HW1 5750   4.591   6.147   3.200
 1617SOL    HW2 5751   4.745   6.145   3.256
 1618SOL     OW 5752   1.274   5.735   2.327
 1618SOL    HW1 5753   1.205   5.763   2.260
 1618SOL    HW2 5754   1.352   5.694   2.279
 1619SOL     OW 5755   0.234   5.421   0.027
 1619SOL    HW1 5756   0.204   5.387   6.955
 1619SOL    HW2 5757   0.330   5.450   0.021
 1620SOL     OW 5758   3.189   4.681   1.611
 1620SOL    HW1 5759   3.276   4.684   1.562
 1620SOL    HW2 5760   3.159   4.586   1.620
 1621SOL     OW 5761   5.824   0.372   0.635
 1621SOL    HW1 5762   5.813   0.420   0.547
 1621SOL    HW2 5763   5.774   0.285   0.631
 1622SOL     OW 5764   0.750   3.559   5.613
 1622SOL    HW1 5765   0.733   3.617   5.533
 1622SOL    HW2 5766   0.697   3.474   5.604
 1623SOL     OW 5767   0.727   2.063   4.568
 1623SOL    HW1 5768   0.703   1.998   4.496
 1623SOL    HW2 5769   0.653   2.066   4.636
 1624SOL     OW 5770   4.142   1.484   6.323
 1624SOL    HW1 5771   4.094   1.559   6.370
 1624SOL    HW2 5772   4.079   1.436   6.263
 1625SOL     OW 5773   1.424   5.029   7.007
 1625SOL    HW1 5774   1.505   5.060   6.957
 1625SOL    HW2 5775   1.342   5.067   6.965
 1626SOL     OW 5776   3.403   1.524   1.348
 1626SOL    HW1 5777   3.343   1.579   1.289
 1626SOL    HW2 5778   3.419   1.574   1.433
 1627SOL     OW 5779   5.456   2.951   3.648
 1627SOL    HW1 5780   5.385   3.020   3.632
 1627SOL    HW2 5781   5.507   2.934   3.564
 1628SOL     OW 5782   4.702   5.363   0.079
 1628SOL    HW1 5783   4.776   5.411   0.127
 1628SOL    HW2 5784   4.682   5.411   7.010
 1629SOL     OW 5785   2.474   1.116   3.734
 1629SOL    HW1 5786   2.547   1.076   3.789
 1629SOL    HW2 5787   2.389   1.118   3.786
 1630SOL     OW 5788   0.021   4.349   5.341
 1630SOL    HW1 5789   7.016   4.256   5.311
 1630SOL    HW2 5790   6.970   4.379   5.408
 1631SOL     OW 5791   0.538   3.048   0.747
 1631SOL    HW1 5792   0.524   3.122   0.683
 1631SOL    HW2 5793   0.509   2.961   0.705
 1632SOL     OW 5794   4.936   3.634   3.071
 1632SOL    HW1 5795   4.910   3.540   3.050
 1632SOL    HW2 5796   4.956   3.641   3.169
 1633SOL     OW 5797   5.276   4.318   4.749
 1633SOL    HW1 5798   5.371   4.300   4.776
 1633SOL    HW2 5799   5.241   4.240   4.697
 1634SOL     OW 5800   4.531   0.935   4.281
 1634SOL    HW1 5801   4.462   0.965   4.215
 1634SOL    HW2 5802   4.545   1.006   4.349
 1635SOL     OW 5803   0.993   5.029   6.577
 1635SOL    HW1 5804   0.999   5.024   6.478
 1635SOL    HW2 5805   0.970   5.123   6.604
 1636SOL     OW 5806   3.121   5.693   1.390
 1636SOL    HW1 5807   3.072   5.679   1.477
 1636SOL    HW2 5808   3.122   5.791   1.369
 1637SOL     OW 5809   6.665   0.024   3.538
 1637SOL    HW1 5810   6.638   7.006   3.448
 1637SOL    HW2 5811   6.754   7.002   3.563
 1638SOL     OW 5812   0.966   3.408   1.965
 1638SOL    HW1 5813   0.870   3.384   1.980
 1638SOL    HW2 5814   1.025   3.346   2.017
 1639SOL     OW 5815   5.749   4.873   1.971
 1639SOL    HW1 5816   5.737   4.852   2.068
 1639SOL    HW2 5817   5.766   4.789   1.920
 1640SOL     OW 5818   6.462   0.283   0.009
 1640SOL    HW1 5819   6.476   0.195   6.980
 1640SOL    HW2 5820   6.508   0.282   0.097
 1641SOL     OW 5821   6.900   2.687   3.398
 1641SOL    HW1 5822   6.946   2.600   3.416
 1641SOL    HW2 5823   6.966   2.761   3.402
 1642SOL     OW 5824   6.767   3.222   6.408
 1642SOL    HW1 5825   6.730   3.200   6.318
 1642SOL    HW2 5826   6.698   3.202   6.478
 1643SOL     OW 5827   2.548   4.552   3.073
 1643SOL    HW1 5828   2.538   4.530   2.976
 1643SOL    HW2 5829   2.607   4.633   3.083
 1644SOL     OW 5830   5.462   2.892   6.579
 1644SOL    HW1 5831   5.489   2.965   6.515
 1644SOL    HW2 5832   5.427   2.814   6.527
 1645SOL     OW 5833   3.227   6.577   6.159
 1645SOL    HW1 5834   3.197   6.537   6.072
 1645SOL    HW2 5835   3.148   6.615   6.207
 1646SOL     OW 5836   1.730   6.433   0.238
 1646SOL    HW1 5837   1.830   6.436   0.244
 1646SOL    HW2 5838   1.701   6.342   0.209
 1647SOL     OW 5839   6.047   2.407   4.048
 1647SOL    HW1 5840   6.003   2.480   4.101
 1647SOL    HW2 5841   5.984   2.375   3.977
 1648SOL     OW 5842   5.699   6.604   0.486
 1648SOL    HW1 5843   5.641   6.589   0.567
 1648SOL    HW2 5844   5.690   6.527   0.424
 1649SOL     OW 5845   3.758   1.219   4.490
 1649SOL    HW1 5846   3.670   1.214   4.443
 1649SOL    HW2 5847   3.815   1.141   4.462
 1650SOL     OW 5848   1.094   5.826   5.189
 1650SOL    HW1 5849   1.174   5.864   5.141
 1650SOL    HW2 5850   1.120   5.739   5.232
 1651SOL     OW 5851   0.188   2.122   2.804
 1651SOL    HW1 5852   0.214   2.028   2.826
 1651SOL    HW2 5853   0.201   2.137   2.706
 1652SOL     OW 5854   1.443   3.864   2.364
 1652SOL    HW1 5855   1.458   3.920   2.283
 1652SOL    HW2 5856   1.413   3.922   2.440
 1653SOL     OW 5857   0.253   5.812   1.389
 1653SOL    HW1 5858   0.257   5.838   1.486
 1653SOL    HW2 5859   0.332   5.756   1.366
 1654SOL     OW 5860   0.142   3.284   1.228
 1654SOL    HW1 5861   0.139   3.384   1.218
 1654SOL    HW2 5862   0.237   3.253   1.226
 1655SOL     OW 5863   6.657   1.347   3.820
 1655SOL    HW1 5864   6.581   1.285   3.804
 1655SOL    HW2 5865   6.648   1.388   3.911
 1656SOL     OW 5866   2.094   5.315   3.085
 1656SOL    HW1 5867   2.172   5.252   3.077
 1656SOL    HW2 5868   2.109   5.378   3.161
 1657SOL     OW 5869   6.087   0.253   4.437
 1657SOL    HW1 5870   6.053   0.345   4.454
 1657SOL    HW2 5871   6.178   0.243   4.477
 1658SOL     OW 5872   6.452   0.471   1.012
 1658SOL    HW1 5873   6.491   0.542   0.954
 1658SOL    HW2 5874   6.520   0.439   1.078
 1659SOL     OW 5875   3.664   6.804   0.010
 1659SOL    HW1 5876   3.576   6.845   7.002
 1659SOL    HW2 5877   3.650   6.709   0.039
 1660SOL     OW 5878   1.793   6.488   2.815
 1660SOL    HW1 5879   1.720   6.431   2.851
 1660SOL    HW2 5880   1.869   6.431   2.784
 1661SOL     OW 5881   2.768   5.920   1.720
 1661SOL    HW1 5882   2.696   5.852   1.727
 1661SOL    HW2 5883   2.745   6.000   1.775
 1662SOL     OW 5884   6.796   0.633   4.459
 1662SOL    HW1 5885   6.856   0.574   4.404
 1662SOL    HW2 5886   6.793   0.724   4.419
 1663SOL     OW 5887   4.764   5.446   3.005
 1663SOL    HW1 5888   4.812   5.392   2.937
 1663SOL    HW2 5889   4.715   5.386   3.068
 1664SOL     OW 5890   2.093   6.007   5.611
 1664SOL    HW1 5891   2.124   5.958   5.530
 1664SOL    HW2 5892   2.168   6.014   5.677
 1665SOL     OW 5893   0.110   3.666   1.506
 1665SOL    HW1 5894   0.049   3.593   1.537
 1665SOL    HW2 5895   0.136   3.650   1.411
 1666SOL     OW 5896   5.629   0.031   0.373
 1666SOL    HW1 5897   5.678   6.977   0.424
 1666SOL    HW2 5898   5.545   0.055   0.422
 1667SOL     OW 5899   6.794   6.007   1.735
 1667SOL    HW1 5900   6.833   5.995   1.826
 1667SOL    HW2 5901   6.867   6.007   1.666
 1668SOL     OW 5902   4.714   4.984   3.664
 1668SOL    HW1 5903   4.619   4.978   3.694
 1668SOL    HW2 5904   4.748   4.893   3.641
 1669SOL     OW 5905   6.893   4.490   5.880
 1669SOL    HW1 5906   6.968   4.500   5.946
 1669SOL    HW2 5907   6.864   4.394   5.877
 1670SOL     OW 5908   0.351   4.573   5.091
 1670SOL    HW1 5909   0.261   4.572   5.134
 1670SOL    HW2 5910   0.393   4.482   5.099
 1671SOL     OW 5911   5.695   1.130   3.156
 1671SOL    HW1 5912   5.725   1.203   3.095
 1671SOL    HW2 5913   5.735   1.143   3.246
 1672SOL     OW 5914   2.368   4.224   6.441
 1672SOL    HW1 5915   2.357   4.135   6.397
 1672SOL    HW2 5916   2.296   4.236   6.510
 1673SOL     OW 5917   1.213   1.513   4.927
 1673SOL    HW1 5918   1.189   1.609   4.914
 1673SOL    HW2 5919   1.307   1.498   4.897
 1674SOL     OW 5920   0.243   3.475   2.209
 1674SOL    HW1 5921   0.189   3.394   2.187
 1674SOL    HW2 5922   0.184   3.555   2.214
 1675SOL     OW 5923   5.012   0.234   0.053
 1675SOL    HW1 5924   5.022   0.299   0.129
 1675SOL    HW2 5925   4.928   0.254   0.003
 1676SOL     OW 5926   2.380   2.642   1.977
 1676SOL    HW1 5927   2.293   2.594   1.968
 1676SOL    HW2 5928   2.453   2.585   1.939
 1677SOL     OW 5929   4.107   3.741   3.348
 1677SOL    HW1 5930   4.100   3.781   3.440
 1677SOL    HW2 5931   4.138   3.810   3.284
 1678SOL     OW 5932   0.070   5.372   2.122
 1678SOL    HW1 5933   7.008   5.396   2.180
 1678SOL    HW2 5934   0.149   5.353   2.180
 1679SOL     OW 5935   1.642   1.250   5.003
 1679SOL    HW1 5936   1.623   1.308   5.082
 1679SOL    HW2 5937   1.685   1.304   4.931
 1680SOL     OW 5938   6.434   4.035   5.584
 1680SOL    HW1 5939   6.395   4.021   5.493
 1680SOL    HW2 5940   6.371   4.089   5.640
 1681SOL     OW 5941   1.455   6.220   5.587
 1681SOL    HW1 5942   1.538   6.259   5.628
 1681SOL    HW2 5943   1.380   6.284   5.596
 1682SOL     OW 5944   2.047   0.881   5.619
 1682SOL    HW1 5945   2.100   0.842   5.544
 1682SOL    HW2 5946   2.062   0.980   5.622
 1683SOL     OW 5947   6.259   5.315   2.823
 1683SOL    HW1 5948   6.300   5.381   2.885
 1683SOL    HW2 5949   6.305   5.319   2.734
 1684SOL     OW 5950   0.234   5.709   2.154
 1684SOL    HW1 5951   0.138   5.715   2.179
 1684SOL    HW2 5952   0.268   5.799   2.128
 1685SOL     OW 5953   2.209   1.451   5.828
 1685SOL    HW1 5954   2.227   1.543   5.794
 1685SOL    HW2 5955   2.296   1.406   5.850
 1686SOL     OW 5956   3.108   6.064   4.131
 1686SOL    HW1 5957   3.164   6.129   4.183
 1686SOL    HW2 5958   3.127   5.971   4.162
 1687SOL     OW 5959   0.489   2.953   1.876
 1687SOL    HW1 5960   0.441   2.865   1.869
 1687SOL    HW2 5961   0.519   2.982   1.785
 1688SOL     OW 5962   1.610   1.348   3.994
 1688SOL    HW1 5963   1.533   1.365   3.934
 1688SOL    HW2 5964   1.689   1.402   3.964
 1689SOL     OW 5965   6.616   0.550   2.151
 1689SOL    HW1 5966   6.600   0.482   2.223
 1689SOL    HW2 5967   6.592   0.641   2.186
 1690SOL     OW 5968   1.063   3.137   4.749
 1690SOL    HW1 5969   1.153   3.182   4.742
 1690SOL    HW2 5970   1.031   3.142   4.843
 1691SOL     OW 5971   5.535   3.349   4.040
 1691SOL    HW1 5972   5.491   3.337   3.951
 1691SOL    HW2 5973   5.549   3.260   4.083
 1692SOL     OW 5974   4.777   6.191   1.643
 1692SOL    HW1 5975   4.729   6.218   1.560
 1692SOL    HW2 5976   4.867   6.235   1.645
 1693SOL     OW 5977   6.999   2.317   3.497
 1693SOL    HW1 5978   0.015   2.223   3.492
 1693SOL    HW2 5979   6.907   2.319   3.537
 1694SOL     OW 5980   6.178   1.553   3.745
 1694SOL    HW1 5981   6.085   1.547   3.708
 1694SOL    HW2 5982   6.183   1.501   3.831
 1695SOL     OW 5983   3.246   0.514   6.432
 1695SOL    HW1 5984   3.277   0.524   6.338
 1695SOL    HW2 5985   3.177   0.584   6.452
 1696SOL     OW 5986   3.718   6.028   0.877
 1696SOL    HW1 5987   3.813   6.056   0.884
 1696SOL    HW2 5988   3.702   5.986   0.788
 1697SOL     OW 5989   6.340   1.626   1.371
 1697SOL    HW1 5990   6.423   1.614   1.426
 1697SOL    HW2 5991   6.365   1.662   1.281
 1698SOL     OW 5992   4.176   0.954   1.136
 1698SOL    HW1 5993   4.104   0.944   1.205
 1698SOL    HW2 5994   4.175   1.048   1.101
 1699SOL     OW 5995   2.006   1.815   5.914
 1699SOL    HW1 5996   2.073   1.815   5.988
 1699SOL    HW2 5997   2.053   1.828   5.827
 1700SOL     OW 5998   6.548   4.002   3.136
 1700SOL    HW1 5999   6.478   4.043   3.077
 1700SOL    HW2 6000   6.514   3.914   3.170
 1701SOL     OW 6001   6.167   5.709   5.340
 1701SOL    HW1 6002   6.090   5.670   5.391
 1701SOL    HW2 6003   6.244   5.723   5.402
 1702SOL     OW 6004   0.120   1.013   1.253
 1702SOL    HW1 6005   0.167   0.996   1.166
 1702SOL    HW2 6006   0.113   1.111   1.269
 1703SOL     OW 6007   3.567   1.167   6.489
 1703SOL    HW1 6008   3.569   1.074   6.451
 1703SOL    HW2 6009   3.473   1.203   6.483
 1704SOL     OW 6010   1.613   2.448   0.326
 1704SOL    HW1 6011   1.606   2.396   0.241
 1704SOL    HW2 6012   1.523   2.485   0.350
 1705SOL     OW 6013   3.509   2.517   1.706
 1705SOL    HW1 6014   3.503   2.476   1.615
 1705SOL    HW2 6015   3.567   2.459   1.764
 1706SOL     OW 6016   4.128   2.009   1.686
 1706SOL    HW1 6017   4.156   1.914   1.675
 1706SOL    HW2 6018   4.052   2.029   1.624
 1707SOL     OW 6019   4.639   2.716   2.740
 1707SOL    HW1 6020   4.687   2.802   2.724
 1707SOL    HW2 6021   4.654   2.687   2.834
 1708SOL     OW 6022   4.141   5.677   1.675
 1708SOL    HW1 6023   4.199   5.597   1.662
 1708SOL    HW2 6024   4.045   5.649   1.670
 1709SOL     OW 6025   3.227   6.854   1.633
 1709SOL    HW1 6026   3.284   6.797   1.692
 1709SOL    HW2 6027   3.188   6.798   1.560
 1710SOL     OW 6028   3.929   5.347   3.741
 1710SOL    HW1 6029   3.831   5.368   3.737
 1710SOL    HW2 6030   3.980   5.420   3.696
 1711SOL     OW 6031   2.212   4.910   4.983
 1711SOL    HW1 6032   2.159   4.831   5.014
 1711SOL    HW2 6033   2.225   4.904   4.884
 1712SOL     OW 6034   6.649   1.714   4.724
 1712SOL    HW1 6035   6.679   1.742   4.815
 1712SOL    HW2 6036   6.681   1.780   4.656
 1713SOL     OW 6037   4.316   1.452   2.538
 1713SOL    HW1 6038   4.217   1.456   2.554
 1713SOL    HW2 6039   4.362   1.423   2.622
 1714SOL     OW 6040   4.120   1.776   5.979
 1714SOL    HW1 6041   4.183   1.712   6.022
 1714SOL    HW2 6042   4.081   1.838   6.048
 1715SOL     OW 6043   2.131   5.494   3.308
 1715SOL    HW1 6044   2.039   5.490   3.347
 1715SOL    HW2 6045   2.184   5.564   3.355
 1716SOL     OW 6046   4.268   0.375   3.984
 1716SOL    HW1 6047   4.192   0.380   4.049
 1716SOL    HW2 6048   4.250   0.436   3.907
 1717SOL     OW 6049   3.349   5.541   4.513
 1717SOL    HW1 6050   3.350   5.485   4.596
 1717SOL    HW2 6051   3.275   5.511   4.453
 1718SOL     OW 6052   2.499   1.547   2.354
 1718SOL    HW1 6053   2.470   1.628   2.407
 1718SOL    HW2 6054   2.572   1.573   2.291
 1719SOL     OW 6055   2.172   3.510   0.939
 1719SOL    HW1 6056   2.135   3.555   1.020
 1719SOL    HW2 6057   2.114   3.433   0.914
 1720SOL     OW 6058   0.072   2.813   6.229
 1720SOL    HW1 6059   0.109   2.726   6.196
 1720SOL    HW2 6060   0.143   2.883   6.224
 1721SOL     OW 6061   1.657   6.879   1.167
 1721SOL    HW1 6062   1.571   6.863   1.216
 1721SOL    HW2 6063   1.712   6.796   1.168
 1722SOL     OW 6064   4.340   1.292   3.357
 1722SOL    HW1 6065   4.387   1.216   3.402
 1722SOL    HW2 6066   4.313   1.265   3.265
 1723SOL     OW 6067   4.582   2.790   0.085
 1723SOL    HW1 6068   4.574   2.701   0.042
 1723SOL    HW2 6069   4.660   2.791   0.148
 1724SOL     OW 6070   6.419   2.525   1.656
 1724SOL    HW1 6071   6.327   2.563   1.669
 1724SOL    HW2 6072   6.411   2.433   1.616
 1725SOL     OW 6073   1.895   5.206   6.896
 1725SOL    HW1 6074   1.900   5.212   6.996
 1725SOL    HW2 6075   1.966   5.145   6.862
 1726SOL     OW 6076   5.280   3.803   4.557
 1726SOL    HW1 6077   5.286   3.770   4.652
 1726SOL    HW2 6078   5.333   3.888   4.549
 1727SOL     OW 6079   3.866   3.575   3.330
 1727SOL    HW1 6080   3.848   3.666   3.369
 1727SOL    HW2 6081   3.964   3.564   3.314
 1728SOL     OW 6082   5.081   4.524   5.119
 1728SOL    HW1 6083   5.131   4.591   5.064
 1728SOL    HW2 6084   5.003   4.490   5.067
 1729SOL     OW 6085   1.405   3.645   2.937
 1729SOL    HW1 6086   1.473   3.646   2.863
 1729SOL    HW2 6087   1.321   3.601   2.905
 1730SOL     OW 6088   2.755   0.097   5.305
 1730SOL    HW1 6089   2.776   0.002   5.281
 1730SOL    HW2 6090   2.834   0.155   5.287
 1731SOL     OW 6091   6.442   4.740   3.414
 1731SOL    HW1 6092   6.402   4.754   3.505
 1731SOL    HW2 6093   6.487   4.651   3.410
 1732SOL     OW 6094   2.052   4.206   6.368
 1732SOL    HW1 6095   2.100   4.153   6.298
 1732SOL    HW2 6096   2.041   4.300   6.337
 1733SOL     OW 6097   2.358   3.946   1.809
 1733SOL    HW1 6098   2.410   3.957   1.724
 1733SOL    HW2 6099   2.353   4.034   1.857
 1734SOL     OW 6100   5.613   2.769   1.777
 1734SOL    HW1 6101   5.562   2.821   1.709
 1734SOL    HW2 6102   5.549   2.726   1.841
 1735SOL     OW 6103   4.372   5.497   6.234
 1735SOL    HW1 6104   4.450   5.537   6.185
 1735SOL    HW2 6105   4.402   5.465   6.324
 1736SOL     OW 6106   3.730   3.728   0.417
 1736SOL    HW1 6107   3.708   3.703   0.323
 1736SOL    HW2 6108   3.645   3.734   0.470
 1737SOL     OW 6109   5.050   6.901   4.464
 1737SOL    HW1 6110   4.989   6.937   4.535
 1737SOL    HW2 6111   5.144   6.900   4.499
 1738SOL     OW 6112   1.727   3.399   4.240
 1738SOL    HW1 6113   1.819   3.437   4.241
 1738SOL    HW2 6114   1.732   3.299   4.229
 1739SOL     OW 6115   6.284   0.814   4.358
 1739SOL    HW1 6116   6.238   0.811   4.270
 1739SOL    HW2 6117   6.358   0.880   4.355
 1740SOL     OW 6118   6.452   1.646   5.071
 1740SOL    HW1 6119   6.398   1.667   5.153
 1740SOL    HW2 6120   6.471   1.730   5.021
 1741SOL     OW 6121   2.969   0.942   4.102
 1741SOL    HW1 6122   2.985   1.041   4.097
 1741SOL    HW2 6123   3.056   0.894   4.095
 1742SOL     OW 6124   5.601   0.936   6.025
 1742SOL    HW1 6125   5.615   0.839   6.047
 1742SOL    HW2 6126   5.588   0.987   6.110
 1743SOL     OW 6127   0.818   1.094   2.574
 1743SOL    HW1 6128   0.816   1.068   2.477
 1743SOL    HW2 6129   0.729   1.076   2.615
 1744SOL     OW 6130   6.159   2.905   2.897
 1744SOL    HW1 6131   6.253   2.914   2.862
 1744SOL    HW2 6132   6.100   2.870   2.825
 1745SOL     OW 6133   5.966   6.117   2.184
 1745SOL    HW1 6134   6.064   6.102   2.171
 1745SOL    HW2 6135   5.930   6.172   2.109
 1746SOL     OW 6136   1.640   4.004   4.098
 1746SOL    HW1 6137   1.585   3.920   4.096
 1746SOL    HW2 6138   1.584   4.082   4.072
 1747SOL     OW 6139   3.088   1.625   2.448
 1747SOL    HW1 6140   2.999   1.648   2.486
 1747SOL    HW2 6141   3.095   1.662   2.355
 1748SOL     OW 6142   6.169   1.479   4.020
 1748SOL    HW1 6143   6.101   1.529   4.074
 1748SOL    HW2 6144   6.254   1.532   4.017
 1749SOL     OW 6145   2.721   0.142   6.796
 1749SOL    HW1 6146   2.698   0.192   6.713
 1749SOL    HW2 6147   2.716   0.203   6.874
 1750SOL     OW 6148   5.481   0.412   3.830
 1750SOL    HW1 6149   5.520   0.382   3.743
 1750SOL    HW2 6150   5.466   0.511   3.828
 1751SOL     OW 6151   5.902   1.720   5.014
 1751SOL    HW1 6152   5.964   1.644   4.993
 1751SOL    HW2 6153   5.829   1.688   5.074
 1752SOL     OW 6154   5.941   0.333   1.678
 1752SOL    HW1 6155   6.033   0.314   1.643
 1752SOL    HW2 6156   5.915   0.427   1.655
 1753SOL     OW 6157   6.786   0.863   1.716
 1753SOL    HW1 6158   6.838   0.846   1.799
 1753SOL    HW2 6159   6.795   0.786   1.653
 1754SOL     OW 6160   1.657   5.483   6.466
 1754SOL    HW1 6161   1.606   5.399   6.451
 1754SOL    HW2 6162   1.638   5.548   6.392
 1755SOL     OW 6163   6.963   5.777   6.732
 1755SOL    HW1 6164   7.014   5.769   6.646
 1755SOL    HW2 6165   6.942   5.874   6.749
 1756SOL     OW 6166   4.283   6.157   6.320
 1756SOL    HW1 6167   4.314   6.240   6.273
 1756SOL    HW2 6168   4.293   6.168   6.419
 1757SOL     OW 6169   3.602   5.329   5.349
 1757SOL    HW1 6170   3.545   5.296   5.274
 1757SOL    HW2 6171   3.659   5.405   5.317
 1758SOL     OW 6172   1.707   0.354   4.925
 1758SOL    HW1 6173   1.609   0.368   4.918
 1758SOL    HW2 6174   1.755   0.439   4.902
 1759SOL     OW 6175   1.219   6.717   5.271
 1759SOL    HW1 6176   1.298   6.777   5.260
 1759SOL    HW2 6177   1.227   6.667   5.357
 1760SOL     OW 6178   5.948   0.686   4.075
 1760SOL    HW1 6179   5.952   0.689   4.175
 1760SOL    HW2 6180   5.855   0.666   4.046
 1761SOL     OW 6181   6.882   0.497   1.502
 1761SOL    HW1 6182   6.965   0.476   1.450
 1761SOL    HW2 6183   6.803   0.496   1.440
 1762SOL     OW 6184   6.685   1.614   4.210
 1762SOL    HW1 6185   6.760   1.657   4.160
 1762SOL    HW2 6186   6.641   1.681   4.269
 1763SOL     OW 6187   1.174   4.581   4.728
 1763SOL    HW1 6188   1.253   4.575   4.790
 1763SOL    HW2 6189   1.164   4.676   4.698
 1764SOL     OW 6190   0.718   3.290   2.308
 1764SOL    HW1 6191   0.694   3.193   2.311
 1764SOL    HW2 6192   0.771   3.315   2.389
 1765SOL     OW 6193   3.422   1.694   0.984
 1765SOL    HW1 6194   3.385   1.730   1.069
 1765SOL    HW2 6195   3.477   1.764   0.938
 1766SOL     OW 6196   5.204   4.563   3.981
 1766SOL    HW1 6197   5.209   4.560   4.081
 1766SOL    HW2 6198   5.270   4.631   3.947
 1767SOL     OW 6199   1.063   4.573   3.179
 1767SOL    HW1 6200   1.055   4.645   3.110
 1767SOL    HW2 6201   1.101   4.491   3.136
 1768SOL     OW 6202   3.937   0.591   6.794
 1768SOL    HW1 6203   3.992   0.513   6.821
 1768SOL    HW2 6204   3.871   0.613   6.866
 1769SOL     OW 6205   5.621   0.829   0.249
 1769SOL    HW1 6206   5.565   0.762   0.201
 1769SOL    HW2 6207   5.663   0.785   0.329
 1770SOL     OW 6208   0.637   4.161   5.265
 1770SOL    HW1 6209   0.592   4.078   5.297
 1770SOL    HW2 6210   0.736   4.145   5.260
 1771SOL     OW 6211   1.875   4.938   0.122
 1771SOL    HW1 6212   1.934   5.018   0.115
 1771SOL    HW2 6213   1.847   4.909   0.030
 1772SOL     OW 6214   3.915   5.248   4.267
 1772SOL    HW1 6215   3.989   5.215   4.326
 1772SOL    HW2 6216   3.952   5.274   4.178
 1773SOL     OW 6217   1.131   2.140   5.464
 1773SOL    HW1 6218   1.064   2.071   5.436
 1773SOL    HW2 6219   1.219   2.121   5.420
 1774SOL     OW 6220   5.497   6.279   2.090
 1774SOL    HW1 6221   5.569   6.287   2.159
 1774SOL    HW2 6222   5.428   6.214   2.122
 1775SOL     OW 6223   1.915   5.675   6.723
 1775SOL    HW1 6224   2.008   5.688   6.759
 1775SOL    HW2 6225   1.905   5.580   6.692
 1776SOL     OW 6226   5.035   0.725   5.769
 1776SOL    HW1 6227   5.102   0.799   5.758
 1776SOL    HW2 6228   4.949   0.764   5.801
 1777SOL     OW 6229   3.673   0.088   6.387
 1777SOL    HW1 6230   3.728   0.028   6.328
 1777SOL    HW2 6231   3.700   0.183   6.373
 1778SOL     OW 6232   4.624   1.257   4.701
 1778SOL    HW1 6233   4.586   1.231   4.789
 1778SOL    HW2 6234   4.669   1.346   4.709
 1779SOL     OW 6235   4.958   6.843   5.778
 1779SOL    HW1 6236   4.860   6.840   5.797
 1779SOL    HW2 6237   5.000   6.918   5.829
 1780SOL     OW 6238   1.494   3.975   4.528
 1780SOL    HW1 6239   1.541   4.050   4.575
 1780SOL    HW2 6240   1.425   3.935   4.589
 1781SOL     OW 6241   4.934   0.219   5.210
 1781SOL    HW1 6242   4.995   0.291   5.243
 1781SOL    HW2 6243   4.959   0.196   5.116
 1782SOL     OW 6244   2.170   1.598   2.671
 1782SOL    HW1 6245   2.188   1.602   2.770
 1782SOL    HW2 6246   2.175   1.503   2.641
 1783SOL     OW 6247   2.173   3.726   6.038
 1783SOL    HW1 6248   2.261   3.767   6.013
 1783SOL    HW2 6249   2.165   3.636   5.995
 1784SOL     OW 6250   2.873   1.355   1.989
 1784SOL    HW1 6251   2.828   1.268   2.012
 1784SOL    HW2 6252   2.894   1.356   1.891
 1785SOL     OW 6253   7.015   6.572   4.436
 1785SOL    HW1 6254   0.027   6.523   4.518
 1785SOL    HW2 6255   0.001   6.511   4.358
 1786SOL     OW 6256   1.831   5.677   0.541
 1786SOL    HW1 6257   1.877   5.599   0.583
 1786SOL    HW2 6258   1.747   5.698   0.591
 1787SOL     OW 6259   2.109   2.108   6.074
 1787SOL    HW1 6260   2.129   2.012   6.096
 1787SOL    HW2 6261   2.133   2.126   5.979
 1788SOL     OW 6262   4.606   3.447   0.482
 1788SOL    HW1 6263   4.508   3.428   0.484
 1788SOL    HW2 6264   4.633   3.489   0.568
 1789SOL     OW 6265   6.334   2.944   1.760
 1789SOL    HW1 6266   6.388   2.931   1.843
 1789SOL    HW2 6267   6.285   3.031   1.765
 1790SOL     OW 6268   3.053   1.236   4.370
 1790SOL    HW1 6269   3.121   1.192   4.312
 1790SOL    HW2 6270   3.097   1.301   4.432
 1791SOL     OW 6271   6.129   0.872   3.354
 1791SOL    HW1 6272   6.157   0.931   3.430
 1791SOL    HW2 6273   6.105   0.782   3.390
 1792SOL     OW 6274   6.760   1.904   4.557
 1792SOL    HW1 6275   6.839   1.860   4.514
 1792SOL    HW2 6276   6.778   2.001   4.570
 1793SOL     OW 6277   6.164   1.488   4.513
 1793SOL    HW1 6278   6.102   1.411   4.499
 1793SOL    HW2 6279   6.199   1.519   4.425
 1794SOL     OW 6280   5.784   7.009   6.068
 1794SOL    HW1 6281   5.855   0.059   6.045
 1794SOL    HW2 6282   5.695   0.027   6.039
 1795SOL     OW 6283   5.929   5.338   1.286
 1795SOL    HW1 6284   6.022   5.348   1.251
 1795SOL    HW2 6285   5.933   5.317   1.384
 1796SOL     OW 6286   1.844   1.194   5.503
 1796SOL    HW1 6287   1.908   1.228   5.572
 1796SOL    HW2 6288   1.755   1.177   5.545
 1797SOL     OW 6289   0.905   0.207   5.257
 1797SOL    HW1 6290   0.967   0.155   5.198
 1797SOL    HW2 6291   0.957   0.276   5.307
 1798SOL     OW 6292   3.407   3.141   4.533
 1798SOL    HW1 6293   3.321   3.113   4.576
 1798SOL    HW2 6294   3.464   3.060   4.515
 1799SOL     OW 6295   4.561   2.427   6.731
 1799SOL    HW1 6296   4.515   2.427   6.642
 1799SOL    HW2 6297   4.610   2.513   6.743
 1800SOL     OW 6298   5.328   4.549   3.658
 1800SOL    HW1 6299   5.393   4.542   3.733
 1800SOL    HW2 6300   5.378   4.563   3.572
 1801SOL     OW 6301   0.544   1.943   2.098
 1801SOL    HW1 6302   0.535   2.042   2.090
 1801SOL    HW2 6303   0.634   1.914   2.064
 1802SOL     OW 6304   6.378   5.812   3.441
 1802SOL    HW1 6305   6.461   5.854   3.478
 1802SOL    HW2 6306   6.304   5.820   3.508
 1803SOL     OW 6307   0.171   6.504   2.668
 1803SOL    HW1 6308   0.103   6.575   2.683
 1803SOL    HW2 6309   0.251   6.522   2.726
 1804SOL     OW 6310   3.269   3.405   5.633
 1804SOL    HW1 6311   3.190   3.353   5.600
 1804SOL    HW2 6312   3.331   3.343   5.681
 1805SOL     OW 6313   1.040   5.555   6.170
 1805SOL    HW1 6314   1.023   5.654   6.168
 1805SOL    HW2 6315   1.132   5.538   6.207
 1806SOL     OW 6316   6.962   2.456   2.447
 1806SOL    HW1 6317   0.020   2.391   2.465
 1806SOL    HW2 6318   6.923   2.486   2.534
 1807SOL     OW 6319   6.340   3.912   0.045
 1807SOL    HW1 6320   6.428   3.960   0.048
 1807SOL    HW2 6321   6.296   3.918   0.135
 1808SOL     OW 6322   5.778   3.448   4.335
 1808SOL    HW1 6323   5.694   3.458   4.283
 1808SOL    HW2 6324   5.758   3.457   4.433
 1809SOL     OW 6325   2.939   1.558   5.419
 1809SOL    HW1 6326   2.852   1.592   5.453
 1809SOL    HW2 6327   2.924   1.479   5.359
 1810SOL     OW 6328   6.941   0.846   4.714
 1810SOL    HW1 6329   6.898   0.917   4.770
 1810SOL    HW2 6330   6.941   0.875   4.618
 1811SOL     OW 6331   4.885   4.782   1.743
 1811SOL    HW1 6332   4.885   4.686   1.770
 1811SOL    HW2 6333   4.797   4.824   1.768
 1812SOL     OW 6334   4.441   6.868   6.035
 1812SOL    HW1 6335   4.511   6.926   6.077
 1812SOL    HW2 6336   4.373   6.924   5.990
 1813SOL     OW 6337   4.675   4.291   2.271
 1813SOL    HW1 6338   4.616   4.307   2.192
 1813SOL    HW2 6339   4.701   4.378   2.312
 1814SOL     OW 6340   6.357   6.812   0.220
 1814SOL    HW1 6341   6.299   6.733   0.197
 1814SOL    HW2 6342   6.444   6.780   0.258
 1815SOL     OW 6343   5.800   5.653   2.786
 1815SOL    HW1 6344   5.710   5.629   2.749
 1815SOL    HW2 6345   5.861   5.574   2.779
 1816SOL     OW 6346   4.023   5.795   5.919
 1816SOL    HW1 6347   4.026   5.817   6.016
 1816SOL    HW2 6348   4.050   5.875   5.865
 1817SOL     OW 6349   3.312   1.459   2.868
 1817SOL    HW1 6350   3.270   1.447   2.779
 1817SOL    HW2 6351   3.319   1.557   2.888
 1818SOL     OW 6352   1.622   6.633   0.491
 1818SOL    HW1 6353   1.606   6.730   0.474
 1818SOL    HW2 6354   1.640   6.586   0.404
 1819SOL     OW 6355   1.600   5.282   1.685
 1819SOL    HW1 6356   1.615   5.205   1.622
 1819SOL    HW2 6357   1.530   5.256   1.752
 1820SOL     OW 6358   4.029   0.732   3.027
 1820SOL    HW1 6359   3.937   0.694   3.027
 1820SOL    HW2 6360   4.080   0.694   2.950
 1821SOL     OW 6361   3.615   1.430   1.579
 1821SOL    HW1 6362   3.665   1.511   1.610
 1821SOL    HW2 6363   3.624   1.358   1.647
 1822SOL     OW 6364   1.492   3.661   1.926
 1822SOL    HW1 6365   1.564   3.724   1.954
 1822SOL    HW2 6366   1.471   3.675   1.830
 1823SOL     OW 6367   3.249   6.252   2.902
 1823SOL    HW1 6368   3.281   6.327   2.961
 1823SOL    HW2 6369   3.262   6.165   2.948
 1824SOL     OW 6370   3.442   3.968   0.574
 1824SOL    HW1 6371   3.527   3.971   0.625
 1824SOL    HW2 6372   3.386   4.047   0.598
 1825SOL     OW 6373   6.999   3.353   4.949
 1825SOL    HW1 6374   0.079   3.335   4.929
 1825SOL    HW2 6375   6.980   3.330   5.044
 1826SOL     OW 6376   3.800   1.256   0.759
 1826SOL    HW1 6377   3.732   1.329   0.772
 1826SOL    HW2 6378   3.879   1.294   0.712
 1827SOL     OW 6379   4.984   5.408   0.829
 1827SOL    HW1 6380   4.936   5.475   0.884
 1827SOL    HW2 6381   5.070   5.447   0.796
 1828SOL     OW 6382   1.767   3.330   6.664
 1828SOL    HW1 6383   1.741   3.330   6.567
 1828SOL    HW2 6384   1.696   3.378   6.717
 1829SOL     OW 6385   3.722   0.593   3.313
 1829SOL    HW1 6386   3.810   0.638   3.300
 1829SOL    HW2 6387   3.715   0.515   3.251
 1830SOL     OW 6388   5.811   6.666   5.047
 1830SOL    HW1 6389   5.883   6.622   5.102
 1830SOL    HW2 6390   5.737   6.601   5.032
 1831SOL     OW 6391   4.866   5.948   2.757
 1831SOL    HW1 6392   4.950   5.893   2.757
 1831SOL    HW2 6393   4.875   6.024   2.820
 1832SOL     OW 6394   3.251   3.924   0.109
 1832SOL    HW1 6395   3.332   3.982   0.115
 1832SOL    HW2 6396   3.196   3.935   0.191
 1833SOL     OW 6397   4.964   6.949   1.169
 1833SOL    HW1 6398   4.929   6.979   1.080
 1833SOL    HW2 6399   4.960   0.008   1.234
 1834SOL     OW 6400   3.215   3.119   1.245
 1834SOL    HW1 6401   3.147   3.055   1.210
 1834SOL    HW2 6402   3.306   3.095   1.210
 1835SOL     OW 6403   0.630   5.003   0.938
 1835SOL    HW1 6404   0.634   5.034   1.033
 1835SOL    HW2 6405   0.704   4.938   0.921
 1836SOL     OW 6406   5.134   1.653   2.259
 1836SOL    HW1 6407   5.204   1.711   2.217
 1836SOL    HW2 6408   5.163   1.629   2.352
 1837SOL     OW 6409   1.759   0.559   5.486
 1837SOL    HW1 6410   1.802   0.642   5.448
 1837SOL    HW2 6411   1.665   0.553   5.453
 1838SOL     OW 6412   6.606   0.656   6.440
 1838SOL    HW1 6413   6.526   0.700   6.398
 1838SOL    HW2 6414   6.649   0.595   6.373
 1839SOL     OW 6415   6.651   1.871   6.522
 1839SOL    HW1 6416   6.615   1.779   6.539
 1839SOL    HW2 6417   6.614   1.935   6.589
 1840SOL     OW 6418   3.633   0.066   3.098
 1840SOL    HW1 6419   3.631   0.119   3.182
 1840SOL    HW2 6420   3.706   7.015   3.103
 1841SOL     OW 6421   2.554   0.656   2.505
 1841SOL    HW1 6422   2.584   0.692   2.417
 1841SOL    HW2 6423   2.553   0.729   2.573
 1842SOL     OW 6424   1.853   5.244   0.141
 1842SOL    HW1 6425   1.855   5.338   0.176
 1842SOL    HW2 6426   1.872   5.180   0.216
 1843SOL     OW 6427   4.217   1.426   4.598
 1843SOL    HW1 6428   4.171   1.339   4.580
 1843SOL    HW2 6429   4.156   1.502   4.576
 1844SOL     OW 6430   4.726   1.908   5.527
 1844SOL    HW1 6431   4.709   1.811   5.543
 1844SOL    HW2 6432   4.661   1.962   5.579
 1845SOL     OW 6433   2.916   0.977   3.393
 1845SOL    HW1 6434   2.919   0.914   3.471
 1845SOL    HW2 6435   2.824   0.978   3.355
 1846SOL     OW 6436   5.054   0.823   2.902
 1846SOL    HW1 6437   5.025   0.728   2.907
 1846SOL    HW2 6438   5.120   0.834   2.828
 1847SOL     OW 6439   1.369   0.675   5.167
 1847SOL    HW1 6440   1.427   0.680   5.085
 1847SOL    HW2 6441   1.280   0.635   5.142
 1848SOL     OW 6442   2.238   6.092   4.344
 1848SOL    HW1 6443   2.293   6.121   4.265
 1848SOL    HW2 6444   2.218   5.994   4.335
 1849SOL     OW 6445   4.865   3.135   2.177
 1849SOL    HW1 6446   4.789   3.103   2.122
 1849SOL    HW2 6447   4.838   3.218   2.227
 1850SOL     OW 6448   5.300   1.656   2.469
 1850SOL    HW1 6449   5.389   1.676   2.510
 1850SOL    HW2 6450   5.247   1.598   2.531
 1851SOL     OW 6451   0.525   3.164   6.411
 1851SOL    HW1 6452   0.446   3.200   6.459
 1851SOL    HW2 6453   0.541   3.069   6.438
 1852SOL     OW 6454   6.907   4.817   1.631
 1852SOL    HW1 6455   6.823   4.807   1.576
 1852SOL    HW2 6456   6.891   4.782   1.723
 1853SOL     OW 6457   6.833   2.529   3.888
 1853SOL    HW1 6458   6.746   2.490   3.919
 1853SOL    HW2 6459   6.824   2.558   3.793
 1854SOL     OW 6460   1.232   5.426   3.636
 1854SOL    HW1 6461   1.201   5.338   3.601
 1854SOL    HW2 6462   1.192   5.441   3.727
 1855SOL     OW 6463   5.735   3.379   4.618
 1855SOL    HW1 6464   5.780   3.360   4.706
 1855SOL    HW2 6465   5.737   3.297   4.561
 1856SOL     OW 6466   4.284   2.951   6.745
 1856SOL    HW1 6467   4.298   3.017   6.671
 1856SOL    HW2 6468   4.291   2.998   6.833
 1857SOL     OW 6469   5.551   1.322   0.148
 1857SOL    HW1 6470   5.589   1.337   0.057
 1857SOL    HW2 6471   5.556   1.225   0.172
 1858SOL     OW 6472   4.990   2.424   3.953
 1858SOL    HW1 6473   4.950   2.333   3.962
 1858SOL    HW2 6474   4.969   2.478   4.035
 1859SOL     OW 6475   5.338   1.931   4.694
 1859SOL    HW1 6476   5.383   1.948   4.607
 1859SOL    HW2 6477   5.404   1.895   4.760
 1860SOL     OW 6478   0.727   1.820   5.043
 1860SOL    HW1 6479   0.694   1.813   4.948
 1860SOL    HW2 6480   0.727   1.730   5.085
 1861SOL     OW 6481   5.700   0.427   3.068
 1861SOL    HW1 6482   5.768   0.354   3.072
 1861SOL    HW2 6483   5.608   0.387   3.067
 1862SOL     OW 6484   1.391   0.020   0.087
 1862SOL    HW1 6485   1.312   6.987   0.123
 1862SOL    HW2 6486   1.425   0.083   0.156
 1863SOL     OW 6487   0.155   2.739   1.143
 1863SOL    HW1 6488   0.103   2.734   1.058
 1863SOL    HW2 6489   0.203   2.826   1.148
 1864SOL     OW 6490   3.018   5.691   4.052
 1864SOL    HW1 6491   2.945   5.705   4.119
 1864SOL    HW2 6492   2.985   5.630   3.980
 1865SOL     OW 6493   3.947   1.143   0.955
 1865SOL    HW1 6494   3.885   1.174   0.884
 1865SOL    HW2 6495   3.946   1.043   0.959
 1866SOL     OW 6496   6.236   4.264   4.177
 1866SOL    HW1 6497   6.182   4.179   4.180
 1866SOL    HW2 6498   6.246   4.294   4.082
 1867SOL     OW 6499   2.508   2.751   1.509
 1867SOL    HW1 6500   2.428   2.767   1.451
 1867SOL    HW2 6501   2.483   2.766   1.605
 1868SOL     OW 6502   4.775   4.079   5.089
 1868SOL    HW1 6503   4.837   4.063   5.166
 1868SOL    HW2 6504   4.686   4.110   5.123
 1869SOL     OW 6505   5.185   2.935   4.079
 1869SOL    HW1 6506   5.102   2.888   4.050
 1869SOL    HW2 6507   5.264   2.899   4.029
 1870SOL     OW 6508   0.482   3.126   4.764
 1870SOL    HW1 6509   0.535   3.211   4.758
 1870SOL    HW2 6510   0.401   3.141   4.819
 1871SOL     OW 6511   6.764   6.383   0.288
 1871SOL    HW1 6512   6.790   6.459   0.348
 1871SOL    HW2 6513   6.721   6.312   0.342
 1872SOL     OW 6514   3.120   2.712   0.622
 1872SOL    HW1 6515   3.211   2.680   0.595
 1872SOL    HW2 6516   3.051   2.653   0.579
 1873SOL     OW 6517   6.353   1.177   6.798
 1873SOL    HW1 6518   6.333   1.090   6.752
 1873SOL    HW2 6519   6.379   1.159   6.893
 1874SOL     OW 6520   0.856   0.843   6.678
 1874SOL    HW1 6521   0.765   0.876   6.703
 1874SOL    HW2 6522   0.907   0.917   6.634
 1875SOL     OW 6523   6.332   6.095   0.614
 1875SOL    HW1 6524   6.394   6.173   0.621
 1875SOL    HW2 6525   6.358   6.026   0.681
 1876SOL     OW 6526   5.486   6.476   6.258
 1876SOL    HW1 6527   5.491   6.543   6.332
 1876SOL    HW2 6528   5.536   6.510   6.179
 1877SOL     OW 6529   7.015   1.338   2.413
 1877SOL    HW1 6530   0.053   1.312   2.334
 1877SOL    HW2 6531   6.918   1.329   2.391
 1878SOL     OW 6532   6.929   4.403   3.404
 1878SOL    HW1 6533   7.013   4.386   3.456
 1878SOL    HW2 6534   6.945   4.477   3.339
 1879SOL     OW 6535   2.741   5.044   4.044
 1879SOL    HW1 6536   2.648   5.037   4.079
 1879SOL    HW2 6537   2.789   4.958   4.060
 1880SOL     OW 6538   0.359   2.276   3.119
 1880SOL    HW1 6539   0.446   2.284   3.069
 1880SOL    HW2 6540   0.283   2.275   3.053
 1881SOL     OW 6541   0.749   2.487   3.682
 1881SOL    HW1 6542   0.682   2.561   3.686
 1881SOL    HW2 6543   0.802   2.495   3.598
 1882SOL     OW 6544   1.190   5.918   7.004
 1882SOL    HW1 6545   1.145   5.939   6.917
 1882SOL    HW2 6546   1.178   5.994   0.050
 1883SOL     OW 6547   1.319   3.682   2.627
 1883SOL    HW1 6548   1.226   3.654   2.651
 1883SOL    HW2 6549   1.331   3.779   2.646
 1884SOL     OW 6550   5.050   0.718   1.029
 1884SOL    HW1 6551   5.142   0.711   1.069
 1884SOL    HW2 6552   4.985   0.742   1.101
 1885SOL     OW 6553   6.513   2.096   0.923
 1885SOL    HW1 6554   6.428   2.108   0.975
 1885SOL    HW2 6555   6.551   2.006   0.944
 1886SOL     OW 6556   1.783   2.318   0.105
 1886SOL    HW1 6557   1.857   2.251   0.102
 1886SOL    HW2 6558   1.818   2.405   0.141
 1887SOL     OW 6559   0.233   4.291   6.133
 1887SOL    HW1 6560   0.213   4.281   6.036
 1887SOL    HW2 6561   0.253   4.202   6.173
 1888SOL     OW 6562   2.000   1.263   5.730
 1888SOL    HW1 6563   1.942   1.222   5.800
 1888SOL    HW2 6564   2.066   1.325   5.772
 1889SOL     OW 6565   4.397   3.552   0.149
 1889SOL    HW1 6566   4.391   3.614   0.071
 1889SOL    HW2 6567   4.308   3.511   0.166
 1890SOL     OW 6568   1.556   5.712   6.326
 1890SOL    HW1 6569   1.466   5.669   6.337
 1890SOL    HW2 6570   1.552   5.778   6.252
 1891SOL     OW 6571   5.415   2.765   5.266
 1891SOL    HW1 6572   5.427   2.748   5.364
 1891SOL    HW2 6573   5.407   2.678   5.218
 1892SOL     OW 6574   4.025   6.269   1.652
 1892SOL    HW1 6575   4.115   6.234   1.627
 1892SOL    HW2 6576   4.002   6.347   1.594
 1893SOL     OW 6577   3.619   2.106   4.510
 1893SOL    HW1 6578   3.717   2.093   4.525
 1893SOL    HW2 6579   3.568   2.066   4.587
 1894SOL     OW 6580   4.542   3.642   1.656
 1894SOL    HW1 6581   4.628   3.656   1.705
 1894SOL    HW2 6582   4.536   3.707   1.580
 1895SOL     OW 6583   6.177   0.753   2.151
 1895SOL    HW1 6584   6.192   0.718   2.059
 1895SOL    HW2 6585   6.265   0.764   2.197
 1896SOL     OW 6586   6.452   1.197   3.752
 1896SOL    HW1 6587   6.391   1.231   3.680
 1896SOL    HW2 6588   6.508   1.123   3.716
 1897SOL     OW 6589   6.963   5.200   3.760
 1897SOL    HW1 6590   6.938   5.118   3.812
 1897SOL    HW2 6591   6.882   5.235   3.712
 1898SOL     OW 6592   3.902   6.131   1.260
 1898SOL    HW1 6593   3.976   6.197   1.272
 1898SOL    HW2 6594   3.856   6.148   1.172
 1899SOL     OW 6595   0.455   3.904   2.571
 1899SOL    HW1 6596   0.358   3.885   2.559
 1899SOL    HW2 6597   0.474   3.918   2.668
 1900SOL     OW 6598   0.955   0.227   6.475
 1900SOL    HW1 6599   0.894   0.206   6.399
 1900SOL    HW2 6600   1.014   0.304   6.449
 1901SOL     OW 6601   2.164   1.464   0.135
 1901SOL    HW1 6602   2.186   1.431   0.227
 1901SOL    HW2 6603   2.158   1.387   0.072
 1902SOL     OW 6604   1.315   2.722   4.349
 1902SOL    HW1 6605   1.405   2.692   4.315
 1902SOL    HW2 6606   1.267   2.645   4.388
 1903SOL     OW 6607   0.051   3.860   3.137
 1903SOL    HW1 6608   6.983   3.858   3.084
 1903SOL    HW2 6609   0.053   3.780   3.198
 1904SOL     OW 6610   6.748   6.884   4.741
 1904SOL    HW1 6611   6.698   6.970   4.728
 1904SOL    HW2 6612   6.813   6.871   4.666
 1905SOL     OW 6613   0.124   2.531   3.495
 1905SOL    HW1 6614   0.193   2.533   3.422
 1905SOL    HW2 6615   0.087   2.438   3.502
 1906SOL     OW 6616   2.763   0.046   5.562
 1906SOL    HW1 6617   2.758   0.059   5.463
 1906SOL    HW2 6618   2.673   0.022   5.597
 1907SOL     OW 6619   2.812   0.065   3.596
 1907SOL    HW1 6620   2.846   6.994   3.632
 1907SOL    HW2 6621   2.778   0.121   3.672
 1908SOL     OW 6622   4.480   1.076   5.643
 1908SOL    HW1 6623   4.450   1.046   5.553
 1908SOL    HW2 6624   4.574   1.044   5.659
 1909SOL     OW 6625   1.880   4.352   4.318
 1909SOL    HW1 6626   1.953   4.284   4.319
 1909SOL    HW2 6627   1.913   4.437   4.279
 1910SOL     OW 6628   5.680   2.693   6.173
 1910SOL    HW1 6629   5.646   2.787   6.171
 1910SOL    HW2 6630   5.624   2.638   6.235
 1911SOL     OW 6631   6.366   1.866   5.278
 1911SOL    HW1 6632   6.342   1.806   5.354
 1911SOL    HW2 6633   6.301   1.942   5.274
 1912SOL     OW 6634   3.899   6.169   2.254
 1912SOL    HW1 6635   3.827   6.126   2.309
 1912SOL    HW2 6636   3.857   6.220   2.179
 1913SOL     OW 6637   1.745   6.563   5.361
 1913SOL    HW1 6638   1.803   6.620   5.420
 1913SOL    HW2 6639   1.747   6.599   5.268
 1914SOL     OW 6640   2.303   2.007   6.325
 1914SOL    HW1 6641   2.234   2.080   6.330
 1914SOL    HW2 6642   2.270   1.926   6.373
 1915SOL     OW 6643   3.698   1.559   5.776
 1915SOL    HW1 6644   3.622   1.531   5.834
 1915SOL    HW2 6645   3.716   1.656   5.789
 1916SOL     OW 6646   4.170   5.732   0.992
 1916SOL    HW1 6647   4.085   5.737   1.044
 1916SOL    HW2 6648   4.149   5.734   0.894
 1917SOL     OW 6649   3.741   3.350   5.028
 1917SOL    HW1 6650   3.768   3.443   5.002
 1917SOL    HW2 6651   3.645   3.350   5.055
 1918SOL     OW 6652   5.901   6.794   5.827
 1918SOL    HW1 6653   5.873   6.741   5.747
 1918SOL    HW2 6654   5.830   6.788   5.897
 1919SOL     OW 6655   1.587   6.321   2.006
 1919SOL    HW1 6656   1.561   6.396   2.067
 1919SOL    HW2 6657   1.536   6.239   2.030
 1920SOL     OW 6658   0.184   4.408   3.558
 1920SOL    HW1 6659   0.259   4.457   3.602
 1920SOL    HW2 6660   0.174   4.439   3.464
 1921SOL     OW 6661   6.957   5.235   6.853
 1921SOL    HW1 6662   6.897   5.268   6.926
 1921SOL    HW2 6663   6.901   5.203   6.777
 1922SOL     OW 6664   4.143   3.237   1.291
 1922SOL    HW1 6665   4.135   3.207   1.386
 1922SOL    HW2 6666   4.211   3.309   1.284
 1923SOL     OW 6667   3.423   1.097   0.369
 1923SOL    HW1 6668   3.392   1.012   0.410
 1923SOL    HW2 6669   3.415   1.092   0.270
 1924SOL     OW 6670   5.690   4.832   2.238
 1924SOL    HW1 6671   5.592   4.809   2.234
 1924SOL    HW2 6672   5.739   4.757   2.281
 1925SOL     OW 6673   2.814   3.737   1.771
 1925SOL    HW1 6674   2.743   3.736   1.700
 1925SOL    HW2 6675   2.884   3.804   1.748
 1926SOL     OW 6676   1.464   6.951   4.584
 1926SOL    HW1 6677   1.457   6.860   4.544
 1926SOL    HW2 6678   1.455   6.945   4.683
 1927SOL     OW 6679   3.551   4.722   6.193
 1927SOL    HW1 6680   3.585   4.732   6.287
 1927SOL    HW2 6681   3.504   4.806   6.165
 1928SOL     OW 6682   6.315   3.449   5.877
 1928SOL    HW1 6683   6.226   3.466   5.834
 1928SOL    HW2 6684   6.325   3.510   5.956
 1929SOL     OW 6685   0.692   5.347   1.530
 1929SOL    HW1 6686   0.771   5.326   1.588
 1929SOL    HW2 6687   0.715   5.422   1.468
 1930SOL     OW 6688   5.694   4.366   0.020
 1930SOL    HW1 6689   5.613   4.376   0.079
 1930SOL    HW2 6690   5.680   4.289   6.975
 1931SOL     OW 6691   0.111   3.453   2.827
 1931SOL    HW1 6692   0.088   3.360   2.798
 1931SOL    HW2 6693   0.119   3.512   2.746
 1932SOL     OW 6694   5.455   3.591   2.801
 1932SOL    HW1 6695   5.433   3.493   2.796
 1932SOL    HW2 6696   5.375   3.641   2.834
 1933SOL     OW 6697   2.656   4.695   1.296
 1933SOL    HW1 6698   2.671   4.778   1.243
 1933SOL    HW2 6699   2.579   4.709   1.359
 1934SOL     OW 6700   0.713   0.176   5.494
 1934SOL    HW1 6701   0.695   0.198   5.398
 1934SOL    HW2 6702   0.805   0.138   5.503
 1935SOL     OW 6703   3.351   0.278   4.905
 1935SOL    HW1 6704   3.371   0.235   4.993
 1935SOL    HW2 6705   3.422   0.253   4.839
 1936SOL     OW 6706   5.696   5.229   4.305
 1936SOL    HW1 6707   5.726   5.166   4.376
 1936SOL    HW2 6708   5.741   5.206   4.219
 1937SOL     OW 6709   4.138   0.103   1.844
 1937SOL    HW1 6710   4.124   0.197   1.873
 1937SOL    HW2 6711   4.236   0.086   1.833
 1938SOL     OW 6712   4.494   1.429   2.730
 1938SOL    HW1 6713   4.548   1.358   2.683
 1938SOL    HW2 6714   4.535   1.448   2.820
 1939SOL     OW 6715   0.534   6.706   4.151
 1939SOL    HW1 6716   0.564   6.667   4.238
 1939SOL    HW2 6717   0.466   6.777   4.168
 1940SOL     OW 6718   5.140   5.489   6.226
 1940SOL    HW1 6719   5.146   5.561   6.156
 1940SOL    HW2 6720   5.082   5.416   6.193
 1941SOL     OW 6721   6.852   3.948   2.977
 1941SOL    HW1 6722   6.826   4.041   3.004
 1941SOL    HW2 6723   6.773   3.901   2.937
 1942SOL     OW 6724   6.489   6.893   2.289
 1942SOL    HW1 6725   6.421   6.962   2.315
 1942SOL    HW2 6726   6.488   6.818   2.355
 1943SOL     OW 6727   2.943   6.072   2.189
 1943SOL    HW1 6728   2.860   6.124   2.166
 1943SOL    HW2 6729   3.014   6.135   2.221
 1944SOL     OW 6730   4.989   2.228   6.159
 1944SOL    HW1 6731   4.967   2.310   6.106
 1944SOL    HW2 6732   4.957   2.239   6.253
 1945SOL     OW 6733   4.249   5.383   2.861
 1945SOL    HW1 6734   4.292   5.432   2.937
 1945SOL    HW2 6735   4.318   5.362   2.792
 1946SOL     OW 6736   0.299   0.945   0.032
 1946SOL    HW1 6737   0.310   0.853   7.010
 1946SOL    HW2 6738   0.330   1.013   6.983
 1947SOL     OW 6739   5.393   6.503   4.119
 1947SOL    HW1 6740   5.457   6.578   4.103
 1947SOL    HW2 6741   5.353   6.473   4.032
 1948SOL     OW 6742   6.648   5.688   3.578
 1948SOL    HW1 6743   6.609   5.652   3.493
 1948SOL    HW2 6744   6.721   5.628   3.610
 1949SOL     OW 6745   4.232   4.460   5.606
 1949SOL    HW1 6746   4.212   4.532   5.672
 1949SOL    HW2 6747   4.328   4.433   5.613
 1950SOL     OW 6748   3.781   3.887   1.035
 1950SOL    HW1 6749   3.815   3.981   1.041
 1950SOL    HW2 6750   3.684   3.888   1.013
 1951SOL     OW 6751   6.630   3.049   0.431
 1951SOL    HW1 6752   6.626   2.986   0.509
 1951SOL    HW2 6753   6.686   3.008   0.358
 1952SOL     OW 6754   3.633   2.226   6.757
 1952SOL    HW1 6755   3.650   2.200   6.662
 1952SOL    HW2 6756   3.596   2.318   6.761
 1953SOL     OW 6757   6.310   2.437   6.552
 1953SOL    HW1 6758   6.316   2.357   6.611
 1953SOL    HW2 6759   6.373   2.427   6.474
 1954SOL     OW 6760   5.603   1.269   4.396
 1954SOL    HW1 6761   5.568   1.363   4.398
 1954SOL    HW2 6762   5.593   1.231   4.304
 1955SOL     OW 6763   1.154   0.067   2.208
 1955SOL    HW1 6764   1.177   0.142   2.146
 1955SOL    HW2 6765   1.169   0.096   2.302
 1956SOL     OW 6766   5.958   6.480   2.742
 1956SOL    HW1 6767   6.006   6.435   2.818
 1956SOL    HW2 6768   5.859   6.467   2.753
 1957SOL     OW 6769   6.518   4.606   4.856
 1957SOL    HW1 6770   6.541   4.601   4.953
 1957SOL    HW2 6771   6.447   4.539   4.834
 1958SOL     OW 6772   6.170   2.758   3.670
 1958SOL    HW1 6773   6.159   2.778   3.573
 1958SOL    HW2 6774   6.113   2.679   3.695
 1959SOL     OW 6775   0.041   2.096   6.124
 1959SOL    HW1 6776   6.973   2.052   6.155
 1959SOL    HW2 6777   0.109   2.091   6.196
 1960SOL     OW 6778   6.308   4.792   1.082
 1960SOL    HW1 6779   6.269   4.884   1.078
 1960SOL    HW2 6780   6.329   4.762   0.989
 1961SOL     OW 6781   5.367   4.582   4.226
 1961SOL    HW1 6782   5.301   4.579   4.301
 1961SOL    HW2 6783   5.449   4.531   4.251
 1962SOL     OW 6784   2.386   6.230   2.450
 1962SOL    HW1 6785   2.399   6.325   2.478
 1962SOL    HW2 6786   2.447   6.171   2.502
 1963SOL     OW 6787   0.725   1.027   1.519
 1963SOL    HW1 6788   0.740   0.974   1.602
 1963SOL    HW2 6789   0.800   1.092   1.507
 1964SOL     OW 6790   4.814   2.687   1.536
 1964SOL    HW1 6791   4.821   2.628   1.456
 1964SOL    HW2 6792   4.775   2.636   1.612
 1965SOL     OW 6793   1.019   3.151   2.905
 1965SOL    HW1 6794   1.062   3.064   2.881
 1965SOL    HW2 6795   1.089   3.223   2.906
 1966SOL     OW 6796   6.896   5.260   4.947
 1966SOL    HW1 6797   6.842   5.333   4.905
 1966SOL    HW2 6798   6.835   5.192   4.987
 1967SOL     OW 6799   4.500   2.001   5.640
 1967SOL    HW1 6800   4.487   2.092   5.679
 1967SOL    HW2 6801   4.414   1.971   5.597
 1968SOL     OW 6802   3.019   6.062   0.433
 1968SOL    HW1 6803   3.046   6.159   0.430
 1968SOL    HW2 6804   2.939   6.053   0.492
 1969SOL     OW 6805   0.538   1.722   1.367
 1969SOL    HW1 6806   0.512   1.678   1.282
 1969SOL    HW2 6807   0.460   1.772   1.405
 1970SOL     OW 6808   2.502   0.970   6.273
 1970SOL    HW1 6809   2.521   1.058   6.230
 1970SOL    HW2 6810   2.462   0.908   6.205
 1971SOL     OW 6811   5.957   6.613   6.137
 1971SOL    HW1 6812   6.016   6.630   6.058
 1971SOL    HW2 6813   6.002   6.549   6.199
 1972SOL     OW 6814   6.681   2.545   3.084
 1972SOL    HW1 6815   6.656   2.501   3.171
 1972SOL    HW2 6816   6.775   2.522   3.060
 1973SOL     OW 6817   2.611   3.302   1.090
 1973SOL    HW1 6818   2.538   3.314   1.022
 1973SOL    HW2 6819   2.574   3.318   1.181
 1974SOL     OW 6820   6.351   5.801   4.173
 1974SOL    HW1 6821   6.257   5.774   4.151
 1974SOL    HW2 6822   6.353   5.845   4.263
 1975SOL     OW 6823   2.376   1.016   3.227
 1975SOL    HW1 6824   2.312   0.977   3.294
 1975SOL    HW2 6825   2.459   1.046   3.275
 1976SOL     OW 6826   0.466   5.601   6.918
 1976SOL    HW1 6827   0.375   5.603   6.877
 1976SOL    HW2 6828   0.482   5.686   6.969
 1977SOL     OW 6829   1.569   2.550   3.467
 1977SOL    HW1 6830   1.537   2.571   3.374
 1977SOL    HW2 6831   1.669   2.548   3.468
 1978SOL     OW 6832   0.783   0.490   4.172
 1978SOL    HW1 6833   0.848   0.548   4.123
 1978SOL    HW2 6834   0.697   0.486   4.121
 1979SOL     OW 6835   6.643   3.979   4.648
 1979SOL    HW1 6836   6.654   4.078   4.637
 1979SOL    HW2 6837   6.608   3.959   4.739
 1980SOL     OW 6838   3.370   0.972   6.383
 1980SOL    HW1 6839   3.359   1.037   6.308
 1980SOL    HW2 6840   3.292   0.978   6.445
 1981SOL     OW 6841   5.804   2.267   2.500
 1981SOL    HW1 6842   5.900   2.288   2.480
 1981SOL    HW2 6843   5.797   2.174   2.534
 1982SOL     OW 6844   6.761   4.249   5.947
 1982SOL    HW1 6845   6.734   4.179   6.013
 1982SOL    HW2 6846   6.690   4.259   5.877
 1983SOL     OW 6847   1.196   2.002   2.831
 1983SOL    HW1 6848   1.212   2.098   2.852
 1983SOL    HW2 6849   1.165   1.993   2.736
 1984SOL     OW 6850   5.320   0.200   5.182
 1984SOL    HW1 6851   5.414   0.182   5.155
 1984SOL    HW2 6852   5.274   0.113   5.202
 1985SOL     OW 6853   1.139   0.963   2.282
 1985SOL    HW1 6854   1.182   0.874   2.267
 1985SOL    HW2 6855   1.206   1.028   2.318
 1986SOL     OW 6856   1.251   0.612   0.395
 1986SOL    HW1 6857   1.250   0.526   0.447
 1986SOL    HW2 6858   1.310   0.678   0.441
 1987SOL     OW 6859   1.838   3.510   2.048
 1987SOL    HW1 6860   1.829   3.501   1.948
 1987SOL    HW2 6861   1.813   3.604   2.074
 1988SOL     OW 6862   4.362   4.529   0.930
 1988SOL    HW1 6863   4.456   4.531   0.894
 1988SOL    HW2 6864   4.303   4.482   0.865
 1989SOL     OW 6865   2.633   6.614   5.359
 1989SOL    HW1 6866   2.579   6.678   5.304
 1989SOL    HW2 6867   2.705   6.574   5.304
 1990SOL     OW 6868   3.444   6.788   1.101
 1990SOL    HW1 6869   3.518   6.855   1.091
 1990SOL    HW2 6870   3.404   6.796   1.192
 1991SOL     OW 6871   3.867   4.890   6.319
 1991SOL    HW1 6872   3.921   4.814   6.353
 1991SOL    HW2 6873   3.889   4.906   6.222
 1992SOL     OW 6874   1.325   0.268   6.928
 1992SOL    HW1 6875   1.366   0.186   6.968
 1992SOL    HW2 6876   1.225   0.260   6.931
 1993SOL     OW 6877   4.271   3.748   5.338
 1993SOL    HW1 6878   4.238   3.750   5.433
 1993SOL    HW2 6879   4.197   3.777   5.277
 1994SOL     OW 6880   1.624   1.831   1.040
 1994SOL    HW1 6881   1.620   1.731   1.039
 1994SOL    HW2 6882   1.715   1.861   1.011
 1995SOL     OW 6883   5.776   2.505   1.359
 1995SOL    HW1 6884   5.776   2.499   1.459
 1995SOL    HW2 6885   5.842   2.439   1.322
 1996SOL     OW 6886   3.042   3.553   0.542
 1996SOL    HW1 6887   2.992   3.631   0.579
 1996SOL    HW2 6888   3.139   3.577   0.534
 1997SOL     OW 6889   5.126   0.322   5.806
 1997SOL    HW1 6890   5.139   0.235   5.854
 1997SOL    HW2 6891   5.153   0.312   5.711
 1998SOL     OW 6892   2.988   3.747   5.903
 1998SOL    HW1 6893   2.993   3.840   5.937
 1998SOL    HW2 6894   3.061   3.732   5.837
 1999SOL     OW 6895   2.687   0.152   1.831
 1999SOL    HW1 6896   2.660   0.195   1.917
 1999SOL    HW2 6897   2.730   0.064   1.850
 2000SOL     OW 6898   3.727   1.930   5.546
 2000SOL    HW1 6899   3.706   1.979   5.631
 2000SOL    HW2 6900   3.786   1.987   5.488
 2001SOL     OW 6901   3.411   2.215   1.755
 2001SOL    HW1 6902   3.506   2.230   1.784
 2001SOL    HW2 6903   3.359   2.300   1.768
 2002SOL     OW 6904   0.895   5.819   6.102
 2002SOL    HW1 6905   0.923   5.881   6.028
 2002SOL    HW2 6906   0.798   5.796   6.091
 2003SOL     OW 6907   5.677   6.924   3.261
 2003SOL    HW1 6908   5.680   6.825   3.247
 2003SOL    HW2 6909   5.676   6.970   3.172
 2004SOL     OW 6910   5.228   1.269   5.041
 2004SOL    HW1 6911   5.260   1.301   4.952
 2004SOL    HW2 6912   5.208   1.348   5.099
 2005SOL     OW 6913   0.935   5.373   6.915
 2005SOL    HW1 6914   0.970   5.387   7.008
 2005SOL    HW2 6915   0.862   5.439   6.897
 2006SOL     OW 6916   4.877   4.438   3.895
 2006SOL    HW1 6917   4.802   4.496   3.926
 2006SOL    HW2 6918   4.850   4.342   3.899
 2007SOL     OW 6919   4.545   6.018   0.695
 2007SOL    HW1 6920   4.521   6.100   0.643
 2007SOL    HW2 6921   4.480   5.945   0.674
 2008SOL     OW 6922   1.041   5.835   2.944
 2008SOL    HW1 6923   1.077   5.927   2.961
 2008SOL    HW2 6924   0.941   5.840   2.935
 2009SOL     OW 6925   6.657   6.918   1.167
 2009SOL    HW1 6926   6.725   6.987   1.189
 2009SOL    HW2 6927   6.672   6.837   1.224
 2010SOL     OW 6928   1.251   0.996   1.022
 2010SOL    HW1 6929   1.197   1.077   1.046
 2010SOL    HW2 6930   1.261   0.991   0.923
 2011SOL     OW 6931   0.034   1.824   4.667
 2011SOL    HW1 6932   6.985   1.751   4.687
 2011SOL    HW2 6933   0.026   1.850   4.570
 2012SOL     OW 6934   0.966   3.076   1.692
 2012SOL    HW1 6935   1.060   3.070   1.725
 2012SOL    HW2 6936   0.942   3.171   1.675
 2013SOL     OW 6937   5.471   0.527   3.388
 2013SOL    HW1 6938   5.421   0.589   3.448
 2013SOL    HW2 6939   5.508   0.578   3.310
 2014SOL     OW 6940   1.649   5.167   3.040
 2014SOL    HW1 6941   1.663   5.091   3.104
 2014SOL    HW2 6942   1.553   5.171   3.014
 2015SOL     OW 6943   2.549   1.187   6.636
 2015SOL    HW1 6944   2.586   1.178   6.728
 2015SOL    HW2 6945   2.568   1.279   6.602
 2016SOL     OW 6946   0.984   5.396   5.342
 2016SOL    HW1 6947   0.998   5.328   5.270
 2016SOL    HW2 6948   1.068   5.405   5.396
 2017SOL     OW 6949   2.856   6.391   4.575
 2017SOL    HW1 6950   2.814   6.370   4.663
 2017SOL    HW2 6951   2.805   6.465   4.531
 2018SOL     OW 6952   5.796   6.247   6.291
 2018SOL    HW1 6953   5.844   6.298   6.362
 2018SOL    HW2 6954   5.702   6.229   6.319
 2019SOL     OW 6955   4.606   2.582   2.133
 2019SOL    HW1 6956   4.569   2.619   2.048
 2019SOL    HW2 6957   4.594   2.483   2.135
 2020SOL     OW 6958   1.271   5.327   5.268
 2020SOL    HW1 6959   1.351   5.267   5.275
 2020SOL    HW2 6960   1.247   5.338   5.172
 2021SOL     OW 6961   2.038   6.514   3.669
 2021SOL    HW1 6962   2.117   6.566   3.703
 2021SOL    HW2 6963   2.033   6.426   3.716
 2022SOL     OW 6964   2.026   3.659   2.499
 2022SOL    HW1 6965   1.978   3.738   2.461
 2022SOL    HW2 6966   2.116   3.688   2.533
 2023SOL     OW 6967   6.888   1.702   6.996
 2023SOL    HW1 6968   6.972   1.659   6.964
 2023SOL    HW2 6969   6.861   1.774   6.933
 2024SOL     OW 6970   0.010   0.906   2.224
 2024SOL    HW1 6971   0.059   0.966   2.161
 2024SOL    HW2 6972   6.929   0.906   2.200
 2025SOL     OW 6973   1.937   2.688   2.145
 2025SOL    HW1 6974   1.892   2.634   2.074
 2025SOL    HW2 6975   2.035   2.693   2.127
 2026SOL     OW 6976   1.762   2.237   5.887
 2026SOL    HW1 6977   1.776   2.245   5.986
 2026SOL    HW2 6978   1.849   2.253   5.840
 2027SOL     OW 6979   1.091   1.241   1.110
 2027SOL    HW1 6980   1.050   1.157   1.145
 2027SOL    HW2 6981   1.156   1.277   1.176
 2028SOL     OW 6982   3.177   1.395   6.186
 2028SOL    HW1 6983   3.226   1.473   6.225
 2028SOL    HW2 6984   3.237   1.314   6.189
 2029SOL     OW 6985   6.917   0.704   0.427
 2029SOL    HW1 6986   6.900   0.610   0.458
 2029SOL    HW2 6987   6.898   0.767   0.503
 2030SOL     OW 6988   2.726   0.612   3.763
 2030SOL    HW1 6989   2.632   0.588   3.787
 2030SOL    HW2 6990   2.771   0.533   3.721
 2031SOL     OW 6991   5.155   5.983   2.394
 2031SOL    HW1 6992   5.058   5.959   2.403
 2031SOL    HW2 6993   5.199   5.980   2.483
 2032SOL     OW 6994   3.923   6.664   1.705
 2032SOL    HW1 6995   3.855   6.652   1.633
 2032SOL    HW2 6996   3.998   6.721   1.672
 2033SOL     OW 6997   3.720   4.933   6.871
 2033SOL    HW1 6998   3.761   5.002   6.812
 2033SOL    HW2 6999   3.724   4.963   6.966
 2034SOL     OW 7000   3.343   0.284   4.344
 2034SOL    HW1 7001   3.375   0.204   4.395
 2034SOL    HW2 7002   3.246   0.272   4.323
 2035SOL     OW 7003   0.621   0.784   2.416
 2035SOL    HW1 7004   0.614   0.846   2.338
 2035SOL    HW2 7005   0.545   0.800   2.479
 2036SOL     OW 7006   0.676   6.022   3.181
 2036SOL    HW1 7007   0.743   6.067   3.123
 2036SOL    HW2 7008   0.706   6.026   3.277
 2037SOL     OW 7009   0.518   2.284   5.913
 2037SOL    HW1 7010   0.606   2.256   5.875
 2037SOL    HW2 7011   0.444   2.249   5.854
 2038SOL     OW 7012   1.036   1.636   6.522
 2038SOL    HW1 7013   1.079   1.667   6.437
 2038SOL    HW2 7014   1.019   1.714   6.582
 2039SOL     OW 7015   0.212   4.910   2.429
 2039SOL    HW1 7016   0.239   4.987   2.372
 2039SOL    HW2 7017   0.117   4.886   2.412
 2040SOL     OW 7018   3.120   2.891   5.222
 2040SOL    HW1 7019   3.148   2.796   5.236
 2040SOL    HW2 7020   3.178   2.951   5.278
 2041SOL     OW 7021   6.534   6.247   5.805
 2041SOL    HW1 7022   6.436   6.253   5.786
 2041SOL    HW2 7023   6.549   6.243   5.903
 2042SOL     OW 7024   5.490   5.256   0.083
 2042SOL    HW1 7025   5.565   5.262   0.017
 2042SOL    HW2 7026   5.462   5.160   0.091
 2043SOL     OW 7027   6.719   4.223   2.362
 2043SOL    HW1 7028   6.721   4.263   2.454
 2043SOL    HW2 7029   6.629   4.240   2.321
 2044SOL     OW 7030   4.685   0.276   1.887
 2044SOL    HW1 7031   4.688   0.330   1.802
 2044SOL    HW2 7032   4.596   0.287   1.930
 2045SOL     OW 7033   1.612   4.786   5.219
 2045SOL    HW1 7034   1.600   4.711   5.154
 2045SOL    HW2 7035   1.709   4.800   5.237
 2046SOL     OW 7036   6.359   1.044   3.973
 2046SOL    HW1 7037   6.424   1.062   3.899
 2046SOL    HW2 7038   6.385   1.097   4.054
 2047SOL     OW 7039   4.402   2.245   0.441
 2047SOL    HW1 7040   4.486   2.199   0.412
 2047SOL    HW2 7041   4.357   2.191   0.511
 2048SOL     OW 7042   1.825   5.725   0.863
 2048SOL    HW1 7043   1.737   5.729   0.816
 2048SOL    HW2 7044   1.853   5.817   0.890
 2049SOL     OW 7045   4.538   1.673   6.537
 2049SOL    HW1 7046   4.482   1.594   6.511
 2049SOL    HW2 7047   4.631   1.660   6.503
 2050SOL     OW 7048   5.975   2.421   3.250
 2050SOL    HW1 7049   6.056   2.429   3.308
 2050SOL    HW2 7050   5.951   2.325   3.238
 2051SOL     OW 7051   6.994   5.339   0.646
 2051SOL    HW1 7052   0.076   5.334   0.666
 2051SOL    HW2 7053   6.944   5.357   0.731
 2052SOL     OW 7054   0.213   4.246   0.611
 2052SOL    HW1 7055   0.308   4.275   0.599
 2052SOL    HW2 7056   0.212   4.149   0.639
 2053SOL     OW 7057   6.212   0.627   6.369
 2053SOL    HW1 7058   6.171   0.558   6.309
 2053SOL    HW2 7059   6.184   0.609   6.463
 2054SOL     OW 7060   4.667   2.922   1.495
 2054SOL    HW1 7061   4.729   2.846   1.475
 2054SOL    HW2 7062   4.594   2.890   1.556
 2055SOL     OW 7063   6.332   2.963   2.637
 2055SOL    HW1 7064   6.421   2.971   2.592
 2055SOL    HW2 7065   6.299   3.054   2.663
 2056SOL     OW 7066   2.324   0.875   2.973
 2056SOL    HW1 7067   2.334   0.862   3.072
 2056SOL    HW2 7068   2.229   0.860   2.947
 2057SOL     OW 7069   5.604   2.638   3.448
 2057SOL    HW1 7070   5.605   2.572   3.523
 2057SOL    HW2 7071   5.515   2.682   3.443
 2058SOL     OW 7072   0.940   1.726   3.154
 2058SOL    HW1 7073   0.983   1.656   3.211
 2058SOL    HW2 7074   0.959   1.817   3.192
 2059SOL     OW 7075   2.690   6.194   6.626
 2059SOL    HW1 7076   2.764   6.250   6.592
 2059SOL    HW2 7077   2.615   6.193   6.560
 2060SOL     OW 7078   6.523   4.276   0.479
 2060SOL    HW1 7079   6.582   4.208   0.523
 2060SOL    HW2 7080   6.427   4.255   0.499
 2061SOL     OW 7081   0.823   1.615   2.832
 2061SOL    HW1 7082   0.859   1.703   2.863
 2061SOL    HW2 7083   0.897   1.549   2.826
 2062SOL     OW 7084   5.813   0.247   3.475
 2062SOL    HW1 7085   5.858   0.256   3.564
 2062SOL    HW2 7086   5.826   0.331   3.423
 2063SOL     OW 7087   1.931   0.260   6.173
 2063SOL    HW1 7088   1.970   0.290   6.260
 2063SOL    HW2 7089   1.888   0.338   6.127
 2064SOL     OW 7090   1.063   1.730   5.757
 2064SOL    HW1 7091   1.092   1.669   5.683
 2064SOL    HW2 7092   1.117   1.814   5.753
 2065SOL     OW 7093   6.766   3.635   3.257
 2065SOL    HW1 7094   6.839   3.592   3.204
 2065SOL    HW2 7095   6.783   3.733   3.263
 2066SOL     OW 7096   0.423   6.006   3.605
 2066SOL    HW1 7097   0.350   6.006   3.673
 2066SOL    HW2 7098   0.508   5.975   3.648
 2067SOL     OW 7099   6.596   5.716   0.744
 2067SOL    HW1 7100   6.598   5.769   0.829
 2067SOL    HW2 7101   6.647   5.765   0.673
 2068SOL     OW 7102   1.470   1.832   5.160
 2068SOL    HW1 7103   1.512   1.752   5.202
 2068SOL    HW2 7104   1.380   1.848   5.202
 2069SOL     OW 7105   0.674   3.071   3.471
 2069SOL    HW1 7106   0.619   2.989   3.452
 2069SOL    HW2 7107   0.680   3.084   3.570
 2070SOL     OW 7108   1.461   0.516   2.558
 2070SOL    HW1 7109   1.535   0.525   2.625
 2070SOL    HW2 7110   1.494   0.545   2.468
 2071SOL     OW 7111   6.502   6.084   5.463
 2071SOL    HW1 7112   6.462   6.007   5.513
 2071SOL    HW2 7113   6.586   6.054   5.418
 2072SOL     OW 7114   4.434   6.600   2.137
 2072SOL    HW1 7115   4.427   6.693   2.100
 2072SOL    HW2 7116   4.353   6.580   2.192
 2073SOL     OW 7117   3.755   0.223   4.369
 2073SOL    HW1 7118   3.818   0.264   4.435
 2073SOL    HW2 7119   3.807   0.173   4.300
 2074SOL     OW 7120   1.281   3.379   0.633
 2074SOL    HW1 7121   1.239   3.384   0.724
 2074SOL    HW2 7122   1.246   3.454   0.577
 2075SOL     OW 7123   5.052   3.155   1.551
 2075SOL    HW1 7124   5.063   3.062   1.586
 2075SOL    HW2 7125   4.976   3.157   1.486
 2076SOL     OW 7126   4.792   6.995   6.960
 2076SOL    HW1 7127   4.816   6.945   0.027
 2076SOL    HW2 7128   4.700   0.015   6.968
 2077SOL     OW 7129   5.135   2.123   2.742
 2077SOL    HW1 7130   5.041   2.113   2.772
 2077SOL    HW2 7131   5.138   2.182   2.661
 2078SOL     OW 7132   1.508   6.355   6.394
 2078SOL    HW1 7133   1.489   6.293   6.318
 2078SOL    HW2 7134   1.451   6.329   6.473
 2079SOL     OW 7135   5.806   1.641   3.417
 2079SOL    HW1 7136   5.713   1.674   3.404
 2079SOL    HW2 7137   5.822   1.622   3.514
 2080SOL     OW 7138   1.435   0.681   4.559
 2080SOL    HW1 7139   1.364   0.620   4.594
 2080SOL    HW2 7140   1.450   0.756   4.623
 2081SOL     OW 7141   2.275   5.614   4.698
 2081SOL    HW1 7142   2.221   5.545   4.747
 2081SOL    HW2 7143   2.371   5.606   4.724
 2082SOL     OW 7144   6.852   0.010   3.253
 2082SOL    HW1 7145   6.840   0.102   3.291
 2082SOL    HW2 7146   6.775   6.969   3.281
 2083SOL     OW 7147   5.009   4.751   6.602
 2083SOL    HW1 7148   5.020   4.821   6.672
 2083SOL    HW2 7149   5.002   4.795   6.512
 2084SOL     OW 7150   0.035   4.262   4.527
 2084SOL    HW1 7151   0.066   4.351   4.559
 2084SOL    HW2 7152   0.067   4.248   4.433
 2085SOL     OW 7153   4.800   0.851   6.765
 2085SOL    HW1 7154   4.856   0.771   6.788
 2085SOL    HW2 7155   4.773   0.897   6.850
 2086SOL     OW 7156   3.386   0.005   5.507
 2086SOL    HW1 7157   3.314   6.995   5.570
 2086SOL    HW2 7158   3.429   6.939   5.470
 2087SOL     OW 7159   5.035   6.802   1.732
 2087SOL    HW1 7160   4.979   6.790   1.814
 2087SOL    HW2 7161   5.070   6.896   1.730
 2088SOL     OW 7162   2.692   6.418   0.877
 2088SOL    HW1 7163   2.633   6.348   0.837
 2088SOL    HW2 7164   2.667   6.432   0.973
 2089SOL     OW 7165   5.358   2.229   6.384
 2089SOL    HW1 7166   5.335   2.147   6.437
 2089SOL    HW2 7167   5.290   2.300   6.402
 2090SOL     OW 7168   3.535   3.452   5.457
 2090SOL    HW1 7169   3.444   3.464   5.499
 2090SOL    HW2 7170   3.537   3.500   5.369
 2091SOL     OW 7171   6.764   5.184   0.463
 2091SOL    HW1 7172   6.741   5.088   0.448
 2091SOL    HW2 7173   6.755   5.206   0.560
 2092SOL     OW 7174   4.603   4.486   0.105
 2092SOL    HW1 7175   4.648   4.456   0.021
 2092SOL    HW2 7176   4.513   4.444   0.111
 2093SOL     OW 7177   2.848   2.427   1.650
 2093SOL    HW1 7178   2.881   2.434   1.744
 2093SOL    HW2 7179   2.871   2.510   1.600
 2094SOL     OW 7180   5.830   1.720   0.696
 2094SOL    HW1 7181   5.837   1.730   0.597
 2094SOL    HW2 7182   5.878   1.638   0.725
 2095SOL     OW 7183   5.162   0.377   5.037
 2095SOL    HW1 7184   5.216   0.316   5.095
 2095SOL    HW2 7185   5.111   0.322   4.970
 2096SOL     OW 7186   4.668   4.233   2.905
 2096SOL    HW1 7187   4.618   4.293   2.968
 2096SOL    HW2 7188   4.610   4.209   2.827
 2097SOL     OW 7189   1.888   3.018   6.597
 2097SOL    HW1 7190   1.870   3.094   6.659
 2097SOL    HW2 7191   1.964   2.963   6.632
 2098SOL     OW 7192   4.110   5.391   3.372
 2098SOL    HW1 7193   4.175   5.393   3.448
 2098SOL    HW2 7194   4.021   5.360   3.404
 2099SOL     OW 7195   2.719   3.133   5.324
 2099SOL    HW1 7196   2.804   3.133   5.270
 2099SOL    HW2 7197   2.644   3.099   5.267
 2100SOL     OW 7198   4.213   3.270   5.738
 2100SOL    HW1 7199   4.178   3.325   5.663
 2100SOL    HW2 7200   4.140   3.252   5.804
 2101SOL     OW 7201   1.689   6.011   3.037
 2101SOL    HW1 7202   1.744   6.043   3.113
 2101SOL    HW2 7203   1.713   5.916   3.015
 2102SOL     OW 7204   6.187   4.879   1.931
 2102SOL    HW1 7205   6.256   4.865   1.860
 2102SOL    HW2 7206   6.180   4.796   1.987
 2103SOL     OW 7207   3.028   3.714   6.193
 2103SOL    HW1 7208   2.969   3.687   6.117
 2103SOL    HW2 7209   3.044   3.635   6.252
 2104SOL     OW 7210   1.570   3.240   0.656
 2104SOL    HW1 7211   1.629   3.298   0.599
 2104SOL    HW2 7212   1.590   3.257   0.752
 2105SOL     OW 7213   4.965   5.910   4.738
 2105SOL    HW1 7214   4.955   5.919   4.639
 2105SOL    HW2 7215   5.048   5.957   4.768
 2106SOL     OW 7216   4.289   4.113   0.729
 2106SOL    HW1 7217   4.377   4.149   0.696
 2106SOL    HW2 7218   4.231   4.092   0.651
 2107SOL     OW 7219   5.575   3.115   5.467
 2107SOL    HW1 7220   5.591   3.021   5.437
 2107SOL    HW2 7221   5.490   3.148   5.426
 2108SOL     OW 7222   6.881   6.157   5.312
 2108SOL    HW1 7223   6.903   6.156   5.215
 2108SOL    HW2 7224   6.812   6.088   5.332
 2109SOL     OW 7225   4.178   6.516   3.015
 2109SOL    HW1 7226   4.166   6.463   3.099
 2109SOL    HW2 7227   4.090   6.527   2.970
 2110SOL     OW 7228   2.953   2.102   6.521
 2110SOL    HW1 7229   3.045   2.086   6.488
 2110SOL    HW2 7230   2.941   2.059   6.611
 2111SOL     OW 7231   1.548   2.347   6.985
 2111SOL    HW1 7232   1.555   2.440   6.949
 2111SOL    HW2 7233   1.623   2.330   0.033
 2112SOL     OW 7234   5.248   2.690   0.241
 2112SOL    HW1 7235   5.234   2.643   0.328
 2112SOL    HW2 7236   5.307   2.770   0.256
 2113SOL     OW 7237   0.920   1.176   5.253
 2113SOL    HW1 7238   0.892   1.193   5.347
 2113SOL    HW2 7239   0.840   1.179   5.193
 2114SOL     OW 7240   1.909   2.748   0.954
 2114SOL    HW1 7241   1.816   2.784   0.948
 2114SOL    HW2 7242   1.953   2.757   0.865
 2115SOL     OW 7243   1.952   3.414   2.576
 2115SOL    HW1 7244   1.910   3.386   2.490
 2115SOL    HW2 7245   1.999   3.501   2.564
 2116SOL     OW 7246   0.482   5.056   2.982
 2116SOL    HW1 7247   0.528   5.039   3.069
 2116SOL    HW2 7248   0.521   4.997   2.911
 2117SOL     OW 7249   6.573   4.799   1.799
 2117SOL    HW1 7250   6.622   4.803   1.712
 2117SOL    HW2 7251   6.477   4.776   1.782
 2118SOL     OW 7252   6.569   3.235   1.240
 2118SOL    HW1 7253   6.613   3.215   1.328
 2118SOL    HW2 7254   6.550   3.149   1.193
 2119SOL     OW 7255   2.439   5.916   1.002
 2119SOL    HW1 7256   2.353   5.966   0.999
 2119SOL    HW2 7257   2.420   5.819   1.019
 2120SOL     OW 7258   0.272   5.080   4.031
 2120SOL    HW1 7259   0.330   5.156   4.002
 2120SOL    HW2 7260   0.327   5.014   4.082
 2121SOL     OW 7261   1.063   3.969   5.709
 2121SOL    HW1 7262   0.972   3.995   5.743
 2121SOL    HW2 7263   1.095   3.889   5.760
 2122SOL     OW 7264   5.635   4.120   5.742
 2122SOL    HW1 7265   5.627   4.202   5.686
 2122SOL    HW2 7266   5.692   4.053   5.695
 2123SOL     OW 7267   6.646   5.673   2.136
 2123SOL    HW1 7268   6.606   5.704   2.049
 2123SOL    HW2 7269   6.680   5.580   2.125
 2124SOL     OW 7270   3.092   1.629   1.663
 2124SOL    HW1 7271   3.114   1.558   1.729
 2124SOL    HW2 7272   3.055   1.586   1.580
 2125SOL     OW 7273   2.019   0.619   1.560
 2125SOL    HW1 7274   1.964   0.678   1.620
 2125SOL    HW2 7275   2.034   0.666   1.473
 2126SOL     OW 7276   3.608   0.891   6.854
 2126SOL    HW1 7277   3.552   0.880   6.771
 2126SOL    HW2 7278   3.674   0.965   6.840
 2127SOL     OW 7279   6.447   3.207   4.057
 2127SOL    HW1 7280   6.478   3.183   3.965
 2127SOL    HW2 7281   6.481   3.138   4.122
 2128SOL     OW 7282   6.442   3.683   3.546
 2128SOL    HW1 7283   6.364   3.727   3.592
 2128SOL    HW2 7284   6.458   3.593   3.588
 2129SOL     OW 7285   4.565   3.662   5.921
 2129SOL    HW1 7286   4.608   3.647   5.832
 2129SOL    HW2 7287   4.611   3.736   5.969
 2130SOL     OW 7288   3.407   1.094   1.892
 2130SOL    HW1 7289   3.492   1.042   1.896
 2130SOL    HW2 7290   3.388   1.120   1.797
 2131SOL     OW 7291   6.500   0.186   0.281
 2131SOL    HW1 7292   6.527   0.182   0.377
 2131SOL    HW2 7293   6.401   0.194   0.274
 2132SOL     OW 7294   3.801   1.779   1.478
 2132SOL    HW1 7295   3.801   1.736   1.568
 2132SOL    HW2 7296   3.793   1.878   1.488
 2133SOL     OW 7297   2.734   3.409   6.864
 2133SOL    HW1 7298   2.697   3.328   6.909
 2133SOL    HW2 7299   2.659   3.461   6.822
 2134SOL     OW 7300   0.121   2.870   6.934
 2134SOL    HW1 7301   0.059   2.939   6.971
 2134SOL    HW2 7302   0.081   2.833   6.850
 2135SOL     OW 7303   0.026   4.175   4.212
 2135SOL    HW1 7304   0.040   4.076   4.216
 2135SOL    HW2 7305   6.948   4.197   4.236
 2136SOL     OW 7306   1.583   4.191   2.444
 2136SOL    HW1 7307   1.529   4.137   2.509
 2136SOL    HW2 7308   1.605   4.280   2.484
 2137SOL     OW 7309   2.809   5.926   5.512
 2137SOL    HW1 7310   2.837   6.015   5.477
 2137SOL    HW2 7311   2.854   5.854   5.460
 2138SOL     OW 7312   6.774   6.342   2.742
 2138SOL    HW1 7313   6.696   6.283   2.765
 2138SOL    HW2 7314   6.853   6.317   2.797
 2139SOL     OW 7315   4.482   0.667   3.833
 2139SOL    HW1 7316   4.499   0.754   3.880
 2139SOL    HW2 7317   4.392   0.670   3.789
 2140SOL     OW 7318   3.434   0.260   4.040
 2140SOL    HW1 7319   3.463   0.291   4.130
 2140SOL    HW2 7320   3.480   0.174   4.017
 2141SOL     OW 7321   6.486   3.169   2.181
 2141SOL    HW1 7322   6.460   3.078   2.150
 2141SOL    HW2 7323   6.581   3.168   2.214
 2142SOL     OW 7324   1.307   1.340   3.301
 2142SOL    HW1 7325   1.333   1.244   3.315
 2142SOL    HW2 7326   1.383   1.389   3.257
 2143SOL     OW 7327   3.119   4.935   1.408
 2143SOL    HW1 7328   3.195   4.995   1.433
 2143SOL    HW2 7329   3.151   4.862   1.348
 2144SOL     OW 7330   0.221   5.529   4.644
 2144SOL    HW1 7331   0.280   5.594   4.597
 2144SOL    HW2 7332   0.158   5.487   4.578
 2145SOL     OW 7333   4.087   6.693   4.152
 2145SOL    HW1 7334   4.045   6.674   4.062
 2145SOL    HW2 7335   4.015   6.706   4.220
 2146SOL     OW 7336   2.316   3.466   0.656
 2146SOL    HW1 7337   2.296   3.504   0.746
 2146SOL    HW2 7338   2.370   3.383   0.666
 2147SOL     OW 7339   6.225   1.536   5.819
 2147SOL    HW1 7340   6.217   1.489   5.731
 2147SOL    HW2 7341   6.319   1.565   5.834
 2148SOL     OW 7342   6.040   3.594   5.955
 2148SOL    HW1 7343   6.111   3.575   6.023
 2148SOL    HW2 7344   6.048   3.689   5.925
 2149SOL     OW 7345   2.737   1.570   0.925
 2149SOL    HW1 7346   2.674   1.551   0.850
 2149SOL    HW2 7347   2.828   1.535   0.902
 2150SOL     OW 7348   2.451   2.538   2.293
 2150SOL    HW1 7349   2.497   2.578   2.214
 2150SOL    HW2 7350   2.462   2.439   2.292
 2151SOL     OW 7351   1.805   6.819   6.099
 2151SOL    HW1 7352   1.861   6.857   6.172
 2151SOL    HW2 7353   1.841   6.731   6.071
 2152SOL     OW 7354   3.335   5.244   2.446
 2152SOL    HW1 7355   3.245   5.200   2.446
 2152SOL    HW2 7356   3.406   5.173   2.445
 2153SOL     OW 7357   4.840   1.449   3.027
 2153SOL    HW1 7358   4.883   1.398   2.953
 2153SOL    HW2 7359   4.889   1.432   3.112
 2154SOL     OW 7360   5.201   0.566   4.573
 2154SOL    HW1 7361   5.187   0.633   4.500
 2154SOL    HW2 7362   5.114   0.547   4.619
 2155SOL     OW 7363   3.954   6.476   1.454
 2155SOL    HW1 7364   4.024   6.532   1.411
 2155SOL    HW2 7365   3.876   6.533   1.480
 2156SOL     OW 7366   0.394   1.429   4.736
 2156SOL    HW1 7367   0.413   1.409   4.640
 2156SOL    HW2 7368   0.480   1.446   4.784
 2157SOL     OW 7369   5.907   6.901   2.734
 2157SOL    HW1 7370   5.950   6.846   2.806
 2157SOL    HW2 7371   5.978   6.949   2.682
 2158SOL     OW 7372   3.480   6.088   0.982
 2158SOL    HW1 7373   3.549   6.093   0.910
 2158SOL    HW2 7374   3.465   5.992   1.006
 2159SOL     OW 7375   1.381   0.479   4.867
 2159SOL    HW1 7376   1.324   0.481   4.784
 2159SOL    HW2 7377   1.436   0.562   4.871
 2160SOL     OW 7378   4.839   4.139   6.851
 2160SOL    HW1 7379   4.936   4.116   6.860
 2160SOL    HW2 7380   4.797   4.081   6.782
 2161SOL     OW 7381   5.811   4.596   2.346
 2161SOL    HW1 7382   5.869   4.516   2.331
 2161SOL    HW2 7383   5.778   4.596   2.440
 2162SOL     OW 7384   3.369   0.779   1.722
 2162SOL    HW1 7385   3.389   0.688   1.685
 2162SOL    HW2 7386   3.313   0.770   1.804
 2163SOL     OW 7387   1.887   4.300   0.500
 2163SOL    HW1 7388   1.962   4.335   0.558
 2163SOL    HW2 7389   1.820   4.373   0.485
 2164SOL     OW 7390   1.868   2.038   6.508
 2164SOL    HW1 7391   1.959   2.065   6.538
 2164SOL    HW2 7392   1.869   1.943   6.478
 2165SOL     OW 7393   0.104   2.061   3.400
 2165SOL    HW1 7394   0.198   2.094   3.412
 2165SOL    HW2 7395   0.101   1.963   3.418
 2166SOL     OW 7396   1.582   2.628   4.716
 2166SOL    HW1 7397   1.596   2.720   4.678
 2166SOL    HW2 7398   1.486   2.616   4.740
 2167SOL     OW 7399   1.681   1.971   3.596
 2167SOL    HW1 7400   1.591   1.939   3.624
 2167SOL    HW2 7401   1.672   2.031   3.516
 2168SOL     OW 7402   0.927   1.861   3.649
 2168SOL    HW1 7403   0.877   1.787   3.693
 2168SOL    HW2 7404   1.009   1.824   3.604
 2169SOL     OW 7405   5.701   2.301   6.821
 2169SOL    HW1 7406   5.715   2.395   6.851
 2169SOL    HW2 7407   5.603   2.284   6.809
 2170SOL     OW 7408   6.944   3.860   4.888
 2170SOL    HW1 7409   6.941   3.902   4.798
 2170SOL    HW2 7410   7.015   3.903   4.943
 2171SOL     OW 7411   0.142   5.141   1.611
 2171SOL    HW1 7412   0.146   5.209   1.683
 2171SOL    HW2 7413   0.067   5.163   1.548
 2172SOL     OW 7414   1.953   1.613   6.591
 2172SOL    HW1 7415   2.039   1.566   6.606
 2172SOL    HW2 7416   1.932   1.670   6.670
 2173SOL     OW 7417   4.366   0.732   5.463
 2173SOL    HW1 7418   4.425   0.745   5.384
 2173SOL    HW2 7419   4.421   0.730   5.546
 2174SOL     OW 7420   6.742   5.384   4.757
 2174SOL    HW1 7421   6.645   5.371   4.774
 2174SOL    HW2 7422   6.755   5.438   4.674
 2175SOL     OW 7423   1.950   2.128   4.626
 2175SOL    HW1 7424   1.852   2.127   4.647
 2175SOL    HW2 7425   1.988   2.217   4.651
 2176SOL     OW 7426   5.450   2.484   0.241
 2176SOL    HW1 7427   5.383   2.556   0.261
 2176SOL    HW2 7428   5.411   2.418   0.178
 2177SOL     OW 7429   6.747   1.572   3.016
 2177SOL    HW1 7430   6.744   1.498   3.083
 2177SOL    HW2 7431   6.802   1.543   2.937
 2178SOL     OW 7432   1.960   1.759   2.036
 2178SOL    HW1 7433   2.031   1.827   2.017
 2178SOL    HW2 7434   1.983   1.674   1.988
 2179SOL     OW 7435   1.872   5.081   5.961
 2179SOL    HW1 7436   1.825   5.002   5.922
 2179SOL    HW2 7437   1.859   5.160   5.903
 2180SOL     OW 7438   1.636   2.460   2.188
 2180SOL    HW1 7439   1.621   2.544   2.135
 2180SOL    HW2 7440   1.677   2.484   2.277
 2181SOL     OW 7441   4.585   4.964   4.614
 2181SOL    HW1 7442   4.589   4.864   4.614
 2181SOL    HW2 7443   4.676   5.000   4.632
 2182SOL     OW 7444   1.496   4.041   3.509
 2182SOL    HW1 7445   1.536   3.949   3.502
 2182SOL    HW2 7446   1.508   4.076   3.602
 2183SOL     OW 7447   2.293   4.532   6.590
 2183SOL    HW1 7448   2.299   4.631   6.573
 2183SOL    HW2 7449   2.207   4.512   6.638
 2184SOL     OW 7450   4.624   1.034   5.964
 2184SOL    HW1 7451   4.631   1.088   6.048
 2184SOL    HW2 7452   4.602   1.094   5.888
 2185SOL     OW 7453   0.449   0.419   0.822
 2185SOL    HW1 7454   0.529   0.425   0.763
 2185SOL    HW2 7455   0.371   0.386   0.770
 2186SOL     OW 7456   6.452   5.328   0.647
 2186SOL    HW1 7457   6.454   5.279   0.560
 2186SOL    HW2 7458   6.453   5.427   0.630
 2187SOL     OW 7459   6.673   5.986   2.474
 2187SOL    HW1 7460   6.706   5.972   2.381
 2187SOL    HW2 7461   6.724   5.927   2.537
 2188SOL     OW 7462   0.063   5.461   4.988
 2188SOL    HW1 7463   0.023   5.420   4.905
 2188SOL    HW2 7464   0.139   5.520   4.962
 2189SOL     OW 7465   2.129   0.130   1.364
 2189SOL    HW1 7466   2.049   0.147   1.307
 2189SOL    HW2 7467   2.117   0.174   1.453
 2190SOL     OW 7468   0.193   3.320   1.892
 2190SOL    HW1 7469   0.186   3.420   1.896
 2190SOL    HW2 7470   0.110   3.280   1.930
 2191SOL     OW 7471   2.645   1.741   6.525
 2191SOL    HW1 7472   2.635   1.763   6.428
 2191SOL    HW2 7473   2.683   1.820   6.573
 2192SOL     OW 7474   4.900   1.215   2.238
 2192SOL    HW1 7475   4.988   1.233   2.282
 2192SOL    HW2 7476   4.832   1.281   2.270
 2193SOL     OW 7477   5.466   6.530   6.791
 2193SOL    HW1 7478   5.531   6.559   6.720
 2193SOL    HW2 7479   5.464   6.598   6.864
 2194SOL     OW 7480   1.989   4.351   5.939
 2194SOL    HW1 7481   2.068   4.384   5.991
 2194SOL    HW2 7482   1.944   4.428   5.894
 2195SOL     OW 7483   6.832   0.015   5.276
 2195SOL    HW1 7484   6.786   6.983   5.350
 2195SOL    HW2 7485   6.930   7.010   5.278
 2196SOL     OW 7486   4.051   0.613   4.567
 2196SOL    HW1 7487   3.987   0.668   4.621
 2196SOL    HW2 7488   4.142   0.618   4.609
 2197SOL     OW 7489   3.006   3.429   6.774
 2197SOL    HW1 7490   3.071   3.436   6.849
 2197SOL    HW2 7491   2.913   3.437   6.810
 2198SOL     OW 7492   5.391   0.076   1.038
 2198SOL    HW1 7493   5.460   0.134   1.083
 2198SOL    HW2 7494   5.424   0.048   0.948
 2199SOL     OW 7495   5.544   6.496   3.548
 2199SOL    HW1 7496   5.521   6.506   3.645
 2199SOL    HW2 7497   5.472   6.537   3.492
 2200SOL     OW 7498   2.430   2.003   3.955
 2200SOL    HW1 7499   2.514   1.989   4.006
 2200SOL    HW2 7500   2.354   2.018   4.019
 2201SOL     OW 7501   6.463   2.803   3.506
 2201SOL    HW1 7502   6.371   2.828   3.475
 2201SOL    HW2 7503   6.525   2.879   3.491
 2202SOL     OW 7504   3.489   5.603   2.486
 2202SOL    HW1 7505   3.481   5.578   2.389
 2202SOL    HW2 7506   3.537   5.531   2.535
 2203SOL     OW 7507   2.102   3.068   0.687
 2203SOL    HW1 7508   2.196   3.037   0.689
 2203SOL    HW2 7509   2.084   3.116   0.601
 2204SOL     OW 7510   4.828   2.166   1.110
 2204SOL    HW1 7511   4.914   2.160   1.160
 2204SOL    HW2 7512   4.805   2.077   1.071
 2205SOL     OW 7513   0.402   6.417   6.534
 2205SOL    HW1 7514   0.397   6.505   6.582
 2205SOL    HW2 7515   0.366   6.427   6.441
 2206SOL     OW 7516   3.338   5.341   5.788
 2206SOL    HW1 7517   3.408   5.397   5.832
 2206SOL    HW2 7518   3.275   5.400   5.737
 2207SOL     OW 7519   2.898   5.320   6.630
 2207SOL    HW1 7520   2.884   5.337   6.532
 2207SOL    HW2 7521   2.993   5.292   6.646
 2208SOL     OW 7522   1.346   5.318   3.007
 2208SOL    HW1 7523   1.362   5.350   2.914
 2208SOL    HW2 7524   1.337   5.396   3.069
 2209SOL     OW 7525   1.334   0.206   5.603
 2209SOL    HW1 7526   1.305   0.110   5.601
 2209SOL    HW2 7527   1.309   0.250   5.517
 2210SOL     OW 7528   0.244   4.362   4.208
 2210SOL    HW1 7529   0.259   4.449   4.162
 2210SOL    HW2 7530   0.167   4.315   4.165
 2211SOL     OW 7531   6.289   0.507   0.657
 2211SOL    HW1 7532   6.376   0.501   0.608
 2211SOL    HW2 7533   6.253   0.600   0.649
 2212SOL     OW 7534   2.722   5.720   0.744
 2212SOL    HW1 7535   2.625   5.745   0.744
 2212SOL    HW2 7536   2.742   5.666   0.826
 2213SOL     OW 7537   3.195   1.495   5.159
 2213SOL    HW1 7538   3.198   1.396   5.145
 2213SOL    HW2 7539   3.281   1.525   5.201
 2214SOL     OW 7540   3.359   3.972   4.967
 2214SOL    HW1 7541   3.307   3.911   4.908
 2214SOL    HW2 7542   3.298   4.015   5.033
 2215SOL     OW 7543   5.760   1.678   0.049
 2215SOL    HW1 7544   5.743   1.586   0.014
 2215SOL    HW2 7545   5.856   1.686   0.076
 2216SOL     OW 7546   1.221   0.788   6.727
 2216SOL    HW1 7547   1.260   0.877   6.753
 2216SOL    HW2 7548   1.290   0.733   6.680
 2217SOL     OW 7549   4.169   0.052   2.571
 2217SOL    HW1 7550   4.104   0.036   2.496
 2217SOL    HW2 7551   4.184   0.150   2.583
 2218SOL     OW 7552   6.630   5.240   0.207
 2218SOL    HW1 7553   6.676   5.237   0.295
 2218SOL    HW2 7554   6.691   5.280   0.139
 2219SOL     OW 7555   5.479   1.606   0.657
 2219SOL    HW1 7556   5.462   1.645   0.747
 2219SOL    HW2 7557   5.463   1.676   0.587
 2220SOL     OW 7558   2.131   6.464   4.863
 2220SOL    HW1 7559   2.069   6.455   4.941
 2220SOL    HW2 7560   2.209   6.403   4.876
 2221SOL     OW 7561   6.368   1.524   5.363
 2221SOL    HW1 7562   6.399   1.430   5.356
 2221SOL    HW2 7563   6.446   1.583   5.386
 2222SOL     OW 7564   5.427   0.377   0.540
 2222SOL    HW1 7565   5.359   0.444   0.512
 2222SOL    HW2 7566   5.461   0.400   0.632
 2223SOL     OW 7567   5.825   1.408   5.301
 2223SOL    HW1 7568   5.839   1.344   5.226
 2223SOL    HW2 7569   5.736   1.390   5.344
 2224SOL     OW 7570   6.982   3.305   0.756
 2224SOL    HW1 7571   0.005   3.262   0.837
 2224SOL    HW2 7572   6.916   3.243   0.713
 2225SOL     OW 7573   6.345   6.927   3.719
 2225SOL    HW1 7574   6.269   6.924   3.784
 2225SOL    HW2 7575   6.424   6.880   3.758
 2226SOL     OW 7576   4.078   5.404   0.630
 2226SOL    HW1 7577   4.041   5.488   0.670
 2226SOL    HW2 7578   4.051   5.326   0.687
 2227SOL     OW 7579   5.330   3.063   0.045
 2227SOL    HW1 7580   5.291   3.154   0.033
 2227SOL    HW2 7581   5.382   3.037   6.980
 2228SOL     OW 7582   4.071   5.358   1.130
 2228SOL    HW1 7583   4.170   5.368   1.121
 2228SOL    HW2 7584   4.038   5.417   1.203
 2229SOL     OW 7585   4.459   2.467   5.487
 2229SOL    HW1 7586   4.547   2.500   5.453
 2229SOL    HW2 7587   4.454   2.479   5.586
 2230SOL     OW 7588   5.913   6.289   0.422
 2230SOL    HW1 7589   6.005   6.250   0.414
 2230SOL    HW2 7590   5.919   6.383   0.455
 2231SOL     OW 7591   0.307   0.923   1.533
 2231SOL    HW1 7592   0.297   0.886   1.441
 2231SOL    HW2 7593   0.220   0.962   1.563
 2232SOL     OW 7594   1.051   2.287   4.753
 2232SOL    HW1 7595   1.019   2.198   4.786
 2232SOL    HW2 7596   0.998   2.313   4.673
 2233SOL     OW 7597   2.203   2.873   0.409
 2233SOL    HW1 7598   2.240   2.892   0.318
 2233SOL    HW2 7599   2.111   2.913   0.416
 2234SOL     OW 7600   4.418   1.597   1.460
 2234SOL    HW1 7601   4.498   1.540   1.440
 2234SOL    HW2 7602   4.448   1.689   1.484
 2235SOL     OW 7603   2.946   0.469   1.354
 2235SOL    HW1 7604   2.947   0.378   1.396
 2235SOL    HW2 7605   3.017   0.526   1.396
 2236SOL     OW 7606   2.472   4.162   6.863
 2236SOL    HW1 7607   2.421   4.076   6.850
 2236SOL    HW2 7608   2.505   4.195   6.775
 2237SOL     OW 7609   6.124   4.677   3.645
 2237SOL    HW1 7610   6.053   4.607   3.634
 2237SOL    HW2 7611   6.081   4.766   3.658
 2238SOL     OW 7612   4.557   4.743   2.055
 2238SOL    HW1 7613   4.463   4.776   2.043
 2238SOL    HW2 7614   4.567   4.655   2.009
 2239SOL     OW 7615   3.651   4.930   4.024
 2239SOL    HW1 7616   3.633   5.024   3.996
 2239SOL    HW2 7617   3.604   4.912   4.110
 2240SOL     OW 7618   3.569   5.783   3.491
 2240SOL    HW1 7619   3.627   5.860   3.516
 2240SOL    HW2 7620   3.546   5.731   3.573
 2241SOL     OW 7621   0.708   5.680   3.614
 2241SOL    HW1 7622   0.801   5.712   3.632
 2241SOL    HW2 7623   0.697   5.663   3.516
 2242SOL     OW 7624   5.954   3.218   2.553
 2242SOL    HW1 7625   5.930   3.195   2.647
 2242SOL    HW2 7626   5.887   3.283   2.517
 2243SOL     OW 7627   1.435   6.384   5.998
 2243SOL    HW1 7628   1.354   6.437   6.020
 2243SOL    HW2 7629   1.436   6.300   6.053
 2244SOL     OW 7630   1.938   6.379   1.560
 2244SOL    HW1 7631   1.941   6.389   1.659
 2244SOL    HW2 7632   2.009   6.435   1.518
 2245SOL     OW 7633   0.475   1.989   1.089
 2245SOL    HW1 7634   0.388   1.988   1.138
 2245SOL    HW2 7635   0.506   1.895   1.074
 2246SOL     OW 7636   1.656   0.848   4.403
 2246SOL    HW1 7637   1.738   0.883   4.357
 2246SOL    HW2 7638   1.600   0.798   4.337
 2247SOL     OW 7639   3.405   2.915   3.644
 2247SOL    HW1 7640   3.447   2.874   3.564
 2247SOL    HW2 7641   3.402   2.847   3.718
 2248SOL     OW 7642   6.572   3.653   5.395
 2248SOL    HW1 7643   6.599   3.571   5.345
 2248SOL    HW2 7644   6.594   3.642   5.492
 2249SOL     OW 7645   5.626   6.611   3.949
 2249SOL    HW1 7646   5.594   6.627   3.856
 2249SOL    HW2 7647   5.713   6.658   3.962
 2250SOL     OW 7648   3.515   3.631   5.255
 2250SOL    HW1 7649   3.466   3.705   5.303
 2250SOL    HW2 7650   3.525   3.656   5.159
 2251SOL     OW 7651   5.060   0.469   6.474
 2251SOL    HW1 7652   5.085   0.547   6.416
 2251SOL    HW2 7653   5.107   0.387   6.442
 2252SOL     OW 7654   4.884   2.377   2.379
 2252SOL    HW1 7655   4.875   2.456   2.319
 2252SOL    HW2 7656   4.923   2.405   2.467
 2253SOL     OW 7657   0.170   3.873   6.831
 2253SOL    HW1 7658   0.231   3.837   6.761
 2253SOL    HW2 7659   0.142   3.799   6.893
 2254SOL     OW 7660   3.482   3.048   5.130
 2254SOL    HW1 7661   3.452   3.127   5.077
 2254SOL    HW2 7662   3.566   3.011   5.090
 2255SOL     OW 7663   3.939   3.260   6.163
 2255SOL    HW1 7664   3.857   3.300   6.122
 2255SOL    HW2 7665   3.975   3.322   6.233
 2256SOL     OW 7666   4.709   6.072   2.238
 2256SOL    HW1 7667   4.667   6.154   2.277
 2256SOL    HW2 7668   4.638   6.004   2.217
 2257SOL     OW 7669   0.249   2.557   4.318
 2257SOL    HW1 7670   0.333   2.513   4.351
 2257SOL    HW2 7671   0.236   2.644   4.365
 2258SOL     OW 7672   1.518   5.334   4.536
 2258SOL    HW1 7673   1.428   5.349   4.494
 2258SOL    HW2 7674   1.571   5.419   4.531
 2259SOL     OW 7675   5.256   3.458   6.228
 2259SOL    HW1 7676   5.346   3.414   6.231
 2259SOL    HW2 7677   5.263   3.551   6.264
 2260SOL     OW 7678   0.402   4.352   1.370
 2260SOL    HW1 7679   0.469   4.309   1.431
 2260SOL    HW2 7680   0.354   4.282   1.318
 2261SOL     OW 7681   5.989   5.057   0.183
 2261SOL    HW1 7682   5.948   4.973   0.148
 2261SOL    HW2 7683   5.984   5.057   0.283
 2262SOL     OW 7684   5.696   0.807   3.731
 2262SOL    HW1 7685   5.787   0.825   3.769
 2262SOL    HW2 7686   5.705   0.767   3.640
 2263SOL     OW 7687   3.145   5.957   6.415
 2263SOL    HW1 7688   3.104   6.038   6.457
 2263SOL    HW2 7689   3.245   5.966   6.414
 2264SOL     OW 7690   2.776   5.176   0.232
 2264SOL    HW1 7691   2.762   5.273   0.213
 2264SOL    HW2 7692   2.836   5.166   0.312
 2265SOL     OW 7693   1.521   0.628   4.303
 2265SOL    HW1 7694   1.470   0.642   4.388
 2265SOL    HW2 7695   1.482   0.552   4.253
 2266SOL     OW 7696   5.107   1.892   0.154
 2266SOL    HW1 7697   5.129   1.919   0.247
 2266SOL    HW2 7698   5.011   1.913   0.134
 2267SOL     OW 7699   4.986   2.226   4.888
 2267SOL    HW1 7700   4.976   2.154   4.819
 2267SOL    HW2 7701   4.899   2.272   4.901
 2268SOL     OW 7702   6.338   4.196   0.156
 2268SOL    HW1 7703   6.349   4.295   0.159
 2268SOL    HW2 7704   6.412   4.155   0.102
 2269SOL     OW 7705   6.653   4.697   5.540
 2269SOL    HW1 7706   6.714   4.777   5.540
 2269SOL    HW2 7707   6.558   4.727   5.530
 2270SOL     OW 7708   3.150   3.054   5.950
 2270SOL    HW1 7709   3.190   3.016   6.034
 2270SOL    HW2 7710   3.082   3.122   5.974
 2271SOL     OW 7711   5.237   4.011   0.297
 2271SOL    HW1 7712   5.155   3.968   0.334
 2271SOL    HW2 7713   5.286   4.058   0.371
 2272SOL     OW 7714   6.574   2.824   6.486
 2272SOL    HW1 7715   6.638   2.756   6.451
 2272SOL    HW2 7716   6.488   2.779   6.512
 2273SOL     OW 7717   1.785   2.107   2.146
 2273SOL    HW1 7718   1.834   2.125   2.232
 2273SOL    HW2 7719   1.758   2.011   2.143
 2274SOL     OW 7720   0.497   2.531   6.058
 2274SOL    HW1 7721   0.502   2.442   6.012
 2274SOL    HW2 7722   0.565   2.534   6.131
 2275SOL     OW 7723   6.645   6.828   4.122
 2275SOL    HW1 7724   6.546   6.840   4.121
 2275SOL    HW2 7725   6.672   6.771   4.200
 2276SOL     OW 7726   2.075   5.637   1.171
 2276SOL    HW1 7727   2.006   5.710   1.171
 2276SOL    HW2 7728   2.093   5.608   1.265
 2277SOL     OW 7729   3.764   3.420   4.229
 2277SOL    HW1 7730   3.738   3.358   4.303
 2277SOL    HW2 7731   3.750   3.375   4.141
 2278SOL     OW 7732   6.338   4.421   4.376
 2278SOL    HW1 7733   6.304   4.515   4.366
 2278SOL    HW2 7734   6.294   4.362   4.308
 2279SOL     OW 7735   5.868   6.675   5.580
 2279SOL    HW1 7736   5.898   6.580   5.566
 2279SOL    HW2 7737   5.770   6.682   5.565
 2280SOL     OW 7738   6.881   6.884   4.516
 2280SOL    HW1 7739   6.942   6.951   4.474
 2280SOL    HW2 7740   6.877   6.802   4.459
 2281SOL     OW 7741   3.435   1.592   2.099
 2281SOL    HW1 7742   3.358   1.597   2.035
 2281SOL    HW2 7743   3.401   1.591   2.193
 2282SOL     OW 7744   5.609   0.545   5.279
 2282SOL    HW1 7745   5.662   0.483   5.222
 2282SOL    HW2 7746   5.571   0.619   5.223
 2283SOL     OW 7747   0.755   4.810   1.271
 2283SOL    HW1 7748   0.809   4.861   1.203
 2283SOL    HW2 7749   0.722   4.873   1.341
 2284SOL     OW 7750   1.083   2.851   6.766
 2284SOL    HW1 7751   1.019   2.790   6.812
 2284SOL    HW2 7752   1.093   2.935   6.820
 2285SOL     OW 7753   2.217   2.270   1.158
 2285SOL    HW1 7754   2.229   2.204   1.232
 2285SOL    HW2 7755   2.304   2.319   1.143
 2286SOL     OW 7756   6.563   0.255   3.641
 2286SOL    HW1 7757   6.581   0.160   3.615
 2286SOL    HW2 7758   6.465   0.274   3.634
 2287SOL     OW 7759   1.982   0.219   2.876
 2287SOL    HW1 7760   2.010   0.137   2.827
 2287SOL    HW2 7761   1.958   0.195   2.970
 2288SOL     OW 7762   6.245   4.710   4.421
 2288SOL    HW1 7763   6.330   4.757   4.447
 2288SOL    HW2 7764   6.214   4.745   4.332
 2289SOL     OW 7765   0.924   4.712   1.442
 2289SOL    HW1 7766   0.866   4.734   1.364
 2289SOL    HW2 7767   0.905   4.619   1.473
 2290SOL     OW 7768   0.633   4.286   0.431
 2290SOL    HW1 7769   0.685   4.343   0.495
 2290SOL    HW2 7770   0.644   4.190   0.455
 2291SOL     OW 7771   2.918   2.553   5.955
 2291SOL    HW1 7772   2.880   2.471   5.914
 2291SOL    HW2 7773   2.984   2.594   5.892
 2292SOL     OW 7774   0.072   2.498   4.557
 2292SOL    HW1 7775   0.041   2.566   4.491
 2292SOL    HW2 7776   0.027   2.514   4.645
 2293SOL     OW 7777   4.459   6.307   1.604
 2293SOL    HW1 7778   4.497   6.312   1.696
 2293SOL    HW2 7779   4.379   6.366   1.597
 2294SOL     OW 7780   3.348   0.320   6.803
 2294SOL    HW1 7781   3.293   0.289   6.881
 2294SOL    HW2 7782   3.339   0.419   6.793
 2295SOL     OW 7783   0.726   2.233   2.703
 2295SOL    HW1 7784   0.735   2.133   2.706
 2295SOL    HW2 7785   0.654   2.258   2.639
 2296SOL     OW 7786   4.509   5.178   0.968
 2296SOL    HW1 7787   4.473   5.089   0.940
 2296SOL    HW2 7788   4.597   5.166   1.014
 2297SOL     OW 7789   4.164   4.115   5.299
 2297SOL    HW1 7790   4.089   4.107   5.232
 2297SOL    HW2 7791   4.173   4.211   5.327
 2298SOL     OW 7792   3.972   3.134   1.598
 2298SOL    HW1 7793   3.977   3.232   1.620
 2298SOL    HW2 7794   4.052   3.108   1.544
 2299SOL     OW 7795   4.462   6.019   5.244
 2299SOL    HW1 7796   4.534   6.025   5.176
 2299SOL    HW2 7797   4.439   6.111   5.276
 2300SOL     OW 7798   2.514   5.703   2.200
 2300SOL    HW1 7799   2.477   5.612   2.217
 2300SOL    HW2 7800   2.583   5.698   2.128
 2301SOL     OW 7801   3.352   2.976   2.960
 2301SOL    HW1 7802   3.385   2.907   2.894
 2301SOL    HW2 7803   3.281   3.031   2.917
 2302SOL     OW 7804   3.655   6.978   1.123
 2302SOL    HW1 7805   3.734   6.970   1.062
 2302SOL    HW2 7806   3.633   0.058   1.137
 2303SOL     OW 7807   2.509   3.052   6.278
 2303SOL    HW1 7808   2.520   3.015   6.370
 2303SOL    HW2 7809   2.566   2.999   6.214
 2304SOL     OW 7810   4.830   0.006   3.801
 2304SOL    HW1 7811   4.737   0.023   3.768
 2304SOL    HW2 7812   4.877   0.093   3.816
 2305SOL     OW 7813   2.121   6.575   3.143
 2305SOL    HW1 7814   2.137   6.565   3.241
 2305SOL    HW2 7815   2.023   6.583   3.125
 2306SOL     OW 7816   3.153   5.491   2.426
 2306SOL    HW1 7817   3.224   5.421   2.429
 2306SOL    HW2 7818   3.173   5.554   2.351
 2307SOL     OW 7819   6.776   3.948   2.323
 2307SOL    HW1 7820   6.741   3.880   2.388
 2307SOL    HW2 7821   6.737   4.038   2.343
 2308SOL     OW 7822   0.921   5.991   0.722
 2308SOL    HW1 7823   0.918   5.891   0.727
 2308SOL    HW2 7824   0.986   6.026   0.789
 2309SOL     OW 7825   1.393   0.304   6.436
 2309SOL    HW1 7826   1.458   0.304   6.360
 2309SOL    HW2 7827   1.304   0.335   6.404
 2310SOL     OW 7828   4.892   6.395   1.447
 2310SOL    HW1 7829   4.844   6.483   1.446
 2310SOL    HW2 7830   4.871   6.345   1.363
 2311SOL     OW 7831   2.100   5.567   1.702
 2311SOL    HW1 7832   2.166   5.532   1.770
 2311SOL    HW2 7833   2.011   5.526   1.718
 2312SOL     OW 7834   3.525   6.887   4.187
 2312SOL    HW1 7835   3.549   6.958   4.253
 2312SOL    HW2 7836   3.491   6.929   4.103
 2313SOL     OW 7837   5.227   5.517   1.638
 2313SOL    HW1 7838   5.244   5.482   1.730
 2313SOL    HW2 7839   5.251   5.613   1.633
 2314SOL     OW 7840   5.883   6.922   5.006
 2314SOL    HW1 7841   5.850   6.828   4.999
 2314SOL    HW2 7842   5.958   6.926   5.072
 2315SOL     OW 7843   4.737   3.255   5.358
 2315SOL    HW1 7844   4.771   3.175   5.309
 2315SOL    HW2 7845   4.732   3.236   5.456
 2316SOL     OW 7846   3.223   0.719   4.533
 2316SOL    HW1 7847   3.266   0.808   4.542
 2316SOL    HW2 7848   3.182   0.710   4.442
 2317SOL     OW 7849   0.503   6.294   3.740
 2317SOL    HW1 7850   0.410   6.312   3.709
 2317SOL    HW2 7851   0.520   6.195   3.739
 2318SOL     OW 7852   1.941   2.894   4.735
 2318SOL    HW1 7853   1.930   2.931   4.643
 2318SOL    HW2 7854   1.960   2.968   4.799
 2319SOL     OW 7855   2.100   4.941   4.257
 2319SOL    HW1 7856   2.179   4.983   4.213
 2319SOL    HW2 7857   2.106   4.842   4.250
 2320SOL     OW 7858   0.541   2.861   4.830
 2320SOL    HW1 7859   0.516   2.955   4.805
 2320SOL    HW2 7860   0.618   2.863   4.893
 2321SOL     OW 7861   2.192   6.558   6.974
 2321SOL    HW1 7862   2.137   6.639   6.954
 2321SOL    HW2 7863   2.284   6.586   7.002
 2322SOL     OW 7864   1.865   2.552   4.076
 2322SOL    HW1 7865   1.837   2.648   4.069
 2322SOL    HW2 7866   1.835   2.515   4.164
 2323SOL     OW 7867   3.208   5.058   1.908
 2323SOL    HW1 7868   3.301   5.045   1.941
 2323SOL    HW2 7869   3.151   4.981   1.937
 2324SOL     OW 7870   6.670   6.623   1.046
 2324SOL    HW1 7871   6.572   6.606   1.045
 2324SOL    HW2 7872   6.693   6.685   1.121
 2325SOL     OW 7873   0.835   4.276   1.192
 2325SOL    HW1 7874   0.784   4.214   1.132
 2325SOL    HW2 7875   0.795   4.367   1.187
 2326SOL     OW 7876   3.764   5.236   6.198
 2326SOL    HW1 7877   3.771   5.150   6.250
 2326SOL    HW2 7878   3.670   5.270   6.204
 2327SOL     OW 7879   6.766   2.191   3.643
 2327SOL    HW1 7880   6.681   2.236   3.615
 2327SOL    HW2 7881   6.775   2.104   3.595
 2328SOL     OW 7882   2.256   1.843   2.826
 2328SOL    HW1 7883   2.345   1.840   2.871
 2328SOL    HW2 7884   2.264   1.895   2.741
 2329SOL     OW 7885   1.837   4.718   4.474
 2329SOL    HW1 7886   1.790   4.634   4.501
 2329SOL    HW2 7887   1.863   4.713   4.378
 2330SOL     OW 7888   1.267   3.758   1.062
 2330SOL    HW1 7889   1.217   3.835   1.024
 2330SOL    HW2 7890   1.303   3.783   1.152
 2331SOL     OW 7891   4.078   5.423   6.728
 2331SOL    HW1 7892   4.148   5.480   6.684
 2331SOL    HW2 7893   4.121   5.371   6.802
 2332SOL     OW 7894   5.134   1.711   5.272
 2332SOL    HW1 7895   5.110   1.795   5.321
 2332SOL    HW2 7896   5.137   1.730   5.174
 2333SOL     OW 7897   0.583   4.867   2.773
 2333SOL    HW1 7898   0.505   4.914   2.733
 2333SOL    HW2 7899   0.579   4.770   2.751
 2334SOL     OW 7900   2.215   0.576   0.576
 2334SOL    HW1 7901   2.195   0.617   0.488
 2334SOL    HW2 7902   2.151   0.611   0.645
 2335SOL     OW 7903   6.836   0.644   2.284
 2335SOL    HW1 7904   6.777   0.614   2.209
 2335SOL    HW2 7905   6.817   0.740   2.305
 2336SOL     OW 7906   4.740   2.399   4.890
 2336SOL    HW1 7907   4.647   2.421   4.860
 2336SOL    HW2 7908   4.767   2.461   4.963
 2337SOL     OW 7909   4.578   1.368   2.003
 2337SOL    HW1 7910   4.591   1.428   1.923
 2337SOL    HW2 7911   4.485   1.332   2.002
 2338SOL     OW 7912   1.448   2.101   5.311
 2338SOL    HW1 7913   1.380   2.149   5.255
 2338SOL    HW2 7914   1.540   2.120   5.276
 2339SOL     OW 7915   3.576   3.695   4.696
 2339SOL    HW1 7916   3.552   3.601   4.671
 2339SOL    HW2 7917   3.555   3.710   4.792
 2340SOL     OW 7918   5.940   4.523   0.496
 2340SOL    HW1 7919   5.968   4.535   0.401
 2340SOL    HW2 7920   5.951   4.427   0.521
 2341SOL     OW 7921   4.447   4.989   1.294
 2341SOL    HW1 7922   4.364   4.975   1.240
 2341SOL    HW2 7923   4.424   5.037   1.378
 2342SOL     OW 7924   6.933   6.713   5.453
 2342SOL    HW1 7925   6.970   6.629   5.494
 2342SOL    HW2 7926   6.833   6.713   5.461
 2343SOL     OW 7927   2.524   5.591   2.624
 2343SOL    HW1 7928   2.434   5.564   2.590
 2343SOL    HW2 7929   2.514   5.669   2.686
 2344SOL     OW 7930   1.564   6.697   0.186
 2344SOL    HW1 7931   1.570   6.735   0.094
 2344SOL    HW2 7932   1.637   6.629   0.199
 2345SOL     OW 7933   3.017   5.397   4.642
 2345SOL    HW1 7934   2.956   5.326   4.678
 2345SOL    HW2 7935   3.054   5.367   4.554
 2346SOL     OW 7936   4.639   2.829   5.210
 2346SOL    HW1 7937   4.718   2.789   5.256
 2346SOL    HW2 7938   4.654   2.827   5.111
 2347SOL     OW 7939   2.683   3.402   1.791
 2347SOL    HW1 7940   2.700   3.428   1.696
 2347SOL    HW2 7941   2.584   3.405   1.809
 2348SOL     OW 7942   3.074   6.657   3.679
 2348SOL    HW1 7943   3.065   6.557   3.672
 2348SOL    HW2 7944   3.138   6.679   3.752
 2349SOL     OW 7945   0.878   4.304   6.202
 2349SOL    HW1 7946   0.911   4.310   6.108
 2349SOL    HW2 7947   0.955   4.318   6.265
 2350SOL     OW 7948   4.644   6.210   6.475
 2350SOL    HW1 7949   4.553   6.208   6.518
 2350SOL    HW2 7950   4.642   6.272   6.396
 2351SOL     OW 7951   3.077   4.924   3.421
 2351SOL    HW1 7952   3.105   4.896   3.513
 2351SOL    HW2 7953   3.157   4.941   3.365
 2352SOL     OW 7954   0.715   5.027   1.781
 2352SOL    HW1 7955   0.644   5.093   1.806
 2352SOL    HW2 7956   0.799   5.046   1.832
 2353SOL     OW 7957   3.324   4.426   5.513
 2353SOL    HW1 7958   3.319   4.339   5.463
 2353SOL    HW2 7959   3.277   4.497   5.461
 2354SOL     OW 7960   2.631   1.595   5.788
 2354SOL    HW1 7961   2.588   1.535   5.721
 2354SOL    HW2 7962   2.576   1.677   5.800
 2355SOL     OW 7963   2.055   5.800   0.489
 2355SOL    HW1 7964   2.094   5.735   0.424
 2355SOL    HW2 7965   1.957   5.780   0.500
 2356SOL     OW 7966   1.519   3.893   6.985
 2356SOL    HW1 7967   1.498   3.831   6.909
 2356SOL    HW2 7968   1.436   3.940   7.014
 2357SOL     OW 7969   4.532   6.285   3.712
 2357SOL    HW1 7970   4.529   6.193   3.749
 2357SOL    HW2 7971   4.510   6.283   3.615
 2358SOL     OW 7972   4.044   5.120   5.446
 2358SOL    HW1 7973   4.095   5.143   5.363
 2358SOL    HW2 7974   3.946   5.135   5.430
 2359SOL     OW 7975   0.327   0.857   6.130
 2359SOL    HW1 7976   0.378   0.801   6.195
 2359SOL    HW2 7977   0.259   0.911   6.179
 2360SOL     OW 7978   5.795   4.921   6.611
 2360SOL    HW1 7979   5.850   4.846   6.573
 2360SOL    HW2 7980   5.789   4.994   6.543
 2361SOL     OW 7981   2.603   0.517   4.853
 2361SOL    HW1 7982   2.507   0.531   4.879
 2361SOL    HW2 7983   2.612   0.430   4.804
 2362SOL     OW 7984   2.516   0.588   5.416
 2362SOL    HW1 7985   2.587   0.537   5.369
 2362SOL    HW2 7986   2.487   0.539   5.498
 2363SOL     OW 7987   4.177   2.363   5.483
 2363SOL    HW1 7988   4.112   2.418   5.430
 2363SOL    HW2 7989   4.163   2.380   5.581
 2364SOL     OW 7990   0.790   1.954   2.686
 2364SOL    HW1 7991   0.875   1.917   2.723
 2364SOL    HW2 7992   0.793   1.951   2.586
 2365SOL     OW 7993   6.221   3.175   6.546
 2365SOL    HW1 7994   6.153   3.220   6.488
 2365SOL    HW2 7995   6.256   3.240   6.613
 2366SOL     OW 7996   1.684   5.007   6.389
 2366SOL    HW1 7997   1.585   5.008   6.373
 2366SOL    HW2 7998   1.717   5.101   6.400
 2367SOL     OW 7999   3.229   4.534   1.003
 2367SOL    HW1 8000   3.148   4.521   1.060
 2367SOL    HW2 8001   3.244   4.632   0.988
 2368SOL     OW 8002   4.512   0.116   2.731
 2368SOL    HW1 8003   4.492   0.105   2.829
 2368SOL    HW2 8004   4.609   0.137   2.719
 2369SOL     OW 8005   1.023   2.945   5.978
 2369SOL    HW1 8006   1.026   2.866   6.038
 2369SOL    HW2 8007   1.004   2.916   5.884
 2370SOL     OW 8008   4.713   3.958   6.664
 2370SOL    HW1 8009   4.723   3.870   6.617
 2370SOL    HW2 8010   4.626   4.000   6.640
 2371SOL     OW 8011   0.684   6.576   2.049
 2371SOL    HW1 8012   0.759   6.594   2.113
 2371SOL    HW2 8013   0.644   6.662   2.019
 2372SOL     OW 8014   6.614   2.566   1.374
 2372SOL    HW1 8015   6.704   2.583   1.335
 2372SOL    HW2 8016   6.561   2.651   1.374
 2373SOL     OW 8017   0.351   1.245   0.040
 2373SOL    HW1 8018   0.432   1.223   0.095
 2373SOL    HW2 8019   0.272   1.258   0.100
 2374SOL     OW 8020   6.255   1.031   3.561
 2374SOL    HW1 8021   6.241   1.126   3.592
 2374SOL    HW2 8022   6.351   1.018   3.536
 2375SOL     OW 8023   2.378   6.980   4.317
 2375SOL    HW1 8024   2.354   6.900   4.371
 2375SOL    HW2 8025   2.477   6.988   4.312
 2376SOL     OW 8026   6.563   2.391   4.633
 2376SOL    HW1 8027   6.471   2.358   4.611
 2376SOL    HW2 8028   6.575   2.483   4.595
 2377SOL     OW 8029   3.408   4.091   3.024
 2377SOL    HW1 8030   3.336   4.133   3.078
 2377SOL    HW2 8031   3.381   4.090   2.928
 2378SOL     OW 8032   4.820   3.196   0.430
 2378SOL    HW1 8033   4.745   3.183   0.365
 2378SOL    HW2 8034   4.816   3.123   0.499
 2379SOL     OW 8035   5.827   2.686   6.567
 2379SOL    HW1 8036   5.890   2.612   6.591
 2379SOL    HW2 8037   5.745   2.680   6.625
 2380SOL     OW 8038   0.296   6.981   5.598
 2380SOL    HW1 8039   0.377   6.964   5.541
 2380SOL    HW2 8040   0.299   6.923   5.679
 2381SOL     OW 8041   1.896   3.659   4.479
 2381SOL    HW1 8042   1.806   3.650   4.523
 2381SOL    HW2 8043   1.917   3.575   4.429
 2382SOL     OW 8044   2.320   4.343   3.859
 2382SOL    HW1 8045   2.375   4.411   3.811
 2382SOL    HW2 8046   2.335   4.253   3.819
 2383SOL     OW 8047   5.983   6.453   0.978
 2383SOL    HW1 8048   5.984   6.353   0.985
 2383SOL    HW2 8049   5.989   6.479   0.882
 2384SOL     OW 8050   6.574   6.727   1.866
 2384SOL    HW1 8051   6.524   6.673   1.933
 2384SOL    HW2 8052   6.519   6.806   1.840
 2385SOL     OW 8053   0.179   6.353   1.088
 2385SOL    HW1 8054   0.224   6.313   1.009
 2385SOL    HW2 8055   0.239   6.347   1.168
 2386SOL     OW 8056   5.183   5.171   4.331
 2386SOL    HW1 8057   5.152   5.084   4.369
 2386SOL    HW2 8058   5.280   5.183   4.352
 2387SOL     OW 8059   0.856   1.464   3.942
 2387SOL    HW1 8060   0.840   1.503   3.851
 2387SOL    HW2 8061   0.914   1.383   3.934
 2388SOL     OW 8062   1.916   1.932   3.448
 2388SOL    HW1 8063   1.833   1.902   3.495
 2388SOL    HW2 8064   1.929   2.030   3.463
 2389SOL     OW 8065   5.238   3.719   3.058
 2389SOL    HW1 8066   5.149   3.719   3.011
 2389SOL    HW2 8067   5.304   3.771   3.004
 2390SOL     OW 8068   3.618   3.517   3.221
 2390SOL    HW1 8069   3.568   3.597   3.256
 2390SOL    HW2 8070   3.714   3.524   3.248
 2391SOL     OW 8071   5.143   5.021   5.769
 2391SOL    HW1 8072   5.154   4.922   5.762
 2391SOL    HW2 8073   5.167   5.064   5.682
 2392SOL     OW 8074   3.437   0.224   5.199
 2392SOL    HW1 8075   3.366   0.214   5.269
 2392SOL    HW2 8076   3.523   0.186   5.234
 2393SOL     OW 8077   4.555   4.406   6.043
 2393SOL    HW1 8078   4.550   4.387   6.141
 2393SOL    HW2 8079   4.567   4.320   5.993
 2394SOL     OW 8080   2.103   3.529   4.613
 2394SOL    HW1 8081   2.038   3.576   4.554
 2394SOL    HW2 8082   2.143   3.594   4.677
 2395SOL     OW 8083   6.346   2.696   6.535
 2395SOL    HW1 8084   6.292   2.728   6.458
 2395SOL    HW2 8085   6.325   2.600   6.554
 2396SOL     OW 8086   3.905   5.538   1.613
 2396SOL    HW1 8087   3.891   5.628   1.572
 2396SOL    HW2 8088   3.817   5.490   1.619
 2397SOL     OW 8089   0.256   4.086   6.976
 2397SOL    HW1 8090   0.230   4.014   6.912
 2397SOL    HW2 8091   0.353   4.107   6.966
 2398SOL     OW 8092   3.327   3.779   6.794
 2398SOL    HW1 8093   3.233   3.755   6.768
 2398SOL    HW2 8094   3.355   3.861   6.743
 2399SOL     OW 8095   4.681   1.374   2.277
 2399SOL    HW1 8096   4.657   1.460   2.321
 2399SOL    HW2 8097   4.623   1.361   2.197
 2400SOL     OW 8098   3.747   5.199   0.406
 2400SOL    HW1 8099   3.778   5.279   0.355
 2400SOL    HW2 8100   3.662   5.166   0.367
 2401SOL     OW 8101   4.233   6.775   6.470
 2401SOL    HW1 8102   4.270   6.697   6.519
 2401SOL    HW2 8103   4.135   6.762   6.453
 2402SOL     OW 8104   0.735   0.874   4.060
 2402SOL    HW1 8105   0.752   0.929   3.979
 2402SOL    HW2 8106   0.641   0.838   4.057
 2403SOL     OW 8107   2.505   2.270   0.950
 2403SOL    HW1 8108   2.590   2.223   0.976
 2403SOL    HW2 8109   2.488   2.345   1.013
 2404SOL     OW 8110   5.279   0.671   1.294
 2404SOL    HW1 8111   5.355   0.708   1.241
 2404SOL    HW2 8112   5.285   0.704   1.388
 2405SOL     OW 8113   3.591   3.511   2.947
 2405SOL    HW1 8114   3.667   3.455   2.913
 2405SOL    HW2 8115   3.593   3.511   3.047
 2406SOL     OW 8116   2.564   0.311   2.919
 2406SOL    HW1 8117   2.606   0.400   2.938
 2406SOL    HW2 8118   2.551   0.301   2.820
 2407SOL     OW 8119   5.461   2.793   2.889
 2407SOL    HW1 8120   5.528   2.720   2.880
 2407SOL    HW2 8121   5.388   2.780   2.821
 2408SOL     OW 8122   4.228   4.819   3.683
 2408SOL    HW1 8123   4.182   4.792   3.768
 2408SOL    HW2 8124   4.240   4.739   3.625
 2409SOL     OW 8125   1.306   3.408   1.795
 2409SOL    HW1 8126   1.295   3.470   1.873
 2409SOL    HW2 8127   1.299   3.460   1.710
 2410SOL     OW 8128   4.709   2.559   6.444
 2410SOL    HW1 8129   4.677   2.631   6.383
 2410SOL    HW2 8130   4.760   2.599   6.520
 2411SOL     OW 8131   4.447   5.283   5.636
 2411SOL    HW1 8132   4.414   5.296   5.543
 2411SOL    HW2 8133   4.494   5.195   5.643
 2412SOL     OW 8134   4.243   4.967   1.100
 2412SOL    HW1 8135   4.193   4.882   1.083
 2412SOL    HW2 8136   4.193   5.044   1.061
 2413SOL     OW 8137   6.444   1.998   0.321
 2413SOL    HW1 8138   6.435   2.075   0.385
 2413SOL    HW2 8139   6.449   2.034   0.227
 2414SOL     OW 8140   5.160   3.872   2.163
 2414SOL    HW1 8141   5.105   3.815   2.224
 2414SOL    HW2 8142   5.139   3.850   2.068
 2415SOL     OW 8143   0.552   0.107   2.215
 2415SOL    HW1 8144   0.526   0.010   2.220
 2415SOL    HW2 8145   0.514   0.147   2.132
 2416SOL     OW 8146   3.403   1.988   4.747
 2416SOL    HW1 8147   3.447   2.011   4.834
 2416SOL    HW2 8148   3.317   2.038   4.739
 2417SOL     OW 8149   4.180   3.413   5.519
 2417SOL    HW1 8150   4.251   3.481   5.535
 2417SOL    HW2 8151   4.109   3.452   5.460
 2418SOL     OW 8152   3.518   4.100   4.082
 2418SOL    HW1 8153   3.432   4.128   4.039
 2418SOL    HW2 8154   3.572   4.047   4.016
 2419SOL     OW 8155   1.051   5.914   4.368
 2419SOL    HW1 8156   1.149   5.903   4.383
 2419SOL    HW2 8157   1.023   6.007   4.394
 2420SOL     OW 8158   3.574   1.938   1.353
 2420SOL    HW1 8159   3.509   2.014   1.355
 2420SOL    HW2 8160   3.592   1.907   1.446
 2421SOL     OW 8161   2.464   1.574   5.248
 2421SOL    HW1 8162   2.527   1.495   5.250
 2421SOL    HW2 8163   2.509   1.653   5.289
 2422SOL     OW 8164   5.934   6.866   1.554
 2422SOL    HW1 8165   5.888   6.777   1.548
 2422SOL    HW2 8166   5.977   6.887   1.467
 2423SOL     OW 8167   1.398   6.231   3.702
 2423SOL    HW1 8168   1.496   6.226   3.720
 2423SOL    HW2 8169   1.383   6.255   3.606
 2424SOL     OW 8170   6.211   6.347   6.123
 2424SOL    HW1 8171   6.173   6.388   6.207
 2424SOL    HW2 8172   6.242   6.420   6.063
 2425SOL     OW 8173   6.631   0.256   3.910
 2425SOL    HW1 8174   6.589   0.245   3.820
 2425SOL    HW2 8175   6.687   0.176   3.930
 2426SOL     OW 8176   1.189   5.425   4.703
 2426SOL    HW1 8177   1.128   5.496   4.669
 2426SOL    HW2 8178   1.257   5.403   4.634
 2427SOL     OW 8179   5.241   5.531   6.480
 2427SOL    HW1 8180   5.328   5.580   6.491
 2427SOL    HW2 8181   5.217   5.526   6.383
 2428SOL     OW 8182   6.144   0.619   3.456
 2428SOL    HW1 8183   6.222   0.565   3.424
 2428SOL    HW2 8184   6.158   0.644   3.552
 2429SOL     OW 8185   6.374   5.399   4.333
 2429SOL    HW1 8186   6.297   5.401   4.268
 2429SOL    HW2 8187   6.436   5.324   4.309
 2430SOL     OW 8188   5.950   1.469   0.705
 2430SOL    HW1 8189   5.987   1.395   0.762
 2430SOL    HW2 8190   5.858   1.444   0.675
 2431SOL     OW 8191   4.073   0.438   1.784
 2431SOL    HW1 8192   4.121   0.470   1.866
 2431SOL    HW2 8193   3.978   0.419   1.808
 2432SOL     OW 8194   3.323   6.925   2.800
 2432SOL    HW1 8195   3.373   6.841   2.818
 2432SOL    HW2 8196   3.384   7.003   2.809
 2433SOL     OW 8197   3.210   0.119   1.261
 2433SOL    HW1 8198   3.273   0.177   1.313
 2433SOL    HW2 8199   3.244   0.024   1.263
 2434SOL     OW 8200   4.385   1.365   4.317
 2434SOL    HW1 8201   4.313   1.303   4.348
 2434SOL    HW2 8202   4.347   1.455   4.297
 2435SOL     OW 8203   4.280   5.213   5.925
 2435SOL    HW1 8204   4.320   5.228   5.835
 2435SOL    HW2 8205   4.229   5.294   5.953
 2436SOL     OW 8206   1.785   6.909   2.122
 2436SOL    HW1 8207   1.783   6.810   2.140
 2436SOL    HW2 8208   1.780   6.959   2.209
 2437SOL     OW 8209   4.393   5.810   0.644
 2437SOL    HW1 8210   4.451   5.729   0.635
 2437SOL    HW2 8211   4.329   5.797   0.719
 2438SOL     OW 8212   3.309   1.733   5.998
 2438SOL    HW1 8213   3.283   1.648   5.952
 2438SOL    HW2 8214   3.261   1.740   6.086
 2439SOL     OW 8215   0.660   4.352   6.512
 2439SOL    HW1 8216   0.561   4.349   6.503
 2439SOL    HW2 8217   0.686   4.336   6.607
 2440SOL     OW 8218   5.240   6.264   5.335
 2440SOL    HW1 8219   5.224   6.362   5.345
 2440SOL    HW2 8220   5.164   6.213   5.375
 2441SOL     OW 8221   6.651   6.964   0.201
 2441SOL    HW1 8222   6.598   0.032   0.200
 2441SOL    HW2 8223   6.745   6.984   0.229
 2442SOL     OW 8224   6.637   5.040   4.712
 2442SOL    HW1 8225   6.641   4.940   4.719
 2442SOL    HW2 8226   6.721   5.073   4.669
 2443SOL     OW 8227   4.068   6.449   5.363
 2443SOL    HW1 8228   4.090   6.542   5.335
 2443SOL    HW2 8229   4.121   6.425   5.445
 2444SOL     OW 8230   3.231   4.277   5.910
 2444SOL    HW1 8231   3.184   4.274   5.822
 2444SOL    HW2 8232   3.318   4.229   5.904
 2445SOL     OW 8233   0.493   0.764   1.865
 2445SOL    HW1 8234   0.507   0.764   1.766
 2445SOL    HW2 8235   0.421   0.699   1.889
 2446SOL     OW 8236   0.566   4.065   3.567
 2446SOL    HW1 8237   0.474   4.102   3.585
 2446SOL    HW2 8238   0.558   3.989   3.503
 2447SOL     OW 8239   3.017   1.780   0.755
 2447SOL    HW1 8240   2.972   1.690   0.750
 2447SOL    HW2 8241   3.016   1.823   0.664
 2448SOL     OW 8242   0.162   1.064   5.348
 2448SOL    HW1 8243   0.115   1.049   5.261
 2448SOL    HW2 8244   0.170   0.976   5.396
 2449SOL     OW 8245   0.244   5.013   1.238
 2449SOL    HW1 8246   0.269   5.108   1.215
 2449SOL    HW2 8247   0.250   5.000   1.337
 2450SOL     OW 8248   2.683   4.777   4.542
 2450SOL    HW1 8249   2.646   4.695   4.498
 2450SOL    HW2 8250   2.658   4.777   4.638
 2451SOL     OW 8251   0.615   0.296   3.332
 2451SOL    HW1 8252   0.533   0.251   3.297
 2451SOL    HW2 8253   0.682   0.305   3.258
 2452SOL     OW 8254   1.910   2.782   2.918
 2452SOL    HW1 8255   1.987   2.756   2.977
 2452SOL    HW2 8256   1.876   2.701   2.871
 2453SOL     OW 8257   6.403   3.603   0.895
 2453SOL    HW1 8258   6.369   3.695   0.913
 2453SOL    HW2 8259   6.342   3.557   0.829
 2454SOL     OW 8260   3.717   1.396   0.442
 2454SOL    HW1 8261   3.706   1.314   0.386
 2454SOL    HW2 8262   3.801   1.390   0.495
 2455SOL     OW 8263   5.560   6.656   0.732
 2455SOL    HW1 8264   5.558   6.609   0.821
 2455SOL    HW2 8265   5.472   6.702   0.717
 2456SOL     OW 8266   6.007   0.152   0.515
 2456SOL    HW1 8267   5.939   0.132   0.445
 2456SOL    HW2 8268   5.974   0.225   0.575
 2457SOL     OW 8269   6.725   6.176   0.550
 2457SOL    HW1 8270   6.814   6.143   0.579
 2457SOL    HW2 8271   6.674   6.101   0.507
 2458SOL     OW 8272   2.798   5.761   3.722
 2458SOL    HW1 8273   2.755   5.813   3.797
 2458SOL    HW2 8274   2.833   5.675   3.758
 2459SOL     OW 8275   2.556   6.765   0.472
 2459SOL    HW1 8276   2.524   6.785   0.565
 2459SOL    HW2 8277   2.477   6.752   0.412
 2460SOL     OW 8278   2.029   0.623   1.109
 2460SOL    HW1 8279   2.033   0.665   1.199
 2460SOL    HW2 8280   2.077   0.681   1.043
 2461SOL     OW 8281   4.858   0.846   2.571
 2461SOL    HW1 8282   4.874   0.760   2.523
 2461SOL    HW2 8283   4.781   0.836   2.634
 2462SOL     OW 8284   2.074   5.632   0.053
 2462SOL    HW1 8285   2.089   5.546   0.004
 2462SOL    HW2 8286   2.121   5.629   0.141
 2463SOL     OW 8287   5.825   2.385   3.886
 2463SOL    HW1 8288   5.791   2.295   3.859
 2463SOL    HW2 8289   5.747   2.445   3.904
 2464SOL     OW 8290   1.347   4.792   1.451
 2464SOL    HW1 8291   1.333   4.883   1.488
 2464SOL    HW2 8292   1.441   4.785   1.416
 2465SOL     OW 8293   6.369   6.039   1.075
 2465SOL    HW1 8294   6.288   5.979   1.074
 2465SOL    HW2 8295   6.396   6.057   1.170
 2466SOL     OW 8296   3.269   0.848   1.172
 2466SOL    HW1 8297   3.306   0.784   1.239
 2466SOL    HW2 8298   3.297   0.941   1.195
 2467SOL     OW 8299   5.292   1.674   5.616
 2467SOL    HW1 8300   5.366   1.671   5.683
 2467SOL    HW2 8301   5.313   1.741   5.545
 2468SOL     OW 8302   6.241   6.139   2.140
 2468SOL    HW1 8303   6.305   6.072   2.102
 2468SOL    HW2 8304   6.288   6.191   2.212
 2469SOL     OW 8305   3.495   4.987   5.234
 2469SOL    HW1 8306   3.483   4.889   5.219
 2469SOL    HW2 8307   3.573   5.021   5.182
 2470SOL     OW 8308   3.348   4.033   6.226
 2470SOL    HW1 8309   3.346   3.959   6.159
 2470SOL    HW2 8310   3.274   4.098   6.205
 2471SOL     OW 8311   2.101   6.586   1.711
 2471SOL    HW1 8312   2.090   6.592   1.611
 2471SOL    HW2 8313   2.193   6.551   1.732
 2472SOL     OW 8314   5.830   1.206   4.628
 2472SOL    HW1 8315   5.911   1.152   4.648
 2472SOL    HW2 8316   5.846   1.262   4.547
 2473SOL     OW 8317   1.902   3.933   4.574
 2473SOL    HW1 8318   1.993   3.969   4.549
 2473SOL    HW2 8319   1.890   3.843   4.532
 2474SOL     OW 8320   0.332   5.525   0.520
 2474SOL    HW1 8321   0.419   5.476   0.507
 2474SOL    HW2 8322   0.273   5.509   0.441
 2475SOL     OW 8323   4.638   1.639   1.129
 2475SOL    HW1 8324   4.640   1.587   1.214
 2475SOL    HW2 8325   4.678   1.585   1.056
 2476SOL     OW 8326   0.565   2.837   3.386
 2476SOL    HW1 8327   0.653   2.847   3.340
 2476SOL    HW2 8328   0.510   2.768   3.338
 2477SOL     OW 8329   6.286   0.514   1.954
 2477SOL    HW1 8330   6.296   0.428   2.005
 2477SOL    HW2 8331   6.377   0.544   1.924
 2478SOL     OW 8332   5.555   6.541   2.369
 2478SOL    HW1 8333   5.531   6.623   2.316
 2478SOL    HW2 8334   5.486   6.525   2.439
 2479SOL     OW 8335   0.820   3.697   1.500
 2479SOL    HW1 8336   0.743   3.693   1.564
 2479SOL    HW2 8337   0.834   3.608   1.457
 2480SOL     OW 8338   6.033   3.406   1.002
 2480SOL    HW1 8339   6.031   3.505   1.018
 2480SOL    HW2 8340   5.963   3.362   1.058
 2481SOL     OW 8341   3.679   6.529   0.110
 2481SOL    HW1 8342   3.708   6.508   0.016
 2481SOL    HW2 8343   3.630   6.450   0.147
 2482SOL     OW 8344   4.742   3.166   5.623
 2482SOL    HW1 8345   4.820   3.116   5.586
 2482SOL    HW2 8346   4.665   3.103   5.636
 2483SOL     OW 8347   2.185   1.459   0.795
 2483SOL    HW1 8348   2.122   1.499   0.862
 2483SOL    HW2 8349   2.250   1.529   0.764
 2484SOL     OW 8350   1.888   0.677   0.467
 2484SOL    HW1 8351   1.941   0.695   0.550
 2484SOL    HW2 8352   1.951   0.664   0.390
 2485SOL     OW 8353   4.545   5.246   2.320
 2485SOL    HW1 8354   4.616   5.311   2.347
 2485SOL    HW2 8355   4.470   5.249   2.386
 2486SOL     OW 8356   2.601   6.066   2.901
 2486SOL    HW1 8357   2.558   5.983   2.866
 2486SOL    HW2 8358   2.694   6.045   2.932
 2487SOL     OW 8359   3.865   6.135   0.397
 2487SOL    HW1 8360   3.874   6.164   0.301
 2487SOL    HW2 8361   3.850   6.036   0.400
 2488SOL     OW 8362   2.361   4.315   1.610
 2488SOL    HW1 8363   2.273   4.308   1.657
 2488SOL    HW2 8364   2.432   4.339   1.676
 2489SOL     OW 8365   2.362   4.728   4.457
 2489SOL    HW1 8366   2.269   4.713   4.491
 2489SOL    HW2 8367   2.383   4.826   4.459
 2490SOL     OW 8368   6.571   5.477   1.096
 2490SOL    HW1 8369   6.601   5.387   1.129
 2490SOL    HW2 8370   6.590   5.546   1.166
 2491SOL     OW 8371   2.369   5.535   3.143
 2491SOL    HW1 8372   2.346   5.505   3.236
 2491SOL    HW2 8373   2.460   5.576   3.143
 2492SOL     OW 8374   3.751   2.974   6.472
 2492SOL    HW1 8375   3.806   2.991   6.391
 2492SOL    HW2 8376   3.809   2.977   6.553
 2493SOL     OW 8377   5.842   0.177   3.030
 2493SOL    HW1 8378   5.906   0.156   2.957
 2493SOL    HW2 8379   5.760   0.120   3.020
 2494SOL     OW 8380   5.354   3.075   2.689
 2494SOL    HW1 8381   5.453   3.061   2.684
 2494SOL    HW2 8382   5.310   3.026   2.614
 2495SOL     OW 8383   5.027   0.445   5.476
 2495SOL    HW1 8384   4.991   0.513   5.539
 2495SOL    HW2 8385   5.018   0.477   5.382
 2496SOL     OW 8386   0.392   5.095   7.011
 2496SOL    HW1 8387   0.397   5.145   6.924
 2496SOL    HW2 8388   0.308   5.041   7.013
 2497SOL     OW 8389   0.352   2.361   6.600
 2497SOL    HW1 8390   0.360   2.438   6.663
 2497SOL    HW2 8391   0.270   2.309   6.621
 2498SOL     OW 8392   2.231   2.834   3.696
 2498SOL    HW1 8393   2.253   2.928   3.670
 2498SOL    HW2 8394   2.135   2.815   3.673
 2499SOL     OW 8395   5.707   0.301   4.708
 2499SOL    HW1 8396   5.761   0.377   4.745
 2499SOL    HW2 8397   5.768   0.226   4.683
 2500SOL     OW 8398   4.628   4.056   5.327
 2500SOL    HW1 8399   4.592   3.967   5.354
 2500SOL    HW2 8400   4.726   4.059   5.343
 2501SOL     OW 8401   6.262   4.683   6.872
 2501SOL    HW1 8402   6.250   4.776   6.908
 2501SOL    HW2 8403   6.229   4.679   6.778
 2502SOL     OW 8404   2.779   6.444   3.610
 2502SOL    HW1 8405   2.778   6.467   3.512
 2502SOL    HW2 8406   2.873   6.426   3.639
 2503SOL     OW 8407   3.995   6.007   5.319
 2503SOL    HW1 8408   3.956   5.958   5.242
 2503SOL    HW2 8409   4.039   5.943   5.382
 2504SOL     OW 8410   2.486   5.540   5.078
 2504SOL    HW1 8411   2.405   5.573   5.126
 2504SOL    HW2 8412   2.511   5.450   5.112
 2505SOL     OW 8413   3.270   6.188   4.546
 2505SOL    HW1 8414   3.286   6.098   4.586
 2505SOL    HW2 8415   3.172   6.201   4.529
 2506SOL     OW 8416   0.136   3.545   6.202
 2506SOL    HW1 8417   0.184   3.488   6.136
 2506SOL    HW2 8418   0.074   3.607   6.154
 2507SOL     OW 8419   6.216   4.933   6.985
 2507SOL    HW1 8420   6.156   4.993   6.934
 2507SOL    HW2 8421   6.221   4.963   0.064
 2508SOL     OW 8422   2.815   1.961   2.143
 2508SOL    HW1 8423   2.800   2.020   2.064
 2508SOL    HW2 8424   2.913   1.942   2.152
 2509SOL     OW 8425   5.274   2.059   2.400
 2509SOL    HW1 8426   5.326   2.116   2.464
 2509SOL    HW2 8427   5.228   1.986   2.450
 2510SOL     OW 8428   2.501   4.085   0.613
 2510SOL    HW1 8429   2.470   3.990   0.607
 2510SOL    HW2 8430   2.454   4.139   0.542
 2511SOL     OW 8431   1.447   1.496   4.773
 2511SOL    HW1 8432   1.461   1.583   4.820
 2511SOL    HW2 8433   1.503   1.493   4.691
 2512SOL     OW 8434   5.870   4.318   5.035
 2512SOL    HW1 8435   5.870   4.239   4.974
 2512SOL    HW2 8436   5.953   4.372   5.020
 2513SOL     OW 8437   1.290   2.418   5.931
 2513SOL    HW1 8438   1.206   2.432   5.878
 2513SOL    HW2 8439   1.357   2.488   5.907
 2514SOL     OW 8440   0.158   2.703   3.712
 2514SOL    HW1 8441   0.067   2.744   3.700
 2514SOL    HW2 8442   0.172   2.631   3.644
 2515SOL     OW 8443   1.348   6.774   1.128
 2515SOL    HW1 8444   1.265   6.774   1.072
 2515SOL    HW2 8445   1.323   6.783   1.224
 2516SOL     OW 8446   5.996   5.461   3.173
 2516SOL    HW1 8447   6.041   5.530   3.116
 2516SOL    HW2 8448   5.903   5.446   3.139
 2517SOL     OW 8449   2.351   5.173   6.271
 2517SOL    HW1 8450   2.283   5.204   6.205
 2517SOL    HW2 8451   2.364   5.074   6.262
 2518SOL     OW 8452   1.911   3.009   0.154
 2518SOL    HW1 8453   1.969   3.091   0.153
 2518SOL    HW2 8454   1.967   2.928   0.139
 2519SOL     OW 8455   4.708   5.059   4.150
 2519SOL    HW1 8456   4.771   5.088   4.078
 2519SOL    HW2 8457   4.761   5.024   4.228
 2520SOL     OW 8458   1.688   2.517   1.002
 2520SOL    HW1 8459   1.680   2.417   1.008
 2520SOL    HW2 8460   1.784   2.542   0.992
 2521SOL     OW 8461   1.019   0.194   5.636
 2521SOL    HW1 8462   1.029   0.182   5.734
 2521SOL    HW2 8463   1.102   0.237   5.599
 2522SOL     OW 8464   0.873   3.180   4.546
 2522SOL    HW1 8465   0.934   3.175   4.625
 2522SOL    HW2 8466   0.871   3.091   4.500
 2523SOL     OW 8467   6.920   2.858   0.698
 2523SOL    HW1 8468   6.921   2.768   0.653
 2523SOL    HW2 8469   6.974   2.854   0.782
 2524SOL     OW 8470   0.190   6.239   4.691
 2524SOL    HW1 8471   0.254   6.254   4.766
 2524SOL    HW2 8472   0.105   6.200   4.727
 2525SOL     OW 8473   1.724   3.103   4.346
 2525SOL    HW1 8474   1.767   3.114   4.256
 2525SOL    HW2 8475   1.794   3.102   4.417
 2526SOL     OW 8476   0.546   2.933   5.337
 2526SOL    HW1 8477   0.587   2.873   5.269
 2526SOL    HW2 8478   0.563   3.028   5.313
 2527SOL     OW 8479   6.368   6.912   5.518
 2527SOL    HW1 8480   6.366   6.812   5.519
 2527SOL    HW2 8481   6.277   6.948   5.536
 2528SOL     OW 8482   5.545   4.938   1.372
 2528SOL    HW1 8483   5.517   4.847   1.340
 2528SOL    HW2 8484   5.629   4.965   1.325
 2529SOL     OW 8485   5.495   4.934   5.782
 2529SOL    HW1 8486   5.532   4.846   5.810
 2529SOL    HW2 8487   5.435   4.970   5.854
 2530SOL     OW 8488   0.998   6.190   4.411
 2530SOL    HW1 8489   1.063   6.248   4.362
 2530SOL    HW2 8490   1.031   6.176   4.505
 2531SOL     OW 8491   5.654   6.718   4.785
 2531SOL    HW1 8492   5.642   6.666   4.869
 2531SOL    HW2 8493   5.639   6.815   4.803
 2532SOL     OW 8494   0.621   5.425   0.467
 2532SOL    HW1 8495   0.555   5.365   0.421
 2532SOL    HW2 8496   0.713   5.405   0.434
 2533SOL     OW 8497   5.325   6.551   5.125
 2533SOL    HW1 8498   5.298   6.512   5.037
 2533SOL    HW2 8499   5.320   6.651   5.120
 2534SOL     OW 8500   2.394   0.623   3.202
 2534SOL    HW1 8501   2.374   0.555   3.272
 2534SOL    HW2 8502   2.316   0.631   3.140
 2535SOL     OW 8503   1.936   1.777   6.388
 2535SOL    HW1 8504   2.026   1.788   6.346
 2535SOL    HW2 8505   1.939   1.701   6.453
 2536SOL     OW 8506   0.034   1.697   3.308
 2536SOL    HW1 8507   6.998   1.771   3.266
 2536SOL    HW2 8508   7.000   1.662   3.386
 2537SOL     OW 8509   5.263   6.416   0.622
 2537SOL    HW1 8510   5.239   6.395   0.716
 2537SOL    HW2 8511   5.327   6.348   0.588
 2538SOL     OW 8512   1.885   4.329   4.792
 2538SOL    HW1 8513   1.971   4.303   4.750
 2538SOL    HW2 8514   1.824   4.369   4.723
 2539SOL     OW 8515   4.386   0.039   5.419
 2539SOL    HW1 8516   4.477   0.062   5.383
 2539SOL    HW2 8517   4.394   6.979   5.483
 2540SOL     OW 8518   5.533   1.236   1.436
 2540SOL    HW1 8519   5.474   1.252   1.356
 2540SOL    HW2 8520   5.510   1.148   1.477
 2541SOL     OW 8521   1.342   0.360   5.382
 2541SOL    HW1 8522   1.385   0.442   5.421
 2541SOL    HW2 8523   1.278   0.387   5.311
 2542SOL     OW 8524   4.037   2.266   4.211
 2542SOL    HW1 8525   4.114   2.254   4.273
 2542SOL    HW2 8526   3.969   2.326   4.254
 2543SOL     OW 8527   1.592   0.524   2.801
 2543SOL    HW1 8528   1.548   0.549   2.888
 2543SOL    HW2 8529   1.618   0.427   2.804
 2544SOL     OW 8530   0.851   4.924   2.141
 2544SOL    HW1 8531   0.918   4.998   2.139
 2544SOL    HW2 8532   0.792   4.935   2.221
 2545SOL     OW 8533   1.486   1.415   1.230
 2545SOL    HW1 8534   1.485   1.374   1.138
 2545SOL    HW2 8535   1.398   1.398   1.275
 2546SOL     OW 8536   6.890   3.409   1.014
 2546SOL    HW1 8537   6.946   3.375   0.938
 2546SOL    HW2 8538   6.859   3.332   1.070
 2547SOL     OW 8539   5.549   5.334   0.933
 2547SOL    HW1 8540   5.560   5.297   0.840
 2547SOL    HW2 8541   5.572   5.431   0.934
 2548SOL     OW 8542   2.095   0.480   4.768
 2548SOL    HW1 8543   2.085   0.390   4.725
 2548SOL    HW2 8544   2.005   0.517   4.789
 2549SOL     OW 8545   2.205   2.541   1.573
 2549SOL    HW1 8546   2.288   2.592   1.550
 2549SOL    HW2 8547   2.139   2.601   1.618
 2550SOL     OW 8548   5.289   0.387   6.675
 2550SOL    HW1 8549   5.356   0.445   6.628
 2550SOL    HW2 8550   5.259   0.314   6.614
 2551SOL     OW 8551   3.941   5.279   6.959
 2551SOL    HW1 8552   3.896   5.363   6.928
 2551SOL    HW2 8553   3.884   5.234   0.011
 2552SOL     OW 8554   2.324   5.276   6.806
 2552SOL    HW1 8555   2.334   5.188   6.852
 2552SOL    HW2 8556   2.280   5.263   6.718
 2553SOL     OW 8557   3.589   2.770   6.007
 2553SOL    HW1 8558   3.549   2.726   5.927
 2553SOL    HW2 8559   3.597   2.703   6.081
 2554SOL     OW 8560   1.490   5.776   6.639
 2554SOL    HW1 8561   1.493   5.700   6.575
 2554SOL    HW2 8562   1.579   5.822   6.641
 2555SOL     OW 8563   5.994   5.879   6.925
 2555SOL    HW1 8564   5.961   5.972   6.908
 2555SOL    HW2 8565   5.979   5.823   6.844
 2556SOL     OW 8566   4.359   0.453   1.062
 2556SOL    HW1 8567   4.269   0.475   1.026
 2556SOL    HW2 8568   4.354   0.369   1.116
 2557SOL     OW 8569   2.885   0.852   6.875
 2557SOL    HW1 8570   2.907   0.905   6.793
 2557SOL    HW2 8571   2.827   0.774   6.850
 2558SOL     OW 8572   4.552   3.890   6.062
 2558SOL    HW1 8573   4.617   3.958   6.028
 2558SOL    HW2 8574   4.471   3.889   6.003
 2559SOL     OW 8575   6.756   3.074   3.569
 2559SOL    HW1 8576   6.851   3.082   3.599
 2559SOL    HW2 8577   6.696   3.080   3.648
 2560SOL     OW 8578   5.120   3.505   3.624
 2560SOL    HW1 8579   5.174   3.421   3.634
 2560SOL    HW2 8580   5.049   3.507   3.694
 2561SOL     OW 8581   3.810   1.421   3.053
 2561SOL    HW1 8582   3.836   1.416   2.957
 2561SOL    HW2 8583   3.729   1.478   3.063
 2562SOL     OW 8584   3.148   5.830   3.391
 2562SOL    HW1 8585   3.164   5.740   3.432
 2562SOL    HW2 8586   3.070   5.873   3.437
 2563SOL     OW 8587   3.204   1.671   6.539
 2563SOL    HW1 8588   3.129   1.697   6.601
 2563SOL    HW2 8589   3.285   1.650   6.593
 2564SOL     OW 8590   1.779   6.971   0.441
 2564SOL    HW1 8591   1.843   6.899   0.414
 2564SOL    HW2 8592   1.689   6.952   0.404
 2565SOL     OW 8593   0.391   1.124   6.840
 2565SOL    HW1 8594   0.366   1.177   6.921
 2565SOL    HW2 8595   0.491   1.119   6.833
 2566SOL     OW 8596   2.545   6.821   1.806
 2566SOL    HW1 8597   2.479   6.830   1.731
 2566SOL    HW2 8598   2.522   6.739   1.860
 2567SOL     OW 8599   1.503   1.324   0.978
 2567SOL    HW1 8600   1.440   1.302   0.904
 2567SOL    HW2 8601   1.562   1.245   0.996
 2568SOL     OW 8602   2.861   7.003   0.683
 2568SOL    HW1 8603   2.769   6.994   0.720
 2568SOL    HW2 8604   2.922   6.940   0.730
 2569SOL     OW 8605   2.705   2.128   1.920
 2569SOL    HW1 8606   2.721   2.052   1.858
 2569SOL    HW2 8607   2.792   2.174   1.941
 2570SOL     OW 8608   4.905   5.954   6.310
 2570SOL    HW1 8609   4.841   5.929   6.383
 2570SOL    HW2 8610   4.927   6.051   6.318
 2571SOL     OW 8611   3.570   2.929   4.505
 2571SOL    HW1 8612   3.660   2.965   4.531
 2571SOL    HW2 8613   3.549   2.848   4.560
 2572SOL     OW 8614   2.482   6.102   1.226
 2572SOL    HW1 8615   2.451   6.029   1.165
 2572SOL    HW2 8616   2.421   6.106   1.306
 2573SOL     OW 8617   6.285   2.183   3.291
 2573SOL    HW1 8618   6.241   2.103   3.331
 2573SOL    HW2 8619   6.292   2.172   3.192
 2574SOL     OW 8620   6.254   3.248   0.788
 2574SOL    HW1 8621   6.205   3.161   0.775
 2574SOL    HW2 8622   6.275   3.259   0.885
 2575SOL     OW 8623   5.041   3.841   1.568
 2575SOL    HW1 8624   5.107   3.789   1.623
 2575SOL    HW2 8625   4.952   3.796   1.571
 2576SOL     OW 8626   3.501   7.017   3.936
 2576SOL    HW1 8627   3.441   6.969   3.871
 2576SOL    HW2 8628   3.592   0.011   3.896
 2577SOL     OW 8629   4.755   0.466   3.443
 2577SOL    HW1 8630   4.707   0.427   3.521
 2577SOL    HW2 8631   4.851   0.439   3.446
 2578SOL     OW 8632   5.017   2.827   5.275
 2578SOL    HW1 8633   5.074   2.779   5.208
 2578SOL    HW2 8634   4.983   2.761   5.343
 2579SOL     OW 8635   1.168   1.524   5.290
 2579SOL    HW1 8636   1.095   1.495   5.229
 2579SOL    HW2 8637   1.200   1.615   5.264
 2580SOL     OW 8638   2.118   2.742   5.787
 2580SOL    HW1 8639   2.077   2.667   5.840
 2580SOL    HW2 8640   2.158   2.705   5.703
 2581SOL     OW 8641   5.604   4.516   1.853
 2581SOL    HW1 8642   5.682   4.579   1.849
 2581SOL    HW2 8643   5.533   4.555   1.912
 2582SOL     OW 8644   2.236   4.780   2.993
 2582SOL    HW1 8645   2.254   4.785   3.091
 2582SOL    HW2 8646   2.208   4.687   2.969
 2583SOL     OW 8647   1.164   0.735   0.980
 2583SOL    HW1 8648   1.191   0.829   0.997
 2583SOL    HW2 8649   1.198   0.706   0.890
 2584SOL     OW 8650   4.328   6.340   0.820
 2584SOL    HW1 8651   4.341   6.336   0.919
 2584SOL    HW2 8652   4.408   6.301   0.774
 2585SOL     OW 8653   3.135   0.369   0.434
 2585SOL    HW1 8654   3.062   0.308   0.463
 2585SOL    HW2 8655   3.102   0.463   0.435
 2586SOL     OW 8656   5.390   1.690   4.921
 2586SOL    HW1 8657   5.446   1.773   4.919
 2586SOL    HW2 8658   5.397   1.644   4.832
 2587SOL     OW 8659   6.627   0.195   4.744
 2587SOL    HW1 8660   6.646   0.250   4.825
 2587SOL    HW2 8661   6.574   0.249   4.678
 2588SOL     OW 8662   4.726   6.968   0.645
 2588SOL    HW1 8663   4.711   6.872   0.672
 2588SOL    HW2 8664   4.665   6.990   0.569
 2589SOL     OW 8665   0.546   6.963   5.495
 2589SOL    HW1 8666   0.598   0.029   5.475
 2589SOL    HW2 8667   0.584   6.919   5.576
 2590SOL     OW 8668   3.593   0.085   2.839
 2590SOL    HW1 8669   3.622   0.113   2.930
 2590SOL    HW2 8670   3.602   7.003   2.830
 2591SOL     OW 8671   5.556   5.906   2.399
 2591SOL    HW1 8672   5.515   5.902   2.308
 2591SOL    HW2 8673   5.602   5.819   2.419
 2592SOL     OW 8674   2.727   6.409   1.647
 2592SOL    HW1 8675   2.734   6.395   1.746
 2592SOL    HW2 8676   2.631   6.420   1.621
 2593SOL     OW 8677   3.656   6.700   2.206
 2593SOL    HW1 8678   3.655   6.767   2.132
 2593SOL    HW2 8679   3.615   6.615   2.173
 2594SOL     OW 8680   0.396   6.462   6.268
 2594SOL    HW1 8681   0.304   6.456   6.230
 2594SOL    HW2 8682   0.457   6.504   6.201
 2595SOL     OW 8683   0.002   2.026   5.596
 2595SOL    HW1 8684   0.063   2.006   5.519
 2595SOL    HW2 8685   0.056   2.033   5.680
 2596SOL     OW 8686   3.767   2.319   1.607
 2596SOL    HW1 8687   3.727   2.343   1.695
 2596SOL    HW2 8688   3.762   2.397   1.545
 2597SOL     OW 8689   2.095   3.928   0.677
 2597SOL    HW1 8690   2.096   4.002   0.744
 2597SOL    HW2 8691   2.153   3.953   0.599
 2598SOL     OW 8692   6.005   2.751   4.629
 2598SOL    HW1 8693   5.919   2.769   4.678
 2598SOL    HW2 8694   6.000   2.790   4.537
 2599SOL     OW 8695   3.604   5.686   6.885
 2599SOL    HW1 8696   3.612   5.686   6.984
 2599SOL    HW2 8697   3.689   5.721   6.845
 2600SOL     OW 8698   5.070   3.552   3.994
 2600SOL    HW1 8699   5.013   3.536   4.074
 2600SOL    HW2 8700   5.019   3.606   3.927
 2601SOL     OW 8701   3.663   2.247   6.448
 2601SOL    HW1 8702   3.582   2.254   6.389
 2601SOL    HW2 8703   3.713   2.334   6.445
 2602SOL     OW 8704   6.857   4.732   3.575
 2602SOL    HW1 8705   6.879   4.640   3.608
 2602SOL    HW2 8706   6.760   4.737   3.553
 2603SOL     OW 8707   2.836   1.992   1.673
 2603SOL    HW1 8708   2.918   1.943   1.702
 2603SOL    HW2 8709   2.862   2.069   1.615
 2604SOL     OW 8710   4.872   1.365   1.544
 2604SOL    HW1 8711   4.862   1.316   1.630
 2604SOL    HW2 8712   4.962   1.409   1.541
 2605SOL     OW 8713   3.998   4.964   3.388
 2605SOL    HW1 8714   4.006   5.033   3.316
 2605SOL    HW2 8715   4.006   5.008   3.477
 2606SOL     OW 8716   6.473   4.680   0.649
 2606SOL    HW1 8717   6.453   4.585   0.675
 2606SOL    HW2 8718   6.511   4.728   0.727
 2607SOL     OW 8719   0.415   1.923   5.710
 2607SOL    HW1 8720   0.383   1.873   5.790
 2607SOL    HW2 8721   0.384   2.018   5.715
 2608SOL     OW 8722   4.414   6.157   2.891
 2608SOL    HW1 8723   4.491   6.136   2.831
 2608SOL    HW2 8724   4.336   6.186   2.836
 2609SOL     OW 8725   0.934   2.579   1.089
 2609SOL    HW1 8726   0.878   2.659   1.113
 2609SOL    HW2 8727   0.978   2.544   1.171
 2610SOL     OW 8728   6.957   5.485   4.151
 2610SOL    HW1 8729   6.948   5.557   4.083
 2610SOL    HW2 8730   7.002   5.406   4.110
 2611SOL     OW 8731   6.196   6.775   0.914
 2611SOL    HW1 8732   6.108   6.787   0.960
 2611SOL    HW2 8733   6.258   6.848   0.942
 2612SOL     OW 8734   6.564   6.387   5.234
 2612SOL    HW1 8735   6.492   6.318   5.225
 2612SOL    HW2 8736   6.649   6.352   5.195
 2613SOL     OW 8737   2.953   6.627   1.972
 2613SOL    HW1 8738   2.932   6.639   2.069
 2613SOL    HW2 8739   2.961   6.716   1.928
 2614SOL     OW 8740   6.558   6.531   5.825
 2614SOL    HW1 8741   6.546   6.432   5.831
 2614SOL    HW2 8742   6.481   6.577   5.868
 2615SOL     OW 8743   5.628   4.937   3.365
 2615SOL    HW1 8744   5.607   4.953   3.268
 2615SOL    HW2 8745   5.723   4.908   3.373
 2616SOL     OW 8746   3.728   3.661   3.967
 2616SOL    HW1 8747   3.788   3.630   3.893
 2616SOL    HW2 8748   3.781   3.672   4.051
 2617SOL     OW 8749   3.236   6.451   1.368
 2617SOL    HW1 8750   3.197   6.542   1.376
 2617SOL    HW2 8751   3.218   6.415   1.276
 2618SOL     OW 8752   0.286   6.588   3.846
 2618SOL    HW1 8753   0.311   6.499   3.808
 2618SOL    HW2 8754   0.277   6.580   3.945
 2619SOL     OW 8755   3.497   0.925   2.979
 2619SOL    HW1 8756   3.530   1.011   3.018
 2619SOL    HW2 8757   3.402   0.910   3.006
 2620SOL     OW 8758   1.008   5.840   3.808
 2620SOL    HW1 8759   1.011   5.821   3.709
 2620SOL    HW2 8760   1.009   5.753   3.858
 2621SOL     OW 8761   1.788   5.680   3.942
 2621SOL    HW1 8762   1.749   5.587   3.935
 2621SOL    HW2 8763   1.856   5.682   4.015
 2622SOL     OW 8764   2.354   2.285   6.585
 2622SOL    HW1 8765   2.365   2.316   6.491
 2622SOL    HW2 8766   2.327   2.363   6.642
 2623SOL     OW 8767   3.671   1.738   4.723
 2623SOL    HW1 8768   3.695   1.829   4.759
 2623SOL    HW2 8769   3.656   1.675   4.799
 2624SOL     OW 8770   6.580   3.085   3.812
 2624SOL    HW1 8771   6.663   3.058   3.860
 2624SOL    HW2 8772   6.517   3.007   3.808
 2625SOL     OW 8773   2.509   2.803   5.340
 2625SOL    HW1 8774   2.495   2.883   5.283
 2625SOL    HW2 8775   2.534   2.725   5.283
 2626SOL     OW 8776   0.361   6.896   4.270
 2626SOL    HW1 8777   0.311   6.845   4.341
 2626SOL    HW2 8778   0.302   6.967   4.232
 2627SOL     OW 8779   0.384   0.957   4.018
 2627SOL    HW1 8780   0.351   0.941   3.925
 2627SOL    HW2 8781   0.417   0.871   4.057
 2628SOL     OW 8782   3.765   5.372   6.620
 2628SOL    HW1 8783   3.829   5.413   6.555
 2628SOL    HW2 8784   3.766   5.425   6.705
 2629SOL     OW 8785   3.714   3.883   2.173
 2629SOL    HW1 8786   3.628   3.923   2.208
 2629SOL    HW2 8787   3.763   3.838   2.248
 2630SOL     OW 8788   3.463   1.846   2.416
 2630SOL    HW1 8789   3.406   1.909   2.470
 2630SOL    HW2 8790   3.483   1.887   2.328
 2631SOL     OW 8791   4.850   6.749   3.679
 2631SOL    HW1 8792   4.881   6.742   3.584
 2631SOL    HW2 8793   4.841   6.845   3.704
 2632SOL     OW 8794   2.804   2.278   5.816
 2632SOL    HW1 8795   2.756   2.271   5.728
 2632SOL    HW2 8796   2.867   2.201   5.825
 2633SOL     OW 8797   6.354   2.370   6.190
 2633SOL    HW1 8798   6.300   2.442   6.149
 2633SOL    HW2 8799   6.393   2.312   6.119
 2634SOL     OW 8800   2.273   4.052   3.164
 2634SOL    HW1 8801   2.183   4.030   3.202
 2634SOL    HW2 8802   2.335   4.079   3.238
 2635SOL     OW 8803   5.939   5.982   4.513
 2635SOL    HW1 8804   5.883   5.944   4.587
 2635SOL    HW2 8805   5.896   6.064   4.477
 2636SOL     OW 8806   5.141   0.536   5.976
 2636SOL    HW1 8807   5.123   0.607   5.909
 2636SOL    HW2 8808   5.137   0.446   5.932
 2637SOL     OW 8809   5.922   1.110   3.785
 2637SOL    HW1 8810   5.998   1.162   3.825
 2637SOL    HW2 8811   5.927   1.015   3.815
 2638SOL     OW 8812   6.955   6.604   3.013
 2638SOL    HW1 8813   6.972   6.651   2.926
 2638SOL    HW2 8814   6.985   6.663   3.088
 2639SOL     OW 8815   0.037   6.768   1.908
 2639SOL    HW1 8816   6.968   6.760   1.959
 2639SOL    HW2 8817   0.086   6.681   1.913
 2640SOL     OW 8818   6.968   6.272   5.886
 2640SOL    HW1 8819   6.944   6.213   5.808
 2640SOL    HW2 8820   6.941   6.366   5.866
 2641SOL     OW 8821   5.203   2.882   1.864
 2641SOL    HW1 8822   5.126   2.945   1.866
 2641SOL    HW2 8823   5.224   2.857   1.769
 2642SOL     OW 8824   5.352   0.466   4.815
 2642SOL    HW1 8825   5.273   0.469   4.754
 2642SOL    HW2 8826   5.326   0.423   4.902
 2643SOL     OW 8827   1.168   4.660   3.423
 2643SOL    HW1 8828   1.135   4.752   3.443
 2643SOL    HW2 8829   1.109   4.617   3.354
 2644SOL     OW 8830   0.397   4.272   5.152
 2644SOL    HW1 8831   0.468   4.232   5.210
 2644SOL    HW2 8832   0.312   4.221   5.162
 2645SOL     OW 8833   4.999   6.603   4.996
 2645SOL    HW1 8834   4.946   6.574   4.917
 2645SOL    HW2 8835   4.939   6.648   5.062
 2646SOL     OW 8836   6.158   6.751   6.411
 2646SOL    HW1 8837   6.061   6.761   6.388
 2646SOL    HW2 8838   6.208   6.832   6.381
 2647SOL     OW 8839   5.458   0.702   0.634
 2647SOL    HW1 8840   5.463   0.629   0.702
 2647SOL    HW2 8841   5.421   0.785   0.675
 2648SOL     OW 8842   6.932   0.230   4.116
 2648SOL    HW1 8843   7.015   0.219   4.063
 2648SOL    HW2 8844   6.863   0.166   4.084
 2649SOL     OW 8845   4.600   2.219   6.348
 2649SOL    HW1 8846   4.604   2.188   6.443
 2649SOL    HW2 8847   4.553   2.149   6.293
 2650SOL     OW 8848   0.584   3.977   3.855
 2650SOL    HW1 8849   0.489   3.948   3.847
 2650SOL    HW2 8850   0.623   3.992   3.764
 2651SOL     OW 8851   1.371   1.554   0.486
 2651SOL    HW1 8852   1.413   1.600   0.407
 2651SOL    HW2 8853   1.351   1.459   0.462
 2652SOL     OW 8854   3.369   4.146   3.567
 2652SOL    HW1 8855   3.359   4.203   3.648
 2652SOL    HW2 8856   3.279   4.114   3.537
 2653SOL     OW 8857   5.139   7.000   4.722
 2653SOL    HW1 8858   5.056   6.946   4.706
 2653SOL    HW2 8859   5.130   0.071   4.676
 2654SOL     OW 8860   4.558   3.187   0.621
 2654SOL    HW1 8861   4.497   3.203   0.544
 2654SOL    HW2 8862   4.649   3.223   0.600
 2655SOL     OW 8863   4.687   4.582   4.410
 2655SOL    HW1 8864   4.680   4.608   4.314
 2655SOL    HW2 8865   4.597   4.588   4.453
 2656SOL     OW 8866   3.981   4.953   4.371
 2656SOL    HW1 8867   3.897   4.987   4.413
 2656SOL    HW2 8868   4.059   5.005   4.405
 2657SOL     OW 8869   2.591   4.478   6.572
 2657SOL    HW1 8870   2.498   4.446   6.591
 2657SOL    HW2 8871   2.595   4.513   6.478
 2658SOL     OW 8872   5.388   4.139   0.508
 2658SOL    HW1 8873   5.436   4.146   0.596
 2658SOL    HW2 8874   5.426   4.204   0.443
 2659SOL     OW 8875   6.395   2.168   4.214
 2659SOL    HW1 8876   6.460   2.243   4.201
 2659SOL    HW2 8877   6.415   2.095   4.149
 2660SOL     OW 8878   0.799   1.720   1.219
 2660SOL    HW1 8879   0.705   1.728   1.251
 2660SOL    HW2 8880   0.820   1.795   1.157
 2661SOL     OW 8881   2.247   6.372   2.237
 2661SOL    HW1 8882   2.282   6.304   2.301
 2661SOL    HW2 8883   2.183   6.433   2.285
 2662SOL     OW 8884   4.668   0.361   5.206
 2662SOL    HW1 8885   4.679   0.304   5.287
 2662SOL    HW2 8886   4.757   0.397   5.178
 2663SOL     OW 8887   3.015   4.511   1.162
 2663SOL    HW1 8888   2.957   4.450   1.108
 2663SOL    HW2 8889   3.002   4.492   1.259
 2664SOL     OW 8890   4.055   3.838   3.590
 2664SOL    HW1 8891   4.070   3.745   3.626
 2664SOL    HW2 8892   4.052   3.902   3.667
 2665SOL     OW 8893   2.911   1.775   4.426
 2665SOL    HW1 8894   2.912   1.814   4.518
 2665SOL    HW2 8895   3.004   1.751   4.399
 2666SOL     OW 8896   4.641   3.909   1.489
 2666SOL    HW1 8897   4.642   3.948   1.581
 2666SOL    HW2 8898   4.550   3.870   1.471
 2667SOL     OW 8899   1.936   5.851   4.542
 2667SOL    HW1 8900   1.875   5.926   4.566
 2667SOL    HW2 8901   1.901   5.805   4.460
 2668SOL     OW 8902   6.835   3.192   3.279
 2668SOL    HW1 8903   6.808   3.151   3.367
 2668SOL    HW2 8904   6.924   3.237   3.289
 2669SOL     OW 8905   2.837   4.869   5.139
 2669SOL    HW1 8906   2.809   4.861   5.234
 2669SOL    HW2 8907   2.833   4.779   5.095
 2670SOL     OW 8908   6.253   1.081   6.244
 2670SOL    HW1 8909   6.235   1.046   6.152
 2670SOL    HW2 8910   6.277   1.178   6.238
 2671SOL     OW 8911   3.255   5.241   0.473
 2671SOL    HW1 8912   3.170   5.192   0.495
 2671SOL    HW2 8913   3.326   5.216   0.538
 2672SOL     OW 8914   0.291   5.456   6.725
 2672SOL    HW1 8915   0.353   5.378   6.724
 2672SOL    HW2 8916   0.339   5.537   6.691
 2673SOL     OW 8917   5.683   2.161   3.769
 2673SOL    HW1 8918   5.731   2.074   3.782
 2673SOL    HW2 8919   5.610   2.149   3.702
 2674SOL     OW 8920   2.150   4.135   4.371
 2674SOL    HW1 8921   2.150   4.035   4.369
 2674SOL    HW2 8922   2.176   4.167   4.462
 2675SOL     OW 8923   0.629   4.901   5.166
 2675SOL    HW1 8924   0.712   4.948   5.195
 2675SOL    HW2 8925   0.633   4.884   5.068
 2676SOL     OW 8926   4.347   0.735   2.940
 2676SOL    HW1 8927   4.351   0.833   2.921
 2676SOL    HW2 8928   4.384   0.684   2.862
 2677SOL     OW 8929   3.080   5.419   0.611
 2677SOL    HW1 8930   3.119   5.394   0.522
 2677SOL    HW2 8931   3.034   5.508   0.604
 2678SOL     OW 8932   0.071   3.819   1.103
 2678SOL    HW1 8933   0.077   3.906   1.052
 2678SOL    HW2 8934   6.996   3.811   1.143
 2679SOL     OW 8935   4.087   5.640   1.288
 2679SOL    HW1 8936   4.035   5.716   1.249
 2679SOL    HW2 8937   4.043   5.608   1.372
 2680SOL     OW 8938   1.777   1.364   0.731
 2680SOL    HW1 8939   1.769   1.301   0.808
 2680SOL    HW2 8940   1.686   1.389   0.698
 2681SOL     OW 8941   1.415   1.962   4.471
 2681SOL    HW1 8942   1.356   2.017   4.530
 2681SOL    HW2 8943   1.423   1.870   4.510
 2682SOL     OW 8944   5.606   3.435   2.038
 2682SOL    HW1 8945   5.644   3.354   1.992
 2682SOL    HW2 8946   5.532   3.406   2.099
 2683SOL     OW 8947   1.449   3.586   0.118
 2683SOL    HW1 8948   1.502   3.540   0.189
 2683SOL    HW2 8949   1.511   3.635   0.057
 2684SOL     OW 8950   4.328   5.176   3.273
 2684SOL    HW1 8951   4.245   5.149   3.222
 2684SOL    HW2 8952   4.305   5.245   3.341
 2685SOL     OW 8953   0.205   6.783   5.777
 2685SOL    HW1 8954   0.265   6.767   5.856
 2685SOL    HW2 8955   0.190   6.697   5.728
 2686SOL     OW 8956   1.699   2.159   5.615
 2686SOL    HW1 8957   1.646   2.190   5.694
 2686SOL    HW2 8958   1.740   2.070   5.636
 2687SOL     OW 8959   4.382   4.796   3.412
 2687SOL    HW1 8960   4.462   4.855   3.416
 2687SOL    HW2 8961   4.388   4.726   3.483
 2688SOL     OW 8962   4.466   5.399   6.486
 2688SOL    HW1 8963   4.413   5.315   6.501
 2688SOL    HW2 8964   4.563   5.379   6.495
 2689SOL     OW 8965   2.086   2.116   3.204
 2689SOL    HW1 8966   2.045   2.028   3.179
 2689SOL    HW2 8967   2.058   2.141   3.296
 2690SOL     OW 8968   3.072   3.916   3.794
 2690SOL    HW1 8969   3.011   3.905   3.873
 2690SOL    HW2 8970   3.099   3.827   3.760
 2691SOL     OW 8971   1.545   5.304   2.338
 2691SOL    HW1 8972   1.472   5.276   2.276
 2691SOL    HW2 8973   1.545   5.404   2.346
 2692SOL     OW 8974   4.693   5.620   4.398
 2692SOL    HW1 8975   4.736   5.574   4.321
 2692SOL    HW2 8976   4.634   5.693   4.365
 2693SOL     OW 8977   1.774   4.132   2.852
 2693SOL    HW1 8978   1.845   4.163   2.788
 2693SOL    HW2 8979   1.684   4.155   2.816
 2694SOL     OW 8980   3.841   0.256   2.948
 2694SOL    HW1 8981   3.867   0.199   2.870
 2694SOL    HW2 8982   3.918   0.264   3.011
 2695SOL     OW 8983   5.629   1.472   2.398
 2695SOL    HW1 8984   5.569   1.426   2.463
 2695SOL    HW2 8985   5.717   1.424   2.394
 2696SOL     OW 8986   3.358   3.266   5.296
 2696SOL    HW1 8987   3.382   3.290   5.202
 2696SOL    HW2 8988   3.421   3.313   5.359
 2697SOL     OW 8989   4.039   1.890   3.306
 2697SOL    HW1 8990   4.109   1.818   3.305
 2697SOL    HW2 8991   4.041   1.936   3.395
 2698SOL     OW 8992   1.747   5.586   1.128
 2698SOL    HW1 8993   1.793   5.622   1.047
 2698SOL    HW2 8994   1.695   5.660   1.171
 2699SOL     OW 8995   3.209   5.686   0.297
 2699SOL    HW1 8996   3.148   5.689   0.217
 2699SOL    HW2 8997   3.263   5.602   0.295
 2700SOL     OW 8998   2.058   3.421   1.792
 2700SOL    HW1 8999   2.121   3.463   1.858
 2700SOL    HW2 9000   2.103   3.342   1.750
 2701SOL     OW 9001   4.014   0.014   6.580
 2701SOL    HW1 9002   3.974   0.014   6.672
 2701SOL    HW2 9003   4.057   0.103   6.562
 2702SOL     OW 9004   0.681   1.965   3.629
 2702SOL    HW1 9005   0.778   1.941   3.629
 2702SOL    HW2 9006   0.670   2.062   3.606
 2703SOL     OW 9007   2.219   0.737   2.465
 2703SOL    HW1 9008   2.167   0.670   2.518
 2703SOL    HW2 9009   2.228   0.821   2.519
 2704SOL     OW 9010   0.972   4.932   0.758
 2704SOL    HW1 9011   1.025   4.943   0.843
 2704SOL    HW2 9012   0.913   4.852   0.767
 2705SOL     OW 9013   1.284   5.443   4.426
 2705SOL    HW1 9014   1.199   5.479   4.388
 2705SOL    HW2 9015   1.353   5.515   4.427
 2706SOL     OW 9016   0.731   0.698   1.263
 2706SOL    HW1 9017   0.671   0.641   1.319
 2706SOL    HW2 9018   0.678   0.767   1.215
 2707SOL     OW 9019   2.276   0.780   5.464
 2707SOL    HW1 9020   2.304   0.874   5.481
 2707SOL    HW2 9021   2.353   0.728   5.428
 2708SOL     OW 9022   1.642   2.215   1.536
 2708SOL    HW1 9023   1.678   2.224   1.443
 2708SOL    HW2 9024   1.684   2.135   1.580
 2709SOL     OW 9025   5.411   6.574   1.236
 2709SOL    HW1 9026   5.427   6.673   1.226
 2709SOL    HW2 9027   5.313   6.557   1.242
 2710SOL     OW 9028   6.725   2.812   2.711
 2710SOL    HW1 9029   6.671   2.758   2.775
 2710SOL    HW2 9030   6.668   2.885   2.673
 2711SOL     OW 9031   3.246   0.927   3.083
 2711SOL    HW1 9032   3.218   0.853   3.145
 2711SOL    HW2 9033   3.197   0.918   2.996
 2712SOL     OW 9034   3.324   5.310   1.163
 2712SOL    HW1 9035   3.422   5.292   1.171
 2712SOL    HW2 9036   3.294   5.364   1.241
 2713SOL     OW 9037   1.551   2.111   4.878
 2713SOL    HW1 9038   1.633   2.169   4.884
 2713SOL    HW2 9039   1.493   2.143   4.803
 2714SOL     OW 9040   4.980   2.037   6.758
 2714SOL    HW1 9041   4.905   2.076   6.812
 2714SOL    HW2 9042   4.955   2.039   6.661
 2715SOL     OW 9043   5.842   0.156   0.261
 2715SOL    HW1 9044   5.854   0.251   0.234
 2715SOL    HW2 9045   5.746   0.139   0.283
 2716SOL     OW 9046   5.845   5.317   1.966
 2716SOL    HW1 9047   5.868   5.220   1.979
 2716SOL    HW2 9048   5.801   5.328   1.877
 2717SOL     OW 9049   1.045   5.198   1.446
 2717SOL    HW1 9050   0.986   5.219   1.524
 2717SOL    HW2 9051   1.080   5.284   1.407
 2718SOL     OW 9052   2.179   3.931   4.601
 2718SOL    HW1 9053   2.142   3.891   4.685
 2718SOL    HW2 9054   2.173   3.865   4.526
 2719SOL     OW 9055   5.258   4.800   1.757
 2719SOL    HW1 9056   5.351   4.803   1.719
 2719SOL    HW2 9057   5.208   4.723   1.717
 2720SOL     OW 9058   1.893   6.068   3.579
 2720SOL    HW1 9059   1.812   6.010   3.586
 2720SOL    HW2 9060   1.963   6.021   3.526
 2721SOL     OW 9061   2.940   0.299   4.810
 2721SOL    HW1 9062   2.973   0.211   4.776
 2721SOL    HW2 9063   2.848   0.287   4.848
 2722SOL     OW 9064   6.764   5.421   2.888
 2722SOL    HW1 9065   6.706   5.438   2.809
 2722SOL    HW2 9066   6.849   5.474   2.880
 2723SOL     OW 9067   1.672   6.842   5.753
 2723SOL    HW1 9068   1.722   6.773   5.698
 2723SOL    HW2 9069   1.727   6.925   5.758
 2724SOL     OW 9070   3.124   6.479   5.921
 2724SOL    HW1 9071   3.072   6.401   5.955
 2724SOL    HW2 9072   3.062   6.543   5.876
 2725SOL     OW 9073   6.268   5.242   3.243
 2725SOL    HW1 9074   6.348   5.285   3.284
 2725SOL    HW2 9075   6.217   5.311   3.190
 2726SOL     OW 9076   6.231   4.263   0.920
 2726SOL    HW1 9077   6.304   4.207   0.879
 2726SOL    HW2 9078   6.154   4.269   0.856
 2727SOL     OW 9079   6.989   4.762   2.702
 2727SOL    HW1 9080   6.997   4.740   2.799
 2727SOL    HW2 9081   0.008   4.686   2.647
 2728SOL     OW 9082   3.843   0.249   5.448
 2728SOL    HW1 9083   3.833   0.151   5.465
 2728SOL    HW2 9084   3.757   0.296   5.467
 2729SOL     OW 9085   6.745   5.918   2.223
 2729SOL    HW1 9086   6.731   5.985   2.151
 2729SOL    HW2 9087   6.728   5.826   2.188
 2730SOL     OW 9088   1.620   6.250   1.243
 2730SOL    HW1 9089   1.576   6.333   1.211
 2730SOL    HW2 9090   1.719   6.261   1.241
 2731SOL     OW 9091   3.946   3.689   2.013
 2731SOL    HW1 9092   3.996   3.698   2.099
 2731SOL    HW2 9093   3.848   3.691   2.032
 2732SOL     OW 9094   5.987   3.171   1.548
 2732SOL    HW1 9095   5.984   3.074   1.574
 2732SOL    HW2 9096   6.075   3.191   1.506
 2733SOL     OW 9097   0.089   6.989   5.291
 2733SOL    HW1 9098   0.074   6.961   5.386
 2733SOL    HW2 9099   0.144   0.056   5.290
 2734SOL     OW 9100   2.156   5.383   2.366
 2734SOL    HW1 9101   2.219   5.312   2.399
 2734SOL    HW2 9102   2.063   5.346   2.362
 2735SOL     OW 9103   0.532   3.827   3.152
 2735SOL    HW1 9104   0.626   3.857   3.174
 2735SOL    HW2 9105   0.467   3.891   3.193
 2736SOL     OW 9106   5.160   0.399   3.932
 2736SOL    HW1 9107   5.256   0.376   3.919
 2736SOL    HW2 9108   5.149   0.445   4.020
 2737SOL     OW 9109   3.201   3.072   5.420
 2737SOL    HW1 9110   3.253   3.144   5.374
 2737SOL    HW2 9111   3.206   3.084   5.519
 2738SOL     OW 9112   5.153   5.389   4.488
 2738SOL    HW1 9113   5.151   5.322   4.414
 2738SOL    HW2 9114   5.227   5.367   4.552
 2739SOL     OW 9115   5.871   4.845   0.420
 2739SOL    HW1 9116   5.828   4.757   0.443
 2739SOL    HW2 9117   5.840   4.914   0.485
 2740SOL     OW 9118   5.853   2.747   2.638
 2740SOL    HW1 9119   5.945   2.748   2.597
 2740SOL    HW2 9120   5.833   2.655   2.671
 2741SOL     OW 9121   6.892   1.382   5.983
 2741SOL    HW1 9122   6.873   1.474   6.019
 2741SOL    HW2 9123   6.894   1.317   6.059
 2742SOL     OW 9124   1.882   5.400   6.632
 2742SOL    HW1 9125   1.802   5.406   6.572
 2742SOL    HW2 9126   1.892   5.307   6.666
 2743SOL     OW 9127   6.418   5.311   2.051
 2743SOL    HW1 9128   6.441   5.355   2.138
 2743SOL    HW2 9129   6.459   5.220   2.048
 2744SOL     OW 9130   3.954   2.464   6.762
 2744SOL    HW1 9131   4.021   2.427   6.697
 2744SOL    HW2 9132   3.987   2.449   6.855
 2745SOL     OW 9133   1.076   0.149   6.937
 2745SOL    HW1 9134   1.018   0.226   6.912
 2745SOL    HW2 9135   1.021   0.081   6.987
 2746SOL     OW 9136   2.037   1.898   4.491
 2746SOL    HW1 9137   2.070   1.843   4.568
 2746SOL    HW2 9138   1.995   1.982   4.526
 2747SOL     OW 9139   5.508   3.832   5.666
 2747SOL    HW1 9140   5.437   3.869   5.726
 2747SOL    HW2 9141   5.549   3.752   5.709
 2748SOL     OW 9142   3.787   1.511   1.086
 2748SOL    HW1 9143   3.779   1.606   1.116
 2748SOL    HW2 9144   3.870   1.501   1.030
 2749SOL     OW 9145   5.936   4.444   4.061
 2749SOL    HW1 9146   6.013   4.481   4.009
 2749SOL    HW2 9147   5.908   4.510   4.130
 2750SOL     OW 9148   0.412   4.989   1.680
 2750SOL    HW1 9149   0.334   4.979   1.617
 2750SOL    HW2 9150   0.411   4.913   1.745
 2751SOL     OW 9151   1.537   6.899   0.362
 2751SOL    HW1 9152   1.503   6.976   0.308
 2751SOL    HW2 9153   1.555   6.822   0.301
 2752SOL     OW 9154   5.514   5.359   4.882
 2752SOL    HW1 9155   5.417   5.367   4.904
 2752SOL    HW2 9156   5.560   5.306   4.954
 2753SOL     OW 9157   1.553   6.935   6.113
 2753SOL    HW1 9158   1.486   6.873   6.154
 2753SOL    HW2 9159   1.638   6.886   6.095
 2754SOL     OW 9160   6.414   1.202   4.212
 2754SOL    HW1 9161   6.392   1.283   4.266
 2754SOL    HW2 9162   6.443   1.128   4.272
 2755SOL     OW 9163   3.157   6.843   3.035
 2755SOL    HW1 9164   3.210   6.850   3.119
 2755SOL    HW2 9165   3.152   6.932   2.991
 2756SOL     OW 9166   6.415   3.756   4.391
 2756SOL    HW1 9167   6.394   3.850   4.362
 2756SOL    HW2 9168   6.499   3.726   4.346
 2757SOL     OW 9169   2.819   1.295   6.915
 2757SOL    HW1 9170   2.822   1.310   6.816
 2757SOL    HW2 9171   2.757   1.219   6.935
 2758SOL     OW 9172   5.617   5.969   3.781
 2758SOL    HW1 9173   5.518   5.961   3.770
 2758SOL    HW2 9174   5.653   6.029   3.711
 2759SOL     OW 9175   3.901   5.422   5.102
 2759SOL    HW1 9176   3.804   5.446   5.106
 2759SOL    HW2 9177   3.942   5.434   5.193
 2760SOL     OW 9178   0.133   5.310   2.809
 2760SOL    HW1 9179   0.123   5.214   2.833
 2760SOL    HW2 9180   0.171   5.317   2.717
 2761SOL     OW 9181   1.953   4.172   3.620
 2761SOL    HW1 9182   2.035   4.116   3.613
 2761SOL    HW2 9183   1.969   4.248   3.682
 2762SOL     OW 9184   1.353   2.151   6.980
 2762SOL    HW1 9185   1.342   2.150   0.063
 2762SOL    HW2 9186   1.439   2.196   6.956
 2763SOL     OW 9187   4.908   2.232   5.417
 2763SOL    HW1 9188   4.859   2.227   5.505
 2763SOL    HW2 9189   4.849   2.198   5.344
 2764SOL     OW 9190   0.481   5.429   2.471
 2764SOL    HW1 9191   0.492   5.437   2.570
 2764SOL    HW2 9192   0.420   5.501   2.439
 2765SOL     OW 9193   6.869   0.234   0.987
 2765SOL    HW1 9194   6.799   0.183   0.937
 2765SOL    HW2 9195   6.954   0.181   0.987
 2766SOL     OW 9196   3.947   1.070   6.234
 2766SOL    HW1 9197   4.024   1.010   6.212
 2766SOL    HW2 9198   3.903   1.038   6.318
 2767SOL     OW 9199   5.971   5.798   6.646
 2767SOL    HW1 9200   5.914   5.753   6.715
 2767SOL    HW2 9201   5.965   5.747   6.560
 2768SOL     OW 9202   4.202   1.348   6.773
 2768SOL    HW1 9203   4.240   1.425   6.825
 2768SOL    HW2 9204   4.133   1.301   6.828
 2769SOL     OW 9205   2.609   4.593   6.327
 2769SOL    HW1 9206   2.625   4.504   6.285
 2769SOL    HW2 9207   2.613   4.665   6.257
 2770SOL     OW 9208   4.342   5.884   6.236
 2770SOL    HW1 9209   4.400   5.889   6.154
 2770SOL    HW2 9210   4.318   5.977   6.265
 2771SOL     OW 9211   5.805   0.158   4.996
 2771SOL    HW1 9212   5.819   0.059   5.009
 2771SOL    HW2 9213   5.871   0.191   4.928
 2772SOL     OW 9214   3.023   1.596   1.951
 2772SOL    HW1 9215   2.984   1.516   1.997
 2772SOL    HW2 9216   2.950   1.656   1.920
 2773SOL     OW 9217   6.958   2.839   3.777
 2773SOL    HW1 9218   7.004   2.835   3.865
 2773SOL    HW2 9219   6.859   2.828   3.790
 2774SOL     OW 9220   5.117   3.047   2.892
 2774SOL    HW1 9221   5.178   3.012   2.820
 2774SOL    HW2 9222   5.153   3.021   2.981
 2775SOL     OW 9223   6.064   3.909   3.647
 2775SOL    HW1 9224   6.050   4.005   3.674
 2775SOL    HW2 9225   6.127   3.865   3.711
 2776SOL     OW 9226   5.452   4.562   5.605
 2776SOL    HW1 9227   5.377   4.577   5.541
 2776SOL    HW2 9228   5.419   4.576   5.699
 2777SOL     OW 9229   2.170   1.474   6.595
 2777SOL    HW1 9230   2.159   1.417   6.513
 2777SOL    HW2 9231   2.267   1.497   6.607
 2778SOL     OW 9232   1.963   6.034   6.362
 2778SOL    HW1 9233   1.963   5.936   6.384
 2778SOL    HW2 9234   1.878   6.076   6.396
 2779SOL     OW 9235   5.577   6.730   1.985
 2779SOL    HW1 9236   5.599   6.770   2.074
 2779SOL    HW2 9237   5.573   6.803   1.917
 2780SOL     OW 9238   6.801   0.170   6.236
 2780SOL    HW1 9239   6.834   0.248   6.183
 2780SOL    HW2 9240   6.796   0.196   6.333
 2781SOL     OW 9241   6.064   0.290   3.213
 2781SOL    HW1 9242   6.070   0.371   3.155
 2781SOL    HW2 9243   5.974   0.286   3.256
 2782SOL     OW 9244   4.265   1.557   5.611
 2782SOL    HW1 9245   4.344   1.496   5.610
 2782SOL    HW2 9246   4.215   1.545   5.697
 2783SOL     OW 9247   6.761   3.900   1.422
 2783SOL    HW1 9248   6.700   3.845   1.364
 2783SOL    HW2 9249   6.786   3.984   1.373
 2784SOL     OW 9250   3.381   1.645   1.662
 2784SOL    HW1 9251   3.283   1.649   1.642
 2784SOL    HW2 9252   3.399   1.568   1.724
 2785SOL     OW 9253   5.376   2.183   0.864
 2785SOL    HW1 9254   5.334   2.251   0.805
 2785SOL    HW2 9255   5.327   2.179   0.951
 2786SOL     OW 9256   6.736   6.028   1.319
 2786SOL    HW1 9257   6.662   5.981   1.367
 2786SOL    HW2 9258   6.712   6.124   1.308
 2787SOL     OW 9259   6.571   5.778   5.696
 2787SOL    HW1 9260   6.571   5.733   5.607
 2787SOL    HW2 9261   6.664   5.807   5.719
 2788SOL     OW 9262   2.887   6.281   6.291
 2788SOL    HW1 9263   2.940   6.257   6.209
 2788SOL    HW2 9264   2.797   6.315   6.263
 2789SOL     OW 9265   1.678   2.155   3.392
 2789SOL    HW1 9266   1.629   2.231   3.435
 2789SOL    HW2 9267   1.776   2.164   3.411
 2790SOL     OW 9268   3.419   5.196   0.701
 2790SOL    HW1 9269   3.406   5.280   0.754
 2790SOL    HW2 9270   3.436   5.119   0.762
 2791SOL     OW 9271   0.189   4.571   2.292
 2791SOL    HW1 9272   0.154   4.567   2.198
 2791SOL    HW2 9273   0.272   4.516   2.298
 2792SOL     OW 9274   2.821   1.300   4.213
 2792SOL    HW1 9275   2.836   1.382   4.158
 2792SOL    HW2 9276   2.909   1.258   4.235
 2793SOL     OW 9277   5.086   3.814   1.900
 2793SOL    HW1 9278   5.179   3.843   1.876
 2793SOL    HW2 9279   5.058   3.740   1.839
 2794SOL     OW 9280   6.509   2.009   5.812
 2794SOL    HW1 9281   6.463   1.920   5.812
 2794SOL    HW2 9282   6.546   2.028   5.721
 2795SOL     OW 9283   0.392   4.731   1.138
 2795SOL    HW1 9284   0.329   4.712   1.062
 2795SOL    HW2 9285   0.375   4.823   1.173
 2796SOL     OW 9286   0.843   5.382   4.337
 2796SOL    HW1 9287   0.780   5.439   4.285
 2796SOL    HW2 9288   0.797   5.348   4.420
 2797SOL     OW 9289   5.362   5.579   5.691
 2797SOL    HW1 9290   5.360   5.481   5.708
 2797SOL    HW2 9291   5.400   5.626   5.770
 2798SOL     OW 9292   6.400   5.758   2.660
 2798SOL    HW1 9293   6.320   5.807   2.626
 2798SOL    HW2 9294   6.407   5.771   2.759
 2799SOL     OW 9295   4.806   5.383   5.440
 2799SOL    HW1 9296   4.835   5.476   5.421
 2799SOL    HW2 9297   4.782   5.337   5.355
 2800SOL     OW 9298   6.229   0.916   6.031
 2800SOL    HW1 9299   6.268   0.824   6.032
 2800SOL    HW2 9300   6.133   0.911   6.004
 2801SOL     OW 9301   1.945   5.713   5.600
 2801SOL    HW1 9302   1.990   5.800   5.622
 2801SOL    HW2 9303   1.895   5.723   5.514
 2802SOL     OW 9304   6.703   6.707   5.627
 2802SOL    HW1 9305   6.677   6.648   5.550
 2802SOL    HW2 9306   6.651   6.680   5.708
 2803SOL     OW 9307   3.715   4.035   5.486
 2803SOL    HW1 9308   3.697   3.937   5.497
 2803SOL    HW2 9309   3.631   4.086   5.504
 2804SOL     OW 9310   0.141   3.642   4.705
 2804SOL    HW1 9311   0.044   3.642   4.728
 2804SOL    HW2 9312   0.163   3.722   4.649
 2805SOL     OW 9313   6.322   3.846   2.581
 2805SOL    HW1 9314   6.270   3.874   2.500
 2805SOL    HW2 9315   6.260   3.836   2.659
 2806SOL     OW 9316   1.794   4.595   6.844
 2806SOL    HW1 9317   1.878   4.558   6.805
 2806SOL    HW2 9318   1.756   4.530   6.910
 2807SOL     OW 9319   4.070   0.219   3.142
 2807SOL    HW1 9320   4.133   0.143   3.158
 2807SOL    HW2 9321   4.068   0.278   3.223
 2808SOL     OW 9322   6.091   6.088   0.880
 2808SOL    HW1 9323   6.025   6.108   0.952
 2808SOL    HW2 9324   6.066   6.138   0.797
 2809SOL     OW 9325   5.960   2.653   1.832
 2809SOL    HW1 9326   5.981   2.737   1.883
 2809SOL    HW2 9327   6.039   2.627   1.776
 2810SOL     OW 9328   2.481   5.076   2.584
 2810SOL    HW1 9329   2.576   5.057   2.608
 2810SOL    HW2 9330   2.437   5.129   2.657
 2811SOL     OW 9331   0.614   1.175   2.282
 2811SOL    HW1 9332   0.609   1.238   2.206
 2811SOL    HW2 9333   0.708   1.141   2.293
 2812SOL     OW 9334   6.364   3.011   0.553
 2812SOL    HW1 9335   6.293   3.030   0.486
 2812SOL    HW2 9336   6.454   3.018   0.510
 2813SOL     OW 9337   0.727   1.594   0.508
 2813SOL    HW1 9338   0.682   1.529   0.446
 2813SOL    HW2 9339   0.822   1.607   0.479
 2814SOL     OW 9340   3.222   4.036   5.671
 2814SOL    HW1 9341   3.230   3.936   5.671
 2814SOL    HW2 9342   3.289   4.074   5.735
 2815SOL     OW 9343   6.977   5.945   6.191
 2815SOL    HW1 9344   6.886   5.916   6.163
 2815SOL    HW2 9345   7.015   6.007   6.122
 2816SOL     OW 9346   6.670   5.968   4.965
 2816SOL    HW1 9347   6.681   6.017   4.878
 2816SOL    HW2 9348   6.761   5.941   4.999
 2817SOL     OW 9349   3.362   1.598   2.359
 2817SOL    HW1 9350   3.419   1.677   2.384
 2817SOL    HW2 9351   3.273   1.606   2.403
 2818SOL     OW 9352   0.013   1.069   1.655
 2818SOL    HW1 9353   0.030   1.168   1.650
 2818SOL    HW2 9354   6.989   1.038   1.569
 2819SOL     OW 9355   1.334   0.250   1.085
 2819SOL    HW1 9356   1.301   0.258   0.991
 2819SOL    HW2 9357   1.299   0.326   1.139
 2820SOL     OW 9358   0.776   2.123   2.334
 2820SOL    HW1 9359   0.843   2.055   2.304
 2820SOL    HW2 9360   0.774   2.200   2.270
 2821SOL     OW 9361   3.120   5.056   5.991
 2821SOL    HW1 9362   3.042   5.068   5.931
 2821SOL    HW2 9363   3.091   5.008   6.074
 2822SOL     OW 9364   4.249   2.465   0.049
 2822SOL    HW1 9365   4.250   2.562   0.024
 2822SOL    HW2 9366   4.340   2.427   0.036
 2823SOL     OW 9367   5.699   1.018   6.896
 2823SOL    HW1 9368   5.712   0.919   6.900
 2823SOL    HW2 9369   5.686   1.046   6.801
 2824SOL     OW 9370   1.733   3.521   5.368
 2824SOL    HW1 9371   1.827   3.556   5.376
 2824SOL    HW2 9372   1.727   3.459   5.290
 2825SOL     OW 9373   5.499   0.632   6.615
 2825SOL    HW1 9374   5.475   0.725   6.588
 2825SOL    HW2 9375   5.598   0.624   6.623
 2826SOL     OW 9376   2.328   2.729   6.348
 2826SOL    HW1 9377   2.257   2.702   6.283
 2826SOL    HW2 9378   2.411   2.753   6.298
 2827SOL     OW 9379   0.536   0.960   6.407
 2827SOL    HW1 9380   0.490   0.875   6.381
 2827SOL    HW2 9381   0.468   1.026   6.439
 2828SOL     OW 9382   1.757   3.631   1.318
 2828SOL    HW1 9383   1.832   3.564   1.314
 2828SOL    HW2 9384   1.780   3.703   1.384
 2829SOL     OW 9385   3.411   3.161   3.144
 2829SOL    HW1 9386   3.509   3.179   3.139
 2829SOL    HW2 9387   3.387   3.088   3.080
 2830SOL     OW 9388   3.630   4.340   5.343
 2830SOL    HW1 9389   3.700   4.355   5.413
 2830SOL    HW2 9390   3.543   4.319   5.386
 2831SOL     OW 9391   6.994   1.879   2.941
 2831SOL    HW1 9392   0.015   1.961   2.898
 2831SOL    HW2 9393   0.040   1.803   2.931
 2832SOL     OW 9394   0.962   3.348   1.694
 2832SOL    HW1 9395   0.862   3.352   1.697
 2832SOL    HW2 9396   0.999   3.386   1.779
 2833SOL     OW 9397   2.300   1.371   2.294
 2833SOL    HW1 9398   2.317   1.340   2.200
 2833SOL    HW2 9399   2.358   1.450   2.314
 2834SOL     OW 9400   4.783   6.296   5.038
 2834SOL    HW1 9401   4.761   6.360   4.964
 2834SOL    HW2 9402   4.725   6.215   5.030
 2835SOL     OW 9403   0.903   6.612   0.492
 2835SOL    HW1 9404   0.841   6.676   0.446
 2835SOL    HW2 9405   0.993   6.654   0.500
 2836SOL     OW 9406   2.991   6.192   2.851
 2836SOL    HW1 9407   2.980   6.098   2.886
 2836SOL    HW2 9408   3.084   6.223   2.871
 2837SOL     OW 9409   5.624   4.369   2.178
 2837SOL    HW1 9410   5.714   4.412   2.171
 2837SOL    HW2 9411   5.561   4.432   2.224
 2838SOL     OW 9412   4.828   4.048   0.254
 2838SOL    HW1 9413   4.732   4.075   0.262
 2838SOL    HW2 9414   4.886   4.129   0.251
 2839SOL     OW 9415   6.967   2.160   3.202
 2839SOL    HW1 9416   7.013   2.227   3.143
 2839SOL    HW2 9417   0.013   2.131   3.275
 2840SOL     OW 9418   1.618   5.553   2.926
 2840SOL    HW1 9419   1.559   5.559   3.007
 2840SOL    HW2 9420   1.667   5.466   2.927
 2841SOL     OW 9421   6.380   2.147   0.089
 2841SOL    HW1 9422   6.306   2.133   0.022
 2841SOL    HW2 9423   6.345   2.199   0.167
 2842SOL     OW 9424   1.606   5.795   5.167
 2842SOL    HW1 9425   1.554   5.865   5.215
 2842SOL    HW2 9426   1.637   5.830   5.079
 2843SOL     OW 9427   2.528   2.183   2.913
 2843SOL    HW1 9428   2.576   2.250   2.969
 2843SOL    HW2 9429   2.434   2.173   2.946
 2844SOL     OW 9430   5.208   4.734   1.214
 2844SOL    HW1 9431   5.179   4.730   1.310
 2844SOL    HW2 9432   5.192   4.825   1.178
 2845SOL     OW 9433   5.213   2.581   3.569
 2845SOL    HW1 9434   5.132   2.567   3.513
 2845SOL    HW2 9435   5.288   2.614   3.512
 2846SOL     OW 9436   3.639   0.827   0.103
 2846SOL    HW1 9437   3.728   0.863   0.129
 2846SOL    HW2 9438   3.628   0.833   0.004
 2847SOL     OW 9439   4.909   4.059   2.400
 2847SOL    HW1 9440   4.843   4.107   2.342
 2847SOL    HW2 9441   4.984   4.024   2.343
 2848SOL     OW 9442   1.824   2.262   5.392
 2848SOL    HW1 9443   1.783   2.231   5.306
 2848SOL    HW2 9444   1.769   2.231   5.469
 2849SOL     OW 9445   3.866   1.228   1.218
 2849SOL    HW1 9446   3.788   1.288   1.238
 2849SOL    HW2 9447   3.902   1.251   1.128
 2850SOL     OW 9448   1.614   0.048   3.733
 2850SOL    HW1 9449   1.604   0.116   3.661
 2850SOL    HW2 9450   1.594   6.973   3.697
 2851SOL     OW 9451   4.312   3.499   6.447
 2851SOL    HW1 9452   4.326   3.445   6.530
 2851SOL    HW2 9453   4.352   3.590   6.460
 2852SOL     OW 9454   6.562   4.066   0.059
 2852SOL    HW1 9455   6.626   4.059   6.999
 2852SOL    HW2 9456   6.608   4.109   0.137
 2853SOL     OW 9457   0.687   3.363   0.076
 2853SOL    HW1 9458   0.617   3.305   0.119
 2853SOL    HW2 9459   0.647   3.452   0.055
 2854SOL     OW 9460   3.631   1.319   6.138
 2854SOL    HW1 9461   3.693   1.352   6.208
 2854SOL    HW2 9462   3.666   1.234   6.099
 2855SOL     OW 9463   0.987   2.438   4.068
 2855SOL    HW1 9464   0.995   2.532   4.033
 2855SOL    HW2 9465   1.063   2.383   4.033
 2856SOL     OW 9466   1.506   2.628   3.214
 2856SOL    HW1 9467   1.525   2.726   3.211
 2856SOL    HW2 9468   1.536   2.585   3.128
 2857SOL     OW 9469   0.322   3.194   0.852
 2857SOL    HW1 9470   0.343   3.280   0.805
 2857SOL    HW2 9471   0.391   3.126   0.829
 2858SOL     OW 9472   5.098   6.299   2.396
 2858SOL    HW1 9473   5.178   6.240   2.405
 2858SOL    HW2 9474   5.059   6.318   2.486
 2859SOL     OW 9475   5.387   5.507   0.678
 2859SOL    HW1 9476   5.478   5.539   0.703
 2859SOL    HW2 9477   5.395   5.437   0.607
 2860SOL     OW 9478   1.850   6.647   2.478
 2860SOL    HW1 9479   1.787   6.588   2.529
 2860SOL    HW2 9480   1.805   6.678   2.394
 2861SOL     OW 9481   3.213   5.501   5.613
 2861SOL    HW1 9482   3.193   5.415   5.566
 2861SOL    HW2 9483   3.272   5.558   5.556
 2862SOL     OW 9484   4.524   2.584   1.861
 2862SOL    HW1 9485   4.590   2.517   1.826
 2862SOL    HW2 9486   4.432   2.546   1.856
 2863SOL     OW 9487   5.253   1.466   6.624
 2863SOL    HW1 9488   5.333   1.515   6.658
 2863SOL    HW2 9489   5.274   1.428   6.534
 2864SOL     OW 9490   4.299   3.354   1.011
 2864SOL    HW1 9491   4.280   3.263   0.973
 2864SOL    HW2 9492   4.305   3.347   1.111
 2865SOL     OW 9493   4.537   6.990   4.055
 2865SOL    HW1 9494   4.631   6.962   4.036
 2865SOL    HW2 9495   4.523   6.992   4.154
 2866SOL     OW 9496   5.702   3.868   0.338
 2866SOL    HW1 9497   5.709   3.772   0.365
 2866SOL    HW2 9498   5.611   3.886   0.302
 2867SOL     OW 9499   6.597   6.368   2.029
 2867SOL    HW1 9500   6.589   6.463   2.060
 2867SOL    HW2 9501   6.632   6.366   1.936
 2868SOL     OW 9502   1.097   1.016   5.090
 2868SOL    HW1 9503   1.194   1.037   5.082
 2868SOL    HW2 9504   1.050   1.090   5.138
 2869SOL     OW 9505   6.023   0.219   3.917
 2869SOL    HW1 9506   6.039   0.256   4.009
 2869SOL    HW2 9507   6.103   0.235   3.860
 2870SOL     OW 9508   0.755   1.788   6.691
 2870SOL    HW1 9509   0.770   1.748   6.782
 2870SOL    HW2 9510   0.744   1.715   6.624
 2871SOL     OW 9511   6.341   0.821   0.098
 2871SOL    HW1 9512   6.252   0.867   0.100
 2871SOL    HW2 9513   6.332   0.735   0.048
 2872SOL     OW 9514   2.567   1.279   1.136
 2872SOL    HW1 9515   2.571   1.356   1.200
 2872SOL    HW2 9516   2.532   1.311   1.048
 2873SOL     OW 9517   6.897   5.684   1.514
 2873SOL    HW1 9518   6.967   5.657   1.581
 2873SOL    HW2 9519   6.941   5.732   1.438
 2874SOL     OW 9520   4.402   7.001   2.953
 2874SOL    HW1 9521   4.332   7.001   3.024
 2874SOL    HW2 9522   4.460   6.920   2.964
 2875SOL     OW 9523   3.643   6.831   2.758
 2875SOL    HW1 9524   3.577   6.759   2.736
 2875SOL    HW2 9525   3.705   6.845   2.681
 2876SOL     OW 9526   1.206   6.257   1.909
 2876SOL    HW1 9527   1.184   6.176   1.855
 2876SOL    HW2 9528   1.302   6.281   1.895
 2877SOL     OW 9529   1.815   1.033   6.627
 2877SOL    HW1 9530   1.832   1.047   6.725
 2877SOL    HW2 9531   1.902   1.021   6.579
 2878SOL     OW 9532   3.257   3.985   4.116
 2878SOL    HW1 9533   3.351   3.992   4.148
 2878SOL    HW2 9534   3.196   4.032   4.181
 2879SOL     OW 9535   4.155   5.399   6.096
 2879SOL    HW1 9536   4.120   5.334   6.163
 2879SOL    HW2 9537   4.235   5.446   6.134
 2880SOL     OW 9538   0.757   1.674   3.739
 2880SOL    HW1 9539   0.730   1.587   3.699
 2880SOL    HW2 9540   0.701   1.692   3.820
 2881SOL     OW 9541   3.354   5.893   0.218
 2881SOL    HW1 9542   3.281   5.840   0.263
 2881SOL    HW2 9543   3.362   5.982   0.263
 2882SOL     OW 9544   6.073   6.200   1.273
 2882SOL    HW1 9545   6.100   6.126   1.335
 2882SOL    HW2 9546   6.000   6.167   1.213
 2883SOL     OW 9547   5.971   6.471   3.716
 2883SOL    HW1 9548   5.971   6.401   3.787
 2883SOL    HW2 9549   6.058   6.521   3.719
 2884SOL     OW 9550   6.709   5.321   2.275
 2884SOL    HW1 9551   6.706   5.253   2.202
 2884SOL    HW2 9552   6.624   5.373   2.275
 2885SOL     OW 9553   1.313   2.139   4.261
 2885SOL    HW1 9554   1.342   2.233   4.245
 2885SOL    HW2 9555   1.355   2.105   4.345
 2886SOL     OW 9556   2.729   4.589   0.020
 2886SOL    HW1 9557   2.673   4.671   0.011
 2886SOL    HW2 9558   2.720   4.533   6.954
 2887SOL     OW 9559   6.918   6.429   4.221
 2887SOL    HW1 9560   6.993   6.363   4.214
 2887SOL    HW2 9561   6.857   6.418   4.143
 2888SOL     OW 9562   6.900   4.999   6.984
 2888SOL    HW1 9563   6.944   5.078   6.941
 2888SOL    HW2 9564   6.803   5.018   6.998
 2889SOL     OW 9565   3.064   6.605   2.902
 2889SOL    HW1 9566   3.144   6.559   2.940
 2889SOL    HW2 9567   3.081   6.703   2.894
 2890SOL     OW 9568   1.952   5.248   0.850
 2890SOL    HW1 9569   1.859   5.229   0.880
 2890SOL    HW2 9570   1.972   5.346   0.861
 2891SOL     OW 9571   0.831   3.336   3.031
 2891SOL    HW1 9572   0.868   3.288   2.952
 2891SOL    HW2 9573   0.900   3.336   3.105
 2892SOL     OW 9574   5.935   2.648   1.063
 2892SOL    HW1 9575   6.010   2.711   1.044
 2892SOL    HW2 9576   5.900   2.664   1.156
 2893SOL     OW 9577   1.767   5.570   4.763
 2893SOL    HW1 9578   1.838   5.628   4.803
 2893SOL    HW2 9579   1.803   5.527   4.680
 2894SOL     OW 9580   1.752   4.192   1.564
 2894SOL    HW1 9581   1.787   4.278   1.600
 2894SOL    HW2 9582   1.818   4.152   1.501
 2895SOL     OW 9583   4.134   0.841   6.213
 2895SOL    HW1 9584   4.060   0.776   6.230
 2895SOL    HW2 9585   4.209   0.795   6.167
 2896SOL     OW 9586   5.239   0.143   6.224
 2896SOL    HW1 9587   5.150   0.188   6.212
 2896SOL    HW2 9588   5.236   0.052   6.183
 2897SOL     OW 9589   4.408   4.614   3.174
 2897SOL    HW1 9590   4.309   4.616   3.159
 2897SOL    HW2 9591   4.435   4.691   3.233
 2898SOL     OW 9592   5.423   3.839   3.826
 2898SOL    HW1 9593   5.371   3.754   3.836
 2898SOL    HW2 9594   5.409   3.897   3.906
 2899SOL     OW 9595   6.436   1.710   1.124
 2899SOL    HW1 9596   6.512   1.776   1.122
 2899SOL    HW2 9597   6.398   1.700   1.033
 2900SOL     OW 9598   4.010   4.921   0.174
 2900SOL    HW1 9599   4.096   4.884   0.138
 2900SOL    HW2 9600   3.986   4.873   0.258
 2901SOL     OW 9601   1.552   4.941   3.478
 2901SOL    HW1 9602   1.517   4.861   3.428
 2901SOL    HW2 9603   1.532   4.931   3.575
 2902SOL     OW 9604   0.307   5.587   3.810
 2902SOL    HW1 9605   0.282   5.655   3.879
 2902SOL    HW2 9606   0.324   5.632   3.723
 2903SOL     OW 9607   4.496   6.324   1.332
 2903SOL    HW1 9608   4.557   6.265   1.278
 2903SOL    HW2 9609   4.500   6.296   1.428
 2904SOL     OW 9610   3.056   4.877   4.793
 2904SOL    HW1 9611   3.061   4.923   4.882
 2904SOL    HW2 9612   3.148   4.852   4.763
 2905SOL     OW 9613   1.454   4.129   3.767
 2905SOL    HW1 9614   1.526   4.182   3.811
 2905SOL    HW2 9615   1.365   4.172   3.784
 2906SOL     OW 9616   5.315   6.007   2.632
 2906SOL    HW1 9617   5.374   6.010   2.552
 2906SOL    HW2 9618   5.347   5.936   2.694
 2907SOL     OW 9619   0.753   1.606   4.147
 2907SOL    HW1 9620   0.789   1.543   4.078
 2907SOL    HW2 9621   0.721   1.555   4.227
 2908SOL     OW 9622   5.651   6.698   4.330
 2908SOL    HW1 9623   5.744   6.723   4.358
 2908SOL    HW2 9624   5.588   6.709   4.407
 2909SOL     OW 9625   1.518   6.537   3.340
 2909SOL    HW1 9626   1.596   6.477   3.321
 2909SOL    HW2 9627   1.445   6.485   3.384
 2910SOL     OW 9628   6.576   0.965   3.323
 2910SOL    HW1 9629   6.536   1.045   3.279
 2910SOL    HW2 9630   6.586   0.982   3.421
 2911SOL     OW 9631   1.140   4.881   3.953
 2911SOL    HW1 9632   1.185   4.966   3.926
 2911SOL    HW2 9633   1.044   4.900   3.972
 2912SOL     OW 9634   6.605   6.274   6.894
 2912SOL    HW1 9635   6.664   6.340   6.940
 2912SOL    HW2 9636   6.604   6.189   6.946
 2913SOL     OW 9637   2.807   4.682   2.614
 2913SOL    HW1 9638   2.865   4.725   2.683
 2913SOL    HW2 9639   2.830   4.717   2.524
 2914SOL     OW 9640   5.489   5.422   1.382
 2914SOL    HW1 9641   5.493   5.340   1.439
 2914SOL    HW2 9642   5.557   5.488   1.413
 2915SOL     OW 9643   2.981   1.871   3.775
 2915SOL    HW1 9644   2.915   1.874   3.700
 2915SOL    HW2 9645   3.054   1.937   3.759
 2916SOL     OW 9646   2.171   5.583   0.299
 2916SOL    HW1 9647   2.098   5.515   0.312
 2916SOL    HW2 9648   2.248   5.561   0.358
 2917SOL     OW 9649   3.106   0.533   3.866
 2917SOL    HW1 9650   3.120   0.468   3.792
 2917SOL    HW2 9651   3.017   0.518   3.908
 2918SOL     OW 9652   5.801   3.761   0.061
 2918SOL    HW1 9653   5.892   3.793   0.036
 2918SOL    HW2 9654   5.776   3.801   0.150
 2919SOL     OW 9655   6.626   6.457   3.558
 2919SOL    HW1 9656   6.649   6.447   3.461
 2919SOL    HW2 9657   6.638   6.553   3.586
 2920SOL     OW 9658   2.925   0.501   2.288
 2920SOL    HW1 9659   2.890   0.524   2.197
 2920SOL    HW2 9660   3.000   0.563   2.311
 2921SOL     OW 9661   0.228   0.213   5.966
 2921SOL    HW1 9662   0.259   0.213   5.870
 2921SOL    HW2 9663   0.152   0.149   5.976
 2922SOL     OW 9664   4.145   6.832   2.172
 2922SOL    HW1 9665   4.063   6.778   2.153
 2922SOL    HW2 9666   4.224   6.771   2.180
 2923SOL     OW 9667   6.382   5.176   4.600
 2923SOL    HW1 9668   6.473   5.136   4.596
 2923SOL    HW2 9669   6.349   5.194   4.507
 2924SOL     OW 9670   6.433   1.640   4.569
 2924SOL    HW1 9671   6.376   1.559   4.558
 2924SOL    HW2 9672   6.519   1.615   4.613
 2925SOL     OW 9673   5.645   1.944   6.950
 2925SOL    HW1 9674   5.588   1.912   6.874
 2925SOL    HW2 9675   5.692   1.866   6.990
 2926SOL     OW 9676   6.775   2.493   6.176
 2926SOL    HW1 9677   6.718   2.545   6.112
 2926SOL    HW2 9678   6.745   2.397   6.177
 2927SOL     OW 9679   2.034   3.229   0.492
 2927SOL    HW1 9680   2.073   3.320   0.509
 2927SOL    HW2 9681   1.936   3.238   0.477
 2928SOL     OW 9682   6.710   1.486   6.819
 2928SOL    HW1 9683   6.667   1.426   6.886
 2928SOL    HW2 9684   6.713   1.580   6.854
 2929SOL     OW 9685   1.377   2.707   5.133
 2929SOL    HW1 9686   1.430   2.780   5.091
 2929SOL    HW2 9687   1.305   2.747   5.190
 2930SOL     OW 9688   5.590   6.191   5.483
 2930SOL    HW1 9689   5.563   6.286   5.471
 2930SOL    HW2 9690   5.680   6.176   5.443
 2931SOL     OW 9691   3.971   4.789   0.405
 2931SOL    HW1 9692   4.064   4.755   0.418
 2931SOL    HW2 9693   3.907   4.712   0.405
 2932SOL     OW 9694   6.796   5.373   1.713
 2932SOL    HW1 9695   6.774   5.411   1.623
 2932SOL    HW2 9696   6.828   5.278   1.703
 2933SOL     OW 9697   0.822   0.117   2.481
 2933SOL    HW1 9698   0.782   0.200   2.444
 2933SOL    HW2 9699   0.870   0.139   2.567
 2934SOL     OW 9700   4.779   2.997   1.164
 2934SOL    HW1 9701   4.752   3.087   1.127
 2934SOL    HW2 9702   4.700   2.936   1.161
 2935SOL     OW 9703   0.940   2.487   6.230
 2935SOL    HW1 9704   0.851   2.451   6.204
 2935SOL    HW2 9705   1.012   2.426   6.195
 2936SOL     OW 9706   4.077   6.287   0.729
 2936SOL    HW1 9707   4.172   6.314   0.746
 2936SOL    HW2 9708   4.072   6.188   0.718
 2937SOL     OW 9709   4.769   5.134   1.036
 2937SOL    HW1 9710   4.788   5.160   0.941
 2937SOL    HW2 9711   4.846   5.161   1.094
 2938SOL     OW 9712   6.362   5.223   0.174
 2938SOL    HW1 9713   6.456   5.255   0.170
 2938SOL    HW2 9714   6.301   5.294   0.139
 2939SOL     OW 9715   0.929   0.476   1.902
 2939SOL    HW1 9716   1.015   0.490   1.853
 2939SOL    HW2 9717   0.944   0.493   2.000
 2940SOL     OW 9718   6.198   5.596   4.885
 2940SOL    HW1 9719   6.127   5.529   4.908
 2940SOL    HW2 9720   6.203   5.665   4.958
 2941SOL     OW 9721   2.300   2.236   3.062
 2941SOL    HW1 9722   2.311   2.327   3.102
 2941SOL    HW2 9723   2.239   2.181   3.119
 2942SOL     OW 9724   3.510   2.684   0.319
 2942SOL    HW1 9725   3.582   2.633   0.273
 2942SOL    HW2 9726   3.450   2.726   0.251
 2943SOL     OW 9727   6.299   5.065   3.706
 2943SOL    HW1 9728   6.200   5.080   3.709
 2943SOL    HW2 9729   6.317   4.967   3.702
 2944SOL     OW 9730   2.659   6.219   3.713
 2944SOL    HW1 9731   2.682   6.300   3.659
 2944SOL    HW2 9732   2.627   6.247   3.803
 2945SOL     OW 9733   5.211   3.292   1.777
 2945SOL    HW1 9734   5.226   3.313   1.681
 2945SOL    HW2 9735   5.113   3.296   1.798
 2946SOL     OW 9736   1.795   4.040   5.554
 2946SOL    HW1 9737   1.810   4.119   5.493
 2946SOL    HW2 9738   1.859   3.967   5.531
 2947SOL     OW 9739   0.242   5.173   0.227
 2947SOL    HW1 9740   0.233   5.226   0.143
 2947SOL    HW2 9741   0.154   5.169   0.275
 2948SOL     OW 9742   6.894   4.660   3.265
 2948SOL    HW1 9743   6.812   4.618   3.304
 2948SOL    HW2 9744   6.916   4.743   3.316
 2949SOL     OW 9745   0.404   5.868   6.561
 2949SOL    HW1 9746   0.326   5.929   6.575
 2949SOL    HW2 9747   0.461   5.867   6.643
 2950SOL     OW 9748   5.566   5.290   3.583
 2950SOL    HW1 9749   5.648   5.287   3.526
 2950SOL    HW2 9750   5.534   5.384   3.591
 2951SOL     OW 9751   5.403   1.151   2.097
 2951SOL    HW1 9752   5.361   1.225   2.149
 2951SOL    HW2 9753   5.499   1.174   2.078
 2952SOL     OW 9754   6.546   6.790   5.139
 2952SOL    HW1 9755   6.475   6.825   5.079
 2952SOL    HW2 9756   6.634   6.830   5.114
 2953SOL     OW 9757   0.210   4.450   3.268
 2953SOL    HW1 9758   0.293   4.399   3.287
 2953SOL    HW2 9759   0.144   4.390   3.222
 2954SOL     OW 9760   6.856   4.835   6.660
 2954SOL    HW1 9761   6.854   4.785   6.747
 2954SOL    HW2 9762   6.766   4.875   6.643
 2955SOL     OW 9763   0.990   4.371   0.356
 2955SOL    HW1 9764   0.927   4.420   0.417
 2955SOL    HW2 9765   1.072   4.344   0.407
 2956SOL     OW 9766   0.173   5.770   3.999
 2956SOL    HW1 9767   0.132   5.768   4.091
 2956SOL    HW2 9768   0.105   5.799   3.933
 2957SOL     OW 9769   3.884   5.030   1.514
 2957SOL    HW1 9770   3.851   4.937   1.495
 2957SOL    HW2 9771   3.983   5.028   1.528
 2958SOL     OW 9772   2.155   4.897   3.547
 2958SOL    HW1 9773   2.176   4.984   3.502
 2958SOL    HW2 9774   2.057   4.878   3.539
 2959SOL     OW 9775   4.998   2.686   2.754
 2959SOL    HW1 9776   5.084   2.710   2.710
 2959SOL    HW2 9777   4.951   2.769   2.783
 2960SOL     OW 9778   3.574   0.164   6.864
 2960SOL    HW1 9779   3.571   0.107   6.782
 2960SOL    HW2 9780   3.488   0.215   6.872
 2961SOL     OW 9781   6.658   5.133   3.370
 2961SOL    HW1 9782   6.747   5.120   3.326
 2961SOL    HW2 9783   6.609   5.046   3.371
 2962SOL     OW 9784   4.922   6.511   3.355
 2962SOL    HW1 9785   4.928   6.411   3.352
 2962SOL    HW2 9786   4.833   6.540   3.319
 2963SOL     OW 9787   1.138   0.715   6.408
 2963SOL    HW1 9788   1.066   0.783   6.404
 2963SOL    HW2 9789   1.194   0.729   6.490
 2964SOL     OW 9790   0.383   2.685   6.361
 2964SOL    HW1 9791   0.468   2.707   6.312
 2964SOL    HW2 9792   0.316   2.649   6.296
 2965SOL     OW 9793   1.243   0.502   4.639
 2965SOL    HW1 9794   1.154   0.534   4.671
 2965SOL    HW2 9795   1.232   0.416   4.589
 2966SOL     OW 9796   5.070   5.540   3.840
 2966SOL    HW1 9797   5.147   5.548   3.903
 2966SOL    HW2 9798   4.985   5.561   3.889
 2967SOL     OW 9799   6.162   1.338   5.636
 2967SOL    HW1 9800   6.094   1.282   5.685
 2967SOL    HW2 9801   6.136   1.345   5.540
 2968SOL     OW 9802   1.939   2.467   0.903
 2968SOL    HW1 9803   1.944   2.563   0.930
 2968SOL    HW2 9804   1.895   2.459   0.814
 2969SOL     OW 9805   4.873   3.673   4.670
 2969SOL    HW1 9806   4.839   3.655   4.763
 2969SOL    HW2 9807   4.915   3.764   4.667
 2970SOL     OW 9808   2.852   2.848   5.344
 2970SOL    HW1 9809   2.800   2.929   5.317
 2970SOL    HW2 9810   2.949   2.864   5.327
 2971SOL     OW 9811   5.883   4.082   0.166
 2971SOL    HW1 9812   5.962   4.095   0.105
 2971SOL    HW2 9813   5.912   4.030   0.246
 2972SOL     OW 9814   5.446   4.761   6.909
 2972SOL    HW1 9815   5.533   4.730   6.948
 2972SOL    HW2 9816   5.395   4.812   6.978
 2973SOL     OW 9817   4.856   6.879   2.335
 2973SOL    HW1 9818   4.857   6.864   2.434
 2973SOL    HW2 9819   4.762   6.895   2.305
 2974SOL     OW 9820   6.305   4.133   3.429
 2974SOL    HW1 9821   6.390   4.121   3.377
 2974SOL    HW2 9822   6.325   4.130   3.527
 2975SOL     OW 9823   5.015   4.711   4.313
 2975SOL    HW1 9824   5.113   4.733   4.312
 2975SOL    HW2 9825   4.999   4.628   4.260
 2976SOL     OW 9826   5.274   2.068   2.949
 2976SOL    HW1 9827   5.225   2.086   2.864
 2976SOL    HW2 9828   5.321   2.152   2.978
 2977SOL     OW 9829   0.849   0.647   2.464
 2977SOL    HW1 9830   0.768   0.705   2.462
 2977SOL    HW2 9831   0.825   0.555   2.434
 2978SOL     OW 9832   4.124   3.776   0.089
 2978SOL    HW1 9833   4.210   3.745   0.048
 2978SOL    HW2 9834   4.090   3.855   0.038
 2979SOL     OW 9835   2.886   1.541   4.053
 2979SOL    HW1 9836   2.926   1.494   3.975
 2979SOL    HW2 9837   2.935   1.626   4.070
 2980SOL     OW 9838   2.328   5.294   6.523
 2980SOL    HW1 9839   2.354   5.234   6.447
 2980SOL    HW2 9840   2.343   5.389   6.497
 2981SOL     OW 9841   2.416   1.573   0.271
 2981SOL    HW1 9842   2.431   1.668   0.296
 2981SOL    HW2 9843   2.329   1.564   0.224
 2982SOL     OW 9844   2.033   5.998   2.323
 2982SOL    HW1 9845   2.053   5.906   2.357
 2982SOL    HW2 9846   2.014   5.994   2.225
 2983SOL     OW 9847   0.043   2.258   1.034
 2983SOL    HW1 9848   0.051   2.296   0.942
 2983SOL    HW2 9849   6.995   2.182   1.032
 2984SOL     OW 9850   5.860   5.100   6.113
 2984SOL    HW1 9851   5.870   5.018   6.056
 2984SOL    HW2 9852   5.880   5.076   6.209
 2985SOL     OW 9853   0.419   1.396   4.467
 2985SOL    HW1 9854   0.440   1.299   4.471
 2985SOL    HW2 9855   0.328   1.409   4.427
 2986SOL     OW 9856   3.560   4.166   2.210
 2986SOL    HW1 9857   3.595   4.124   2.294
 2986SOL    HW2 9858   3.535   4.261   2.229
 2987SOL     OW 9859   1.528   1.155   4.407
 2987SOL    HW1 9860   1.464   1.179   4.334
 2987SOL    HW2 9861   1.552   1.058   4.399
 2988SOL     OW 9862   1.503   6.849   1.527
 2988SOL    HW1 9863   1.415   6.833   1.483
 2988SOL    HW2 9864   1.493   6.919   1.598
 2989SOL     OW 9865   5.268   3.948   5.111
 2989SOL    HW1 9866   5.201   4.023   5.111
 2989SOL    HW2 9867   5.234   3.875   5.170
 2990SOL     OW 9868   5.209   2.401   4.678
 2990SOL    HW1 9869   5.206   2.311   4.721
 2990SOL    HW2 9870   5.198   2.472   4.747
 2991SOL     OW 9871   6.087   3.486   6.496
 2991SOL    HW1 9872   6.180   3.470   6.462
 2991SOL    HW2 9873   6.088   3.560   6.563
 2992SOL     OW 9874   1.585   4.807   4.777
 2992SOL    HW1 9875   1.552   4.891   4.734
 2992SOL    HW2 9876   1.683   4.816   4.796
 2993SOL     OW 9877   0.003   5.085   0.541
 2993SOL    HW1 9878   6.977   5.173   0.563
 2993SOL    HW2 9879   6.975   5.045   0.461
 2994SOL     OW 9880   4.206   5.974   7.006
 2994SOL    HW1 9881   4.241   5.884   6.981
 2994SOL    HW2 9882   4.231   5.994   0.084
 2995SOL     OW 9883   4.308   0.185   0.195
 2995SOL    HW1 9884   4.225   0.205   0.142
 2995SOL    HW2 9885   4.318   0.086   0.205
 2996SOL     OW 9886   0.745   1.765   4.756
 2996SOL    HW1 9887   0.844   1.753   4.744
 2996SOL    HW2 9888   0.700   1.753   4.668
 2997SOL     OW 9889   4.706   0.349   2.928
 2997SOL    HW1 9890   4.795   0.304   2.931
 2997SOL    HW2 9891   4.720   0.446   2.906
 2998SOL     OW 9892   3.736   0.098   3.729
 2998SOL    HW1 9893   3.754   0.120   3.633
 2998SOL    HW2 9894   3.729   0.182   3.782
 2999SOL     OW 9895   3.199   4.769   6.003
 2999SOL    HW1 9896   3.177   4.821   6.085
 2999SOL    HW2 9897   3.273   4.814   5.953
 3000SOL     OW 9898   2.895   4.470   6.566
 3000SOL    HW1 9899   2.796   4.459   6.576
 3000SOL    HW2 9900   2.934   4.387   6.527
 3001SOL     OW 9901   6.123   1.968   0.505
 3001SOL    HW1 9902   6.194   1.899   0.516
 3001SOL    HW2 9903   6.047   1.930   0.453
 3002SOL     OW 9904   3.011   1.528   0.565
 3002SOL    HW1 9905   2.996   1.465   0.488
 3002SOL    HW2 9906   3.108   1.548   0.573
 3003SOL     OW 9907   0.672   6.466   1.276
 3003SOL    HW1 9908   0.686   6.565   1.269
 3003SOL    HW2 9909   0.579   6.443   1.248
 3004SOL     OW 9910   2.000   4.967   3.037
 3004SOL    HW1 9911   1.960   4.878   3.061
 3004SOL    HW2 9912   2.084   4.953   2.985
 3005SOL     OW 9913   1.574   3.022   6.193
 3005SOL    HW1 9914   1.549   3.118   6.182
 3005SOL    HW2 9915   1.492   2.965   6.193
 3006SOL     OW 9916   5.503   1.214   5.195
 3006SOL    HW1 9917   5.525   1.117   5.210
 3006SOL    HW2 9918   5.455   1.223   5.108
 3007SOL     OW 9919   5.114   5.310   0.374
 3007SOL    HW1 9920   5.162   5.262   0.301
 3007SOL    HW2 9921   5.168   5.304   0.458
 3008SOL     OW 9922   3.650   2.583   6.198
 3008SOL    HW1 9923   3.748   2.561   6.192
 3008SOL    HW2 9924   3.634   2.648   6.271
 3009SOL     OW 9925   0.103   2.327   2.974
 3009SOL    HW1 9926   0.122   2.241   2.927
 3009SOL    HW2 9927   0.171   2.395   2.949
 3010SOL     OW 9928   3.235   5.540   4.753
 3010SOL    HW1 9929   3.202   5.630   4.781
 3010SOL    HW2 9930   3.159   5.475   4.752
 3011SOL     OW 9931   6.327   6.914   1.545
 3011SOL    HW1 9932   6.291   6.832   1.589
 3011SOL    HW2 9933   6.422   6.928   1.572
 3012SOL     OW 9934   2.361   3.792   0.104
 3012SOL    HW1 9935   2.274   3.827   0.138
 3012SOL    HW2 9936   2.417   3.762   0.182
 3013SOL     OW 9937   6.565   4.861   3.197
 3013SOL    HW1 9938   6.501   4.925   3.156
 3013SOL    HW2 9939   6.534   4.837   3.289
 3014SOL     OW 9940   4.676   1.720   0.037
 3014SOL    HW1 9941   4.677   1.658   6.975
 3014SOL    HW2 9942   4.739   1.795   0.021
 3015SOL     OW 9943   2.348   1.673   0.719
 3015SOL    HW1 9944   2.274   1.706   0.661
 3015SOL    HW2 9945   2.372   1.744   0.786
 3016SOL     OW 9946   3.255   6.836   4.251
 3016SOL    HW1 9947   3.355   6.827   4.244
 3016SOL    HW2 9948   3.230   6.932   4.257
 3017SOL     OW 9949   5.416   4.694   2.647
 3017SOL    HW1 9950   5.401   4.793   2.650
 3017SOL    HW2 9951   5.514   4.675   2.642
 3018SOL     OW 9952   3.590   7.014   6.633
 3018SOL    HW1 9953   3.622   0.027   6.543
 3018SOL    HW2 9954   3.641   6.933   6.661
 3019SOL     OW 9955   0.574   6.813   0.580
 3019SOL    HW1 9956   0.524   6.733   0.613
 3019SOL    HW2 9957   0.529   6.897   0.612
 3020SOL     OW 9958   4.327   3.362   0.482
 3020SOL    HW1 9959   4.289   3.340   0.392
 3020SOL    HW2 9960   4.309   3.287   0.545
 3021SOL     OW 9961   2.377   6.915   4.640
 3021SOL    HW1 9962   2.363   6.888   4.735
 3021SOL    HW2 9963   2.459   6.971   4.632
 3022SOL     OW 9964   4.130   5.502   4.347
 3022SOL    HW1 9965   4.217   5.489   4.299
 3022SOL    HW2 9966   4.074   5.568   4.297
 3023SOL     OW 9967   3.883   6.823   2.584
 3023SOL    HW1 9968   3.955   6.812   2.651
 3023SOL    HW2 9969   3.863   6.921   2.572
 3024SOL     OW 9970   6.101   6.059   5.378
 3024SOL    HW1 9971   6.138   6.020   5.463
 3024SOL    HW2 9972   6.147   6.146   5.359
 3025SOL     OW 9973   3.887   6.036   1.743
 3025SOL    HW1 9974   3.932   6.117   1.706
 3025SOL    HW2 9975   3.881   5.965   1.673
 3026SOL     OW 9976   0.464   1.325   6.285
 3026SOL    HW1 9977   0.481   1.270   6.204
 3026SOL    HW2 9978   0.372   1.307   6.320
 3027SOL     OW 9979   3.995   1.369   2.185
 3027SOL    HW1 9980   3.977   1.355   2.088
 3027SOL    HW2 9981   4.009   1.466   2.203
 3028SOL     OW 9982   2.003   3.833   6.223
 3028SOL    HW1 9983   2.061   3.787   6.157
 3028SOL    HW2 9984   2.028   3.930   6.227
 3029SOL     OW 9985   1.061   2.531   3.488
 3029SOL    HW1 9986   1.149   2.550   3.444
 3029SOL    HW2 9987   1.070   2.448   3.544
 3030SOL     OW 9988   1.299   4.157   0.762
 3030SOL    HW1 9989   1.280   4.241   0.812
 3030SOL    HW2 9990   1.398   4.146   0.750
 3031SOL     OW 9991   1.361   4.551   0.481
 3031SOL    HW1 9992   1.340   4.604   0.564
 3031SOL    HW2 9993   1.331   4.602   0.401
 3032SOL     OW 9994   2.249   5.578   2.560
 3032SOL    HW1 9995   2.198   5.502   2.518
 3032SOL    HW2 9996   2.249   5.567   2.659
 3033SOL     OW 9997   5.977   1.989   2.972
 3033SOL    HW1 9998   6.034   1.969   2.893
 3033SOL    HW2 9999   5.946   1.904   3.013
 3034SOL     OW10000   1.189   5.648   4.127
 3034SOL    HW110001   1.198   5.736   4.079
 3034SOL    HW210002   1.277   5.625   4.170
 3035SOL     OW10003   1.058   3.104   6.379
 3035SOL    HW110004   0.975   3.150   6.411
 3035SOL    HW210005   1.063   3.109   6.279
 3036SOL     OW10006   1.166   2.011   5.096
 3036SOL    HW110007   1.072   2.028   5.068
 3036SOL    HW210008   1.217   2.097   5.093
 3037SOL     OW10009   6.852   4.886   5.526
 3037SOL    HW110010   6.952   4.873   5.522
 3037SOL    HW210011   6.828   4.927   5.614
 3038SOL     OW10012   5.215   4.510   5.858
 3038SOL    HW110013   5.198   4.448   5.781
 3038SOL    HW210014   5.305   4.490   5.897
 3039SOL     OW10015   0.105   3.179   6.862
 3039SOL    HW110016   0.024   3.210   6.812
 3039SOL    HW210017   0.079   3.146   6.952
 3040SOL     OW10018   3.112   4.978   5.638
 3040SOL    HW110019   3.197   4.996   5.687
 3040SOL    HW210020   3.036   5.024   5.683
 3041SOL     OW10021   1.067   4.587   6.160
 3041SOL    HW110022   1.053   4.527   6.081
 3041SOL    HW210023   1.066   4.533   6.244
 3042SOL     OW10024   6.013   5.690   2.486
 3042SOL    HW110025   6.008   5.598   2.446
 3042SOL    HW210026   5.932   5.742   2.460
 3043SOL     OW10027   3.206   3.576   0.814
 3043SOL    HW110028   3.194   3.500   0.750
 3043SOL    HW210029   3.292   3.565   0.863
 3044SOL     OW10030   3.090   4.732   5.549
 3044SOL    HW110031   3.128   4.824   5.558
 3044SOL    HW210032   2.990   4.736   5.556
 3045SOL     OW10033   4.645   6.737   3.042
 3045SOL    HW110034   4.614   6.724   2.947
 3045SOL    HW210035   4.685   6.828   3.052
 3046SOL     OW10036   3.723   6.244   6.816
 3046SOL    HW110037   3.757   6.337   6.833
 3046SOL    HW210038   3.625   6.242   6.833
 3047SOL     OW10039   6.463   0.127   0.545
 3047SOL    HW110040   6.379   0.072   0.545
 3047SOL    HW210041   6.458   0.195   0.619
 3048SOL     OW10042   4.619   2.325   0.855
 3048SOL    HW110043   4.532   2.374   0.865
 3048SOL    HW210044   4.626   2.254   0.925
 3049SOL     OW10045   1.138   0.873   3.913
 3049SOL    HW110046   1.190   0.855   3.830
 3049SOL    HW210047   1.194   0.927   3.976
 3050SOL     OW10048   2.555   2.476   1.415
 3050SOL    HW110049   2.565   2.387   1.460
 3050SOL    HW210050   2.544   2.547   1.485
 3051SOL     OW10051   2.773   6.540   6.369
 3051SOL    HW110052   2.810   6.451   6.394
 3051SOL    HW210053   2.684   6.528   6.324
 3052SOL     OW10054   5.348   5.070   2.244
 3052SOL    HW110055   5.299   5.093   2.161
 3052SOL    HW210056   5.298   5.103   2.324
 3053SOL     OW10057   0.483   3.938   0.959
 3053SOL    HW110058   0.483   3.903   0.866
 3053SOL    HW210059   0.443   4.030   0.961
 3054SOL     OW10060   5.663   0.667   2.433
 3054SOL    HW110061   5.650   0.730   2.510
 3054SOL    HW210062   5.734   0.600   2.456
 3055SOL     OW10063   5.581   6.933   5.450
 3055SOL    HW110064   5.583   6.886   5.362
 3055SOL    HW210065   5.497   6.987   5.457
 3056SOL     OW10066   5.999   1.704   5.840
 3056SOL    HW110067   6.033   1.797   5.830
 3056SOL    HW210068   6.076   1.640   5.833
 3057SOL     OW10069   5.303   6.037   4.368
 3057SOL    HW110070   5.327   6.098   4.292
 3057SOL    HW210071   5.317   6.085   4.454
 3058SOL     OW10072   6.330   3.879   0.903
 3058SOL    HW110073   6.369   3.962   0.944
 3058SOL    HW210074   6.310   3.895   0.807
 3059SOL     OW10075   2.167   1.751   4.131
 3059SOL    HW110076   2.202   1.715   4.217
 3059SOL    HW210077   2.217   1.710   4.055
 3060SOL     OW10078   2.303   4.993   6.852
 3060SOL    HW110079   2.257   4.944   6.927
 3060SOL    HW210080   2.398   4.962   6.845
 3061SOL     OW10081   5.702   5.911   5.894
 3061SOL    HW110082   5.726   5.933   5.988
 3061SOL    HW210083   5.641   5.831   5.893
 3062SOL     OW10084   3.079   5.402   1.330
 3062SOL    HW110085   3.032   5.386   1.243
 3062SOL    HW210086   3.105   5.499   1.336
 3063SOL     OW10087   0.728   4.184   0.947
 3063SOL    HW110088   0.775   4.222   0.867
 3063SOL    HW210089   0.630   4.183   0.930
 3064SOL     OW10090   4.297   3.055   6.993
 3064SOL    HW110091   4.368   3.121   7.016
 3064SOL    HW210092   4.313   2.970   0.027
 3065SOL     OW10093   1.062   1.614   6.227
 3065SOL    HW110094   1.037   1.691   6.168
 3065SOL    HW210095   0.997   1.539   6.213
 3066SOL     OW10096   5.278   5.225   6.187
 3066SOL    HW110097   5.284   5.318   6.225
 3066SOL    HW210098   5.345   5.166   6.233
 3067SOL     OW10099   2.573   1.489   0.688
 3067SOL    HW110100   2.495   1.551   0.678
 3067SOL    HW210101   2.582   1.433   0.606
 3068SOL     OW10102   0.166   0.547   1.605
 3068SOL    HW110103   0.116   0.628   1.572
 3068SOL    HW210104   0.194   0.491   1.527
 3069SOL     OW10105   6.277   6.401   3.214
 3069SOL    HW110106   6.263   6.416   3.117
 3069SOL    HW210107   6.249   6.483   3.265
 3070SOL     OW10108   2.694   0.981   6.465
 3070SOL    HW110109   2.651   1.061   6.508
 3070SOL    HW210110   2.646   0.959   6.380
 3071SOL     OW10111   6.703   4.917   4.097
 3071SOL    HW110112   6.726   5.007   4.059
 3071SOL    HW210113   6.761   4.848   4.054
 3072SOL     OW10114   1.809   6.309   6.970
 3072SOL    HW110115   1.764   6.246   6.908
 3072SOL    HW210116   1.744   6.379   7.000
 3073SOL     OW10117   0.188   4.374   1.568
 3073SOL    HW110118   0.144   4.293   1.530
 3073SOL    HW210119   0.279   4.384   1.529
 3074SOL     OW10120   1.440   4.125   1.120
 3074SOL    HW110121   1.415   4.195   1.187
 3074SOL    HW210122   1.435   4.035   1.163
 3075SOL     OW10123   2.450   5.328   3.844
 3075SOL    HW110124   2.383   5.289   3.781
 3075SOL    HW210125   2.428   5.299   3.938
 3076SOL     OW10126   6.375   1.502   4.289
 3076SOL    HW110127   6.470   1.500   4.318
 3076SOL    HW210128   6.365   1.562   4.209
 3077SOL     OW10129   6.159   3.548   1.756
 3077SOL    HW110130   6.066   3.571   1.729
 3077SOL    HW210131   6.162   3.532   1.855
 3078SOL     OW10132   6.520   2.972   1.979
 3078SOL    HW110133   6.589   2.900   1.978
 3078SOL    HW210134   6.547   3.045   1.916
 3079SOL     OW10135   3.100   2.169   3.792
 3079SOL    HW110136   3.066   2.162   3.885
 3079SOL    HW210137   3.180   2.110   3.781
 3080SOL     OW10138   4.823   4.157   2.096
 3080SOL    HW110139   4.916   4.149   2.132
 3080SOL    HW210140   4.762   4.190   2.168
 3081SOL     OW10141   0.535   4.677   6.294
 3081SOL    HW110142   0.477   4.609   6.248
 3081SOL    HW210143   0.615   4.631   6.332
 3082SOL     OW10144   2.783   5.701   4.247
 3082SOL    HW110145   2.734   5.783   4.218
 3082SOL    HW210146   2.759   5.679   4.341
 3083SOL     OW10147   3.345   5.710   2.949
 3083SOL    HW110148   3.312   5.702   2.855
 3083SOL    HW210149   3.299   5.644   3.007
 3084SOL     OW10150   0.036   3.964   2.315
 3084SOL    HW110151   6.955   3.956   2.333
 3084SOL    HW210152   0.052   4.044   2.256
 3085SOL     OW10153   5.424   4.441   0.922
 3085SOL    HW110154   5.373   4.466   0.840
 3085SOL    HW210155   5.366   4.451   1.003
 3086SOL     OW10156   4.426   0.860   7.012
 3086SOL    HW110157   4.442   0.951   0.033
 3086SOL    HW210158   4.427   0.865   6.912
 3087SOL     OW10159   2.607   6.221   2.680
 3087SOL    HW110160   2.609   6.315   2.712
 3087SOL    HW210161   2.606   6.159   2.758
 3088SOL     OW10162   1.459   3.118   5.581
 3088SOL    HW110163   1.403   3.137   5.662
 3088SOL    HW210164   1.496   3.204   5.545
 3089SOL     OW10165   4.586   1.909   4.970
 3089SOL    HW110166   4.635   1.895   4.884
 3089SOL    HW210167   4.522   1.834   4.985
 3090SOL     OW10168   1.825   0.835   2.003
 3090SOL    HW110169   1.861   0.882   2.083
 3090SOL    HW210170   1.774   0.899   1.946
 3091SOL     OW10171   1.490   1.038   0.762
 3091SOL    HW110172   1.452   0.946   0.770
 3091SOL    HW210173   1.508   1.059   0.666
 3092SOL     OW10174   5.141   6.549   1.281
 3092SOL    HW110175   5.115   6.455   1.305
 3092SOL    HW210176   5.103   6.612   1.348
 3093SOL     OW10177   5.309   6.514   5.560
 3093SOL    HW110178   5.383   6.511   5.627
 3093SOL    HW210179   5.319   6.595   5.503
 3094SOL     OW10180   3.046   0.623   4.292
 3094SOL    HW110181   2.950   0.642   4.309
 3094SOL    HW210182   3.069   0.531   4.324
 3095SOL     OW10183   2.005   3.526   5.751
 3095SOL    HW110184   2.057   3.497   5.832
 3095SOL    HW210185   2.060   3.512   5.669
 3096SOL     OW10186   0.529   3.834   5.081
 3096SOL    HW110187   0.542   3.904   5.011
 3096SOL    HW210188   0.475   3.871   5.156
 3097SOL     OW10189   5.501   2.860   0.196
 3097SOL    HW110190   5.593   2.899   0.194
 3097SOL    HW210191   5.442   2.910   0.133
 3098SOL     OW10192   1.694   2.934   1.830
 3098SOL    HW110193   1.729   3.026   1.844
 3098SOL    HW210194   1.717   2.903   1.738
 3099SOL     OW10195   1.172   5.935   4.065
 3099SOL    HW110196   1.148   6.011   4.005
 3099SOL    HW210197   1.108   5.932   4.142
 3100SOL     OW10198   6.982   6.329   2.177
 3100SOL    HW110199   6.896   6.294   2.215
 3100SOL    HW210200   0.040   6.308   2.240
 3101SOL     OW10201   4.500   6.398   5.888
 3101SOL    HW110202   4.421   6.410   5.948
 3101SOL    HW210203   4.562   6.475   5.898
 3102SOL     OW10204   6.971   5.478   1.002
 3102SOL    HW110205   6.888   5.472   0.945
 3102SOL    HW210206   6.998   5.574   1.010
 3103SOL     OW10207   5.269   0.815   0.821
 3103SOL    HW110208   5.189   0.758   0.807
 3103SOL    HW210209   5.294   0.815   0.918
 3104SOL     OW10210   3.970   0.041   6.843
 3104SOL    HW110211   4.066   0.048   6.870
 3104SOL    HW210212   3.923   6.990   6.901
 3105SOL     OW10213   4.818   3.729   1.378
 3105SOL    HW110214   4.755   3.802   1.405
 3105SOL    HW210215   4.895   3.768   1.329
 3106SOL     OW10216   5.327   6.823   5.076
 3106SOL    HW110217   5.334   6.817   4.977
 3106SOL    HW210218   5.255   6.889   5.100
 3107SOL     OW10219   4.041   1.557   4.038
 3107SOL    HW110220   4.083   1.586   3.952
 3107SOL    HW210221   3.957   1.609   4.054
 3108SOL     OW10222   2.052   5.353   4.681
 3108SOL    HW110223   2.125   5.291   4.650
 3108SOL    HW210224   2.055   5.361   4.781
 3109SOL     OW10225   6.489   0.679   4.247
 3109SOL    HW110226   6.404   0.711   4.288
 3109SOL    HW210227   6.507   0.730   4.163
 3110SOL     OW10228   2.307   4.227   3.426
 3110SOL    HW110229   2.269   4.307   3.472
 3110SOL    HW210230   2.390   4.252   3.377
 3111SOL     OW10231   0.230   4.758   3.286
 3111SOL    HW110232   0.205   4.661   3.291
 3111SOL    HW210233   0.330   4.766   3.284
 3112SOL     OW10234   3.219   3.522   6.941
 3112SOL    HW110235   3.178   3.601   6.988
 3112SOL    HW210236   3.303   3.495   6.989
 3113SOL     OW10237   3.224   6.203   2.622
 3113SOL    HW110238   3.150   6.244   2.569
 3113SOL    HW210239   3.206   6.216   2.720
 3114SOL     OW10240   3.989   1.469   0.242
 3114SOL    HW110241   3.968   1.414   0.323
 3114SOL    HW210242   4.054   1.541   0.267
 3115SOL     OW10243   3.888   4.436   5.298
 3115SOL    HW110244   3.790   4.418   5.307
 3115SOL    HW210245   3.940   4.354   5.324
 3116SOL     OW10246   0.450   1.974   0.300
 3116SOL    HW110247   0.420   2.060   0.260
 3116SOL    HW210248   0.507   1.992   0.380
 3117SOL     OW10249   4.697   2.479   5.345
 3117SOL    HW110250   4.661   2.386   5.337
 3117SOL    HW210251   4.707   2.518   5.253
 3118SOL     OW10252   1.193   6.732   2.018
 3118SOL    HW110253   1.204   6.745   2.116
 3118SOL    HW210254   1.132   6.654   2.001
 3119SOL     OW10255   3.108   2.422   5.701
 3119SOL    HW110256   3.145   2.362   5.630
 3119SOL    HW210257   3.035   2.478   5.663
 3120SOL     OW10258   3.310   0.859   5.833
 3120SOL    HW110259   3.239   0.844   5.902
 3120SOL    HW210260   3.283   0.815   5.747
 3121SOL     OW10261   5.465   2.051   4.457
 3121SOL    HW110262   5.510   2.121   4.513
 3121SOL    HW210263   5.467   2.080   4.361
 3122SOL     OW10264   4.382   4.803   5.182
 3122SOL    HW110265   4.400   4.882   5.240
 3122SOL    HW210266   4.329   4.832   5.102
 3123SOL     OW10267   1.522   0.967   3.501
 3123SOL    HW110268   1.566   1.026   3.569
 3123SOL    HW210269   1.493   1.022   3.423
 3124SOL     OW10270   5.441   6.638   3.755
 3124SOL    HW110271   5.370   6.579   3.792
 3124SOL    HW210272   5.424   6.733   3.783
 3125SOL     OW10273   1.049   3.030   5.247
 3125SOL    HW110274   0.983   2.969   5.291
 3125SOL    HW210275   1.142   2.998   5.267
 3126SOL     OW10276   5.474   4.381   5.903
 3126SOL    HW110277   5.426   4.297   5.928
 3126SOL    HW210278   5.569   4.360   5.882
 3127SOL     OW10279   1.598   2.871   5.098
 3127SOL    HW110280   1.688   2.854   5.056
 3127SOL    HW210281   1.598   2.835   5.191
 3128SOL     OW10282   3.838   0.534   0.370
 3128SOL    HW110283   3.858   0.578   0.283
 3128SOL    HW210284   3.859   0.595   0.445
 3129SOL     OW10285   5.031   3.777   1.216
 3129SOL    HW110286   4.975   3.767   1.133
 3129SOL    HW210287   5.116   3.825   1.194
 3130SOL     OW10288   1.397   4.513   1.116
 3130SOL    HW110289   1.328   4.574   1.076
 3130SOL    HW210290   1.417   4.439   1.051
 3131SOL     OW10291   0.547   3.505   2.205
 3131SOL    HW110292   0.613   3.434   2.231
 3131SOL    HW210293   0.458   3.463   2.189
 3132SOL     OW10294   4.608   4.852   6.732
 3132SOL    HW110295   4.665   4.836   6.813
 3132SOL    HW210296   4.650   4.922   6.675
 3133SOL     OW10297   3.728   0.741   2.733
 3133SOL    HW110298   3.821   0.748   2.699
 3133SOL    HW210299   3.669   0.804   2.683
 3134SOL     OW10300   3.982   5.297   1.667
 3134SOL    HW110301   3.985   5.395   1.645
 3134SOL    HW210302   3.898   5.257   1.630
 3135SOL     OW10303   4.567   6.632   6.231
 3135SOL    HW110304   4.520   6.710   6.272
 3135SOL    HW210305   4.577   6.646   6.132
 3136SOL     OW10306   5.504   0.494   1.676
 3136SOL    HW110307   5.511   0.482   1.577
 3136SOL    HW210308   5.537   0.411   1.722
 3137SOL     OW10309   6.520   6.649   3.129
 3137SOL    HW110310   6.587   6.650   3.055
 3137SOL    HW210311   6.429   6.629   3.092
 3138SOL     OW10312   6.098   5.473   3.466
 3138SOL    HW110313   6.082   5.453   3.370
 3138SOL    HW210314   6.163   5.407   3.504
 3139SOL     OW10315   3.511   4.771   1.257
 3139SOL    HW110316   3.484   4.718   1.337
 3139SOL    HW210317   3.455   4.854   1.252
 3140SOL     OW10318   6.384   6.309   5.529
 3140SOL    HW110319   6.426   6.220   5.512
 3140SOL    HW210320   6.328   6.305   5.611
 3141SOL     OW10321   0.395   0.043   6.823
 3141SOL    HW110322   0.441   0.129   6.842
 3141SOL    HW210323   0.370   0.039   6.726
 3142SOL     OW10324   3.611   1.116   3.120
 3142SOL    HW110325   3.668   1.046   3.164
 3142SOL    HW210326   3.656   1.147   3.037
 3143SOL     OW10327   6.504   2.032   6.723
 3143SOL    HW110328   6.565   2.036   6.802
 3143SOL    HW210329   6.424   1.977   6.746
 3144SOL     OW10330   4.516   3.761   0.725
 3144SOL    HW110331   4.479   3.825   0.792
 3144SOL    HW210332   4.460   3.678   0.723
 3145SOL     OW10333   2.374   6.554   2.554
 3145SOL    HW110334   2.327   6.641   2.539
 3145SOL    HW210335   2.360   6.524   2.648
 3146SOL     OW10336   0.449   0.896   4.862
 3146SOL    HW110337   0.366   0.909   4.808
 3146SOL    HW210338   0.485   0.804   4.846
 3147SOL     OW10339   3.030   4.948   6.720
 3147SOL    HW110340   2.983   4.959   6.808
 3147SOL    HW210341   3.075   4.858   6.718
 3148SOL     OW10342   6.997   0.627   4.114
 3148SOL    HW110343   6.919   0.686   4.090
 3148SOL    HW210344   6.965   0.552   4.172
 3149SOL     OW10345   3.410   1.150   6.751
 3149SOL    HW110346   3.456   1.127   6.665
 3149SOL    HW210347   3.477   1.152   6.825
 3150SOL     OW10348   6.486   5.809   5.320
 3150SOL    HW110349   6.421   5.793   5.246
 3150SOL    HW210350   6.518   5.721   5.356
 3151SOL     OW10351   0.226   1.846   6.069
 3151SOL    HW110352   0.179   1.919   6.118
 3151SOL    HW210353   0.193   1.844   5.974
 3152SOL     OW10354   0.794   3.972   6.749
 3152SOL    HW110355   0.890   3.948   6.759
 3152SOL    HW210356   0.749   3.906   6.688
 3153SOL     OW10357   6.296   4.966   0.253
 3153SOL    HW110358   6.330   5.057   0.227
 3153SOL    HW210359   6.211   4.976   0.305
 3154SOL     OW10360   6.336   1.002   1.083
 3154SOL    HW110361   6.247   1.043   1.065
 3154SOL    HW210362   6.331   0.945   1.164
 3155SOL     OW10363   6.139   4.753   0.364
 3155SOL    HW110364   6.040   4.757   0.375
 3155SOL    HW210365   6.162   4.711   0.277
 3156SOL     OW10366   3.449   3.848   2.321
 3156SOL    HW110367   3.448   3.753   2.355
 3156SOL    HW210368   3.388   3.903   2.378
 3157SOL     OW10369   1.812   1.633   5.216
 3157SOL    HW110370   1.826   1.665   5.123
 3157SOL    HW210371   1.893   1.652   5.271
 3158SOL     OW10372   2.576   1.198   4.534
 3158SOL    HW110373   2.589   1.102   4.508
 3158SOL    HW210374   2.653   1.228   4.589
 3159SOL     OW10375   5.869   0.313   6.553
 3159SOL    HW110376   5.871   0.274   6.645
 3159SOL    HW210377   5.874   0.239   6.486
 3160SOL     OW10378   1.159   6.470   6.013
 3160SOL    HW110379   1.145   6.382   5.968
 3160SOL    HW210380   1.083   6.531   5.993
 3161SOL     OW10381   2.580   2.483   3.035
 3161SOL    HW110382   2.602   2.517   3.126
 3161SOL    HW210383   2.481   2.467   3.029
 3162SOL     OW10384   1.274   5.763   0.848
 3162SOL    HW110385   1.308   5.765   0.942
 3162SOL    HW210386   1.197   5.825   0.838
 3163SOL     OW10387   3.782   3.724   6.947
 3163SOL    HW110388   3.745   3.759   6.861
 3163SOL    HW210389   3.860   3.779   6.974
 3164SOL     OW10390   3.830   5.687   2.315
 3164SOL    HW110391   3.739   5.705   2.277
 3164SOL    HW210392   3.898   5.742   2.266
 3165SOL     OW10393   0.819   5.492   1.126
 3165SOL    HW110394   0.896   5.467   1.067
 3165SOL    HW210395   0.737   5.442   1.096
 3166SOL     OW10396   4.661   1.667   4.202
 3166SOL    HW110397   4.663   1.581   4.255
 3166SOL    HW210398   4.572   1.677   4.159
 3167SOL     OW10399   5.595   4.268   0.639
 3167SOL    HW110400   5.637   4.339   0.696
 3167SOL    HW210401   5.644   4.182   0.653
 3168SOL     OW10402   5.757   2.956   0.082
 3168SOL    HW110403   5.810   3.006   0.150
 3168SOL    HW210404   5.818   2.916   0.014
 3169SOL     OW10405   1.630   3.799   3.436
 3169SOL    HW110406   1.602   3.733   3.506
 3169SOL    HW210407   1.693   3.755   3.372
 3170SOL     OW10408   4.402   5.482   2.647
 3170SOL    HW110409   4.481   5.520   2.696
 3170SOL    HW210410   4.354   5.556   2.600
 3171SOL     OW10411   5.807   2.279   1.632
 3171SOL    HW110412   5.736   2.313   1.694
 3171SOL    HW210413   5.897   2.308   1.665
 3172SOL     OW10414   0.453   5.215   6.763
 3172SOL    HW110415   0.551   5.205   6.780
 3172SOL    HW210416   0.425   5.152   6.690
 3173SOL     OW10417   3.259   2.246   6.871
 3173SOL    HW110418   3.287   2.154   6.843
 3173SOL    HW210419   3.298   2.313   6.808
 3174SOL     OW10420   2.808   3.003   6.550
 3174SOL    HW110421   2.833   3.050   6.465
 3174SOL    HW210422   2.813   2.904   6.536
 3175SOL     OW10423   5.989   1.401   1.597
 3175SOL    HW110424   6.042   1.422   1.515
 3175SOL    HW210425   5.906   1.351   1.572
 3176SOL     OW10426   0.943   2.871   5.709
 3176SOL    HW110427   1.013   2.849   5.641
 3176SOL    HW210428   0.915   2.967   5.698
 3177SOL     OW10429   5.172   4.268   3.795
 3177SOL    HW110430   5.164   4.188   3.735
 3177SOL    HW210431   5.211   4.241   3.882
 3178SOL     OW10432   6.544   2.497   0.073
 3178SOL    HW110433   6.528   2.585   0.116
 3178SOL    HW210434   6.466   2.436   0.090
 3179SOL     OW10435   1.069   1.784   1.913
 3179SOL    HW110436   1.102   1.871   1.874
 3179SOL    HW210437   1.148   1.729   1.940
 3180SOL     OW10438   5.756   6.871   0.801
 3180SOL    HW110439   5.832   6.872   0.866
 3180SOL    HW210440   5.690   6.801   0.829
 3181SOL     OW10441   6.587   2.393   3.963
 3181SOL    HW110442   6.491   2.368   3.951
 3181SOL    HW210443   6.643   2.311   3.969
 3182SOL     OW10444   2.631   0.274   0.198
 3182SOL    HW110445   2.531   0.280   0.200
 3182SOL    HW210446   2.658   0.180   0.174
 3183SOL     OW10447   4.153   4.786   2.206
 3183SOL    HW110448   4.167   4.877   2.167
 3183SOL    HW210449   4.141   4.793   2.305
 3184SOL     OW10450   0.708   2.033   3.054
 3184SOL    HW110451   0.662   2.116   3.022
 3184SOL    HW210452   0.700   1.962   2.984
 3185SOL     OW10453   4.924   6.582   6.591
 3185SOL    HW110454   4.934   6.482   6.590
 3185SOL    HW210455   4.937   6.615   6.684
 3186SOL     OW10456   3.062   1.639   0.049
 3186SOL    HW110457   3.117   1.721   0.060
 3186SOL    HW210458   3.121   1.559   0.039
 3187SOL     OW10459   3.635   5.245   2.037
 3187SOL    HW110460   3.722   5.271   1.996
 3187SOL    HW210461   3.643   5.245   2.137
 3188SOL     OW10462   1.505   6.355   4.741
 3188SOL    HW110463   1.491   6.428   4.675
 3188SOL    HW210464   1.601   6.327   4.740
 3189SOL     OW10465   1.659   1.577   0.961
 3189SOL    HW110466   1.608   1.498   0.996
 3189SOL    HW210467   1.627   1.599   0.869
 3190SOL     OW10468   0.144   5.965   6.877
 3190SOL    HW110469   0.143   5.875   6.920
 3190SOL    HW210470   0.054   6.008   6.886
 3191SOL     OW10471   4.635   4.908   1.821
 3191SOL    HW110472   4.568   4.942   1.755
 3191SOL    HW210473   4.587   4.873   1.902
 3192SOL     OW10474   0.806   2.960   0.884
 3192SOL    HW110475   0.860   3.034   0.844
 3192SOL    HW210476   0.717   2.956   0.839
 3193SOL     OW10477   3.686   1.570   4.931
 3193SOL    HW110478   3.619   1.538   4.997
 3193SOL    HW210479   3.777   1.568   4.973
 3194SOL     OW10480   1.184   1.960   5.788
 3194SOL    HW110481   1.195   2.044   5.735
 3194SOL    HW210482   1.159   1.983   5.882
 3195SOL     OW10483   0.732   1.651   1.606
 3195SOL    HW110484   0.824   1.671   1.574
 3195SOL    HW210485   0.666   1.674   1.534
 3196SOL     OW10486   7.014   0.240   6.827
 3196SOL    HW110487   6.938   0.195   6.875
 3196SOL    HW210488   7.003   0.339   6.833
 3197SOL     OW10489   2.401   6.952   5.223
 3197SOL    HW110490   2.478   6.899   5.187
 3197SOL    HW210491   2.436   0.004   5.288
 3198SOL     OW10492   6.661   3.118   3.073
 3198SOL    HW110493   6.718   3.121   3.155
 3198SOL    HW210494   6.608   3.203   3.066
 3199SOL     OW10495   5.407   4.371   2.931
 3199SOL    HW110496   5.416   4.275   2.960
 3199SOL    HW210497   5.459   4.386   2.847
 3200SOL     OW10498   6.006   3.003   2.360
 3200SOL    HW110499   6.026   2.911   2.395
 3200SOL    HW210500   5.982   3.063   2.436
 3201SOL     OW10501   6.613   4.642   3.002
 3201SOL    HW110502   6.617   4.715   3.070
 3201SOL    HW210503   6.590   4.680   2.913
 3202SOL     OW10504   1.110   4.960   0.395
 3202SOL    HW110505   1.107   5.029   0.323
 3202SOL    HW210506   1.072   4.998   0.480
 3203SOL     OW10507   5.752   1.711   0.440
 3203SOL    HW110508   5.745   1.619   0.402
 3203SOL    HW210509   5.664   1.757   0.432
 3204SOL     OW10510   3.832   0.191   3.477
 3204SOL    HW110511   3.913   0.249   3.487
 3204SOL    HW210512   3.762   0.241   3.425
 3205SOL     OW10513   4.979   3.065   5.938
 3205SOL    HW110514   4.944   3.153   5.906
 3205SOL    HW210515   5.066   3.045   5.892
 3206SOL     OW10516   1.474   4.353   0.919
 3206SOL    HW110517   1.498   4.261   0.950
 3206SOL    HW210518   1.523   4.373   0.834
 3207SOL     OW10519   1.179   1.124   6.997
 3207SOL    HW110520   1.163   1.134   0.079
 3207SOL    HW210521   1.138   1.201   6.949
 3208SOL     OW10522   5.324   5.822   6.422
 3208SOL    HW110523   5.286   5.843   6.333
 3208SOL    HW210524   5.366   5.904   6.462
 3209SOL     OW10525   2.822   5.199   4.687
 3209SOL    HW110526   2.851   5.110   4.652
 3209SOL    HW210527   2.763   5.243   4.620
 3210SOL     OW10528   1.370   4.959   0.977
 3210SOL    HW110529   1.414   4.967   1.066
 3210SOL    HW210530   1.424   4.900   0.918
 3211SOL     OW10531   1.829   4.029   0.552
 3211SOL    HW110532   1.854   4.123   0.529
 3211SOL    HW210533   1.906   3.985   0.598
 3212SOL     OW10534   3.144   6.836   2.576
 3212SOL    HW110535   3.153   6.881   2.665
 3212SOL    HW210536   3.081   6.759   2.584
 3213SOL     OW10537   0.872   0.320   6.889
 3213SOL    HW110538   0.795   0.300   6.828
 3213SOL    HW210539   0.903   0.413   6.874
 3214SOL     OW10540   4.821   5.662   2.038
 3214SOL    HW110541   4.826   5.563   2.028
 3214SOL    HW210542   4.906   5.695   2.080
 3215SOL     OW10543   0.236   3.975   0.673
 3215SOL    HW110544   0.319   3.919   0.682
 3215SOL    HW210545   0.156   3.919   0.694
 3216SOL     OW10546   5.895   5.417   0.818
 3216SOL    HW110547   5.821   5.356   0.791
 3216SOL    HW210548   5.929   5.392   0.908
 3217SOL     OW10549   0.512   5.482   2.739
 3217SOL    HW110550   0.597   5.511   2.782
 3217SOL    HW210551   0.456   5.433   2.807
 3218SOL     OW10552   5.741   2.876   3.202
 3218SOL    HW110553   5.839   2.867   3.184
 3218SOL    HW210554   5.698   2.786   3.197
 3219SOL     OW10555   6.723   1.092   4.274
 3219SOL    HW110556   6.777   1.176   4.281
 3219SOL    HW210557   6.693   1.080   4.179
 3220SOL     OW10558   0.236   5.703   6.040
 3220SOL    HW110559   0.155   5.756   6.012
 3220SOL    HW210560   0.238   5.695   6.139
 3221SOL     OW10561   3.709   0.108   2.366
 3221SOL    HW110562   3.666   0.020   2.388
 3221SOL    HW210563   3.719   0.162   2.449
 3222SOL     OW10564   2.870   1.430   2.616
 3222SOL    HW110565   2.771   1.417   2.627
 3222SOL    HW210566   2.886   1.496   2.542
 3223SOL     OW10567   2.698   6.387   6.924
 3223SOL    HW110568   2.699   6.467   6.864
 3223SOL    HW210569   2.614   6.335   6.908
 3224SOL     OW10570   4.729   2.811   4.937
 3224SOL    HW110571   4.793   2.883   4.914
 3224SOL    HW210572   4.713   2.753   4.857
 3225SOL     OW10573   4.452   1.747   5.822
 3225SOL    HW110574   4.426   1.651   5.810
 3225SOL    HW210575   4.451   1.793   5.733
 3226SOL     OW10576   2.582   0.770   2.272
 3226SOL    HW110577   2.632   0.857   2.268
 3226SOL    HW210578   2.525   0.761   2.191
 3227SOL     OW10579   3.710   3.842   6.721
 3227SOL    HW110580   3.756   3.772   6.666
 3227SOL    HW210581   3.621   3.862   6.680
 3228SOL     OW10582   6.772   3.639   1.069
 3228SOL    HW110583   6.685   3.591   1.082
 3228SOL    HW210584   6.843   3.572   1.048
 3229SOL     OW10585   3.725   0.932   5.643
 3229SOL    HW110586   3.665   0.868   5.595
 3229SOL    HW210587   3.778   0.884   5.712
 3230SOL     OW10588   2.107   4.894   5.967
 3230SOL    HW110589   2.035   4.961   5.948
 3230SOL    HW210590   2.085   4.846   6.052
 3231SOL     OW10591   2.597   0.358   2.621
 3231SOL    HW110592   2.692   0.384   2.640
 3231SOL    HW210593   2.548   0.436   2.582
 3232SOL     OW10594   4.222   6.270   4.228
 3232SOL    HW110595   4.258   6.264   4.135
 3232SOL    HW210596   4.122   6.272   4.225
 3233SOL     OW10597   6.863   2.444   0.842
 3233SOL    HW110598   6.960   2.441   0.863
 3233SOL    HW210599   6.810   2.457   0.926
 3234SOL     OW10600   0.578   2.743   0.157
 3234SOL    HW110601   0.626   2.684   0.093
 3234SOL    HW210602   0.505   2.792   0.109
 3235SOL     OW10603   6.634   0.033   1.521
 3235SOL    HW110604   6.584   0.083   1.450
 3235SOL    HW210605   6.715   0.086   1.548
 3236SOL     OW10606   0.621   4.366   0.169
 3236SOL    HW110607   0.709   4.360   0.123
 3236SOL    HW210608   0.625   4.315   0.255
 3237SOL     OW10609   6.168   1.674   2.276
 3237SOL    HW110610   6.116   1.694   2.193
 3237SOL    HW210611   6.224   1.593   2.261
 3238SOL     OW10612   6.008   5.261   0.020
 3238SOL    HW110613   5.999   5.176   0.072
 3238SOL    HW210614   6.045   5.333   0.079
 3239SOL     OW10615   0.420   1.228   2.821
 3239SOL    HW110616   0.390   1.303   2.761
 3239SOL    HW210617   0.342   1.169   2.842
 3240SOL     OW10618   0.089   7.003   6.700
 3240SOL    HW110619   0.093   7.013   6.600
 3240SOL    HW210620   0.078   0.076   6.742
 3241SOL     OW10621   4.880   1.383   5.892
 3241SOL    HW110622   4.932   1.300   5.911
 3241SOL    HW210623   4.938   1.463   5.908
 3242SOL     OW10624   4.295   4.273   6.192
 3242SOL    HW110625   4.381   4.283   6.243
 3242SOL    HW210626   4.302   4.196   6.129
 3243SOL     OW10627   4.780   5.067   0.439
 3243SOL    HW110628   4.720   4.994   0.473
 3243SOL    HW210629   4.804   5.049   0.344
 3244SOL     OW10630   5.437   6.318   0.126
 3244SOL    HW110631   5.434   6.272   0.037
 3244SOL    HW210632   5.441   6.417   0.112
 3245SOL     OW10633   4.822   2.370   4.291
 3245SOL    HW110634   4.886   2.392   4.365
 3245SOL    HW210635   4.761   2.297   4.320
 3246SOL     OW10636   6.552   6.975   3.095
 3246SOL    HW110637   6.592   6.945   3.009
 3246SOL    HW210638   6.513   0.049   3.085
 3247SOL     OW10639   5.919   4.249   2.088
 3247SOL    HW110640   5.902   4.157   2.124
 3247SOL    HW210641   5.859   4.266   2.010
 3248SOL     OW10642   5.488   3.078   2.140
 3248SOL    HW110643   5.551   3.009   2.175
 3248SOL    HW210644   5.520   3.110   2.050
 3249SOL     OW10645   3.599   4.154   3.203
 3249SOL    HW110646   3.553   4.135   3.117
 3249SOL    HW210647   3.662   4.231   3.191
 3250SOL     OW10648   5.710   0.311   2.435
 3250SOL    HW110649   5.785   0.266   2.387
 3250SOL    HW210650   5.622   0.279   2.398
 3251SOL     OW10651   3.437   0.672   3.710
 3251SOL    HW110652   3.398   0.585   3.742
 3251SOL    HW210653   3.383   0.748   3.746
 3252SOL     OW10654   3.017   0.872   2.449
 3252SOL    HW110655   2.919   0.868   2.467
 3252SOL    HW210656   3.064   0.916   2.526
 3253SOL     OW10657   4.540   3.512   0.944
 3253SOL    HW110658   4.449   3.471   0.939
 3253SOL    HW210659   4.607   3.448   0.906
 3254SOL     OW10660   4.798   6.167   0.001
 3254SOL    HW110661   4.868   6.142   0.068
 3254SOL    HW210662   4.837   6.233   6.952
 3255SOL     OW10663   4.126   6.780   1.575
 3255SOL    HW110664   4.091   6.874   1.573
 3255SOL    HW210665   4.138   6.747   1.482
 3256SOL     OW10666   3.533   1.449   1.043
 3256SOL    HW110667   3.492   1.539   1.026
 3256SOL    HW210668   3.632   1.460   1.054
 3257SOL     OW10669   1.224   2.034   1.765
 3257SOL    HW110670   1.269   2.014   1.678
 3257SOL    HW210671   1.289   2.020   1.840
 3258SOL     OW10672   4.240   5.830   2.936
 3258SOL    HW110673   4.287   5.901   2.884
 3258SOL    HW210674   4.304   5.757   2.958
 3259SOL     OW10675   4.708   4.703   4.703
 3259SOL    HW110676   4.776   4.769   4.737
 3259SOL    HW210677   4.744   4.658   4.621
 3260SOL     OW10678   1.817   2.736   1.585
 3260SOL    HW110679   1.748   2.665   1.599
 3260SOL    HW210680   1.789   2.795   1.509
 3261SOL     OW10681   5.699   0.879   1.179
 3261SOL    HW110682   5.717   0.781   1.170
 3261SOL    HW210683   5.747   0.914   1.260
 3262SOL     OW10684   3.815   2.105   2.230
 3262SOL    HW110685   3.898   2.106   2.174
 3262SOL    HW210686   3.735   2.123   2.172
 3263SOL     OW10687   2.801   1.380   3.115
 3263SOL    HW110688   2.870   1.318   3.151
 3263SOL    HW210689   2.832   1.419   3.028
 3264SOL     OW10690   2.035   5.342   1.192
 3264SOL    HW110691   2.091   5.280   1.137
 3264SOL    HW210692   1.987   5.407   1.132
 3265SOL     OW10693   5.001   0.030   6.576
 3265SOL    HW110694   4.914   0.035   6.623
 3265SOL    HW210695   5.017   6.953   6.544
 3266SOL     OW10696   3.123   4.690   0.048
 3266SOL    HW110697   3.075   4.661   6.981
 3266SOL    HW210698   3.064   4.752   0.100
 3267SOL     OW10699   3.204   6.398   1.794
 3267SOL    HW110700   3.264   6.321   1.774
 3267SOL    HW210701   3.144   6.374   1.871
 3268SOL     OW10702   2.181   3.912   1.296
 3268SOL    HW110703   2.198   3.981   1.226
 3268SOL    HW210704   2.168   3.956   1.385
 3269SOL     OW10705   6.211   5.694   2.023
 3269SOL    HW110706   6.214   5.643   2.109
 3269SOL    HW210707   6.133   5.663   1.968
 3270SOL     OW10708   1.868   4.027   6.777
 3270SOL    HW110709   1.862   3.948   6.838
 3270SOL    HW210710   1.868   3.996   6.682
 3271SOL     OW10711   6.700   2.842   1.123
 3271SOL    HW110712   6.750   2.919   1.083
 3271SOL    HW210713   6.766   2.778   1.164
 3272SOL     OW10714   3.146   4.178   6.142
 3272SOL    HW110715   3.071   4.217   6.196
 3272SOL    HW210716   3.165   4.237   6.063
 3273SOL     OW10717   6.510   4.666   7.005
 3273SOL    HW110718   6.432   4.718   6.969
 3273SOL    HW210719   6.478   4.577   0.022
 3274SOL     OW10720   5.941   0.492   0.408
 3274SOL    HW110721   6.040   0.487   0.399
 3274SOL    HW210722   5.916   0.572   0.462
 3275SOL     OW10723   5.355   1.023   0.043
 3275SOL    HW110724   5.368   1.003   0.140
 3275SOL    HW210725   5.442   1.049   0.002
 3276SOL     OW10726   4.114   6.130   6.612
 3276SOL    HW110727   4.068   6.212   6.646
 3276SOL    HW210728   4.102   6.056   6.678
 3277SOL     OW10729   3.405   0.842   0.874
 3277SOL    HW110730   3.437   0.839   0.969
 3277SOL    HW210731   3.398   0.937   0.844
 3278SOL     OW10732   1.201   0.962   5.705
 3278SOL    HW110733   1.107   0.931   5.689
 3278SOL    HW210734   1.222   1.038   5.644
 3279SOL     OW10735   5.454   6.729   0.332
 3279SOL    HW110736   5.366   6.710   0.375
 3279SOL    HW210737   5.526   6.723   0.401
 3280SOL     OW10738   4.915   4.890   4.848
 3280SOL    HW110739   5.002   4.845   4.869
 3280SOL    HW210740   4.870   4.916   4.933
 3281SOL     OW10741   0.981   4.629   1.132
 3281SOL    HW110742   0.945   4.561   1.195
 3281SOL    HW210743   1.046   4.688   1.180
 3282SOL     OW10744   6.614   5.182   4.945
 3282SOL    HW110745   6.568   5.263   4.909
 3282SOL    HW210746   6.612   5.110   4.875
 3283SOL     OW10747   3.091   1.288   1.040
 3283SOL    HW110748   3.185   1.257   1.022
 3283SOL    HW210749   3.029   1.210   1.031
 3284SOL     OW10750   1.180   6.071   6.140
 3284SOL    HW110751   1.223   6.072   6.050
 3284SOL    HW210752   1.089   6.113   6.134
 3285SOL     OW10753   4.657   1.893   4.386
 3285SOL    HW110754   4.634   1.809   4.337
 3285SOL    HW210755   4.755   1.894   4.407
 3286SOL     OW10756   3.655   2.850   2.042
 3286SOL    HW110757   3.645   2.810   1.951
 3286SOL    HW210758   3.678   2.778   2.108
 3287SOL     OW10759   0.430   0.112   0.254
 3287SOL    HW110760   0.454   0.169   0.333
 3287SOL    HW210761   0.380   0.032   0.285
 3288SOL     OW10762   2.078   6.314   6.911
 3288SOL    HW110763   2.113   6.407   6.924
 3288SOL    HW210764   1.979   6.314   6.924
 3289SOL     OW10765   2.861   1.138   6.244
 3289SOL    HW110766   2.905   1.214   6.292
 3289SOL    HW210767   2.829   1.070   6.311
 3290SOL     OW10768   6.806   4.571   0.970
 3290SOL    HW110769   6.873   4.556   0.897
 3290SOL    HW210770   6.784   4.668   0.976
 3291SOL     OW10771   2.436   0.766   6.098
 3291SOL    HW110772   2.351   0.751   6.049
 3291SOL    HW210773   2.495   0.686   6.088
 3292SOL     OW10774   6.979   1.094   0.800
 3292SOL    HW110775   6.903   1.159   0.805
 3292SOL    HW210776   6.958   1.023   0.733
 3293SOL     OW10777   6.343   4.794   1.673
 3293SOL    HW110778   6.258   4.829   1.633
 3293SOL    HW210779   6.390   4.736   1.607
 3294SOL     OW10780   5.381   3.062   6.332
 3294SOL    HW110781   5.356   3.113   6.250
 3294SOL    HW210782   5.304   3.064   6.397
 3295SOL     OW10783   0.907   2.879   2.364
 3295SOL    HW110784   0.924   2.977   2.368
 3295SOL    HW210785   0.906   2.849   2.269
 3296SOL     OW10786   1.501   0.627   3.022
 3296SOL    HW110787   1.444   0.705   2.996
 3296SOL    HW210788   1.569   0.656   3.089
 3297SOL     OW10789   2.613   1.797   5.078
 3297SOL    HW110790   2.555   1.793   5.160
 3297SOL    HW210791   2.699   1.842   5.101
 3298SOL     OW10792   5.939   2.196   5.797
 3298SOL    HW110793   6.033   2.230   5.805
 3298SOL    HW210794   5.875   2.271   5.812
 3299SOL     OW10795   4.061   5.827   2.638
 3299SOL    HW110796   4.061   5.878   2.552
 3299SOL    HW210797   3.977   5.846   2.688
 3300SOL     OW10798   0.658   0.948   5.878
 3300SOL    HW110799   0.702   0.928   5.966
 3300SOL    HW210800   0.560   0.930   5.884
 3301SOL     OW10801   1.831   3.225   3.353
 3301SOL    HW110802   1.884   3.153   3.399
 3301SOL    HW210803   1.894   3.287   3.306
 3302SOL     OW10804   0.357   4.871   5.105
 3302SOL    HW110805   0.450   4.883   5.141
 3302SOL    HW210806   0.346   4.777   5.074
 3303SOL     OW10807   3.410   3.642   0.220
 3303SOL    HW110808   3.446   3.676   0.133
 3303SOL    HW210809   3.329   3.695   0.246
 3304SOL     OW10810   1.818   5.521   6.052
 3304SOL    HW110811   1.848   5.586   6.121
 3304SOL    HW210812   1.879   5.528   5.972
 3305SOL     OW10813   2.422   1.730   2.575
 3305SOL    HW110814   2.341   1.690   2.618
 3305SOL    HW210815   2.425   1.829   2.595
 3306SOL     OW10816   1.691   5.160   5.124
 3306SOL    HW110817   1.635   5.177   5.043
 3306SOL    HW210818   1.774   5.216   5.119
 3307SOL     OW10819   0.607   6.553   6.110
 3307SOL    HW110820   0.643   6.484   6.047
 3307SOL    HW210821   0.683   6.600   6.155
 3308SOL     OW10822   2.977   5.649   1.615
 3308SOL    HW110823   3.029   5.693   1.689
 3308SOL    HW210824   2.923   5.717   1.567
 3309SOL     OW10825   6.675   5.360   3.861
 3309SOL    HW110826   6.717   5.444   3.895
 3309SOL    HW210827   6.710   5.340   3.770
 3310SOL     OW10828   0.279   4.124   4.881
 3310SOL    HW110829   0.352   4.192   4.869
 3310SOL    HW210830   0.192   4.162   4.849
 3311SOL     OW10831   3.371   4.371   0.810
 3311SOL    HW110832   3.321   4.357   0.895
 3311SOL    HW210833   3.344   4.459   0.770
 3312SOL     OW10834   4.273   3.880   5.909
 3312SOL    HW110835   4.264   3.784   5.935
 3312SOL    HW210836   4.191   3.930   5.938
 3313SOL     OW10837   0.740   6.511   4.094
 3313SOL    HW110838   0.798   6.553   4.164
 3313SOL    HW210839   0.660   6.569   4.078
 3314SOL     OW10840   2.608   1.395   2.612
 3314SOL    HW110841   2.553   1.410   2.694
 3314SOL    HW210842   2.569   1.446   2.536
 3315SOL     OW10843   0.418   4.386   4.805
 3315SOL    HW110844   0.471   4.380   4.720
 3315SOL    HW210845   0.332   4.434   4.787
 3316SOL     OW10846   4.846   1.034   5.156
 3316SOL    HW110847   4.747   1.027   5.170
 3316SOL    HW210848   4.864   1.086   5.073
 3317SOL     OW10849   5.028   2.701   1.970
 3317SOL    HW110850   5.089   2.776   1.946
 3317SOL    HW210851   4.935   2.735   1.982
 3318SOL     OW10852   1.786   1.561   1.209
 3318SOL    HW110853   1.775   1.602   1.119
 3318SOL    HW210854   1.809   1.632   1.276
 3319SOL     OW10855   5.402   1.249   3.838
 3319SOL    HW110856   5.479   1.187   3.856
 3319SOL    HW210857   5.327   1.227   3.901
 3320SOL     OW10858   6.256   0.961   6.638
 3320SOL    HW110859   6.159   0.950   6.618
 3320SOL    HW210860   6.307   0.975   6.553
 3321SOL     OW10861   5.406   2.132   0.411
 3321SOL    HW110862   5.468   2.114   0.487
 3321SOL    HW210863   5.455   2.121   0.325
 3322SOL     OW10864   6.869   2.658   1.258
 3322SOL    HW110865   6.914   2.646   1.169
 3322SOL    HW210866   6.895   2.583   1.319
 3323SOL     OW10867   2.942   3.239   7.011
 3323SOL    HW110868   2.992   3.242   6.924
 3323SOL    HW210869   2.995   3.187   0.061
 3324SOL     OW10870   4.000   4.696   6.469
 3324SOL    HW110871   3.947   4.617   6.502
 3324SOL    HW210872   4.021   4.757   6.546
 3325SOL     OW10873   0.016   3.831   0.207
 3325SOL    HW110874   0.000   3.831   0.305
 3325SOL    HW210875   0.023   3.925   0.174
 3326SOL     OW10876   5.168   1.998   1.783
 3326SOL    HW110877   5.096   1.998   1.853
 3326SOL    HW210878   5.142   1.935   1.709
 3327SOL     OW10879   3.208   5.392   2.110
 3327SOL    HW110880   3.300   5.356   2.125
 3327SOL    HW210881   3.199   5.422   2.015
 3328SOL     OW10882   4.268   2.130   0.877
 3328SOL    HW110883   4.279   2.222   0.842
 3328SOL    HW210884   4.171   2.108   0.885
 3329SOL     OW10885   5.943   0.279   5.339
 3329SOL    HW110886   5.919   0.349   5.406
 3329SOL    HW210887   5.897   0.299   5.253
 3330SOL     OW10888   6.553   3.641   1.545
 3330SOL    HW110889   6.560   3.664   1.448
 3330SOL    HW210890   6.644   3.636   1.586
 3331SOL     OW10891   2.220   3.023   1.797
 3331SOL    HW110892   2.240   3.108   1.747
 3331SOL    HW210893   2.173   3.045   1.882
 3332SOL     OW10894   5.633   5.937   0.231
 3332SOL    HW110895   5.718   5.959   0.184
 3332SOL    HW210896   5.578   5.874   0.175
 3333SOL     OW10897   4.231   5.551   6.528
 3333SOL    HW110898   4.320   5.507   6.528
 3333SOL    HW210899   4.220   5.605   6.444
 3334SOL     OW10900   3.383   3.589   1.121
 3334SOL    HW110901   3.339   3.499   1.127
 3334SOL    HW210902   3.316   3.661   1.137
 3335SOL     OW10903   4.942   5.348   5.796
 3335SOL    HW110904   4.867   5.412   5.782
 3335SOL    HW210905   4.908   5.254   5.795
 3336SOL     OW10906   2.878   5.341   5.074
 3336SOL    HW110907   2.842   5.263   5.124
 3336SOL    HW210908   2.962   5.373   5.117
 3337SOL     OW10909   3.039   3.824   2.097
 3337SOL    HW110910   2.990   3.737   2.088
 3337SOL    HW210911   3.137   3.808   2.102
 3338SOL     OW10912   5.683   2.982   1.322
 3338SOL    HW110913   5.779   2.973   1.298
 3338SOL    HW210914   5.650   3.073   1.296
 3339SOL     OW10915   6.556   0.051   6.881
 3339SOL    HW110916   6.495   6.997   6.916
 3339SOL    HW210917   6.554   0.052   6.781
 3340SOL     OW10918   3.643   0.290   1.145
 3340SOL    HW110919   3.582   0.359   1.106
 3340SOL    HW210920   3.687   0.327   1.227
 3341SOL     OW10921   0.939   6.110   3.829
 3341SOL    HW110922   0.939   6.012   3.850
 3341SOL    HW210923   1.019   6.153   3.870
 3342SOL     OW10924   2.801   6.546   4.093
 3342SOL    HW110925   2.742   6.550   4.174
 3342SOL    HW210926   2.827   6.639   4.067
 3343SOL     OW10927   4.554   3.084   0.904
 3343SOL    HW110928   4.588   3.001   0.859
 3343SOL    HW210929   4.456   3.093   0.887
 3344SOL     OW10930   6.157   3.211   4.529
 3344SOL    HW110931   6.149   3.242   4.624
 3344SOL    HW210932   6.067   3.183   4.496
 3345SOL     OW10933   1.419   3.980   5.445
 3345SOL    HW110934   1.501   4.007   5.394
 3345SOL    HW210935   1.385   4.058   5.497
 3346SOL     OW10936   1.752   0.745   1.099
 3346SOL    HW110937   1.813   0.816   1.063
 3346SOL    HW210938   1.804   0.660   1.111
 3347SOL     OW10939   0.662   4.759   4.103
 3347SOL    HW110940   0.738   4.798   4.156
 3347SOL    HW210941   0.692   4.674   4.060
 3348SOL     OW10942   3.032   3.229   3.655
 3348SOL    HW110943   3.083   3.144   3.637
 3348SOL    HW210944   3.032   3.248   3.753
 3349SOL     OW10945   0.573   5.300   4.208
 3349SOL    HW110946   0.595   5.231   4.139
 3349SOL    HW210947   0.572   5.258   4.298
 3350SOL     OW10948   1.187   2.234   5.730
 3350SOL    HW110949   1.133   2.211   5.649
 3350SOL    HW210950   1.241   2.315   5.711
 3351SOL     OW10951   5.472   0.285   2.992
 3351SOL    HW110952   5.483   0.198   2.945
 3351SOL    HW210953   5.408   0.274   3.068
 3352SOL     OW10954   0.253   2.931   0.237
 3352SOL    HW110955   0.316   2.889   0.171
 3352SOL    HW210956   0.305   2.963   0.316
 3353SOL     OW10957   1.406   6.595   2.413
 3353SOL    HW110958   1.490   6.642   2.387
 3353SOL    HW210959   1.398   6.509   2.362
 3354SOL     OW10960   5.383   2.755   4.365
 3354SOL    HW110961   5.353   2.659   4.366
 3354SOL    HW210962   5.393   2.787   4.459
 3355SOL     OW10963   1.566   1.674   0.334
 3355SOL    HW110964   1.650   1.662   0.387
 3355SOL    HW210965   1.550   1.772   0.321
 3356SOL     OW10966   2.197   3.953   6.501
 3356SOL    HW110967   2.102   3.974   6.522
 3356SOL    HW210968   2.202   3.871   6.444
 3357SOL     OW10969   2.619   4.720   1.746
 3357SOL    HW110970   2.694   4.678   1.797
 3357SOL    HW210971   2.533   4.709   1.797
 3358SOL     OW10972   4.989   0.146   1.359
 3358SOL    HW110973   4.938   0.230   1.344
 3358SOL    HW210974   5.059   0.161   1.429
 3359SOL     OW10975   6.698   0.496   3.572
 3359SOL    HW110976   6.690   0.400   3.601
 3359SOL    HW210977   6.744   0.549   3.643
 3360SOL     OW10978   0.670   1.137   6.832
 3360SOL    HW110979   0.744   1.087   6.878
 3360SOL    HW210980   0.685   1.235   6.841
 3361SOL     OW10981   0.266   4.450   2.692
 3361SOL    HW110982   0.275   4.351   2.685
 3361SOL    HW210983   0.261   4.476   2.788
 3362SOL     OW10984   3.812   1.833   3.899
 3362SOL    HW110985   3.864   1.915   3.875
 3362SOL    HW210986   3.801   1.829   3.998
 3363SOL     OW10987   0.716   0.186   0.245
 3363SOL    HW110988   0.708   0.181   0.344
 3363SOL    HW210989   0.706   0.094   0.206
 3364SOL     OW10990   0.849   4.291   4.494
 3364SOL    HW110991   0.864   4.194   4.478
 3364SOL    HW210992   0.911   4.323   4.565
 3365SOL     OW10993   0.434   2.476   5.042
 3365SOL    HW110994   0.510   2.466   5.107
 3365SOL    HW210995   0.414   2.573   5.029
 3366SOL     OW10996   6.052   0.546   6.154
 3366SOL    HW110997   5.982   0.546   6.226
 3366SOL    HW210998   6.007   0.537   6.065
 3367SOL     OW10999   2.731   2.864   1.164
 3367SOL    HW111000   2.754   2.920   1.243
 3367SOL    HW211001   2.813   2.852   1.107
 3368SOL     OW11002   0.646   5.704   6.121
 3368SOL    HW111003   0.591   5.699   6.038
 3368SOL    HW211004   0.597   5.757   6.190
 3369SOL     OW11005   3.469   2.392   5.668
 3369SOL    HW111006   3.524   2.394   5.751
 3369SOL    HW211007   3.441   2.484   5.643
 3370SOL     OW11008   6.625   6.248   6.092
 3370SOL    HW111009   6.707   6.220   6.142
 3370SOL    HW211010   6.624   6.347   6.083
 3371SOL     OW11011   0.820   4.094   2.512
 3371SOL    HW111012   0.830   4.100   2.413
 3371SOL    HW211013   0.893   4.036   2.549
 3372SOL     OW11014   0.489   1.107   1.616
 3372SOL    HW111015   0.429   1.030   1.593
 3372SOL    HW211016   0.582   1.087   1.587
 3373SOL     OW11017   6.692   1.085   2.532
 3373SOL    HW111018   6.673   1.106   2.628
 3373SOL    HW211019   6.786   1.051   2.524
 3374SOL     OW11020   2.418   5.902   4.892
 3374SOL    HW111021   2.479   5.883   4.969
 3374SOL    HW211022   2.323   5.895   4.923
 3375SOL     OW11023   5.051   5.104   6.284
 3375SOL    HW111024   5.130   5.143   6.237
 3375SOL    HW211025   5.055   5.128   6.381
 3376SOL     OW11026   3.661   3.243   3.226
 3376SOL    HW111027   3.700   3.175   3.289
 3376SOL    HW211028   3.617   3.316   3.279
 3377SOL     OW11029   0.087   6.503   4.670
 3377SOL    HW111030   0.059   6.569   4.741
 3377SOL    HW211031   0.149   6.436   4.711
 3378SOL     OW11032   6.357   0.798   0.405
 3378SOL    HW111033   6.326   0.707   0.376
 3378SOL    HW211034   6.291   0.867   0.374
 3379SOL     OW11035   0.082   5.419   6.230
 3379SOL    HW111036   0.141   5.345   6.197
 3379SOL    HW211037   0.073   5.413   6.329
 3380SOL     OW11038   5.681   6.578   6.084
 3380SOL    HW111039   5.772   6.597   6.121
 3380SOL    HW211040   5.655   6.651   6.022
 3381SOL     OW11041   1.207   2.789   1.231
 3381SOL    HW111042   1.275   2.779   1.158
 3381SOL    HW211043   1.167   2.700   1.252
 3382SOL     OW11044   0.879   0.785   0.586
 3382SOL    HW111045   0.956   0.726   0.611
 3382SOL    HW211046   0.795   0.748   0.624
 3383SOL     OW11047   4.366   5.594   3.029
 3383SOL    HW111048   4.372   5.571   3.127
 3383SOL    HW211049   4.454   5.578   2.985
 3384SOL     OW11050   2.614   3.373   5.361
 3384SOL    HW111051   2.516   3.389   5.363
 3384SOL    HW211052   2.632   3.275   5.348
 3385SOL     OW11053   0.314   4.215   3.918
 3385SOL    HW111054   0.317   4.165   3.832
 3385SOL    HW211055   0.261   4.162   3.985
 3386SOL     OW11056   6.327   3.893   6.394
 3386SOL    HW111057   6.311   3.968   6.330
 3386SOL    HW211058   6.370   3.928   6.477
 3387SOL     OW11059   2.998   1.219   3.276
 3387SOL    HW111060   2.972   1.131   3.316
 3387SOL    HW211061   3.097   1.219   3.259
 3388SOL     OW11062   5.857   3.632   1.894
 3388SOL    HW111063   5.808   3.549   1.920
 3388SOL    HW211064   5.865   3.636   1.794
 3389SOL     OW11065   4.948   5.291   4.646
 3389SOL    HW111066   4.962   5.331   4.555
 3389SOL    HW211067   4.920   5.362   4.710
 3390SOL     OW11068   5.264   4.604   5.430
 3390SOL    HW111069   5.269   4.551   5.345
 3390SOL    HW211070   5.193   4.673   5.422
 3391SOL     OW11071   5.472   2.751   4.662
 3391SOL    HW111072   5.546   2.686   4.678
 3391SOL    HW211073   5.447   2.796   4.748
 3392SOL     OW11074   2.720   0.202   3.828
 3392SOL    HW111075   2.696   0.263   3.903
 3392SOL    HW211076   2.683   0.111   3.846
 3393SOL     OW11077   0.149   6.510   0.167
 3393SOL    HW111078   0.117   6.440   0.230
 3393SOL    HW211079   0.247   6.496   0.149
 3394SOL     OW11080   5.921   2.860   0.849
 3394SOL    HW111081   5.835   2.871   0.899
 3394SOL    HW211082   5.919   2.916   0.766
 3395SOL     OW11083   5.932   3.524   3.558
 3395SOL    HW111084   5.884   3.469   3.490
 3395SOL    HW211085   5.909   3.621   3.546
 3396SOL     OW11086   5.938   2.149   3.233
 3396SOL    HW111087   5.926   2.099   3.319
 3396SOL    HW211088   5.957   2.084   3.159
 3397SOL     OW11089   2.817   1.339   5.316
 3397SOL    HW111090   2.720   1.317   5.308
 3397SOL    HW211091   2.870   1.255   5.323
 3398SOL     OW11092   1.173   6.650   4.054
 3398SOL    HW111093   1.099   6.703   4.013
 3398SOL    HW211094   1.194   6.570   3.997
 3399SOL     OW11095   5.690   4.448   5.212
 3399SOL    HW111096   5.749   4.393   5.153
 3399SOL    HW211097   5.634   4.509   5.156
 3400SOL     OW11098   4.641   1.838   5.978
 3400SOL    HW111099   4.584   1.792   5.910
 3400SOL    HW211100   4.617   1.805   6.069
 3401SOL     OW11101   6.863   3.114   0.607
 3401SOL    HW111102   6.783   3.103   0.547
 3401SOL    HW211103   6.891   3.024   0.641
 3402SOL     OW11104   4.176   6.249   0.387
 3402SOL    HW111105   4.080   6.221   0.376
 3402SOL    HW211106   4.185   6.346   0.366
 3403SOL     OW11107   4.260   7.010   4.954
 3403SOL    HW111108   4.299   6.918   4.945
 3403SOL    HW211109   4.254   0.017   5.051
 3404SOL     OW11110   5.687   1.624   6.566
 3404SOL    HW111111   5.754   1.658   6.631
 3404SOL    HW211112   5.655   1.700   6.508
 3405SOL     OW11113   6.593   4.566   4.317
 3405SOL    HW111114   6.535   4.497   4.360
 3405SOL    HW211115   6.689   4.544   4.333
 3406SOL     OW11116   0.754   4.369   2.373
 3406SOL    HW111117   0.710   4.404   2.290
 3406SOL    HW211118   0.842   4.329   2.349
 3407SOL     OW11119   1.457   5.396   0.083
 3407SOL    HW111120   1.480   5.323   0.147
 3407SOL    HW211121   1.489   5.371   7.008
 3408SOL     OW11122   4.994   4.142   4.863
 3408SOL    HW111123   5.065   4.168   4.929
 3408SOL    HW211124   4.962   4.050   4.885
 3409SOL     OW11125   3.766   6.253   6.263
 3409SOL    HW111126   3.858   6.276   6.232
 3409SOL    HW211127   3.759   6.154   6.277
 3410SOL     OW11128   6.791   5.675   0.038
 3410SOL    HW111129   6.697   5.699   0.011
 3410SOL    HW211130   6.836   5.628   6.979
 3411SOL     OW11131   0.529   2.639   1.979
 3411SOL    HW111132   0.523   2.539   1.984
 3411SOL    HW211133   0.533   2.667   1.883
 3412SOL     OW11134   4.643   2.759   6.291
 3412SOL    HW111135   4.547   2.743   6.314
 3412SOL    HW211136   4.671   2.849   6.326
 3413SOL     OW11137   5.388   0.644   2.303
 3413SOL    HW111138   5.476   0.631   2.348
 3413SOL    HW211139   5.344   0.726   2.339
 3414SOL     OW11140   1.948   0.883   5.895
 3414SOL    HW111141   1.976   0.876   5.799
 3414SOL    HW211142   1.894   0.967   5.907
 3415SOL     OW11143   1.680   4.128   4.658
 3415SOL    HW111144   1.742   4.200   4.627
 3415SOL    HW211145   1.729   4.040   4.659
 3416SOL     OW11146   6.892   5.533   0.472
 3416SOL    HW111147   6.878   5.597   0.547
 3416SOL    HW211148   6.939   5.451   0.505
 3417SOL     OW11149   0.629   5.917   3.746
 3417SOL    HW111150   0.645   5.821   3.722
 3417SOL    HW211151   0.699   5.947   3.812
 3418SOL     OW11152   3.979   6.851   5.207
 3418SOL    HW111153   4.060   6.794   5.195
 3418SOL    HW211154   3.977   6.923   5.137
 3419SOL     OW11155   3.806   5.136   4.849
 3419SOL    HW111156   3.731   5.079   4.883
 3419SOL    HW211157   3.770   5.228   4.828
 3420SOL     OW11158   5.237   3.253   3.674
 3420SOL    HW111159   5.283   3.229   3.589
 3420SOL    HW211160   5.176   3.179   3.701
 3421SOL     OW11161   5.717   0.929   6.376
 3421SOL    HW111162   5.629   0.912   6.332
 3421SOL    HW211163   5.786   0.951   6.306
 3422SOL     OW11164   1.801   6.652   1.184
 3422SOL    HW111165   1.850   6.573   1.147
 3422SOL    HW211166   1.771   6.633   1.277
 3423SOL     OW11167   2.180   6.351   0.467
 3423SOL    HW111168   2.243   6.428   0.481
 3423SOL    HW211169   2.231   6.270   0.441
 3424SOL     OW11170   2.959   0.056   2.409
 3424SOL    HW111171   3.037   7.010   2.400
 3424SOL    HW211172   2.878   0.004   2.437
 3425SOL     OW11173   5.657   3.932   2.416
 3425SOL    HW111174   5.659   3.846   2.467
 3425SOL    HW211175   5.583   3.930   2.349
 3426SOL     OW11176   3.246   2.997   0.004
 3426SOL    HW111177   3.325   3.042   6.979
 3426SOL    HW211178   3.197   2.944   6.951
 3427SOL     OW11179   6.399   6.481   7.005
 3427SOL    HW111180   6.483   6.478   6.952
 3427SOL    HW211181   6.340   6.554   6.970
 3428SOL     OW11182   2.933   5.031   1.237
 3428SOL    HW111183   3.005   4.994   1.295
 3428SOL    HW211184   2.873   5.090   1.292
 3429SOL     OW11185   0.767   1.661   6.932
 3429SOL    HW111186   0.861   1.628   6.942
 3429SOL    HW211187   0.746   1.724   7.006
 3430SOL     OW11188   0.143   6.484   5.208
 3430SOL    HW111189   0.051   6.501   5.173
 3430SOL    HW211190   0.187   6.571   5.231
 3431SOL     OW11191   2.081   6.822   1.225
 3431SOL    HW111192   1.990   6.861   1.207
 3431SOL    HW211193   2.111   6.850   1.316
 3432SOL     OW11194   2.340   2.908   6.928
 3432SOL    HW111195   2.388   2.965   6.861
 3432SOL    HW211196   2.370   2.813   6.918
 3433SOL     OW11197   0.953   6.801   6.455
 3433SOL    HW111198   1.005   6.887   6.454
 3433SOL    HW211199   0.901   6.795   6.540
 3434SOL     OW11200   4.354   1.955   0.673
 3434SOL    HW111201   4.310   2.004   0.749
 3434SOL    HW211202   4.447   1.930   0.699
 3435SOL     OW11203   1.202   1.620   1.075
 3435SOL    HW111204   1.216   1.521   1.079
 3435SOL    HW211205   1.114   1.642   1.118
 3436SOL     OW11206   3.559   6.464   5.689
 3436SOL    HW111207   3.636   6.457   5.626
 3436SOL    HW211208   3.584   6.519   5.768
 3437SOL     OW11209   2.997   0.583   5.998
 3437SOL    HW111210   3.008   0.513   6.069
 3437SOL    HW211211   2.945   0.660   6.036
 3438SOL     OW11212   1.440   2.354   0.664
 3438SOL    HW111213   1.363   2.370   0.602
 3438SOL    HW211214   1.468   2.441   0.705
 3439SOL     OW11215   1.886   6.348   5.399
 3439SOL    HW111216   1.981   6.366   5.372
 3439SOL    HW211217   1.829   6.428   5.379
 3440SOL     OW11218   4.273   3.385   1.807
 3440SOL    HW111219   4.251   3.483   1.815
 3440SOL    HW211220   4.198   3.332   1.847
 3441SOL     OW11221   5.214   6.946   3.821
 3441SOL    HW111222   5.187   6.976   3.913
 3441SOL    HW211223   5.291   7.002   3.789
 3442SOL     OW11224   2.966   4.862   2.781
 3442SOL    HW111225   2.931   4.955   2.765
 3442SOL    HW211226   3.005   4.857   2.873
 3443SOL     OW11227   5.559   0.235   1.754
 3443SOL    HW111228   5.481   0.179   1.726
 3443SOL    HW211229   5.644   0.185   1.735
 3444SOL     OW11230   5.448   5.325   0.478
 3444SOL    HW111231   5.497   5.248   0.437
 3444SOL    HW211232   5.440   5.399   0.412
 3445SOL     OW11233   5.870   5.606   4.637
 3445SOL    HW111234   5.841   5.515   4.667
 3445SOL    HW211235   5.968   5.606   4.622
 3446SOL     OW11236   6.221   0.625   2.430
 3446SOL    HW111237   6.204   0.627   2.332
 3446SOL    HW211238   6.211   0.717   2.468
 3447SOL     OW11239   5.124   5.371   1.234
 3447SOL    HW111240   5.138   5.377   1.333
 3447SOL    HW211241   5.212   5.365   1.188
 3448SOL     OW11242   3.387   0.241   0.557
 3448SOL    HW111243   3.365   0.274   0.649
 3448SOL    HW211244   3.307   0.250   0.498
 3449SOL     OW11245   6.620   6.719   3.600
 3449SOL    HW111246   6.600   6.727   3.698
 3449SOL    HW211247   6.602   6.806   3.555
 3450SOL     OW11248   0.625   2.536   6.488
 3450SOL    HW111249   0.640   2.631   6.461
 3450SOL    HW211250   0.546   2.531   6.549
 3451SOL     OW11251   1.272   5.735   2.858
 3451SOL    HW111252   1.188   5.762   2.905
 3451SOL    HW211253   1.348   5.791   2.891
 3452SOL     OW11254   6.134   1.689   6.460
 3452SOL    HW111255   6.121   1.769   6.519
 3452SOL    HW211256   6.082   1.612   6.497
 3453SOL     OW11257   6.770   5.823   6.455
 3453SOL    HW111258   6.779   5.803   6.357
 3453SOL    HW211259   6.729   5.745   6.501
 3454SOL     OW11260   1.262   1.281   6.694
 3454SOL    HW111261   1.294   1.337   6.770
 3454SOL    HW211262   1.258   1.338   6.611
 3455SOL     OW11263   2.299   2.556   4.243
 3455SOL    HW111264   2.387   2.534   4.285
 3455SOL    HW211265   2.258   2.633   4.292
 3456SOL     OW11266   5.279   5.671   2.185
 3456SOL    HW111267   5.319   5.590   2.229
 3456SOL    HW211268   5.351   5.737   2.166
 3457SOL     OW11269   2.589   5.645   4.042
 3457SOL    HW111270   2.662   5.614   4.102
 3457SOL    HW211271   2.506   5.591   4.060
 3458SOL     OW11272   4.534   6.994   0.461
 3458SOL    HW111273   4.446   6.978   0.417
 3458SOL    HW211274   4.605   7.007   0.392
 3459SOL     OW11275   6.425   3.877   2.884
 3459SOL    HW111276   6.340   3.855   2.933
 3459SOL    HW211277   6.474   3.793   2.863
 3460SOL     OW11278   2.353   2.933   0.184
 3460SOL    HW111279   2.328   2.941   0.087
 3460SOL    HW211280   2.407   3.012   0.211
 3461SOL     OW11281   4.388   6.098   4.699
 3461SOL    HW111282   4.402   6.134   4.606
 3461SOL    HW211283   4.442   6.014   4.710
 3462SOL     OW11284   0.462   3.672   2.011
 3462SOL    HW111285   0.535   3.740   1.999
 3462SOL    HW211286   0.477   3.622   2.096
 3463SOL     OW11287   1.186   3.379   3.440
 3463SOL    HW111288   1.189   3.359   3.538
 3463SOL    HW211289   1.275   3.360   3.399
 3464SOL     OW11290   6.728   3.051   6.698
 3464SOL    HW111291   6.744   2.954   6.676
 3464SOL    HW211292   6.640   3.079   6.659
 3465SOL     OW11293   0.878   2.867   2.083
 3465SOL    HW111294   0.793   2.918   2.068
 3465SOL    HW211295   0.956   2.925   2.061
 3466SOL     OW11296   6.429   4.967   6.830
 3466SOL    HW111297   6.337   4.953   6.867
 3466SOL    HW211298   6.491   4.998   6.902
 3467SOL     OW11299   2.221   1.809   1.012
 3467SOL    HW111300   2.230   1.836   1.108
 3467SOL    HW211301   2.311   1.794   0.972
 3468SOL     OW11302   5.646   0.774   2.775
 3468SOL    HW111303   5.685   0.682   2.768
 3468SOL    HW211304   5.550   0.771   2.748
 3469SOL     OW11305   4.668   0.708   4.228
 3469SOL    HW111306   4.622   0.641   4.171
 3469SOL    HW211307   4.600   0.760   4.281
 3470SOL     OW11308   0.262   2.451   1.758
 3470SOL    HW111309   0.228   2.386   1.690
 3470SOL    HW211310   0.305   2.529   1.711
 3471SOL     OW11311   4.441   4.561   4.548
 3471SOL    HW111312   4.397   4.647   4.573
 3471SOL    HW211313   4.435   4.496   4.624
 3472SOL     OW11314   2.928   1.492   2.896
 3472SOL    HW111315   3.000   1.443   2.946
 3472SOL    HW211316   2.934   1.468   2.799
 3473SOL     OW11317   0.132   2.524   2.055
 3473SOL    HW111318   0.162   2.530   1.960
 3473SOL    HW211319   0.114   2.428   2.078
 3474SOL     OW11320   0.249   4.495   2.982
 3474SOL    HW111321   0.297   4.528   3.064
 3474SOL    HW211322   0.196   4.414   3.005
 3475SOL     OW11323   1.219   4.238   3.815
 3475SOL    HW111324   1.173   4.182   3.746
 3475SOL    HW211325   1.183   4.216   3.905
 3476SOL     OW11326   2.292   1.994   2.593
 3476SOL    HW111327   2.243   2.074   2.627
 3476SOL    HW211328   2.240   1.953   2.518
 3477SOL     OW11329   2.027   5.012   0.659
 3477SOL    HW111330   1.994   4.923   0.690
 3477SOL    HW211331   1.988   5.084   0.718
 3478SOL     OW11332   2.376   5.371   5.768
 3478SOL    HW111333   2.379   5.459   5.816
 3478SOL    HW211334   2.300   5.316   5.804
 3479SOL     OW11335   0.844   0.582   2.815
 3479SOL    HW111336   0.812   0.675   2.796
 3479SOL    HW211337   0.825   0.523   2.736
 3480SOL     OW11338   6.607   5.858   4.696
 3480SOL    HW111339   6.618   5.818   4.787
 3480SOL    HW211340   6.512   5.848   4.666
 3481SOL     OW11341   5.241   0.397   0.289
 3481SOL    HW111342   5.256   0.468   0.358
 3481SOL    HW211343   5.206   0.440   0.205
 3482SOL     OW11344   6.064   1.284   2.105
 3482SOL    HW111345   6.091   1.222   2.031
 3482SOL    HW211346   6.094   1.376   2.084
 3483SOL     OW11347   4.808   2.194   1.796
 3483SOL    HW111348   4.850   2.138   1.868
 3483SOL    HW211349   4.872   2.264   1.767
 3484SOL     OW11350   0.720   2.653   0.620
 3484SOL    HW111351   0.725   2.671   0.522
 3484SOL    HW211352   0.800   2.692   0.665
 3485SOL     OW11353   1.710   1.999   4.431
 3485SOL    HW111354   1.630   1.941   4.412
 3485SOL    HW211355   1.722   2.007   4.530
 3486SOL     OW11356   2.547   0.296   3.623
 3486SOL    HW111357   2.603   0.257   3.696
 3486SOL    HW211358   2.484   0.363   3.662
 3487SOL     OW11359   6.621   1.977   0.555
 3487SOL    HW111360   6.667   1.973   0.466
 3487SOL    HW211361   6.559   1.900   0.565
 3488SOL     OW11362   6.599   0.542   5.071
 3488SOL    HW111363   6.573   0.636   5.048
 3488SOL    HW211364   6.516   0.488   5.088
 3489SOL     OW11365   3.867   0.378   2.011
 3489SOL    HW111366   3.835   0.382   2.106
 3489SOL    HW211367   3.789   0.392   1.950
 3490SOL     OW11368   3.902   4.135   1.046
 3490SOL    HW111369   3.840   4.205   1.081
 3490SOL    HW211370   3.990   4.140   1.095
 3491SOL     OW11371   4.619   2.680   5.814
 3491SOL    HW111372   4.651   2.593   5.777
 3491SOL    HW211373   4.638   2.683   5.912
 3492SOL     OW11374   6.616   4.455   0.781
 3492SOL    HW111375   6.690   4.452   0.848
 3492SOL    HW211376   6.592   4.362   0.753
 3493SOL     OW11377   4.760   4.241   4.690
 3493SOL    HW111378   4.669   4.267   4.721
 3493SOL    HW211379   4.829   4.281   4.750
 3494SOL     OW11380   3.160   1.200   2.045
 3494SOL    HW111381   3.151   1.124   2.108
 3494SOL    HW211382   3.233   1.181   1.979
 3495SOL     OW11383   5.939   4.810   1.571
 3495SOL    HW111384   6.025   4.853   1.542
 3495SOL    HW211385   5.904   4.752   1.498
 3496SOL     OW11386   6.251   5.059   1.077
 3496SOL    HW111387   6.238   5.122   1.154
 3496SOL    HW211388   6.277   5.110   0.996
 3497SOL     OW11389   2.311   1.124   4.146
 3497SOL    HW111390   2.303   1.209   4.198
 3497SOL    HW211391   2.396   1.077   4.172
 3498SOL     OW11392   3.071   1.774   1.036
 3498SOL    HW111393   2.995   1.738   1.089
 3498SOL    HW211394   3.054   1.761   0.939
 3499SOL     OW11395   5.589   4.039   4.293
 3499SOL    HW111396   5.669   4.097   4.309
 3499SOL    HW211397   5.566   4.039   4.196
 3500SOL     OW11398   2.142   3.280   4.542
 3500SOL    HW111399   2.188   3.217   4.605
 3500SOL    HW211400   2.140   3.372   4.582
 3501SOL     OW11401   2.374   5.759   5.738
 3501SOL    HW111402   2.472   5.762   5.715
 3501SOL    HW211403   2.322   5.728   5.659
 3502SOL     OW11404   6.569   2.587   1.914
 3502SOL    HW111405   6.553   2.541   2.001
 3502SOL    HW211406   6.504   2.553   1.846
 3503SOL     OW11407   6.028   6.315   4.787
 3503SOL    HW111408   5.934   6.281   4.779
 3503SOL    HW211409   6.027   6.415   4.786
 3504SOL     OW11410   2.547   1.110   1.960
 3504SOL    HW111411   2.539   1.012   1.945
 3504SOL    HW211412   2.613   1.127   2.033
 3505SOL     OW11413   5.613   4.342   5.594
 3505SOL    HW111414   5.617   4.286   5.511
 3505SOL    HW211415   5.554   4.422   5.577
 3506SOL     OW11416   4.817   4.898   5.631
 3506SOL    HW111417   4.855   4.812   5.665
 3506SOL    HW211418   4.842   4.972   5.693
 3507SOL     OW11419   2.433   0.778   1.064
 3507SOL    HW111420   2.455   0.871   1.095
 3507SOL    HW211421   2.446   0.714   1.139
 3508SOL     OW11422   2.185   1.796   6.116
 3508SOL    HW111423   2.138   1.713   6.144
 3508SOL    HW211424   2.283   1.787   6.133
 3509SOL     OW11425   4.973   0.660   6.862
 3509SOL    HW111426   5.003   0.575   6.818
 3509SOL    HW211427   5.002   0.659   6.958
 3510SOL     OW11428   1.168   1.493   2.323
 3510SOL    HW111429   1.088   1.449   2.282
 3510SOL    HW211430   1.185   1.453   2.413
 3511SOL     OW11431   2.306   4.918   1.052
 3511SOL    HW111432   2.379   4.906   0.985
 3511SOL    HW211433   2.285   4.830   1.094
 3512SOL     OW11434   0.356   4.566   0.582
 3512SOL    HW111435   0.447   4.552   0.543
 3512SOL    HW211436   0.319   4.654   0.551
 3513SOL     OW11437   5.418   2.282   6.706
 3513SOL    HW111438   5.388   2.375   6.728
 3513SOL    HW211439   5.346   2.235   6.655
 3514SOL     OW11440   6.802   2.024   2.047
 3514SOL    HW111441   6.848   1.940   2.017
 3514SOL    HW211442   6.816   2.037   2.145
 3515SOL     OW11443   4.466   5.906   3.501
 3515SOL    HW111444   4.552   5.880   3.457
 3515SOL    HW211445   4.422   5.978   3.448
 3516SOL     OW11446   5.067   6.762   0.879
 3516SOL    HW111447   5.042   6.818   0.800
 3516SOL    HW211448   5.109   6.821   0.949
 3517SOL     OW11449   1.358   2.287   1.393
 3517SOL    HW111450   1.397   2.323   1.309
 3517SOL    HW211451   1.431   2.270   1.459
 3518SOL     OW11452   5.389   2.994   4.261
 3518SOL    HW111453   5.307   2.997   4.204
 3518SOL    HW211454   5.403   2.901   4.295
 3519SOL     OW11455   1.572   0.723   6.266
 3519SOL    HW111456   1.599   0.761   6.178
 3519SOL    HW211457   1.642   0.659   6.297
 3520SOL     OW11458   3.121   5.211   6.760
 3520SOL    HW111459   3.206   5.238   6.714
 3520SOL    HW211460   3.102   5.115   6.740
 3521SOL     OW11461   5.206   2.247   0.219
 3521SOL    HW111462   5.257   2.217   0.299
 3521SOL    HW211463   5.247   2.209   0.136
 3522SOL     OW11464   6.783   4.658   1.335
 3522SOL    HW111465   6.877   4.641   1.306
 3522SOL    HW211466   6.772   4.755   1.358
 3523SOL     OW11467   1.331   4.529   6.386
 3523SOL    HW111468   1.395   4.545   6.311
 3523SOL    HW211469   1.281   4.613   6.406
 3524SOL     OW11470   4.721   1.603   2.099
 3524SOL    HW111471   4.707   1.506   2.076
 3524SOL    HW211472   4.740   1.654   2.015
 3525SOL     OW11473   0.551   4.586   2.811
 3525SOL    HW111474   0.458   4.564   2.841
 3525SOL    HW211475   0.613   4.585   2.889
 3526SOL     OW11476   2.369   6.717   3.982
 3526SOL    HW111477   2.279   6.727   3.939
 3526SOL    HW211478   2.431   6.670   3.920
 3527SOL     OW11479   5.610   3.393   6.455
 3527SOL    HW111480   5.553   3.393   6.373
 3527SOL    HW211481   5.567   3.338   6.526
 3528SOL     OW11482   1.089   6.149   5.351
 3528SOL    HW111483   1.131   6.213   5.287
 3528SOL    HW211484   1.160   6.107   5.408
 3529SOL     OW11485   3.686   0.336   6.671
 3529SOL    HW111486   3.777   0.379   6.670
 3529SOL    HW211487   3.669   0.297   6.761
 3530SOL     OW11488   6.946   5.048   2.199
 3530SOL    HW111489   6.936   5.122   2.265
 3530SOL    HW211490   6.923   4.961   2.244
 3531SOL     OW11491   5.005   3.394   0.373
 3531SOL    HW111492   4.980   3.414   0.278
 3531SOL    HW211493   4.950   3.318   0.406
 3532SOL     OW11494   2.807   0.546   1.733
 3532SOL    HW111495   2.862   0.467   1.705
 3532SOL    HW211496   2.732   0.514   1.792
 3533SOL     OW11497   1.742   1.773   2.691
 3533SOL    HW111498   1.821   1.742   2.638
 3533SOL    HW211499   1.722   1.869   2.670
 3534SOL     OW11500   6.537   1.693   0.640
 3534SOL    HW111501   6.615   1.667   0.582
 3534SOL    HW211502   6.462   1.725   0.583
 3535SOL     OW11503   1.707   6.180   0.993
 3535SOL    HW111504   1.742   6.265   0.955
 3535SOL    HW211505   1.655   6.199   1.076
 3536SOL     OW11506   2.695   2.029   3.280
 3536SOL    HW111507   2.662   2.067   3.366
 3536SOL    HW211508   2.619   1.988   3.230
 3537SOL     OW11509   3.376   6.122   1.980
 3537SOL    HW111510   3.463   6.093   2.019
 3537SOL    HW211511   3.382   6.123   1.880
 3538SOL     OW11512   1.630   0.086   6.321
 3538SOL    HW111513   1.585   0.032   6.393
 3538SOL    HW211514   1.613   0.043   6.232
 3539SOL     OW11515   4.997   3.305   5.813
 3539SOL    HW111516   4.913   3.354   5.790
 3539SOL    HW211517   5.055   3.300   5.732
 3540SOL     OW11518   2.350   2.064   5.609
 3540SOL    HW111519   2.372   2.091   5.515
 3540SOL    HW211520   2.434   2.062   5.663
 3541SOL     OW11521   1.738   2.264   6.376
 3541SOL    HW111522   1.787   2.210   6.443
 3541SOL    HW211523   1.712   2.352   6.416
 3542SOL     OW11524   1.835   5.325   2.943
 3542SOL    HW111525   1.766   5.263   2.981
 3542SOL    HW211526   1.921   5.314   2.992
 3543SOL     OW11527   0.989   2.341   4.331
 3543SOL    HW111528   1.006   2.408   4.260
 3543SOL    HW211529   0.959   2.255   4.289
 3544SOL     OW11530   2.860   4.194   6.484
 3544SOL    HW111531   2.913   4.117   6.520
 3544SOL    HW211532   2.886   4.211   6.389
 3545SOL     OW11533   4.465   5.416   0.386
 3545SOL    HW111534   4.382   5.363   0.407
 3545SOL    HW211535   4.545   5.363   0.412
 3546SOL     OW11536   1.359   4.388   4.251
 3546SOL    HW111537   1.359   4.361   4.347
 3546SOL    HW211538   1.375   4.308   4.194
 3547SOL     OW11539   6.640   5.016   4.369
 3547SOL    HW111540   6.681   4.983   4.283
 3547SOL    HW211541   6.625   5.114   4.363
 3548SOL     OW11542   5.481   1.692   5.811
 3548SOL    HW111543   5.522   1.684   5.902
 3548SOL    HW211544   5.551   1.678   5.741
 3549SOL     OW11545   6.803   5.414   5.872
 3549SOL    HW111546   6.854   5.349   5.816
 3549SOL    HW211547   6.807   5.387   5.968
 3550SOL     OW11548   6.517   2.469   2.785
 3550SOL    HW111549   6.485   2.549   2.736
 3550SOL    HW211550   6.557   2.496   2.872
 3551SOL     OW11551   3.637   0.934   1.825
 3551SOL    HW111552   3.735   0.919   1.813
 3551SOL    HW211553   3.590   0.846   1.834
 3552SOL     OW11554   5.502   6.258   2.664
 3552SOL    HW111555   5.439   6.193   2.705
 3552SOL    HW211556   5.555   6.213   2.593
 3553SOL     OW11557   4.686   4.525   1.049
 3553SOL    HW111558   4.697   4.622   1.027
 3553SOL    HW211559   4.748   4.501   1.124
 3554SOL     OW11560   4.897   2.459   0.948
 3554SOL    HW111561   4.861   2.370   0.978
 3554SOL    HW211562   4.829   2.506   0.892
 3555SOL     OW11563   1.073   4.454   4.175
 3555SOL    HW111564   1.157   4.401   4.187
 3555SOL    HW211565   1.066   4.482   4.079
 3556SOL     OW11566   4.285   1.571   3.790
 3556SOL    HW111567   4.245   1.623   3.715
 3556SOL    HW211568   4.245   1.480   3.793
 3557SOL     OW11569   0.961   0.741   4.080
 3557SOL    HW111570   1.045   0.759   4.029
 3557SOL    HW211571   0.887   0.796   4.040
 3558SOL     OW11572   1.854   6.366   1.992
 3558SOL    HW111573   1.760   6.365   2.024
 3558SOL    HW211574   1.873   6.452   1.945
 3559SOL     OW11575   0.392   6.531   5.434
 3559SOL    HW111576   0.336   6.450   5.417
 3559SOL    HW211577   0.372   6.601   5.366
 3560SOL     OW11578   0.466   5.523   1.632
 3560SOL    HW111579   0.558   5.492   1.607
 3560SOL    HW211580   0.398   5.474   1.578
 3561SOL     OW11581   4.023   4.656   5.240
 3561SOL    HW111582   3.981   4.568   5.263
 3561SOL    HW211583   4.104   4.641   5.185
 3562SOL     OW11584   5.067   0.581   3.275
 3562SOL    HW111585   5.154   0.616   3.242
 3562SOL    HW211586   4.995   0.648   3.258
 3563SOL     OW11587   5.867   2.113   6.903
 3563SOL    HW111588   5.802   2.050   6.945
 3563SOL    HW211589   5.818   2.180   6.847
 3564SOL     OW11590   1.741   4.631   3.774
 3564SOL    HW111591   1.722   4.722   3.738
 3564SOL    HW211592   1.725   4.562   3.702
 3565SOL     OW11593   2.970   5.755   5.331
 3565SOL    HW111594   2.936   5.812   5.256
 3565SOL    HW211595   3.057   5.791   5.364
 3566SOL     OW11596   6.622   3.353   5.519
 3566SOL    HW111597   6.663   3.265   5.494
 3566SOL    HW211598   6.524   3.340   5.535
 3567SOL     OW11599   0.418   3.497   0.299
 3567SOL    HW111600   0.349   3.568   0.315
 3567SOL    HW211601   0.456   3.467   0.386
 3568SOL     OW11602   4.987   5.703   4.150
 3568SOL    HW111603   4.982   5.744   4.242
 3568SOL    HW211604   5.080   5.709   4.115
 3569SOL     OW11605   2.617   2.145   5.984
 3569SOL    HW111606   2.683   2.212   5.948
 3569SOL    HW211607   2.572   2.182   6.065
 3570SOL     OW11608   5.298   0.632   5.082
 3570SOL    HW111609   5.260   0.540   5.073
 3570SOL    HW211610   5.228   0.699   5.058
 3571SOL     OW11611   1.116   0.045   5.148
 3571SOL    HW111612   1.215   0.033   5.146
 3571SOL    HW211613   1.072   6.973   5.165
 3572SOL     OW11614   5.544   3.270   3.033
 3572SOL    HW111615   5.625   3.320   3.060
 3572SOL    HW211616   5.562   3.172   3.037
 3573SOL     OW11617   6.761   4.194   3.478
 3573SOL    HW111618   6.810   4.268   3.433
 3573SOL    HW211619   6.775   4.109   3.427
 3574SOL     OW11620   0.498   2.824   1.071
 3574SOL    HW111621   0.433   2.837   1.146
 3574SOL    HW211622   0.590   2.810   1.107
 3575SOL     OW11623   5.012   6.104   2.919
 3575SOL    HW111624   5.096   6.063   2.884
 3575SOL    HW211625   5.033   6.194   2.958
 3576SOL     OW11626   0.747   2.192   6.814
 3576SOL    HW111627   0.828   2.247   6.834
 3576SOL    HW211628   0.709   2.221   6.727
 3577SOL     OW11629   1.889   2.482   6.580
 3577SOL    HW111630   1.881   2.494   6.481
 3577SOL    HW211631   1.925   2.566   6.621
 3578SOL     OW11632   4.694   1.298   0.841
 3578SOL    HW111633   4.754   1.311   0.919
 3578SOL    HW211634   4.616   1.241   0.867
 3579SOL     OW11635   6.644   2.237   2.945
 3579SOL    HW111636   6.620   2.152   2.993
 3579SOL    HW211637   6.602   2.315   2.993
 3580SOL     OW11638   5.955   3.174   0.854
 3580SOL    HW111639   5.995   3.100   0.907
 3580SOL    HW211640   5.979   3.262   0.895
 3581SOL     OW11641   0.652   5.051   3.232
 3581SOL    HW111642   0.730   4.989   3.232
 3581SOL    HW211643   0.681   5.141   3.265
 3582SOL     OW11644   1.151   3.617   6.086
 3582SOL    HW111645   1.170   3.521   6.066
 3582SOL    HW211646   1.061   3.625   6.129
 3583SOL     OW11647   1.486   4.673   6.716
 3583SOL    HW111648   1.577   4.673   6.675
 3583SOL    HW211649   1.493   4.690   6.814
 3584SOL     OW11650   5.887   4.556   5.959
 3584SOL    HW111651   5.986   4.562   5.944
 3584SOL    HW211652   5.840   4.552   5.871
 3585SOL     OW11653   2.942   2.240   4.636
 3585SOL    HW111654   2.853   2.199   4.656
 3585SOL    HW211655   2.929   2.330   4.595
 3586SOL     OW11656   6.057   1.727   4.626
 3586SOL    HW111657   6.073   1.638   4.668
 3586SOL    HW211658   6.138   1.784   4.637
 3587SOL     OW11659   2.144   5.193   5.812
 3587SOL    HW111660   2.053   5.222   5.782
 3587SOL    HW211661   2.167   5.106   5.768
 3588SOL     OW11662   0.387   3.129   5.068
 3588SOL    HW111663   0.362   3.054   5.129
 3588SOL    HW211664   0.481   3.158   5.087
 3589SOL     OW11665   5.861   0.737   5.726
 3589SOL    HW111666   5.862   0.837   5.719
 3589SOL    HW211667   5.799   0.700   5.657
 3590SOL     OW11668   0.056   3.449   0.476
 3590SOL    HW111669   6.985   3.479   0.514
 3590SOL    HW211670   0.102   3.526   0.433
 3591SOL     OW11671   5.690   3.541   0.202
 3591SOL    HW111672   5.764   3.483   0.237
 3591SOL    HW211673   5.728   3.606   0.135
 3592SOL     OW11674   0.495   6.289   2.582
 3592SOL    HW111675   0.418   6.252   2.529
 3592SOL    HW211676   0.569   6.314   2.520
 3593SOL     OW11677   1.016   4.687   5.815
 3593SOL    HW111678   1.071   4.712   5.895
 3593SOL    HW211679   1.075   4.648   5.745
 3594SOL     OW11680   4.558   0.019   3.361
 3594SOL    HW111681   4.485   0.058   3.304
 3594SOL    HW211682   4.646   0.053   3.330
 3595SOL     OW11683   5.118   5.769   6.623
 3595SOL    HW111684   5.155   5.794   6.534
 3595SOL    HW211685   5.065   5.685   6.616
 3596SOL     OW11686   4.968   3.322   3.215
 3596SOL    HW111687   4.956   3.300   3.118
 3596SOL    HW211688   4.910   3.261   3.270
 3597SOL     OW11689   1.986   2.376   5.755
 3597SOL    HW111690   1.977   2.452   5.692
 3597SOL    HW211691   2.070   2.326   5.736
 3598SOL     OW11692   1.678   6.507   5.878
 3598SOL    HW111693   1.609   6.454   5.929
 3598SOL    HW211694   1.686   6.471   5.785
 3599SOL     OW11695   4.825   1.921   0.099
 3599SOL    HW111696   4.754   1.897   0.165
 3599SOL    HW211697   4.804   2.009   0.057
 3600SOL     OW11698   1.032   2.706   2.580
 3600SOL    HW111699   1.122   2.706   2.537
 3600SOL    HW211700   0.966   2.749   2.518
 3601SOL     OW11701   5.317   2.647   5.914
 3601SOL    HW111702   5.223   2.622   5.890
 3601SOL    HW211703   5.318   2.738   5.954
 3602SOL     OW11704   1.560   4.129   0.592
 3602SOL    HW111705   1.502   4.057   0.553
 3602SOL    HW211706   1.655   4.099   0.594
 3603SOL     OW11707   3.709   0.868   4.030
 3603SOL    HW111708   3.697   0.864   4.129
 3603SOL    HW211709   3.637   0.923   3.989
 3604SOL     OW11710   6.875   6.816   3.469
 3604SOL    HW111711   6.775   6.819   3.470
 3604SOL    HW211712   6.905   6.723   3.446
 3605SOL     OW11713   0.788   4.535   3.985
 3605SOL    HW111714   0.877   4.581   3.995
 3605SOL    HW211715   0.801   4.447   3.939
 3606SOL     OW11716   0.594   6.684   4.456
 3606SOL    HW111717   0.656   6.607   4.470
 3606SOL    HW211718   0.543   6.701   4.540
 3607SOL     OW11719   5.424   4.789   2.179
 3607SOL    HW111720   5.383   4.880   2.182
 3607SOL    HW211721   5.421   4.755   2.086
 3608SOL     OW11722   4.670   1.796   4.734
 3608SOL    HW111723   4.695   1.700   4.746
 3608SOL    HW211724   4.752   1.853   4.738
 3609SOL     OW11725   1.894   0.076   4.575
 3609SOL    HW111726   1.853   0.144   4.515
 3609SOL    HW211727   1.828   0.052   4.647
 3610SOL     OW11728   1.553   0.327   6.186
 3610SOL    HW111729   1.603   0.412   6.176
 3610SOL    HW211730   1.612   0.258   6.229
 3611SOL     OW11731   4.615   5.306   4.204
 3611SOL    HW111732   4.699   5.361   4.208
 3611SOL    HW211733   4.639   5.211   4.184
 3612SOL     OW11734   0.631   0.595   6.803
 3612SOL    HW111735   0.711   0.610   6.861
 3612SOL    HW211736   0.602   0.681   6.763
 3613SOL     OW11737   4.785   4.491   2.359
 3613SOL    HW111738   4.788   4.585   2.324
 3613SOL    HW211739   4.777   4.493   2.459
 3614SOL     OW11740   3.495   3.700   0.578
 3614SOL    HW111741   3.552   3.667   0.653
 3614SOL    HW211742   3.445   3.781   0.607
 3615SOL     OW11743   5.292   2.906   6.025
 3615SOL    HW111744   5.331   2.980   5.969
 3615SOL    HW211745   5.223   2.944   6.087
 3616SOL     OW11746   0.791   0.708   6.289
 3616SOL    HW111747   0.799   0.685   6.386
 3616SOL    HW211748   0.862   0.774   6.265
 3617SOL     OW11749   4.267   1.026   6.364
 3617SOL    HW111750   4.219   0.947   6.324
 3617SOL    HW211751   4.225   1.050   6.451
 3618SOL     OW11752   2.297   3.191   5.344
 3618SOL    HW111753   2.360   3.130   5.296
 3618SOL    HW211754   2.337   3.282   5.350
 3619SOL     OW11755   6.096   2.810   5.948
 3619SOL    HW111756   6.176   2.863   5.975
 3619SOL    HW211757   6.031   2.869   5.901
 3620SOL     OW11758   6.005   5.605   5.542
 3620SOL    HW111759   6.089   5.645   5.580
 3620SOL    HW211760   5.937   5.595   5.615
 3621SOL     OW11761   2.883   3.634   4.702
 3621SOL    HW111762   2.901   3.699   4.628
 3621SOL    HW211763   2.873   3.542   4.665
 3622SOL     OW11764   1.742   1.040   0.299
 3622SOL    HW111765   1.671   1.037   0.229
 3622SOL    HW211766   1.813   1.105   0.271
 3623SOL     OW11767   6.780   6.077   4.250
 3623SOL    HW111768   6.874   6.066   4.284
 3623SOL    HW211769   6.718   6.025   4.307
 3624SOL     OW11770   1.578   0.223   2.573
 3624SOL    HW111771   1.553   0.232   2.476
 3624SOL    HW211772   1.527   0.291   2.626
 3625SOL     OW11773   0.592   3.425   6.149
 3625SOL    HW111774   0.531   3.347   6.135
 3625SOL    HW211775   0.684   3.391   6.169
 3626SOL     OW11776   0.594   3.053   5.626
 3626SOL    HW111777   0.583   3.025   5.531
 3626SOL    HW211778   0.628   2.976   5.681
 3627SOL     OW11779   4.261   3.129   1.515
 3627SOL    HW111780   4.321   3.164   1.587
 3627SOL    HW211781   4.315   3.082   1.446
 3628SOL     OW11782   0.853   1.608   1.884
 3628SOL    HW111783   0.915   1.686   1.893
 3628SOL    HW211784   0.803   1.614   1.798
 3629SOL     OW11785   0.418   0.329   5.471
 3629SOL    HW111786   0.494   0.264   5.480
 3629SOL    HW211787   0.428   0.401   5.540
 3630SOL     OW11788   5.884   2.709   3.479
 3630SOL    HW111789   5.784   2.705   3.480
 3630SOL    HW211790   5.921   2.633   3.532
 3631SOL     OW11791   1.841   0.196   2.606
 3631SOL    HW111792   1.864   0.291   2.584
 3631SOL    HW211793   1.743   0.188   2.622
 3632SOL     OW11794   5.484   4.930   1.037
 3632SOL    HW111795   5.424   5.000   1.074
 3632SOL    HW211796   5.551   4.972   0.976
 3633SOL     OW11797   4.288   2.586   6.069
 3633SOL    HW111798   4.336   2.506   6.032
 3633SOL    HW211799   4.222   2.620   6.002
 3634SOL     OW11800   2.151   5.601   6.219
 3634SOL    HW111801   2.227   5.652   6.260
 3634SOL    HW211802   2.100   5.554   6.291
 3635SOL     OW11803   2.802   0.775   1.051
 3635SOL    HW111804   2.894   0.800   1.022
 3635SOL    HW211805   2.794   0.676   1.059
 3636SOL     OW11806   6.302   5.461   0.996
 3636SOL    HW111807   6.305   5.365   0.968
 3636SOL    HW211808   6.394   5.491   1.023
 3637SOL     OW11809   0.212   2.271   1.557
 3637SOL    HW111810   0.164   2.290   1.472
 3637SOL    HW211811   0.256   2.181   1.552
 3638SOL     OW11812   0.022   4.204   2.576
 3638SOL    HW111813   6.942   4.225   2.569
 3638SOL    HW211814   0.068   4.226   2.490
 3639SOL     OW11815   4.800   4.860   0.161
 3639SOL    HW111816   4.846   4.948   0.157
 3639SOL    HW211817   4.837   4.806   0.236
 3640SOL     OW11818   4.967   1.753   0.469
 3640SOL    HW111819   4.974   1.840   0.516
 3640SOL    HW211820   5.056   1.707   0.470
 3641SOL     OW11821   6.381   3.707   1.738
 3641SOL    HW111822   6.435   3.685   1.657
 3641SOL    HW211823   6.289   3.669   1.728
 3642SOL     OW11824   4.691   2.473   0.119
 3642SOL    HW111825   4.647   2.503   0.204
 3642SOL    HW211826   4.627   2.417   0.066
 3643SOL     OW11827   3.726   6.160   5.032
 3643SOL    HW111828   3.742   6.243   5.085
 3643SOL    HW211829   3.632   6.159   4.999
 3644SOL     OW11830   2.293   1.455   1.731
 3644SOL    HW111831   2.295   1.539   1.677
 3644SOL    HW211832   2.384   1.439   1.770
 3645SOL     OW11833   1.722   2.759   4.434
 3645SOL    HW111834   1.797   2.731   4.494
 3645SOL    HW211835   1.679   2.842   4.470
 3646SOL     OW11836   1.318   4.092   5.694
 3646SOL    HW111837   1.323   4.159   5.769
 3646SOL    HW211838   1.224   4.058   5.686
 3647SOL     OW11839   2.454   5.762   6.927
 3647SOL    HW111840   2.548   5.787   6.905
 3647SOL    HW211841   2.449   5.734   0.006
 3648SOL     OW11842   4.882   5.948   3.637
 3648SOL    HW111843   4.945   5.939   3.714
 3648SOL    HW211844   4.839   6.039   3.639
 3649SOL     OW11845   6.019   3.378   0.091
 3649SOL    HW111846   6.070   3.464   0.084
 3649SOL    HW211847   6.016   3.334   0.001
 3650SOL     OW11848   5.907   5.088   1.701
 3650SOL    HW111849   5.914   4.992   1.673
 3650SOL    HW211850   5.820   5.126   1.669
 3651SOL     OW11851   1.839   0.588   4.825
 3651SOL    HW111852   1.820   0.671   4.878
 3651SOL    HW211853   1.849   0.613   4.728
 3652SOL     OW11854   6.238   6.627   3.376
 3652SOL    HW111855   6.281   6.717   3.377
 3652SOL    HW211856   6.139   6.637   3.360
 3653SOL     OW11857   1.539   1.135   2.983
 3653SOL    HW111858   1.597   1.216   2.993
 3653SOL    HW211859   1.595   1.057   2.958
 3654SOL     OW11860   4.570   5.608   0.591
 3654SOL    HW111861   4.511   5.582   0.515
 3654SOL    HW211862   4.614   5.527   0.629
 3655SOL     OW11863   3.304   0.875   3.856
 3655SOL    HW111864   3.264   0.831   3.936
 3655SOL    HW211865   3.238   0.940   3.817
 3656SOL     OW11866   0.491   5.149   1.464
 3656SOL    HW111867   0.459   5.116   1.552
 3656SOL    HW211868   0.564   5.216   1.477
 3657SOL     OW11869   4.753   5.439   4.846
 3657SOL    HW111870   4.848   5.448   4.875
 3657SOL    HW211871   4.694   5.442   4.927
 3658SOL     OW11872   2.368   4.852   6.596
 3658SOL    HW111873   2.456   4.823   6.634
 3658SOL    HW211874   2.316   4.899   6.668
 3659SOL     OW11875   1.582   2.452   5.760
 3659SOL    HW111876   1.626   2.377   5.809
 3659SOL    HW211877   1.647   2.491   5.694
 3660SOL     OW11878   6.088   5.776   4.384
 3660SOL    HW111879   6.012   5.826   4.427
 3660SOL    HW211880   6.132   5.718   4.453
 3661SOL     OW11881   0.027   0.436   5.213
 3661SOL    HW111882   6.952   0.477   5.217
 3661SOL    HW211883   0.058   0.432   5.118
 3662SOL     OW11884   4.197   0.945   4.732
 3662SOL    HW111885   4.101   0.916   4.729
 3662SOL    HW211886   4.243   0.900   4.808
 3663SOL     OW11887   1.703   2.743   6.554
 3663SOL    HW111888   1.729   2.772   6.461
 3663SOL    HW211889   1.786   2.723   6.607
 3664SOL     OW11890   4.652   2.446   1.677
 3664SOL    HW111891   4.619   2.366   1.626
 3664SOL    HW211892   4.750   2.435   1.695
 3665SOL     OW11893   0.447   5.999   5.221
 3665SOL    HW111894   0.484   6.013   5.313
 3665SOL    HW211895   0.518   6.017   5.153
 3666SOL     OW11896   0.851   3.720   3.159
 3666SOL    HW111897   0.819   3.649   3.222
 3666SOL    HW211898   0.841   3.689   3.065
 3667SOL     OW11899   0.116   0.977   3.336
 3667SOL    HW111900   0.032   0.928   3.357
 3667SOL    HW211901   0.183   0.914   3.297
 3668SOL     OW11902   1.063   0.452   1.315
 3668SOL    HW111903   1.050   0.457   1.216
 3668SOL    HW211904   1.032   0.537   1.357
 3669SOL     OW11905   5.499   1.493   3.778
 3669SOL    HW111906   5.585   1.470   3.734
 3669SOL    HW211907   5.451   1.409   3.805
 3670SOL     OW11908   2.773   5.453   0.200
 3670SOL    HW111909   2.733   5.532   0.246
 3670SOL    HW211910   2.840   5.485   0.133
 3671SOL     OW11911   6.866   2.183   3.924
 3671SOL    HW111912   6.813   2.197   3.840
 3671SOL    HW211913   6.920   2.265   3.943
 3672SOL     OW11914   4.520   2.339   2.894
 3672SOL    HW111915   4.486   2.350   2.988
 3672SOL    HW211916   4.619   2.325   2.897
 3673SOL     OW11917   3.854   5.498   6.838
 3673SOL    HW111918   3.850   5.597   6.853
 3673SOL    HW211919   3.940   5.475   6.792
 3674SOL     OW11920   1.475   6.176   5.315
 3674SOL    HW111921   1.485   6.171   5.414
 3674SOL    HW211922   1.382   6.205   5.293
 3675SOL     OW11923   1.426   2.389   4.102
 3675SOL    HW111924   1.412   2.485   4.128
 3675SOL    HW211925   1.511   2.356   4.144
 3676SOL     OW11926   5.701   3.360   2.469
 3676SOL    HW111927   5.726   3.435   2.408
 3676SOL    HW211928   5.608   3.329   2.446
 3677SOL     OW11929   2.879   0.308   4.525
 3677SOL    HW111930   2.906   0.212   4.534
 3677SOL    HW211931   2.920   0.361   4.599
 3678SOL     OW11932   1.894   0.685   4.212
 3678SOL    HW111933   1.981   0.694   4.261
 3678SOL    HW211934   1.876   0.769   4.161
 3679SOL     OW11935   6.930   0.315   2.785
 3679SOL    HW111936   6.975   0.231   2.818
 3679SOL    HW211937   7.000   0.382   2.760
 3680SOL     OW11938   4.726   2.647   4.665
 3680SOL    HW111939   4.658   2.647   4.592
 3680SOL    HW211940   4.725   2.558   4.711
 3681SOL     OW11941   1.058   1.368   6.905
 3681SOL    HW111942   1.039   1.361   6.807
 3681SOL    HW211943   1.132   1.434   6.919
 3682SOL     OW11944   5.660   2.544   7.015
 3682SOL    HW111945   5.595   2.555   0.073
 3682SOL    HW211946   5.751   2.570   0.029
 3683SOL     OW11947   0.059   0.399   3.765
 3683SOL    HW111948   7.007   0.472   3.759
 3683SOL    HW211949   0.061   0.363   3.858
 3684SOL     OW11950   1.132   5.399   0.133
 3684SOL    HW111951   1.104   5.495   0.136
 3684SOL    HW211952   1.226   5.392   0.099
 3685SOL     OW11953   2.379   6.020   5.873
 3685SOL    HW111954   2.416   5.954   5.808
 3685SOL    HW211955   2.378   5.981   5.965
 3686SOL     OW11956   6.473   5.184   4.184
 3686SOL    HW111957   6.415   5.147   4.112
 3686SOL    HW211958   6.569   5.180   4.155
 3687SOL     OW11959   5.114   6.684   3.918
 3687SOL    HW111960   5.120   6.724   3.827
 3687SOL    HW211961   5.018   6.674   3.944
 3688SOL     OW11962   6.445   3.288   0.204
 3688SOL    HW111963   6.463   3.325   0.112
 3688SOL    HW211964   6.416   3.362   0.265
 3689SOL     OW11965   1.831   1.598   5.557
 3689SOL    HW111966   1.903   1.580   5.490
 3689SOL    HW211967   1.872   1.605   5.648
 3690SOL     OW11968   4.525   6.045   0.993
 3690SOL    HW111969   4.568   6.135   1.001
 3690SOL    HW211970   4.526   6.016   0.897
 3691SOL     OW11971   2.457   1.499   6.662
 3691SOL    HW111972   2.509   1.585   6.661
 3691SOL    HW211973   2.451   1.465   6.756
 3692SOL     OW11974   6.782   5.016   5.773
 3692SOL    HW111975   6.809   4.956   5.849
 3692SOL    HW211976   6.848   5.091   5.765
 3693SOL     OW11977   1.904   2.105   2.686
 3693SOL    HW111978   1.951   2.053   2.757
 3693SOL    HW211979   1.806   2.086   2.691
 3694SOL     OW11980   1.292   6.818   2.519
 3694SOL    HW111981   1.331   6.727   2.503
 3694SOL    HW211982   1.361   6.876   2.563
 3695SOL     OW11983   5.623   1.379   1.648
 3695SOL    HW111984   5.677   1.327   1.714
 3695SOL    HW211985   5.607   1.323   1.567
 3696SOL     OW11986   4.358   6.778   5.003
 3696SOL    HW111987   4.380   6.685   4.973
 3696SOL    HW211988   4.430   6.811   5.065
 3697SOL     OW11989   6.566   6.186   2.907
 3697SOL    HW111990   6.485   6.155   2.858
 3697SOL    HW211991   6.541   6.213   3.000
 3698SOL     OW11992   2.365   0.767   3.693
 3698SOL    HW111993   2.279   0.816   3.710
 3698SOL    HW211994   2.421   0.820   3.631
 3699SOL     OW11995   1.626   1.431   3.575
 3699SOL    HW111996   1.676   1.455   3.492
 3699SOL    HW211997   1.529   1.451   3.562
 3700SOL     OW11998   1.470   5.148   4.960
 3700SOL    HW111999   1.442   5.076   5.023
 3700SOL    HW212000   1.398   5.217   4.953
 3701SOL     OW12001   1.058   6.316   3.068
 3701SOL    HW112002   1.000   6.332   3.148
 3701SOL    HW212003   1.039   6.385   2.998
 3702SOL     OW12004   5.344   6.364   3.252
 3702SOL    HW112005   5.359   6.425   3.329
 3702SOL    HW212006   5.367   6.270   3.279
 3703SOL     OW12007   0.726   0.205   6.631
 3703SOL    HW112008   0.701   0.293   6.592
 3703SOL    HW212009   0.823   0.188   6.614
 3704SOL     OW12010   5.085   2.668   1.121
 3704SOL    HW112011   5.010   2.621   1.075
 3704SOL    HW212012   5.130   2.606   1.185
 3705SOL     OW12013   4.986   4.497   4.162
 3705SOL    HW112014   5.024   4.407   4.180
 3705SOL    HW212015   5.006   4.524   4.068
 3706SOL     OW12016   0.382   4.304   6.512
 3706SOL    HW112017   0.296   4.353   6.495
 3706SOL    HW212018   0.404   4.248   6.432
 3707SOL     OW12019   4.569   6.236   4.122
 3707SOL    HW112020   4.485   6.251   4.070
 3707SOL    HW212021   4.605   6.145   4.102
 3708SOL     OW12022   4.153   6.624   1.351
 3708SOL    HW112023   4.135   6.686   1.275
 3708SOL    HW212024   4.252   6.606   1.357
 3709SOL     OW12025   2.925   0.282   1.762
 3709SOL    HW112026   2.843   0.232   1.787
 3709SOL    HW212027   2.983   0.225   1.704
 3710SOL     OW12028   0.278   5.235   4.661
 3710SOL    HW112029   0.249   5.324   4.626
 3710SOL    HW212030   0.226   5.214   4.744
 3711SOL     OW12031   1.063   5.542   4.988
 3711SOL    HW112032   1.036   5.461   4.936
 3711SOL    HW212033   0.988   5.570   5.048
 3712SOL     OW12034   1.453   5.996   6.968
 3712SOL    HW112035   1.359   5.964   6.969
 3712SOL    HW212036   1.515   5.918   6.957
 3713SOL     OW12037   0.382   0.342   5.112
 3713SOL    HW112038   0.391   0.429   5.161
 3713SOL    HW212039   0.327   0.278   5.167
 3714SOL     OW12040   5.993   5.166   6.590
 3714SOL    HW112041   5.907   5.205   6.622
 3714SOL    HW212042   5.975   5.105   6.512
 3715SOL     OW12043   1.339   4.836   2.113
 3715SOL    HW112044   1.317   4.871   2.022
 3715SOL    HW212045   1.415   4.772   2.106
 3716SOL     OW12046   5.861   5.953   4.956
 3716SOL    HW112047   5.949   6.000   4.970
 3716SOL    HW212048   5.854   5.925   4.860
 3717SOL     OW12049   5.463   1.260   0.407
 3717SOL    HW112050   5.464   1.317   0.325
 3717SOL    HW212051   5.419   1.310   0.482
 3718SOL     OW12052   6.787   6.711   6.967
 3718SOL    HW112053   6.852   6.765   0.005
 3718SOL    HW212054   6.787   6.744   6.873
 3719SOL     OW12055   3.931   2.939   6.669
 3719SOL    HW112056   3.932   2.880   6.749
 3719SOL    HW212057   3.930   3.035   6.697
 3720SOL     OW12058   5.659   3.872   0.739
 3720SOL    HW112059   5.592   3.811   0.695
 3720SOL    HW212060   5.616   3.918   0.817
 3721SOL     OW12061   0.250   4.990   0.599
 3721SOL    HW112062   0.163   5.021   0.560
 3721SOL    HW212063   0.276   5.050   0.675
 3722SOL     OW12064   5.521   6.107   1.489
 3722SOL    HW112065   5.442   6.131   1.431
 3722SOL    HW212066   5.548   6.187   1.543
 3723SOL     OW12067   4.636   5.410   0.749
 3723SOL    HW112068   4.562   5.342   0.754
 3723SOL    HW212069   4.724   5.363   0.755
 3724SOL     OW12070   1.522   4.275   6.073
 3724SOL    HW112071   1.616   4.242   6.068
 3724SOL    HW212072   1.463   4.202   6.108
 3725SOL     OW12073   0.604   5.816   6.757
 3725SOL    HW112074   0.660   5.896   6.782
 3725SOL    HW212075   0.665   5.741   6.729
 3726SOL     OW12076   5.195   3.948   6.354
 3726SOL    HW112077   5.146   4.018   6.407
 3726SOL    HW212078   5.240   3.991   6.276
 3727SOL     OW12079   6.739   2.838   5.308
 3727SOL    HW112080   6.668   2.797   5.253
 3727SOL    HW212081   6.734   2.802   5.402
 3728SOL     OW12082   2.046   3.180   6.341
 3728SOL    HW112083   2.016   3.119   6.415
 3728SOL    HW212084   2.101   3.129   6.276
 3729SOL     OW12085   1.263   1.522   4.130
 3729SOL    HW112086   1.194   1.587   4.162
 3729SOL    HW212087   1.230   1.429   4.146
 3730SOL     OW12088   3.866   6.142   5.501
 3730SOL    HW112089   3.923   6.116   5.578
 3730SOL    HW212090   3.893   6.091   5.420
 3731SOL     OW12091   0.131   1.471   0.218
 3731SOL    HW112092   0.171   1.511   0.135
 3731SOL    HW212093   0.075   1.392   0.193
 3732SOL     OW12094   2.612   2.272   0.657
 3732SOL    HW112095   2.611   2.360   0.611
 3732SOL    HW212096   2.576   2.282   0.749
 3733SOL     OW12097   1.939   2.217   3.466
 3733SOL    HW112098   1.977   2.304   3.434
 3733SOL    HW212099   1.955   2.208   3.564
 3734SOL     OW12100   4.302   0.929   1.569
 3734SOL    HW112101   4.211   0.912   1.532
 3734SOL    HW212102   4.323   1.027   1.561
 3735SOL     OW12103   3.507   0.644   2.475
 3735SOL    HW112104   3.569   0.690   2.411
 3735SOL    HW212105   3.555   0.566   2.517
 3736SOL     OW12106   6.773   1.190   1.320
 3736SOL    HW112107   6.725   1.228   1.399
 3736SOL    HW212108   6.716   1.199   1.239
 3737SOL     OW12109   5.937   1.500   3.209
 3737SOL    HW112110   5.885   1.557   3.272
 3737SOL    HW212111   5.954   1.411   3.251
 3738SOL     OW12112   6.342   0.041   1.305
 3738SOL    HW112113   6.415   0.109   1.317
 3738SOL    HW212114   6.335   7.003   1.388
 3739SOL     OW12115   2.290   4.501   1.408
 3739SOL    HW112116   2.309   4.435   1.480
 3739SOL    HW212117   2.359   4.573   1.409
 3740SOL     OW12118   6.157   5.590   0.432
 3740SOL    HW112119   6.096   5.596   0.511
 3740SOL    HW212120   6.247   5.626   0.455
 3741SOL     OW12121   4.871   3.044   6.895
 3741SOL    HW112122   4.855   2.995   6.809
 3741SOL    HW212123   4.784   3.074   6.933
 3742SOL     OW12124   4.064   0.149   0.427
 3742SOL    HW112125   4.075   0.231   0.371
 3742SOL    HW212126   4.106   0.165   0.517
 3743SOL     OW12127   5.276   3.870   1.331
 3743SOL    HW112128   5.183   3.865   1.367
 3743SOL    HW212129   5.322   3.952   1.367
 3744SOL     OW12130   1.452   6.109   2.087
 3744SOL    HW112131   1.520   6.049   2.129
 3744SOL    HW212132   1.382   6.053   2.041
 3745SOL     OW12133   5.661   3.953   2.819
 3745SOL    HW112134   5.641   4.032   2.876
 3745SOL    HW212135   5.651   3.978   2.723
 3746SOL     OW12136   6.288   0.313   4.042
 3746SOL    HW112137   6.301   0.227   4.091
 3746SOL    HW212138   6.329   0.307   3.951
 3747SOL     OW12139   4.402   6.278   5.329
 3747SOL    HW112140   4.316   6.299   5.283
 3747SOL    HW212141   4.471   6.347   5.306
 3748SOL     OW12142   4.906   0.552   1.838
 3748SOL    HW112143   4.936   0.500   1.758
 3748SOL    HW212144   4.949   0.642   1.838
 3749SOL     OW12145   2.278   4.782   3.295
 3749SOL    HW112146   2.205   4.829   3.344
 3749SOL    HW212147   2.313   4.707   3.351
 3750SOL     OW12148   5.906   4.211   0.847
 3750SOL    HW112149   5.906   4.252   0.756
 3750SOL    HW212150   5.871   4.278   0.913
 3751SOL     OW12151   6.647   2.871   0.639
 3751SOL    HW112152   6.740   2.876   0.674
 3751SOL    HW212153   6.587   2.836   0.712
 3752SOL     OW12154   0.941   0.076   0.764
 3752SOL    HW112155   0.867   0.048   0.825
 3752SOL    HW212156   0.998   7.013   0.743
 3753SOL     OW12157   6.698   1.065   3.997
 3753SOL    HW112158   6.787   1.018   3.997
 3753SOL    HW212159   6.710   1.158   3.963
 3754SOL     OW12160   4.266   6.504   1.624
 3754SOL    HW112161   4.260   6.588   1.570
 3754SOL    HW212162   4.245   6.524   1.720
 3755SOL     OW12163   5.552   5.695   4.197
 3755SOL    HW112164   5.643   5.658   4.214
 3755SOL    HW212165   5.530   5.687   4.099
 3756SOL     OW12166   2.069   6.688   6.315
 3756SOL    HW112167   2.030   6.778   6.295
 3756SOL    HW212168   2.056   6.666   6.412
 3757SOL     OW12169   3.850   5.810   6.859
 3757SOL    HW112170   3.823   5.846   6.949
 3757SOL    HW212171   3.931   5.859   6.827
 3758SOL     OW12172   1.852   1.048   4.317
 3758SOL    HW112173   1.897   1.108   4.251
 3758SOL    HW212174   1.910   1.037   4.397
 3759SOL     OW12175   4.608   4.951   6.333
 3759SOL    HW112176   4.602   5.024   6.265
 3759SOL    HW212177   4.523   4.897   6.331
 3760SOL     OW12178   1.560   2.591   4.296
 3760SOL    HW112179   1.566   2.621   4.201
 3760SOL    HW212180   1.621   2.646   4.353
 3761SOL     OW12181   0.204   0.235   5.309
 3761SOL    HW112182   0.127   0.298   5.301
 3761SOL    HW212183   0.279   0.279   5.358
 3762SOL     OW12184   0.609   5.246   0.105
 3762SOL    HW112185   0.661   5.273   0.024
 3762SOL    HW212186   0.541   5.178   0.079
 3763SOL     OW12187   6.738   4.779   0.233
 3763SOL    HW112188   6.754   4.733   0.320
 3763SOL    HW212189   6.712   4.712   0.164
 3764SOL     OW12190   1.556   0.290   3.591
 3764SOL    HW112191   1.599   0.281   3.502
 3764SOL    HW212192   1.614   0.347   3.650
 3765SOL     OW12193   5.170   1.471   1.024
 3765SOL    HW112194   5.168   1.428   1.114
 3765SOL    HW212195   5.254   1.524   1.014
 3766SOL     OW12196   1.339   1.012   4.028
 3766SOL    HW112197   1.439   1.006   4.031
 3766SOL    HW212198   1.303   1.010   4.122
 3767SOL     OW12199   2.488   5.354   0.155
 3767SOL    HW112200   2.487   5.451   0.178
 3767SOL    HW212201   2.509   5.300   0.236
 3768SOL     OW12202   2.532   5.911   5.543
 3768SOL    HW112203   2.504   5.825   5.500
 3768SOL    HW212204   2.632   5.914   5.550
 3769SOL     OW12205   5.622   5.616   4.941
 3769SOL    HW112206   5.598   5.690   4.878
 3769SOL    HW212207   5.564   5.537   4.922
 3770SOL     OW12208   1.775   6.901   6.911
 3770SOL    HW112209   1.769   7.001   6.903
 3770SOL    HW212210   1.684   6.864   6.930
 3771SOL     OW12211   6.233   2.471   0.017
 3771SOL    HW112212   6.223   2.529   6.953
 3771SOL    HW212213   6.270   2.525   0.093
 3772SOL     OW12214   6.719   1.534   0.194
 3772SOL    HW112215   6.667   1.455   0.162
 3772SOL    HW212216   6.803   1.543   0.141
 3773SOL     OW12217   6.467   3.326   6.156
 3773SOL    HW112218   6.371   3.346   6.141
 3773SOL    HW212219   6.523   3.403   6.124
 3774SOL     OW12220   0.363   6.091   6.956
 3774SOL    HW112221   0.370   6.053   0.031
 3774SOL    HW212222   0.277   6.061   6.914
 3775SOL     OW12223   5.025   4.548   2.224
 3775SOL    HW112224   5.088   4.564   2.301
 3775SOL    HW212225   4.943   4.504   2.258
 3776SOL     OW12226   4.031   0.955   0.418
 3776SOL    HW112227   4.018   0.929   0.514
 3776SOL    HW212228   4.121   0.924   0.387
 3777SOL     OW12229   2.882   4.960   4.591
 3777SOL    HW112230   2.944   4.929   4.662
 3777SOL    HW212231   2.813   4.889   4.573
 3778SOL     OW12232   2.747   5.070   2.914
 3778SOL    HW112233   2.726   5.164   2.890
 3778SOL    HW212234   2.690   5.008   2.860
 3779SOL     OW12235   1.701   4.643   0.866
 3779SOL    HW112236   1.629   4.608   0.805
 3779SOL    HW212237   1.785   4.590   0.852
 3780SOL     OW12238   4.350   4.984   6.060
 3780SOL    HW112239   4.317   5.073   6.029
 3780SOL    HW212240   4.288   4.949   6.131
 3781SOL     OW12241   1.459   6.830   4.846
 3781SOL    HW112242   1.431   6.734   4.856
 3781SOL    HW212243   1.559   6.835   4.840
 3782SOL     OW12244   2.750   1.452   4.431
 3782SOL    HW112245   2.718   1.364   4.395
 3782SOL    HW212246   2.739   1.522   4.361
 3783SOL     OW12247   5.466   6.206   5.173
 3783SOL    HW112248   5.392   6.247   5.226
 3783SOL    HW212249   5.430   6.131   5.118
 3784SOL     OW12250   4.704   2.132   3.591
 3784SOL    HW112251   4.717   2.223   3.549
 3784SOL    HW212252   4.688   2.065   3.519
 3785SOL     OW12253   1.342   1.043   6.788
 3785SOL    HW112254   1.292   1.093   6.859
 3785SOL    HW212255   1.338   1.094   6.702
 3786SOL     OW12256   2.628   6.452   2.799
 3786SOL    HW112257   2.692   6.420   2.869
 3786SOL    HW212258   2.609   6.549   2.813
 3787SOL     OW12259   5.901   6.542   3.084
 3787SOL    HW112260   5.959   6.487   3.024
 3787SOL    HW212261   5.837   6.482   3.133
 3788SOL     OW12262   0.465   3.304   3.930
 3788SOL    HW112263   0.511   3.218   3.953
 3788SOL    HW212264   0.454   3.359   4.013
 3789SOL     OW12265   0.532   3.135   4.251
 3789SOL    HW112266   0.550   3.094   4.161
 3789SOL    HW212267   0.601   3.206   4.269
 3790SOL     OW12268   2.038   3.870   5.529
 3790SOL    HW112269   2.046   3.790   5.470
 3790SOL    HW212270   2.061   3.845   5.623
 3791SOL     OW12271   6.171   0.288   0.307
 3791SOL    HW112272   6.184   0.218   0.237
 3791SOL    HW212273   6.126   0.248   0.387
 3792SOL     OW12274   6.839   0.997   3.717
 3792SOL    HW112275   6.879   0.957   3.800
 3792SOL    HW212276   6.902   1.064   3.678
 3793SOL     OW12277   3.739   0.210   2.609
 3793SOL    HW112278   3.696   0.141   2.667
 3793SOL    HW212279   3.716   0.301   2.644
 3794SOL     OW12280   2.269   4.091   1.073
 3794SOL    HW112281   2.333   4.056   1.004
 3794SOL    HW212282   2.320   4.128   1.150
 3795SOL     OW12283   3.656   6.763   6.642
 3795SOL    HW112284   3.682   6.697   6.572
 3795SOL    HW212285   3.570   6.734   6.685
 3796SOL     OW12286   2.580   1.665   1.126
 3796SOL    HW112287   2.586   1.604   1.205
 3796SOL    HW212288   2.639   1.630   1.053
 3797SOL     OW12289   6.483   4.374   3.106
 3797SOL    HW112290   6.439   4.295   3.063
 3797SOL    HW212291   6.470   4.455   3.049
 3798SOL     OW12292   3.720   5.949   3.170
 3798SOL    HW112293   3.800   5.895   3.142
 3798SOL    HW212294   3.637   5.906   3.134
 3799SOL     OW12295   0.089   2.518   3.908
 3799SOL    HW112296   7.007   2.527   3.926
 3799SOL    HW212297   0.114   2.576   3.831
 3800SOL     OW12298   5.179   3.159   4.494
 3800SOL    HW112299   5.192   3.256   4.474
 3800SOL    HW212300   5.256   3.125   4.548
 3801SOL     OW12301   6.528   6.251   3.176
 3801SOL    HW112302   6.602   6.307   3.213
 3801SOL    HW212303   6.441   6.298   3.190
 3802SOL     OW12304   0.589   2.724   3.654
 3802SOL    HW112305   0.609   2.790   3.582
 3802SOL    HW212306   0.500   2.743   3.694
 3803SOL     OW12307   3.752   2.197   0.939
 3803SOL    HW112308   3.724   2.161   0.850
 3803SOL    HW212309   3.683   2.172   1.007
 3804SOL     OW12310   4.950   2.036   3.779
 3804SOL    HW112311   4.961   2.086   3.692
 3804SOL    HW212312   4.887   1.960   3.765
 3805SOL     OW12313   2.763   3.450   1.512
 3805SOL    HW112314   2.757   3.522   1.443
 3805SOL    HW212315   2.858   3.440   1.542
 3806SOL     OW12316   3.157   4.093   6.908
 3806SOL    HW112317   3.160   4.048   6.997
 3806SOL    HW212318   3.248   4.090   6.866
 3807SOL     OW12319   2.618   6.973   3.871
 3807SOL    HW112320   2.534   6.967   3.925
 3807SOL    HW212321   2.620   6.897   3.805
 3808SOL     OW12322   4.038   0.555   1.120
 3808SOL    HW112323   3.969   0.518   1.059
 3808SOL    HW212324   4.079   0.636   1.079
 3809SOL     OW12325   6.103   2.720   0.426
 3809SOL    HW112326   6.081   2.818   0.421
 3809SOL    HW212327   6.036   2.675   0.486
 3810SOL     OW12328   4.391   2.212   5.280
 3810SOL    HW112329   4.461   2.188   5.212
 3810SOL    HW212330   4.317   2.145   5.278
 3811SOL     OW12331   1.085   4.173   4.049
 3811SOL    HW112332   1.041   4.262   4.065
 3811SOL    HW212333   1.017   4.107   4.017
 3812SOL     OW12334   5.465   1.009   4.975
 3812SOL    HW112335   5.372   0.974   4.984
 3812SOL    HW212336   5.486   1.023   4.878
 3813SOL     OW12337   4.107   4.286   0.368
 3813SOL    HW112338   4.065   4.220   0.306
 3813SOL    HW212339   4.048   4.301   0.447
 3814SOL     OW12340   0.300   6.939   1.148
 3814SOL    HW112341   0.213   6.924   1.194
 3814SOL    HW212342   0.315   6.868   1.080
 3815SOL     OW12343   4.822   2.899   0.551
 3815SOL    HW112344   4.864   2.978   0.596
 3815SOL    HW212345   4.748   2.864   0.608
 3816SOL     OW12346   0.266   5.807   0.399
 3816SOL    HW112347   0.258   5.707   0.391
 3816SOL    HW212348   0.362   5.832   0.409
 3817SOL     OW12349   5.399   3.774   3.275
 3817SOL    HW112350   5.331   3.743   3.208
 3817SOL    HW212351   5.372   3.743   3.366
 3818SOL     OW12352   5.082   0.258   0.462
 3818SOL    HW112353   5.145   0.289   0.391
 3818SOL    HW212354   5.003   0.318   0.466
 3819SOL     OW12355   5.369   5.461   1.151
 3819SOL    HW112356   5.414   5.449   1.239
 3819SOL    HW212357   5.430   5.509   1.088
 3820SOL     OW12358   6.897   6.963   3.711
 3820SOL    HW112359   6.871   6.887   3.652
 3820SOL    HW212360   6.970   7.016   3.668
 3821SOL     OW12361   2.264   2.676   1.100
 3821SOL    HW112362   2.296   2.582   1.097
 3821SOL    HW212363   2.170   2.678   1.134
 3822SOL     OW12364   1.702   6.128   2.668
 3822SOL    HW112365   1.770   6.176   2.613
 3822SOL    HW212366   1.678   6.042   2.623
 3823SOL     OW12367   4.164   2.240   5.882
 3823SOL    HW112368   4.238   2.175   5.901
 3823SOL    HW212369   4.084   2.190   5.851
 3824SOL     OW12370   5.606   1.700   6.106
 3824SOL    HW112371   5.601   1.799   6.094
 3824SOL    HW212372   5.700   1.674   6.130
 3825SOL     OW12373   0.418   6.692   1.011
 3825SOL    HW112374   0.492   6.642   0.965
 3825SOL    HW212375   0.336   6.690   0.953
 3826SOL     OW12376   0.796   3.642   0.244
 3826SOL    HW112377   0.826   3.616   0.152
 3826SOL    HW212378   0.719   3.705   0.236
 3827SOL     OW12379   2.989   3.188   0.842
 3827SOL    HW112380   3.062   3.206   0.776
 3827SOL    HW212381   2.976   3.089   0.850
 3828SOL     OW12382   4.506   2.549   1.290
 3828SOL    HW112383   4.511   2.554   1.390
 3828SOL    HW212384   4.556   2.468   1.259
 3829SOL     OW12385   1.931   4.910   3.944
 3829SOL    HW112386   1.848   4.908   3.999
 3829SOL    HW212387   1.964   4.816   3.931
 3830SOL     OW12388   1.234   0.055   4.802
 3830SOL    HW112389   1.199   6.992   4.850
 3830SOL    HW212390   1.180   0.136   4.827
 3831SOL     OW12391   4.557   2.093   2.166
 3831SOL    HW112392   4.617   2.172   2.157
 3831SOL    HW212393   4.606   2.018   2.212
 3832SOL     OW12394   5.931   0.868   2.204
 3832SOL    HW112395   5.892   0.783   2.237
 3832SOL    HW212396   6.029   0.855   2.186
 3833SOL     OW12397   1.446   6.180   6.204
 3833SOL    HW112398   1.353   6.155   6.229
 3833SOL    HW212399   1.498   6.098   6.180
 3834SOL     OW12400   3.584   2.638   0.741
 3834SOL    HW112401   3.629   2.549   0.747
 3834SOL    HW212402   3.523   2.650   0.819
 3835SOL     OW12403   3.075   5.512   5.215
 3835SOL    HW112404   3.006   5.575   5.249
 3835SOL    HW212405   3.165   5.539   5.249
 3836SOL     OW12406   1.876   3.872   5.229
 3836SOL    HW112407   1.962   3.895   5.184
 3836SOL    HW212408   1.801   3.877   5.163
 3837SOL     OW12409   5.061   3.631   0.023
 3837SOL    HW112410   5.014   3.716   0.049
 3837SOL    HW212411   5.014   3.553   0.064
 3838SOL     OW12412   6.099   3.994   4.187
 3838SOL    HW112413   6.155   3.942   4.123
 3838SOL    HW212414   6.050   3.932   4.248
 3839SOL     OW12415   4.307   0.568   4.658
 3839SOL    HW112416   4.361   0.645   4.623
 3839SOL    HW212417   4.351   0.532   4.740
 3840SOL     OW12418   1.524   1.307   5.247
 3840SOL    HW112419   1.607   1.251   5.255
 3840SOL    HW212420   1.477   1.309   5.336
 3841SOL     OW12421   6.658   3.355   4.395
 3841SOL    HW112422   6.559   3.359   4.387
 3841SOL    HW212423   6.687   3.398   4.480
 3842SOL     OW12424   1.232   4.604   6.837
 3842SOL    HW112425   1.160   4.620   6.769
 3842SOL    HW212426   1.322   4.617   6.794
 3843SOL     OW12427   0.079   4.453   2.047
 3843SOL    HW112428   0.096   4.420   1.954
 3843SOL    HW212429   7.009   4.415   2.080
 3844SOL     OW12430   0.038   4.069   5.690
 3844SOL    HW112431   7.000   4.153   5.691
 3844SOL    HW212432   0.126   4.088   5.646
 3845SOL     OW12433   3.910   3.013   3.125
 3845SOL    HW112434   3.941   3.079   3.193
 3845SOL    HW212435   3.984   2.949   3.104
 3846SOL     OW12436   0.433   4.885   4.157
 3846SOL    HW112437   0.506   4.821   4.136
 3846SOL    HW212438   0.422   4.892   4.256
 3847SOL     OW12439   6.228   1.245   5.169
 3847SOL    HW112440   6.135   1.258   5.134
 3847SOL    HW212441   6.270   1.167   5.123
 3848SOL     OW12442   3.141   5.891   3.116
 3848SOL    HW112443   3.233   5.885   3.077
 3848SOL    HW212444   3.145   5.880   3.215
 3849SOL     OW12445   0.344   1.581   5.582
 3849SOL    HW112446   0.427   1.633   5.599
 3849SOL    HW212447   0.364   1.483   5.588
 3850SOL     OW12448   2.551   3.320   1.365
 3850SOL    HW112449   2.616   3.357   1.432
 3850SOL    HW212450   2.476   3.385   1.352
 3851SOL     OW12451   1.280   4.345   3.059
 3851SOL    HW112452   1.308   4.325   3.153
 3851SOL    HW212453   1.230   4.267   3.022
 3852SOL     OW12454   4.558   6.692   4.781
 3852SOL    HW112455   4.592   6.598   4.787
 3852SOL    HW212456   4.608   6.750   4.844
 3853SOL     OW12457   1.571   3.300   2.557
 3853SOL    HW112458   1.652   3.250   2.587
 3853SOL    HW212459   1.574   3.311   2.458
 3854SOL     OW12460   0.644   4.140   2.707
 3854SOL    HW112461   0.633   4.066   2.773
 3854SOL    HW212462   0.710   4.112   2.637
 3855SOL     OW12463   5.228   5.604   6.816
 3855SOL    HW112464   5.191   5.658   6.740
 3855SOL    HW212465   5.256   5.514   6.782
 3856SOL     OW12466   6.748   6.268   5.016
 3856SOL    HW112467   6.657   6.226   5.010
 3856SOL    HW212468   6.803   6.238   4.938
 3857SOL     OW12469   0.888   6.366   5.326
 3857SOL    HW112470   0.798   6.338   5.294
 3857SOL    HW212471   0.951   6.288   5.320
 3858SOL     OW12472   1.570   6.055   5.849
 3858SOL    HW112473   1.569   5.982   5.779
 3858SOL    HW212474   1.654   6.108   5.840
 3859SOL     OW12475   6.763   1.366   3.184
 3859SOL    HW112476   6.860   1.355   3.204
 3859SOL    HW212477   6.712   1.291   3.226
 3860SOL     OW12478   1.570   6.571   4.576
 3860SOL    HW112479   1.512   6.630   4.520
 3860SOL    HW212480   1.646   6.536   4.521
 3861SOL     OW12481   5.187   4.345   1.922
 3861SOL    HW112482   5.190   4.337   2.022
 3861SOL    HW212483   5.256   4.285   1.882
 3862SOL     OW12484   6.668   6.937   5.490
 3862SOL    HW112485   6.646   6.842   5.512
 3862SOL    HW212486   6.589   6.995   5.510
 3863SOL     OW12487   3.969   4.321   6.537
 3863SOL    HW112488   3.909   4.392   6.574
 3863SOL    HW212489   4.011   4.354   6.452
 3864SOL     OW12490   4.304   1.841   5.533
 3864SOL    HW112491   4.244   1.854   5.612
 3864SOL    HW212492   4.292   1.748   5.497
 3865SOL     OW12493   3.966   0.501   1.525
 3865SOL    HW112494   4.022   0.465   1.451
 3865SOL    HW212495   4.005   0.473   1.613
 3866SOL     OW12496   3.949   0.660   0.152
 3866SOL    HW112497   4.008   0.729   0.110
 3866SOL    HW212498   3.895   0.615   0.081
 3867SOL     OW12499   1.999   3.459   4.313
 3867SOL    HW112500   2.063   3.532   4.287
 3867SOL    HW212501   2.046   3.371   4.310
 3868SOL     OW12502   2.141   6.346   1.990
 3868SOL    HW112503   2.176   6.352   2.083
 3868SOL    HW212504   2.043   6.327   1.992
 3869SOL     OW12505   0.048   2.874   4.027
 3869SOL    HW112506   0.028   2.943   4.096
 3869SOL    HW212507   0.115   2.810   4.062
 3870SOL     OW12508   4.246   5.025   0.545
 3870SOL    HW112509   4.275   4.996   0.454
 3870SOL    HW212510   4.152   5.060   0.541
 3871SOL     OW12511   3.159   0.939   2.672
 3871SOL    HW112512   3.117   0.890   2.748
 3871SOL    HW212513   3.250   0.903   2.655
 3872SOL     OW12514   3.520   2.919   1.398
 3872SOL    HW112515   3.579   2.991   1.433
 3872SOL    HW212516   3.568   2.831   1.402
 3873SOL     OW12517   5.722   5.565   1.530
 3873SOL    HW112518   5.801   5.528   1.482
 3873SOL    HW212519   5.741   5.659   1.558
 3874SOL     OW12520   4.401   6.649   0.477
 3874SOL    HW112521   4.466   6.686   0.411
 3874SOL    HW212522   4.335   6.591   0.430
 3875SOL     OW12523   1.113   3.474   2.499
 3875SOL    HW112524   1.162   3.537   2.439
 3875SOL    HW212525   1.179   3.418   2.549
 3876SOL     OW12526   5.081   4.961   6.786
 3876SOL    HW112527   5.116   4.923   6.871
 3876SOL    HW212528   4.997   5.011   6.804
 3877SOL     OW12529   6.713   1.477   0.860
 3877SOL    HW112530   6.810   1.494   0.843
 3877SOL    HW212531   6.692   1.499   0.955
 3878SOL     OW12532   2.470   5.905   6.109
 3878SOL    HW112533   2.466   5.885   6.207
 3878SOL    HW212534   2.565   5.904   6.078
 3879SOL     OW12535   5.111   5.884   1.159
 3879SOL    HW112536   5.053   5.902   1.080
 3879SOL    HW212537   5.181   5.817   1.135
 3880SOL     OW12538   6.311   4.168   3.026
 3880SOL    HW112539   6.261   4.245   2.985
 3880SOL    HW212540   6.263   4.083   3.006
 3881SOL     OW12541   1.419   5.519   0.764
 3881SOL    HW112542   1.402   5.473   0.677
 3881SOL    HW212543   1.351   5.591   0.777
 3882SOL     OW12544   6.479   0.845   5.606
 3882SOL    HW112545   6.557   0.813   5.552
 3882SOL    HW212546   6.509   0.914   5.672
 3883SOL     OW12547   5.230   1.803   3.860
 3883SOL    HW112548   5.230   1.899   3.888
 3883SOL    HW212549   5.307   1.786   3.799
 3884SOL     OW12550   1.226   6.259   4.276
 3884SOL    HW112551   1.282   6.233   4.355
 3884SOL    HW212552   1.231   6.358   4.263
 3885SOL     OW12553   6.481   1.019   4.412
 3885SOL    HW112554   6.466   0.945   4.478
 3885SOL    HW212555   6.577   1.021   4.385
 3886SOL     OW12556   5.895   0.036   5.775
 3886SOL    HW112557   5.886   0.053   5.677
 3886SOL    HW212558   5.898   6.954   5.791
 3887SOL     OW12559   4.713   1.728   5.207
 3887SOL    HW112560   4.765   1.765   5.284
 3887SOL    HW212561   4.616   1.748   5.219
 3888SOL     OW12562   0.186   0.841   6.432
 3888SOL    HW112563   0.175   0.842   6.531
 3888SOL    HW212564   0.202   0.934   6.399
 3889SOL     OW12565   0.686   5.346   6.580
 3889SOL    HW112566   0.600   5.332   6.532
 3889SOL    HW212567   0.719   5.259   6.617
 3890SOL     OW12568   6.280   6.572   2.926
 3890SOL    HW112569   6.220   6.651   2.915
 3890SOL    HW212570   6.307   6.538   2.836
 3891SOL     OW12571   5.544   4.915   4.638
 3891SOL    HW112572   5.624   4.975   4.627
 3891SOL    HW212573   5.535   4.857   4.558
 3892SOL     OW12574   1.237   0.366   2.587
 3892SOL    HW112575   1.237   0.284   2.529
 3892SOL    HW212576   1.331   0.401   2.593
 3893SOL     OW12577   3.418   5.929   3.305
 3893SOL    HW112578   3.492   5.893   3.363
 3893SOL    HW212579   3.330   5.898   3.341
 3894SOL     OW12580   3.709   2.512   0.203
 3894SOL    HW112581   3.654   2.531   0.122
 3894SOL    HW212582   3.796   2.470   0.175
 3895SOL     OW12583   1.249   1.243   5.203
 3895SOL    HW112584   1.334   1.232   5.152
 3895SOL    HW212585   1.243   1.337   5.238
 3896SOL     OW12586   0.699   2.048   6.072
 3896SOL    HW112587   0.679   2.089   5.983
 3896SOL    HW212588   0.640   1.968   6.086
 3897SOL     OW12589   2.946   6.599   2.381
 3897SOL    HW112590   2.924   6.597   2.479
 3897SOL    HW212591   2.862   6.611   2.329
 3898SOL     OW12592   3.218   3.031   3.919
 3898SOL    HW112593   3.312   3.018   3.886
 3898SOL    HW212594   3.177   2.942   3.938
 3899SOL     OW12595   5.316   1.359   4.802
 3899SOL    HW112596   5.271   1.307   4.729
 3899SOL    HW212597   5.355   1.443   4.764
 3900SOL     OW12598   6.186   2.930   3.422
 3900SOL    HW112599   6.086   2.930   3.427
 3900SOL    HW212600   6.217   2.998   3.356
 3901SOL     OW12601   1.528   6.637   5.528
 3901SOL    HW112602   1.555   6.643   5.624
 3901SOL    HW212603   1.576   6.561   5.484
 3902SOL     OW12604   5.238   4.729   3.026
 3902SOL    HW112605   5.323   4.684   3.054
 3902SOL    HW212606   5.206   4.689   2.941
 3903SOL     OW12607   4.611   3.063   0.263
 3903SOL    HW112608   4.531   3.051   0.321
 3903SOL    HW212609   4.671   2.983   0.272
 3904SOL     OW12610   0.712   6.783   0.365
 3904SOL    HW112611   0.669   6.715   0.305
 3904SOL    HW212612   0.656   6.795   0.447
 3905SOL     OW12613   6.537   6.320   6.374
 3905SOL    HW112614   6.528   6.221   6.365
 3905SOL    HW212615   6.515   6.346   6.468
 3906SOL     OW12616   1.480   4.824   3.951
 3906SOL    HW112617   1.477   4.906   4.007
 3906SOL    HW212618   1.435   4.841   3.864
 3907SOL     OW12619   0.255   0.900   4.682
 3907SOL    HW112620   0.161   0.912   4.714
 3907SOL    HW212621   0.267   0.806   4.649
 3908SOL     OW12622   1.382   0.745   5.652
 3908SOL    HW112623   1.334   0.832   5.649
 3908SOL    HW212624   1.325   0.677   5.699
 3909SOL     OW12625   5.124   3.539   6.003
 3909SOL    HW112626   5.075   3.464   5.958
 3909SOL    HW212627   5.166   3.506   6.087
 3910SOL     OW12628   3.614   3.845   1.817
 3910SOL    HW112629   3.595   3.839   1.719
 3910SOL    HW212630   3.610   3.753   1.857
 3911SOL     OW12631   5.422   0.478   0.807
 3911SOL    HW112632   5.345   0.445   0.862
 3911SOL    HW212633   5.501   0.495   0.866
 3912SOL     OW12634   3.187   1.934   5.869
 3912SOL    HW112635   3.250   2.008   5.847
 3912SOL    HW212636   3.238   1.854   5.900
 3913SOL     OW12637   3.989   6.552   0.702
 3913SOL    HW112638   3.891   6.539   0.712
 3913SOL    HW212639   4.034   6.462   0.701
 3914SOL     OW12640   5.634   1.573   1.057
 3914SOL    HW112641   5.667   1.584   1.151
 3914SOL    HW212642   5.639   1.477   1.031
 3915SOL     OW12643   3.577   6.283   0.171
 3915SOL    HW112644   3.500   6.275   0.234
 3915SOL    HW212645   3.578   6.204   0.110
 3916SOL     OW12646   3.155   0.559   2.944
 3916SOL    HW112647   3.126   0.496   2.871
 3916SOL    HW212648   3.249   0.538   2.970
 3917SOL     OW12649   2.621   5.170   0.963
 3917SOL    HW112650   2.586   5.224   0.886
 3917SOL    HW212651   2.571   5.194   1.046
 3918SOL     OW12652   5.142   1.055   0.272
 3918SOL    HW112653   5.107   1.036   0.363
 3918SOL    HW212654   5.241   1.038   0.270
 3919SOL     OW12655   4.904   1.349   1.040
 3919SOL    HW112656   4.906   1.270   1.101
 3919SOL    HW212657   4.995   1.364   1.002
 3920SOL     OW12658   3.104   1.363   6.666
 3920SOL    HW112659   3.194   1.408   6.671
 3920SOL    HW212660   3.041   1.409   6.729
 3921SOL     OW12661   0.155   2.529   6.480
 3921SOL    HW112662   0.250   2.497   6.480
 3921SOL    HW212663   0.107   2.492   6.400
 3922SOL     OW12664   4.771   4.758   2.250
 3922SOL    HW112665   4.696   4.742   2.186
 3922SOL    HW212666   4.744   4.827   2.317
 3923SOL     OW12667   6.237   1.120   1.768
 3923SOL    HW112668   6.207   1.202   1.719
 3923SOL    HW212669   6.159   1.059   1.781
 3924SOL     OW12670   0.233   4.630   3.992
 3924SOL    HW112671   0.313   4.577   3.966
 3924SOL    HW212672   0.255   4.728   3.988
 3925SOL     OW12673   4.744   3.571   0.701
 3925SOL    HW112674   4.815   3.617   0.646
 3925SOL    HW212675   4.664   3.631   0.708
 3926SOL     OW12676   1.709   0.757   6.011
 3926SOL    HW112677   1.797   0.796   5.984
 3926SOL    HW212678   1.651   0.747   5.929
 3927SOL     OW12679   0.474   2.400   4.400
 3927SOL    HW112680   0.423   2.380   4.483
 3927SOL    HW212681   0.461   2.325   4.334
 3928SOL     OW12682   2.297   6.893   3.537
 3928SOL    HW112683   2.313   6.989   3.516
 3928SOL    HW212684   2.201   6.879   3.560
 3929SOL     OW12685   6.783   1.893   5.481
 3929SOL    HW112686   6.806   1.925   5.389
 3929SOL    HW212687   6.846   1.933   5.548
 3930SOL     OW12688   1.594   2.355   3.775
 3930SOL    HW112689   1.609   2.277   3.835
 3930SOL    HW212690   1.547   2.427   3.826
 3931SOL     OW12691   1.424   2.018   1.947
 3931SOL    HW112692   1.497   2.082   1.971
 3931SOL    HW212693   1.375   1.991   2.031
 3932SOL     OW12694   1.986   5.588   4.115
 3932SOL    HW112695   1.943   5.499   4.097
 3932SOL    HW212696   2.085   5.579   4.105
 3933SOL     OW12697   1.916   5.492   0.319
 3933SOL    HW112698   1.858   5.553   0.264
 3933SOL    HW212699   1.881   5.489   0.413
 3934SOL     OW12700   0.893   1.375   2.431
 3934SOL    HW112701   0.826   1.433   2.477
 3934SOL    HW212702   0.901   1.288   2.480
 3935SOL     OW12703   6.355   3.417   6.438
 3935SOL    HW112704   6.405   3.403   6.352
 3935SOL    HW212705   6.420   3.441   6.510
 3936SOL     OW12706   6.321   5.711   5.117
 3936SOL    HW112707   6.378   5.628   5.119
 3936SOL    HW212708   6.254   5.707   5.191
 3937SOL     OW12709   0.036   5.324   2.430
 3937SOL    HW112710   0.131   5.299   2.448
 3937SOL    HW212711   6.996   5.299   2.508
 3938SOL     OW12712   6.509   3.760   4.087
 3938SOL    HW112713   6.556   3.719   4.009
 3938SOL    HW212714   6.465   3.845   4.058
 3939SOL     OW12715   0.779   1.381   1.696
 3939SOL    HW112716   0.859   1.410   1.749
 3939SOL    HW212717   0.725   1.461   1.670
 3940SOL     OW12718   2.995   4.779   1.826
 3940SOL    HW112719   3.089   4.755   1.848
 3940SOL    HW212720   2.935   4.703   1.849
 3941SOL     OW12721   5.874   0.042   4.069
 3941SOL    HW112722   5.943   0.103   4.030
 3941SOL    HW212723   5.790   0.048   4.016
 3942SOL     OW12724   0.897   6.325   6.293
 3942SOL    HW112725   0.864   6.417   6.313
 3942SOL    HW212726   0.924   6.281   6.379
 3943SOL     OW12727   0.799   3.863   1.890
 3943SOL    HW112728   0.769   3.818   1.806
 3943SOL    HW212729   0.730   3.849   1.961
 3944SOL     OW12730   6.501   3.130   6.492
 3944SOL    HW112731   6.406   3.159   6.481
 3944SOL    HW212732   6.522   3.058   6.425
 3945SOL     OW12733   0.977   1.584   3.479
 3945SOL    HW112734   1.018   1.526   3.409
 3945SOL    HW212735   0.877   1.577   3.474
 3946SOL     OW12736   6.617   3.578   0.725
 3946SOL    HW112737   6.544   3.604   0.788
 3946SOL    HW212738   6.597   3.488   0.685
 3947SOL     OW12739   5.643   5.968   0.797
 3947SOL    HW112740   5.662   6.041   0.862
 3947SOL    HW212741   5.544   5.964   0.779
 3948SOL     OW12742   2.133   2.684   6.138
 3948SOL    HW112743   2.055   2.633   6.102
 3948SOL    HW212744   2.154   2.760   6.077
 3949SOL     OW12745   6.352   6.429   2.659
 3949SOL    HW112746   6.352   6.332   2.681
 3949SOL    HW212747   6.445   6.459   2.637
 3950SOL     OW12748   4.046   4.681   1.395
 3950SOL    HW112749   4.094   4.758   1.438
 3950SOL    HW212750   4.111   4.626   1.343
 3951SOL     OW12751   0.322   1.900   5.099
 3951SOL    HW112752   0.311   1.822   5.161
 3951SOL    HW212753   0.317   1.869   5.004
 3952SOL     OW12754   5.820   2.435   4.974
 3952SOL    HW112755   5.914   2.470   4.977
 3952SOL    HW212756   5.820   2.346   4.929
 3953SOL     OW12757   2.969   3.991   6.004
 3953SOL    HW112758   2.911   4.043   5.941
 3953SOL    HW212759   3.043   4.050   6.038
 3954SOL     OW12760   0.229   3.929   5.058
 3954SOL    HW112761   0.271   3.839   5.045
 3954SOL    HW212762   0.267   3.993   4.991
 3955SOL     OW12763   5.273   6.009   0.098
 3955SOL    HW112764   5.334   6.084   0.123
 3955SOL    HW212765   5.276   5.996   7.015
 3956SOL     OW12766   0.687   2.716   5.523
 3956SOL    HW112767   0.677   2.735   5.621
 3956SOL    HW212768   0.650   2.792   5.470
 3957SOL     OW12769   2.788   6.864   4.053
 3957SOL    HW112770   2.883   6.881   4.028
 3957SOL    HW212771   2.728   6.892   3.977
 3958SOL     OW12772   6.399   5.641   0.555
 3958SOL    HW112773   6.489   5.655   0.513
 3958SOL    HW212774   6.402   5.672   0.650
 3959SOL     OW12775   2.855   6.043   0.670
 3959SOL    HW112776   2.911   5.988   0.732
 3959SOL    HW212777   2.767   6.063   0.713
 3960SOL     OW12778   4.196   2.719   6.941
 3960SOL    HW112779   4.102   2.684   6.935
 3960SOL    HW212780   4.221   2.763   6.854
 3961SOL     OW12781   5.023   1.454   2.565
 3961SOL    HW112782   4.964   1.521   2.519
 3961SOL    HW212783   5.045   1.380   2.502
 3962SOL     OW12784   1.056   6.376   0.163
 3962SOL    HW112785   1.154   6.395   0.166
 3962SOL    HW212786   1.025   6.348   0.254
 3963SOL     OW12787   5.368   4.980   3.821
 3963SOL    HW112788   5.324   4.953   3.735
 3963SOL    HW212789   5.307   4.961   3.897
 3964SOL     OW12790   5.058   5.860   5.244
 3964SOL    HW112791   5.005   5.945   5.239
 3964SOL    HW212792   5.143   5.875   5.294
 3965SOL     OW12793   4.342   4.865   6.761
 3965SOL    HW112794   4.314   4.919   6.841
 3965SOL    HW212795   4.440   4.874   6.747
 3966SOL     OW12796   6.091   5.230   6.000
 3966SOL    HW112797   6.004   5.241   6.047
 3966SOL    HW212798   6.111   5.133   5.988
 3967SOL     OW12799   6.950   5.994   5.081
 3967SOL    HW112800   6.905   5.983   5.170
 3967SOL    HW212801   0.026   5.957   5.086
 3968SOL     OW12802   4.882   0.609   2.448
 3968SOL    HW112803   4.853   0.622   2.353
 3968SOL    HW212804   4.976   0.575   2.450
 3969SOL     OW12805   1.334   4.735   2.942
 3969SOL    HW112806   1.420   4.743   2.992
 3969SOL    HW212807   1.266   4.797   2.981
 3970SOL     OW12808   4.967   4.821   4.034
 3970SOL    HW112809   4.949   4.805   4.131
 3970SOL    HW212810   4.906   4.892   4.000
 3971SOL     OW12811   2.553   5.392   3.380
 3971SOL    HW112812   2.513   5.482   3.398
 3971SOL    HW212813   2.632   5.379   3.441
 3972SOL     OW12814   0.532   6.333   0.709
 3972SOL    HW112815   0.509   6.397   0.636
 3972SOL    HW212816   0.609   6.368   0.762
 3973SOL     OW12817   3.531   3.720   4.177
 3973SOL    HW112818   3.575   3.659   4.111
 3973SOL    HW212819   3.602   3.767   4.231
 3974SOL     OW12820   0.162   1.355   5.961
 3974SOL    HW112821   0.194   1.261   5.961
 3974SOL    HW212822   0.063   1.357   5.974
 3975SOL     OW12823   6.628   0.992   6.252
 3975SOL    HW112824   6.546   0.935   6.253
 3975SOL    HW212825   6.674   0.987   6.341
 3976SOL     OW12826   1.127   4.344   0.895
 3976SOL    HW112827   1.109   4.347   0.994
 3976SOL    HW212828   1.184   4.421   0.869
 3977SOL     OW12829   2.401   5.784   6.382
 3977SOL    HW112830   2.495   5.758   6.405
 3977SOL    HW212831   2.344   5.781   6.465
 3978SOL     OW12832   5.735   1.729   5.698
 3978SOL    HW112833   5.750   1.772   5.609
 3978SOL    HW212834   5.823   1.716   5.743
 3979SOL     OW12835   1.236   6.991   1.903
 3979SOL    HW112836   1.229   6.897   1.937
 3979SOL    HW212837   1.244   0.038   1.979
 3980SOL     OW12838   5.217   3.445   4.488
 3980SOL    HW112839   5.228   3.474   4.393
 3980SOL    HW212840   5.288   3.487   4.544
 3981SOL     OW12841   0.466   1.757   6.433
 3981SOL    HW112842   0.422   1.797   6.513
 3981SOL    HW212843   0.485   1.828   6.365
 3982SOL     OW12844   2.110   0.967   4.505
 3982SOL    HW112845   2.176   0.933   4.572
 3982SOL    HW212846   2.154   1.035   4.447
 3983SOL     OW12847   2.945   0.047   4.610
 3983SOL    HW112848   2.871   7.001   4.634
 3983SOL    HW212849   3.021   0.035   4.674
 3984SOL     OW12850   1.587   6.594   2.112
 3984SOL    HW112851   1.681   6.628   2.100
 3984SOL    HW212852   1.525   6.649   2.056
 3985SOL     OW12853   1.506   3.684   6.791
 3985SOL    HW112854   1.565   3.604   6.801
 3985SOL    HW212855   1.420   3.657   6.748
 3986SOL     OW12856   0.244   2.025   1.262
 3986SOL    HW112857   0.190   2.010   1.180
 3986SOL    HW212858   0.241   2.122   1.287
 3987SOL     OW12859   2.236   5.624   5.517
 3987SOL    HW112860   2.177   5.667   5.450
 3987SOL    HW212861   2.220   5.525   5.517
 3988SOL     OW12862   4.307   1.857   6.406
 3988SOL    HW112863   4.228   1.796   6.405
 3988SOL    HW212864   4.388   1.806   6.434
 3989SOL     OW12865   6.429   0.401   6.791
 3989SOL    HW112866   6.440   0.341   6.869
 3989SOL    HW212867   6.510   0.397   6.733
 3990SOL     OW12868   6.986   2.800   4.451
 3990SOL    HW112869   6.934   2.879   4.485
 3990SOL    HW212870   6.923   2.731   4.417
 3991SOL     OW12871   0.618   2.244   3.761
 3991SOL    HW112872   0.628   2.286   3.851
 3991SOL    HW212873   0.685   2.283   3.699
 3992SOL     OW12874   4.331   3.193   6.560
 3992SOL    HW112875   4.285   3.191   6.472
 3992SOL    HW212876   4.279   3.250   6.624
 3993SOL     OW12877   2.755   2.322   2.503
 3993SOL    HW112878   2.719   2.331   2.596
 3993SOL    HW212879   2.804   2.235   2.494
 3994SOL     OW12880   2.670   2.400   4.838
 3994SOL    HW112881   2.681   2.405   4.739
 3994SOL    HW212882   2.730   2.328   4.874
 3995SOL     OW12883   1.817   4.004   3.407
 3995SOL    HW112884   1.741   3.939   3.420
 3995SOL    HW212885   1.837   4.049   3.494
 3996SOL     OW12886   0.988   1.065   4.143
 3996SOL    HW112887   0.977   1.001   4.067
 3996SOL    HW212888   1.075   1.048   4.189
 3997SOL     OW12889   5.041   3.805   3.479
 3997SOL    HW112890   5.134   3.793   3.512
 3997SOL    HW212891   5.003   3.717   3.452
 3998SOL     OW12892   6.037   2.050   2.648
 3998SOL    HW112893   6.136   2.062   2.642
 3998SOL    HW212894   6.010   1.971   2.593
 3999SOL     OW12895   5.889   3.929   3.030
 3999SOL    HW112896   5.876   3.881   3.117
 3999SOL    HW212897   5.804   3.926   2.977
 4000SOL     OW12898   3.024   5.746   2.746
 4000SOL    HW112899   3.036   5.820   2.680
 4000SOL    HW212900   3.109   5.731   2.795
 4001SOL     OW12901   2.681   3.801   6.052
 4001SOL    HW112902   2.710   3.722   6.106
 4001SOL    HW212903   2.761   3.851   6.020
 4002SOL     OW12904   4.038   3.185   5.393
 4002SOL    HW112905   4.042   3.183   5.293
 4002SOL    HW212906   4.098   3.257   5.427
 4003SOL     OW12907   2.403   0.963   6.560
 4003SOL    HW112908   2.452   1.048   6.582
 4003SOL    HW212909   2.434   0.929   6.472
 4004SOL     OW12910   6.166   3.929   3.066
 4004SOL    HW112911   6.071   3.946   3.039
 4004SOL    HW212912   6.168   3.890   3.158
 4005SOL     OW12913   4.082   4.282   1.220
 4005SOL    HW112914   4.124   4.372   1.220
 4005SOL    HW212915   4.004   4.281   1.282
 4006SOL     OW12916   5.384   4.635   1.949
 4006SOL    HW112917   5.316   4.562   1.951
 4006SOL    HW212918   5.345   4.715   1.904
 4007SOL     OW12919   0.368   2.107   3.343
 4007SOL    HW112920   0.352   2.158   3.259
 4007SOL    HW212921   0.434   2.034   3.326
 4008SOL     OW12922   3.025   6.586   0.033
 4008SOL    HW112923   2.946   6.545   7.005
 4008SOL    HW212924   3.040   6.678   7.013
 4009SOL     OW12925   5.039   2.016   1.169
 4009SOL    HW112926   5.115   1.970   1.215
 4009SOL    HW212927   4.956   1.962   1.179
 4010SOL     OW12928   3.265   3.952   1.303
 4010SOL    HW112929   3.232   3.968   1.396
 4010SOL    HW212930   3.231   3.864   1.271
 4011SOL     OW12931   6.537   5.985   1.590
 4011SOL    HW112932   6.528   6.061   1.655
 4011SOL    HW212933   6.631   5.952   1.590
 4012SOL     OW12934   4.002   0.044   2.341
 4012SOL    HW112935   3.908   0.068   2.317
 4012SOL    HW212936   4.028   6.977   2.293
 4013SOL     OW12937   1.925   6.974   1.712
 4013SOL    HW112938   1.872   0.041   1.694
 4013SOL    HW212939   1.951   6.972   1.809
 4014SOL     OW12940   3.719   6.452   4.001
 4014SOL    HW112941   3.654   6.382   4.031
 4014SOL    HW212942   3.697   6.539   4.045
 4015SOL     OW12943   4.824   4.800   6.217
 4015SOL    HW112944   4.759   4.869   6.250
 4015SOL    HW212945   4.913   4.814   6.261
 4016SOL     OW12946   2.741   5.302   0.656
 4016SOL    HW112947   2.813   5.370   0.645
 4016SOL    HW212948   2.763   5.221   0.600
 4017SOL     OW12949   0.235   4.881   5.374
 4017SOL    HW112950   0.203   4.796   5.415
 4017SOL    HW212951   0.249   4.868   5.276
 4018SOL     OW12952   3.988   7.011   1.632
 4018SOL    HW112953   4.048   0.049   1.691
 4018SOL    HW212954   3.893   0.010   1.659
 4019SOL     OW12955   5.687   3.715   2.581
 4019SOL    HW112956   5.670   3.644   2.650
 4019SOL    HW212957   5.768   3.690   2.528
 4020SOL     OW12958   6.947   2.999   5.319
 4020SOL    HW112959   7.001   2.986   5.403
 4020SOL    HW212960   6.863   2.945   5.325
 4021SOL     OW12961   3.504   4.039   5.203
 4021SOL    HW112962   3.599   4.065   5.185
 4021SOL    HW212963   3.461   4.009   5.118
 4022SOL     OW12964   4.188   6.535   0.333
 4022SOL    HW112965   4.121   6.592   0.381
 4022SOL    HW212966   4.188   6.558   0.236
 4023SOL     OW12967   0.114   1.039   6.251
 4023SOL    HW112968   0.141   1.083   6.165
 4023SOL    HW212969   0.017   1.015   6.247
 4024SOL     OW12970   2.422   5.013   4.437
 4024SOL    HW112971   2.484   5.001   4.514
 4024SOL    HW212972   2.473   5.010   4.351
 4025SOL     OW12973   0.736   6.163   4.645
 4025SOL    HW112974   0.727   6.123   4.553
 4025SOL    HW212975   0.647   6.194   4.676
 4026SOL     OW12976   6.275   6.466   4.147
 4026SOL    HW112977   6.186   6.494   4.184
 4026SOL    HW212978   6.286   6.504   4.055
 4027SOL     OW12979   2.681   1.843   0.013
 4027SOL    HW112980   2.629   1.922   6.996
 4027SOL    HW212981   2.737   1.870   0.091
 4028SOL     OW12982   4.170   1.722   3.597
 4028SOL    HW112983   4.096   1.656   3.584
 4028SOL    HW212984   4.132   1.814   3.600
 4029SOL     OW12985   2.911   4.296   6.183
 4029SOL    HW112986   2.814   4.270   6.190
 4029SOL    HW212987   2.925   4.352   6.101
 4030SOL     OW12988   6.610   1.045   1.583
 4030SOL    HW112989   6.648   1.127   1.625
 4030SOL    HW212990   6.652   0.964   1.625
 4031SOL     OW12991   4.892   6.211   3.355
 4031SOL    HW112992   4.986   6.202   3.388
 4031SOL    HW212993   4.829   6.196   3.431
 4032SOL     OW12994   0.212   6.871   2.729
 4032SOL    HW112995   0.289   6.814   2.758
 4032SOL    HW212996   0.204   6.869   2.629
 4033SOL     OW12997   1.393   2.675   1.946
 4033SOL    HW112998   1.466   2.690   2.013
 4033SOL    HW212999   1.422   2.604   1.882
 4034SOL     OW13000   5.680   2.116   5.383
 4034SOL    HW113001   5.645   2.024   5.362
 4034SOL    HW213002   5.742   2.111   5.461
 4035SOL     OW13003   6.199   1.051   0.751
 4035SOL    HW113004   6.269   0.980   0.763
 4035SOL    HW213005   6.109   1.009   0.750
 4036SOL     OW13006   3.785   4.950   2.389
 4036SOL    HW113007   3.832   5.035   2.413
 4036SOL    HW213008   3.850   4.875   2.385
 4037SOL     OW13009   1.932   1.207   6.240
 4037SOL    HW113010   1.968   1.114   6.250
 4037SOL    HW213011   1.832   1.203   6.235
 4038SOL     OW13012   4.047   2.960   0.827
 4038SOL    HW113013   4.021   2.918   0.740
 4038SOL    HW213014   3.964   2.984   0.879
 4039SOL     OW13015   4.626   5.708   1.746
 4039SOL    HW113016   4.611   5.612   1.721
 4039SOL    HW213017   4.541   5.747   1.779
 4040SOL     OW13018   2.872   6.829   5.285
 4040SOL    HW113019   2.950   6.869   5.236
 4040SOL    HW213020   2.903   6.752   5.340
 4041SOL     OW13021   1.735   5.325   1.078
 4041SOL    HW113022   1.734   5.423   1.100
 4041SOL    HW213023   1.672   5.307   1.003
 4042SOL     OW13024   6.359   5.991   4.368
 4042SOL    HW113025   6.340   5.976   4.465
 4042SOL    HW213026   6.327   6.082   4.341
 4043SOL     OW13027   6.932   2.204   6.429
 4043SOL    HW113028   6.862   2.253   6.481
 4043SOL    HW213029   6.895   2.118   6.396
 4044SOL     OW13030   5.362   5.964   3.865
 4044SOL    HW113031   5.270   5.938   3.836
 4044SOL    HW213032   5.357   6.016   3.950
 4045SOL     OW13033   3.792   6.410   5.873
 4045SOL    HW113034   3.824   6.476   5.806
 4045SOL    HW213035   3.724   6.453   5.933
 4046SOL     OW13036   0.913   2.043   3.241
 4046SOL    HW113037   0.876   2.089   3.322
 4046SOL    HW213038   0.837   2.013   3.182
 4047SOL     OW13039   2.511   2.077   6.949
 4047SOL    HW113040   2.536   2.152   6.888
 4047SOL    HW213041   2.479   2.115   0.020
 4048SOL     OW13042   5.122   1.497   1.533
 4048SOL    HW113043   5.147   1.560   1.460
 4048SOL    HW213044   5.205   1.464   1.578
 4049SOL     OW13045   5.145   5.136   6.551
 4049SOL    HW113046   5.082   5.213   6.555
 4049SOL    HW213047   5.126   5.072   6.626
 4050SOL     OW13048   0.776   6.327   2.022
 4050SOL    HW113049   0.868   6.342   2.056
 4050SOL    HW213050   0.716   6.402   2.052
 4051SOL     OW13051   3.743   1.600   6.337
 4051SOL    HW113052   3.763   1.505   6.361
 4051SOL    HW213053   3.797   1.626   6.257
 4052SOL     OW13054   5.783   1.332   2.730
 4052SOL    HW113055   5.723   1.336   2.650
 4052SOL    HW213056   5.874   1.368   2.706
 4053SOL     OW13057   2.617   7.014   4.542
 4053SOL    HW113058   2.646   0.008   4.447
 4053SOL    HW213059   2.664   6.936   4.584
 4054SOL     OW13060   4.913   4.453   1.205
 4054SOL    HW113061   4.998   4.427   1.158
 4054SOL    HW213062   4.925   4.444   1.304
 4055SOL     OW13063   2.943   3.895   0.650
 4055SOL    HW113064   2.924   3.980   0.600
 4055SOL    HW213065   3.041   3.876   0.649
 4056SOL     OW13066   5.579   4.257   1.094
 4056SOL    HW113067   5.517   4.327   1.057
 4056SOL    HW213068   5.651   4.302   1.147
 4057SOL     OW13069   0.316   2.738   0.556
 4057SOL    HW113070   0.350   2.766   0.646
 4057SOL    HW213071   0.333   2.811   0.490
 4058SOL     OW13072   2.855   6.689   5.034
 4058SOL    HW113073   2.868   6.643   5.121
 4058SOL    HW213074   2.844   6.620   4.962
 4059SOL     OW13075   0.868   1.815   2.423
 4059SOL    HW113076   0.940   1.781   2.363
 4059SOL    HW213077   0.780   1.809   2.375
 4060SOL     OW13078   5.339   5.020   5.329
 4060SOL    HW113079   5.240   5.020   5.344
 4060SOL    HW213080   5.386   5.027   5.417
 4061SOL     OW13081   1.992   4.928   2.119
 4061SOL    HW113082   2.012   4.923   2.217
 4061SOL    HW213083   1.893   4.915   2.105
 4062SOL     OW13084   2.424   0.402   1.673
 4062SOL    HW113085   2.483   0.457   1.731
 4062SOL    HW213086   2.462   0.310   1.664
 4063SOL     OW13087   6.187   6.218   0.416
 4063SOL    HW113088   6.240   6.146   0.459
 4063SOL    HW213089   6.239   6.259   0.341
 4064SOL     OW13090   2.399   0.680   3.969
 4064SOL    HW113091   2.301   0.681   3.992
 4064SOL    HW213092   2.412   0.716   3.877
 4065SOL     OW13093   1.280   6.440   1.577
 4065SOL    HW113094   1.346   6.443   1.652
 4065SOL    HW213095   1.328   6.415   1.492
 4066SOL     OW13096   6.640   4.525   3.298
 4066SOL    HW113097   6.605   4.544   3.206
 4066SOL    HW213098   6.605   4.437   3.329
 4067SOL     OW13099   6.652   3.275   2.566
 4067SOL    HW113100   6.714   3.319   2.631
 4067SOL    HW213101   6.561   3.317   2.573
 4068SOL     OW13102   1.850   1.315   4.537
 4068SOL    HW113103   1.762   1.351   4.508
 4068SOL    HW213104   1.838   1.221   4.571
 4069SOL     OW13105   3.370   5.343   6.729
 4069SOL    HW113106   3.413   5.340   6.819
 4069SOL    HW213107   3.369   5.437   6.695
 4070SOL     OW13108   0.295   2.486   2.858
 4070SOL    HW113109   0.305   2.566   2.917
 4070SOL    HW213110   0.384   2.464   2.817
 4071SOL     OW13111   0.740   1.490   5.391
 4071SOL    HW113112   0.726   1.470   5.488
 4071SOL    HW213113   0.807   1.564   5.382
 4072SOL     OW13114   1.034   5.633   4.616
 4072SOL    HW113115   0.974   5.713   4.625
 4072SOL    HW213116   1.054   5.617   4.519
 4073SOL     OW13117   3.222   6.223   6.571
 4073SOL    HW113118   3.274   6.300   6.536
 4073SOL    HW213119   3.268   6.186   6.652
 4074SOL     OW13120   0.295   4.173   1.188
 4074SOL    HW113121   0.366   4.107   1.212
 4074SOL    HW213122   0.269   4.162   1.092
 4075SOL     OW13123   4.880   2.024   1.526
 4075SOL    HW113124   4.958   1.963   1.514
 4075SOL    HW213125   4.891   2.075   1.611
 4076SOL     OW13126   2.750   3.557   6.156
 4076SOL    HW113127   2.762   3.523   6.063
 4076SOL    HW213128   2.737   3.480   6.218
 4077SOL     OW13129   3.866   1.470   6.877
 4077SOL    HW113130   3.832   1.430   6.961
 4077SOL    HW213131   3.935   1.540   6.899
 4078SOL     OW13132   0.876   5.155   1.185
 4078SOL    HW113133   0.903   5.239   1.233
 4078SOL    HW213134   0.923   5.151   1.097
 4079SOL     OW13135   1.755   0.827   3.750
 4079SOL    HW113136   1.702   0.778   3.680
 4079SOL    HW213137   1.845   0.785   3.758
 4080SOL     OW13138   4.437   3.940   6.320
 4080SOL    HW113139   4.508   3.922   6.252
 4080SOL    HW213140   4.348   3.947   6.274
 4081SOL     OW13141   2.208   2.754   4.422
 4081SOL    HW113142   2.279   2.759   4.492
 4081SOL    HW213143   2.136   2.691   4.452
 4082SOL     OW13144   0.813   3.932   0.022
 4082SOL    HW113145   0.837   3.835   0.023
 4082SOL    HW213146   0.772   3.956   6.950
 4083SOL     OW13147   6.944   2.987   2.459
 4083SOL    HW113148   6.857   2.945   2.485
 4083SOL    HW213149   7.013   2.915   2.447
 4084SOL     OW13150   5.498   2.418   3.932
 4084SOL    HW113151   5.497   2.323   3.962
 4084SOL    HW213152   5.408   2.443   3.895
 4085SOL     OW13153   3.118   5.776   1.847
 4085SOL    HW113154   3.094   5.811   1.937
 4085SOL    HW213155   3.146   5.852   1.788
 4086SOL     OW13156   1.706   5.908   1.739
 4086SOL    HW113157   1.744   5.905   1.831
 4086SOL    HW213158   1.675   6.000   1.718
 4087SOL     OW13159   1.829   1.979   3.842
 4087SOL    HW113160   1.911   1.933   3.810
 4087SOL    HW213161   1.761   1.984   3.769
 4088SOL     OW13162   0.296   1.782   0.487
 4088SOL    HW113163   0.394   1.784   0.510
 4088SOL    HW213164   0.263   1.688   0.495
 4089SOL     OW13165   6.063   6.068   4.078
 4089SOL    HW113166   6.100   6.080   4.170
 4089SOL    HW213167   6.029   6.155   4.044
 4090SOL     OW13168   1.021   4.392   5.933
 4090SOL    HW113169   1.117   4.374   5.909
 4090SOL    HW213170   0.963   4.378   5.853
 4091SOL     OW13171   0.079   6.337   0.363
 4091SOL    HW113172   0.038   6.256   0.321
 4091SOL    HW213173   0.018   6.373   0.433
 4092SOL     OW13174   6.760   2.440   5.710
 4092SOL    HW113175   6.810   2.378   5.651
 4092SOL    HW213176   6.725   2.390   5.790
 4093SOL     OW13177   4.462   0.407   2.624
 4093SOL    HW113178   4.505   0.356   2.698
 4093SOL    HW213179   4.533   0.442   2.562
 4094SOL     OW13180   2.786   5.977   4.475
 4094SOL    HW113181   2.756   5.995   4.382
 4094SOL    HW213182   2.707   5.976   4.536
 4095SOL     OW13183   0.581   3.858   0.282
 4095SOL    HW113184   0.515   3.866   0.357
 4095SOL    HW213185   0.550   3.912   0.204
 4096SOL     OW13186   4.529   5.918   6.050
 4096SOL    HW113187   4.592   5.841   6.059
 4096SOL    HW213188   4.580   6.004   6.048
 4097SOL     OW13189   3.525   4.559   5.639
 4097SOL    HW113190   3.493   4.650   5.664
 4097SOL    HW213191   3.447   4.502   5.614
 4098SOL     OW13192   0.574   2.714   1.722
 4098SOL    HW113193   0.559   2.680   1.629
 4098SOL    HW213194   0.672   2.726   1.738
 4099SOL     OW13195   2.782   4.918   1.662
 4099SOL    HW113196   2.812   4.974   1.740
 4099SOL    HW213197   2.710   4.856   1.692
 4100SOL     OW13198   6.740   5.525   4.527
 4100SOL    HW113199   6.734   5.467   4.446
 4100SOL    HW213200   6.795   5.606   4.506
 4101SOL     OW13201   6.282   1.184   0.290
 4101SOL    HW113202   6.252   1.201   0.196
 4101SOL    HW213203   6.380   1.201   0.298
 4102SOL     OW13204   6.191   0.539   0.923
 4102SOL    HW113205   6.261   0.501   0.984
 4102SOL    HW213206   6.221   0.528   0.828
 4103SOL     OW13207   0.190   0.976   0.268
 4103SOL    HW113208   0.187   0.891   0.321
 4103SOL    HW213209   0.228   0.957   0.177
 4104SOL     OW13210   0.588   4.623   2.198
 4104SOL    HW113211   0.522   4.692   2.229
 4104SOL    HW213212   0.671   4.669   2.167
 4105SOL     OW13213   4.488   0.139   1.495
 4105SOL    HW113214   4.439   0.075   1.436
 4105SOL    HW213215   4.450   0.230   1.484
 4106SOL     OW13216   6.757   2.499   3.601
 4106SOL    HW113217   6.783   2.551   3.520
 4106SOL    HW213218   6.666   2.528   3.631
 4107SOL     OW13219   1.376   6.096   1.523
 4107SOL    HW113220   1.457   6.130   1.571
 4107SOL    HW213221   1.317   6.047   1.588
 4108SOL     OW13222   6.378   4.465   5.323
 4108SOL    HW113223   6.305   4.398   5.313
 4108SOL    HW213224   6.410   4.467   5.417
 4109SOL     OW13225   5.570   6.842   5.170
 4109SOL    HW113226   5.619   6.760   5.142
 4109SOL    HW213227   5.474   6.836   5.143
 4110SOL     OW13228   4.151   3.668   6.284
 4110SOL    HW113229   4.168   3.766   6.276
 4110SOL    HW213230   4.209   3.629   6.356
 4111SOL     OW13231   3.898   3.459   6.636
 4111SOL    HW113232   3.875   3.553   6.611
 4111SOL    HW213233   3.855   3.396   6.572
 4112SOL     OW13234   4.821   6.988   5.215
 4112SOL    HW113235   4.749   6.985   5.284
 4112SOL    HW213236   4.838   0.067   5.188
 4113SOL     OW13237   4.939   6.473   4.759
 4113SOL    HW113238   4.924   6.382   4.722
 4113SOL    HW213239   4.967   6.535   4.686
 4114SOL     OW13240   3.372   2.100   4.353
 4114SOL    HW113241   3.441   2.118   4.423
 4114SOL    HW213242   3.281   2.108   4.393
 4115SOL     OW13243   3.606   4.995   2.604
 4115SOL    HW113244   3.536   4.979   2.535
 4115SOL    HW213245   3.696   4.983   2.564
 4116SOL     OW13246   3.811   2.108   1.804
 4116SOL    HW113247   3.799   2.171   1.728
 4116SOL    HW213248   3.764   2.144   1.885
 4117SOL     OW13249   1.124   4.755   2.318
 4117SOL    HW113250   1.212   4.709   2.316
 4117SOL    HW213251   1.099   4.784   2.226
 4118SOL     OW13252   2.773   6.577   0.501
 4118SOL    HW113253   2.703   6.647   0.487
 4118SOL    HW213254   2.818   6.557   0.413
 4119SOL     OW13255   3.416   1.609   3.868
 4119SOL    HW113256   3.429   1.522   3.822
 4119SOL    HW213257   3.331   1.652   3.836
 4120SOL     OW13258   3.873   6.973   0.670
 4120SOL    HW113259   3.874   0.053   0.693
 4120SOL    HW213260   3.825   6.959   0.583
 4121SOL     OW13261   6.361   0.758   5.021
 4121SOL    HW113262   6.345   0.722   5.113
 4121SOL    HW213263   6.302   0.711   4.956
 4122SOL     OW13264   0.687   5.384   5.202
 4122SOL    HW113265   0.764   5.363   5.263
 4122SOL    HW213266   0.603   5.392   5.255
 4123SOL     OW13267   3.949   4.895   6.017
 4123SOL    HW113268   3.936   4.980   5.967
 4123SOL    HW213269   4.029   4.847   5.982
 4124SOL     OW13270   5.512   5.130   6.680
 4124SOL    HW113271   5.597   5.164   6.720
 4124SOL    HW213272   5.521   5.031   6.664
 4125SOL     OW13273   4.487   1.705   2.731
 4125SOL    HW113274   4.570   1.753   2.703
 4125SOL    HW213275   4.501   1.607   2.726
 4126SOL     OW13276   1.274   3.367   4.040
 4126SOL    HW113277   1.353   3.331   4.089
 4126SOL    HW213278   1.270   3.467   4.051
 4127SOL     OW13279   4.333   4.804   4.609
 4127SOL    HW113280   4.345   4.805   4.708
 4127SOL    HW213281   4.305   4.895   4.578
 4128SOL     OW13282   1.565   3.229   2.044
 4128SOL    HW113283   1.588   3.241   1.947
 4128SOL    HW213284   1.472   3.261   2.060
 4129SOL     OW13285   4.450   1.815   6.759
 4129SOL    HW113286   4.505   1.758   6.698
 4129SOL    HW213287   4.505   1.891   6.792
 4130SOL     OW13288   6.702   2.772   5.565
 4130SOL    HW113289   6.787   2.791   5.615
 4130SOL    HW213290   6.653   2.698   5.611
 4131SOL     OW13291   1.719   0.044   3.042
 4131SOL    HW113292   1.786   6.992   3.010
 4131SOL    HW213293   1.627   0.012   3.021
 4132SOL     OW13294   4.972   4.463   3.549
 4132SOL    HW113295   4.923   4.549   3.563
 4132SOL    HW213296   4.909   4.387   3.565
 4133SOL     OW13297   2.991   0.206   1.420
 4133SOL    HW113298   3.061   0.172   1.357
 4133SOL    HW213299   2.906   0.154   1.407
 4134SOL     OW13300   2.650   3.153   7.005
 4134SOL    HW113301   2.584   3.181   0.058
 4134SOL    HW213302   2.743   3.175   0.020
 4135SOL     OW13303   1.506   1.480   3.152
 4135SOL    HW113304   1.578   1.446   3.091
 4135SOL    HW213305   1.535   1.567   3.193
 4136SOL     OW13306   1.418   2.378   2.968
 4136SOL    HW113307   1.513   2.371   2.936
 4136SOL    HW213308   1.356   2.361   2.892
 4137SOL     OW13309   0.840   4.542   0.539
 4137SOL    HW113310   0.918   4.597   0.509
 4137SOL    HW213311   0.757   4.575   0.494
 4138SOL     OW13312   4.085   5.135   3.140
 4138SOL    HW113313   4.113   5.079   3.062
 4138SOL    HW213314   4.014   5.199   3.111
 4139SOL     OW13315   2.475   2.330   5.037
 4139SOL    HW113316   2.502   2.345   4.942
 4139SOL    HW213317   2.379   2.356   5.049
 4140SOL     OW13318   3.014   0.843   5.418
 4140SOL    HW113319   3.049   0.910   5.484
 4140SOL    HW213320   2.965   0.771   5.467
 4141SOL     OW13321   6.050   6.372   1.500
 4141SOL    HW113322   6.050   6.333   1.408
 4141SOL    HW213323   5.983   6.323   1.556
 4142SOL     OW13324   6.224   5.658   0.801
 4142SOL    HW113325   6.150   5.623   0.744
 4142SOL    HW213326   6.267   5.582   0.850
 4143SOL     OW13327   0.092   2.873   0.887
 4143SOL    HW113328   0.097   2.963   0.929
 4143SOL    HW213329   0.183   2.846   0.854
 4144SOL     OW13330   4.885   4.214   6.044
 4144SOL    HW113331   4.835   4.229   6.129
 4144SOL    HW213332   4.910   4.302   6.004
 4145SOL     OW13333   6.698   5.932   1.023
 4145SOL    HW113334   6.653   5.898   1.105
 4145SOL    HW213335   6.643   6.004   0.982
 4146SOL     OW13336   6.407   0.703   5.336
 4146SOL    HW113337   6.478   0.641   5.371
 4146SOL    HW213338   6.317   0.671   5.367
 4147SOL     OW13339   4.700   3.652   5.588
 4147SOL    HW113340   4.726   3.576   5.648
 4147SOL    HW213341   4.680   3.617   5.497
 4148SOL     OW13342   0.702   0.574   5.027
 4148SOL    HW113343   0.690   0.639   4.952
 4148SOL    HW213344   0.768   0.611   5.093
 4149SOL     OW13345   6.987   2.517   0.329
 4149SOL    HW113346   0.015   2.603   0.357
 4149SOL    HW213347   7.004   2.447   0.399
 4150SOL     OW13348   0.617   0.895   5.589
 4150SOL    HW113349   0.550   0.962   5.621
 4150SOL    HW213350   0.586   0.856   5.502
 4151SOL     OW13351   3.696   6.004   5.902
 4151SOL    HW113352   3.786   6.048   5.903
 4151SOL    HW213353   3.700   5.917   5.950
 4152SOL     OW13354   2.980   6.262   1.293
 4152SOL    HW113355   3.046   6.258   1.218
 4152SOL    HW213356   3.027   6.289   1.377
 4153SOL     OW13357   4.280   4.583   6.814
 4153SOL    HW113358   4.307   4.680   6.814
 4153SOL    HW213359   4.262   4.553   6.720
 4154SOL     OW13360   0.556   4.904   4.410
 4154SOL    HW113361   0.639   4.902   4.354
 4154SOL    HW213362   0.574   4.861   4.498
 4155SOL     OW13363   6.847   1.611   2.350
 4155SOL    HW113364   6.803   1.570   2.430
 4155SOL    HW213365   6.925   1.666   2.379
 4156SOL     OW13366   5.219   6.389   4.933
 4156SOL    HW113367   5.216   6.291   4.912
 4156SOL    HW213368   5.127   6.427   4.924
 4157SOL     OW13369   4.317   6.093   4.420
 4157SOL    HW113370   4.417   6.097   4.419
 4157SOL    HW213371   4.281   6.151   4.347
 4158SOL     OW13372   1.545   4.771   3.108
 4158SOL    HW113373   1.510   4.713   3.182
 4158SOL    HW213374   1.595   4.848   3.147
 4159SOL     OW13375   2.127   3.229   4.277
 4159SOL    HW113376   2.142   3.262   4.371
 4159SOL    HW213377   2.178   3.144   4.263
 4160SOL     OW13378   6.189   0.758   0.623
 4160SOL    HW113379   6.237   0.779   0.538
 4160SOL    HW213380   6.091   0.777   0.612
 4161SOL     OW13381   0.863   0.693   6.959
 4161SOL    HW113382   0.959   0.667   6.954
 4161SOL    HW213383   0.852   0.789   6.932
 4162SOL     OW13384   6.146   6.540   5.824
 4162SOL    HW113385   6.137   6.635   5.852
 4162SOL    HW213386   6.121   6.531   5.728
 4163SOL     OW13387   6.275   6.821   3.061
 4163SOL    HW113388   6.285   6.854   3.155
 4163SOL    HW213389   6.362   6.833   3.012
 4164SOL     OW13390   1.328   6.458   0.080
 4164SOL    HW113391   1.363   6.478   7.005
 4164SOL    HW213392   1.378   6.381   0.119
 4165SOL     OW13393   4.286   0.142   6.804
 4165SOL    HW113394   4.272   0.149   6.705
 4165SOL    HW213395   4.366   0.195   6.831
 4166SOL     OW13396   5.912   3.979   0.992
 4166SOL    HW113397   5.911   4.053   0.924
 4166SOL    HW213398   5.893   3.892   0.947
 4167SOL     OW13399   1.152   3.959   0.921
 4167SOL    HW113400   1.207   4.036   0.889
 4167SOL    HW213401   1.079   3.941   0.855
 4168SOL     OW13402   6.601   5.060   1.025
 4168SOL    HW113403   6.688   5.096   1.058
 4168SOL    HW213404   6.567   4.990   1.088
 4169SOL     OW13405   5.880   4.190   4.109
 4169SOL    HW113406   5.951   4.121   4.120
 4169SOL    HW213407   5.921   4.281   4.105
 4170SOL     OW13408   3.123   4.091   5.044
 4170SOL    HW113409   3.097   4.178   5.085
 4170SOL    HW213410   3.061   4.068   4.970
 4171SOL     OW13411   4.929   5.032   1.598
 4171SOL    HW113412   4.894   4.959   1.656
 4171SOL    HW213413   4.857   5.063   1.536
 4172SOL     OW13414   0.500   1.839   6.117
 4172SOL    HW113415   0.407   1.862   6.087
 4172SOL    HW213416   0.505   1.742   6.139
 4173SOL     OW13417   5.326   3.498   5.449
 4173SOL    HW113418   5.230   3.484   5.476
 4173SOL    HW213419   5.333   3.580   5.393
 4174SOL     OW13420   5.370   0.779   3.435
 4174SOL    HW113421   5.345   0.792   3.339
 4174SOL    HW213422   5.375   0.868   3.481
 4175SOL     OW13423   2.179   5.864   4.654
 4175SOL    HW113424   2.223   5.777   4.675
 4175SOL    HW213425   2.092   5.847   4.607
 4176SOL     OW13426   2.783   6.916   1.858
 4176SOL    HW113427   2.793   6.934   1.956
 4176SOL    HW213428   2.696   6.871   1.840
 4177SOL     OW13429   6.750   4.514   4.605
 4177SOL    HW113430   6.835   4.535   4.555
 4177SOL    HW213431   6.748   4.566   4.690
 4178SOL     OW13432   4.462   1.229   4.096
 4178SOL    HW113433   4.440   1.297   4.166
 4178SOL    HW213434   4.442   1.137   4.130
 4179SOL     OW13435   5.329   2.300   3.483
 4179SOL    HW113436   5.371   2.327   3.397
 4179SOL    HW213437   5.307   2.382   3.536
 4180SOL     OW13438   5.703   3.701   1.487
 4180SOL    HW113439   5.760   3.690   1.406
 4180SOL    HW213440   5.617   3.651   1.475
 4181SOL     OW13441   2.190   1.834   6.690
 4181SOL    HW113442   2.268   1.844   6.752
 4181SOL    HW213443   2.106   1.829   6.744
 4182SOL     OW13444   0.223   6.314   2.939
 4182SOL    HW113445   0.209   6.242   3.007
 4182SOL    HW213446   0.305   6.295   2.886
 4183SOL     OW13447   4.513   0.294   0.584
 4183SOL    HW113448   4.501   0.324   0.489
 4183SOL    HW213449   4.605   0.258   0.596
 4184SOL     OW13450   4.709   5.436   1.383
 4184SOL    HW113451   4.726   5.520   1.331
 4184SOL    HW213452   4.629   5.389   1.346
 4185SOL     OW13453   1.099   5.802   2.122
 4185SOL    HW113454   1.072   5.894   2.151
 4185SOL    HW213455   1.019   5.753   2.085
 4186SOL     OW13456   2.052   4.749   0.840
 4186SOL    HW113457   2.103   4.778   0.921
 4186SOL    HW213458   1.982   4.682   0.867
 4187SOL     OW13459   3.454   4.128   5.821
 4187SOL    HW113460   3.513   4.060   5.863
 4187SOL    HW213461   3.508   4.186   5.760
 4188SOL     OW13462   5.221   6.875   4.111
 4188SOL    HW113463   5.179   6.815   4.043
 4188SOL    HW213464   5.320   6.861   4.111
 4189SOL     OW13465   3.334   0.756   5.165
 4189SOL    HW113466   3.237   0.780   5.167
 4189SOL    HW213467   3.344   0.656   5.167
 4190SOL     OW13468   0.939   0.326   0.152
 4190SOL    HW113469   0.933   0.320   0.053
 4190SOL    HW213470   0.856   0.287   0.193
 4191SOL     OW13471   5.682   3.690   2.936
 4191SOL    HW113472   5.606   3.642   2.894
 4191SOL    HW213473   5.703   3.773   2.884
 4192SOL     OW13474   0.095   0.284   3.240
 4192SOL    HW113475   0.113   0.344   3.317
 4192SOL    HW213476   0.151   0.202   3.247
 4193SOL     OW13477   2.479   6.799   2.327
 4193SOL    HW113478   2.461   6.802   2.425
 4193SOL    HW213479   2.538   6.875   2.301
 4194SOL     OW13480   6.148   1.087   5.414
 4194SOL    HW113481   6.084   1.132   5.477
 4194SOL    HW213482   6.163   1.147   5.335
 4195SOL     OW13483   4.061   0.906   1.465
 4195SOL    HW113484   4.012   0.957   1.535
 4195SOL    HW213485   4.009   0.909   1.379
 4196SOL     OW13486   6.008   2.536   3.726
 4196SOL    HW113487   5.940   2.496   3.788
 4196SOL    HW213488   6.088   2.477   3.720
 4197SOL     OW13489   5.150   5.458   5.240
 4197SOL    HW113490   5.250   5.464   5.235
 4197SOL    HW213491   5.114   5.538   5.288
 4198SOL     OW13492   5.470   2.949   6.855
 4198SOL    HW113493   5.478   2.853   6.883
 4198SOL    HW213494   5.479   2.955   6.755
 4199SOL     OW13495   1.937   3.989   6.496
 4199SOL    HW113496   1.841   3.983   6.468
 4199SOL    HW213497   1.978   4.071   6.455
 4200SOL     OW13498   3.316   6.561   5.109
 4200SOL    HW113499   3.413   6.547   5.125
 4200SOL    HW213500   3.292   6.531   5.017
 4201SOL     OW13501   5.672   5.958   4.298
 4201SOL    HW113502   5.620   5.880   4.333
 4201SOL    HW213503   5.667   6.034   4.363
 4202SOL     OW13504   4.099   6.032   5.688
 4202SOL    HW113505   4.140   6.116   5.724
 4202SOL    HW213506   4.171   5.975   5.649
 4203SOL     OW13507   4.580   5.430   1.712
 4203SOL    HW113508   4.629   5.410   1.627
 4203SOL    HW213509   4.579   5.348   1.770
 4204SOL     OW13510   3.472   3.213   2.164
 4204SOL    HW113511   3.559   3.173   2.195
 4204SOL    HW213512   3.404   3.204   2.237
 4205SOL     OW13513   3.748   5.332   4.462
 4205SOL    HW113514   3.804   5.295   4.388
 4205SOL    HW213515   3.679   5.264   4.489
 4206SOL     OW13516   5.713   0.668   5.495
 4206SOL    HW113517   5.671   0.620   5.419
 4206SOL    HW213518   5.718   0.766   5.474
 4207SOL     OW13519   2.570   1.433   1.775
 4207SOL    HW113520   2.593   1.488   1.695
 4207SOL    HW213521   2.615   1.344   1.769
 4208SOL     OW13522   1.579   2.795   5.981
 4208SOL    HW113523   1.572   2.732   6.058
 4208SOL    HW213524   1.668   2.841   5.984
 4209SOL     OW13525   1.095   1.111   4.834
 4209SOL    HW113526   1.106   1.056   4.917
 4209SOL    HW213527   1.005   1.155   4.835
 4210SOL     OW13528   2.939   3.598   1.960
 4210SOL    HW113529   2.867   3.639   1.906
 4210SOL    HW213530   2.906   3.513   2.001
 4211SOL     OW13531   4.108   5.662   5.263
 4211SOL    HW113532   4.134   5.689   5.356
 4211SOL    HW213533   4.141   5.730   5.198
 4212SOL     OW13534   5.803   1.975   2.474
 4212SOL    HW113535   5.757   1.891   2.500
 4212SOL    HW213536   5.740   2.034   2.423
 4213SOL     OW13537   2.405   1.092   2.754
 4213SOL    HW113538   2.386   1.025   2.825
 4213SOL    HW213539   2.497   1.129   2.766
 4214SOL     OW13540   0.578   4.204   5.805
 4214SOL    HW113541   0.556   4.300   5.824
 4214SOL    HW213542   0.618   4.196   5.714
 4215SOL     OW13543   6.433   5.566   4.539
 4215SOL    HW113544   6.409   5.513   4.458
 4215SOL    HW213545   6.528   5.548   4.564
 4216SOL     OW13546   1.946   1.694   2.552
 4216SOL    HW113547   1.956   1.684   2.453
 4216SOL    HW213548   2.034   1.677   2.596
 4217SOL     OW13549   6.135   6.906   2.374
 4217SOL    HW113550   6.111   6.810   2.385
 4217SOL    HW213551   6.176   6.920   2.284
 4218SOL     OW13552   4.709   6.855   1.228
 4218SOL    HW113553   4.805   6.873   1.205
 4218SOL    HW213554   4.651   6.923   1.184
 4219SOL     OW13555   2.750   5.600   5.111
 4219SOL    HW113556   2.769   5.508   5.146
 4219SOL    HW213557   2.654   5.607   5.088
 4220SOL     OW13558   6.242   2.705   3.111
 4220SOL    HW113559   6.269   2.796   3.079
 4220SOL    HW213560   6.317   2.666   3.166
 4221SOL     OW13561   5.960   5.651   6.443
 4221SOL    HW113562   6.010   5.564   6.438
 4221SOL    HW213563   5.889   5.653   6.373
 4222SOL     OW13564   6.233   2.332   2.365
 4222SOL    HW113565   6.310   2.279   2.400
 4222SOL    HW213566   6.197   2.289   2.282
 4223SOL     OW13567   2.932   3.658   4.264
 4223SOL    HW113568   2.983   3.702   4.191
 4223SOL    HW213569   2.838   3.641   4.234
 4224SOL     OW13570   4.962   2.831   3.396
 4224SOL    HW113571   4.868   2.823   3.428
 4224SOL    HW213572   4.983   2.753   3.336
 4225SOL     OW13573   4.904   0.215   5.600
 4225SOL    HW113574   4.973   0.279   5.566
 4225SOL    HW213575   4.823   0.218   5.541
 4226SOL     OW13576   1.073   0.759   3.156
 4226SOL    HW113577   1.150   0.704   3.188
 4226SOL    HW213578   0.988   0.722   3.196
 4227SOL     OW13579   3.389   4.684   6.955
 4227SOL    HW113580   3.295   4.712   6.977
 4227SOL    HW213581   3.416   4.723   6.868
 4228SOL     OW13582   6.811   4.449   2.943
 4228SOL    HW113583   6.897   4.499   2.938
 4228SOL    HW213584   6.738   4.511   2.973
 4229SOL     OW13585   4.459   4.851   5.869
 4229SOL    HW113586   4.399   4.899   5.933
 4229SOL    HW213587   4.523   4.793   5.919
 4230SOL     OW13588   2.224   0.774   4.667
 4230SOL    HW113589   2.182   0.829   4.739
 4230SOL    HW213590   2.158   0.705   4.635
 4231SOL     OW13591   5.273   6.584   4.704
 4231SOL    HW113592   5.274   6.510   4.771
 4231SOL    HW213593   5.283   6.672   4.751
 4232SOL     OW13594   0.378   4.611   1.987
 4232SOL    HW113595   0.376   4.537   2.054
 4232SOL    HW213596   0.470   4.619   1.950
 4233SOL     OW13597   6.807   0.139   6.959
 4233SOL    HW113598   6.737   0.068   6.951
 4233SOL    HW213599   6.780   0.204   0.014
 4234SOL     OW13600   1.189   0.529   5.737
 4234SOL    HW113601   1.133   0.508   5.817
 4234SOL    HW213602   1.130   0.549   5.659
 4235SOL     OW13603   6.464   3.736   5.115
 4235SOL    HW113604   6.393   3.666   5.126
 4235SOL    HW213605   6.529   3.731   5.191
 4236SOL     OW13606   0.310   3.409   3.006
 4236SOL    HW113607   0.242   3.435   2.937
 4236SOL    HW213608   0.272   3.339   3.066
 4237SOL     OW13609   6.125   4.602   3.962
 4237SOL    HW113610   6.112   4.665   3.885
 4237SOL    HW213611   6.136   4.654   4.046
 4238SOL     OW13612   4.214   5.101   4.198
 4238SOL    HW113613   4.215   5.062   4.290
 4238SOL    HW213614   4.293   5.066   4.146
 4239SOL     OW13615   5.688   0.671   4.057
 4239SOL    HW113616   5.633   0.612   3.999
 4239SOL    HW213617   5.631   0.711   4.129
 4240SOL     OW13618   2.049   6.612   6.586
 4240SOL    HW113619   2.143   6.585   6.564
 4240SOL    HW213620   1.997   6.532   6.614
 4241SOL     OW13621   5.058   0.669   0.659
 4241SOL    HW113622   5.004   0.753   0.667
 4241SOL    HW213623   5.019   0.598   0.717
 4242SOL     OW13624   1.971   0.177   3.151
 4242SOL    HW113625   1.946   0.082   3.168
 4242SOL    HW213626   1.893   0.236   3.169
 4243SOL     OW13627   0.945   3.877   3.352
 4243SOL    HW113628   0.936   3.831   3.440
 4243SOL    HW213629   0.907   3.820   3.280
 4244SOL     OW13630   4.324   5.388   1.019
 4244SOL    HW113631   4.278   5.392   0.930
 4244SOL    HW213632   4.391   5.314   1.019
 4245SOL     OW13633   0.085   1.759   6.769
 4245SOL    HW113634   0.022   1.758   6.692
 4245SOL    HW213635   0.138   1.844   6.767
 4246SOL     OW13636   5.935   2.971   3.468
 4246SOL    HW113637   5.851   3.022   3.449
 4246SOL    HW213638   5.915   2.873   3.471
 4247SOL     OW13639   2.371   5.323   4.834
 4247SOL    HW113640   2.470   5.334   4.819
 4247SOL    HW213641   2.334   5.263   4.763
 4248SOL     OW13642   1.358   0.855   2.940
 4248SOL    HW113643   1.313   0.934   2.981
 4248SOL    HW213644   1.334   0.849   2.843
 4249SOL     OW13645   6.452   1.192   3.166
 4249SOL    HW113646   6.370   1.135   3.174
 4249SOL    HW213647   6.464   1.244   3.251
 4250SOL     OW13648   0.256   6.028   3.821
 4250SOL    HW113649   0.272   6.046   3.918
 4250SOL    HW213650   0.164   5.991   3.809
 4251SOL     OW13651   6.251   3.035   6.989
 4251SOL    HW113652   6.321   3.004   0.037
 4251SOL    HW213653   6.265   2.988   6.901
 4252SOL     OW13654   5.598   5.984   6.334
 4252SOL    HW113655   5.643   5.960   6.420
 4252SOL    HW213656   5.554   6.073   6.343
 4253SOL     OW13657   4.051   5.944   2.386
 4253SOL    HW113658   4.064   5.867   2.324
 4253SOL    HW213659   4.007   6.020   2.337
 4254SOL     OW13660   2.060   4.666   2.032
 4254SOL    HW113661   2.019   4.668   1.941
 4254SOL    HW213662   2.047   4.755   2.076
 4255SOL     OW13663   0.416   3.880   4.162
 4255SOL    HW113664   0.449   3.800   4.212
 4255SOL    HW213665   0.491   3.944   4.149
 4256SOL     OW13666   1.292   5.911   1.923
 4256SOL    HW113667   1.270   5.940   1.830
 4256SOL    HW213668   1.238   5.829   1.946
 4257SOL     OW13669   5.756   1.004   4.447
 4257SOL    HW113670   5.753   1.098   4.482
 4257SOL    HW213671   5.676   0.954   4.480
 4258SOL     OW13672   3.332   6.074   1.455
 4258SOL    HW113673   3.317   6.138   1.379
 4258SOL    HW213674   3.424   6.037   1.450
 4259SOL     OW13675   1.870   6.385   1.123
 4259SOL    HW113676   1.959   6.339   1.115
 4259SOL    HW213677   1.842   6.418   1.033
 4260SOL     OW13678   5.498   6.804   4.112
 4260SOL    HW113679   5.520   6.761   4.024
 4260SOL    HW213680   5.558   6.769   4.183
 4261SOL     OW13681   1.436   0.230   2.836
 4261SOL    HW113682   1.527   0.240   2.875
 4261SOL    HW213683   1.380   0.309   2.861
 4262SOL     OW13684   1.345   4.323   5.863
 4262SOL    HW113685   1.365   4.413   5.823
 4262SOL    HW213686   1.387   4.318   5.954
 4263SOL     OW13687   2.679   1.368   3.373
 4263SOL    HW113688   2.684   1.452   3.427
 4263SOL    HW213689   2.701   1.388   3.278
 4264SOL     OW13690   5.774   1.666   3.980
 4264SOL    HW113691   5.847   1.650   4.045
 4264SOL    HW213692   5.699   1.601   3.997
 4265SOL     OW13693   3.527   0.740   0.626
 4265SOL    HW113694   3.591   0.694   0.688
 4265SOL    HW213695   3.489   0.820   0.671
 4266SOL     OW13696   0.984   0.031   0.203
 4266SOL    HW113697   0.900   6.996   0.184
 4266SOL    HW213698   0.968   0.128   0.185
 4267SOL     OW13699   1.782   3.695   3.822
 4267SOL    HW113700   1.858   3.718   3.883
 4267SOL    HW213701   1.709   3.761   3.835
 4268SOL     OW13702   2.083   5.390   6.954
 4268SOL    HW113703   1.996   5.355   6.920
 4268SOL    HW213704   2.154   5.376   6.884
 4269SOL     OW13705   2.797   1.245   3.594
 4269SOL    HW113706   2.760   1.248   3.501
 4269SOL    HW213707   2.884   1.294   3.597
 4270SOL     OW13708   3.216   2.914   1.921
 4270SOL    HW113709   3.305   2.954   1.901
 4270SOL    HW213710   3.219   2.815   1.909
 4271SOL     OW13711   6.866   0.858   0.204
 4271SOL    HW113712   6.876   0.786   0.272
 4271SOL    HW213713   6.783   0.842   0.150
 4272SOL     OW13714   6.754   3.122   5.093
 4272SOL    HW113715   6.816   3.066   5.148
 4272SOL    HW213716   6.699   3.063   5.035
 4273SOL     OW13717   5.032   6.203   5.081
 4273SOL    HW113718   4.945   6.244   5.055
 4273SOL    HW213719   5.063   6.242   5.168
 4274SOL     OW13720   0.955   0.470   2.180
 4274SOL    HW113721   0.886   0.398   2.182
 4274SOL    HW213722   1.001   0.475   2.268
 4275SOL     OW13723   0.582   2.027   3.958
 4275SOL    HW113724   0.644   1.991   4.028
 4275SOL    HW213725   0.632   2.091   3.900
 4276SOL     OW13726   2.775   5.289   3.532
 4276SOL    HW113727   2.836   5.224   3.576
 4276SOL    HW213728   2.827   5.346   3.469
 4277SOL     OW13729   0.010   4.279   2.867
 4277SOL    HW113730   6.939   4.327   2.872
 4277SOL    HW213731   0.027   4.251   2.773
 4278SOL     OW13732   0.736   6.848   3.418
 4278SOL    HW113733   0.752   6.907   3.338
 4278SOL    HW213734   0.677   6.896   3.483
 4279SOL     OW13735   1.308   1.167   2.349
 4279SOL    HW113736   1.332   1.159   2.252
 4279SOL    HW213737   1.330   1.259   2.381
 4280SOL     OW13738   6.154   6.806   5.978
 4280SOL    HW113739   6.070   6.819   5.924
 4280SOL    HW213740   6.189   6.894   6.007
 4281SOL     OW13741   5.211   4.819   3.653
 4281SOL    HW113742   5.275   4.742   3.649
 4281SOL    HW213743   5.133   4.794   3.711
 4282SOL     OW13744   3.004   4.826   0.979
 4282SOL    HW113745   3.095   4.839   0.941
 4282SOL    HW213746   2.988   4.894   1.051
 4283SOL     OW13747   4.629   1.239   3.519
 4283SOL    HW113748   4.678   1.301   3.458
 4283SOL    HW213749   4.621   1.281   3.610
 4284SOL     OW13750   4.625   5.793   0.120
 4284SOL    HW113751   4.713   5.837   0.099
 4284SOL    HW213752   4.601   5.812   0.215
 4285SOL     OW13753   2.756   0.929   5.916
 4285SOL    HW113754   2.739   1.024   5.888
 4285SOL    HW213755   2.846   0.901   5.883
 4286SOL     OW13756   5.884   0.104   6.393
 4286SOL    HW113757   5.889   0.155   6.307
 4286SOL    HW213758   5.916   0.010   6.378
 4287SOL     OW13759   4.840   1.364   6.250
 4287SOL    HW113760   4.750   1.324   6.240
 4287SOL    HW213761   4.876   1.390   6.161
 4288SOL     OW13762   0.480   6.074   3.015
 4288SOL    HW113763   0.530   6.066   2.929
 4288SOL    HW213764   0.541   6.054   3.091
 4289SOL     OW13765   1.494   2.610   6.183
 4289SOL    HW113766   1.446   2.523   6.171
 4289SOL    HW213767   1.570   2.597   6.246
 4290SOL     OW13768   0.568   6.766   4.741
 4290SOL    HW113769   0.560   6.866   4.737
 4290SOL    HW213770   0.600   6.739   4.832
 4291SOL     OW13771   4.954   3.455   6.371
 4291SOL    HW113772   5.002   3.382   6.324
 4291SOL    HW213773   4.998   3.543   6.351
 4292SOL     OW13774   6.259   3.401   6.786
 4292SOL    HW113775   6.209   3.472   6.836
 4292SOL    HW213776   6.198   3.324   6.768
 4293SOL     OW13777   3.733   4.193   6.452
 4293SOL    HW113778   3.714   4.095   6.456
 4293SOL    HW213779   3.822   4.212   6.492
 4294SOL     OW13780   2.066   1.529   6.071
 4294SOL    HW113781   2.103   1.464   6.138
 4294SOL    HW213782   2.104   1.508   5.980
 4295SOL     OW13783   4.594   6.700   2.775
 4295SOL    HW113784   4.515   6.667   2.826
 4295SOL    HW213785   4.613   6.638   2.699
 4296SOL     OW13786   3.401   6.980   0.547
 4296SOL    HW113787   3.400   0.064   0.543
 4296SOL    HW213788   3.465   6.945   0.479
 4297SOL     OW13789   6.614   6.546   2.671
 4297SOL    HW113790   6.658   6.456   2.670
 4297SOL    HW213791   6.632   6.591   2.758
 4298SOL     OW13792   3.524   6.490   2.125
 4298SOL    HW113793   3.483   6.439   2.200
 4298SOL    HW213794   3.453   6.528   2.067
 4299SOL     OW13795   1.276   3.156   0.440
 4299SOL    HW113796   1.269   3.059   0.463
 4299SOL    HW213797   1.293   3.209   0.524
 4300SOL     OW13798   2.783   6.910   0.435
 4300SOL    HW113799   2.703   6.851   0.444
 4300SOL    HW213800   2.826   6.922   0.524
 4301SOL     OW13801   3.776   0.337   1.402
 4301SOL    HW113802   3.813   0.408   1.461
 4301SOL    HW213803   3.838   0.258   1.401
 4302SOL     OW13804   6.327   0.540   0.075
 4302SOL    HW113805   6.235   0.507   0.051
 4302SOL    HW213806   6.395   0.472   0.049
 4303SOL     OW13807   0.061   4.889   3.444
 4303SOL    HW113808   6.999   4.847   3.490
 4303SOL    HW213809   0.104   4.822   3.384
 4304SOL     OW13810   3.825   3.965   1.910
 4304SOL    HW113811   3.756   3.913   1.861
 4304SOL    HW213812   3.798   3.977   2.006
 4305SOL     OW13813   0.595   6.800   5.743
 4305SOL    HW113814   0.694   6.797   5.727
 4305SOL    HW213815   0.570   6.891   5.776
 4306SOL     OW13816   5.038   4.687   4.574
 4306SOL    HW113817   5.019   4.603   4.625
 4306SOL    HW213818   4.985   4.687   4.489
 4307SOL     OW13819   5.428   3.330   5.272
 4307SOL    HW113820   5.388   3.371   5.354
 4307SOL    HW213821   5.383   3.242   5.254
 4308SOL     OW13822   5.465   5.177   1.477
 4308SOL    HW113823   5.484   5.089   1.435
 4308SOL    HW213824   5.367   5.197   1.470
 4309SOL     OW13825   1.528   2.967   0.723
 4309SOL    HW113826   1.523   3.066   0.710
 4309SOL    HW213827   1.578   2.947   0.807
 4310SOL     OW13828   1.288   2.840   2.133
 4310SOL    HW113829   1.216   2.902   2.101
 4310SOL    HW213830   1.311   2.775   2.060
 4311SOL     OW13831   1.031   6.551   1.870
 4311SOL    HW113832   1.045   6.498   1.786
 4311SOL    HW213833   1.033   6.489   1.948
 4312SOL     OW13834   1.298   5.534   3.138
 4312SOL    HW113835   1.254   5.622   3.124
 4312SOL    HW213836   1.323   5.524   3.234
 4313SOL     OW13837   3.412   2.350   0.156
 4313SOL    HW113838   3.329   2.402   0.135
 4313SOL    HW213839   3.447   2.309   0.071
 4314SOL     OW13840   5.856   2.184   4.838
 4314SOL    HW113841   5.888   2.141   4.923
 4314SOL    HW213842   5.853   2.116   4.765
 4315SOL     OW13843   1.759   1.129   3.335
 4315SOL    HW113844   1.790   1.120   3.429
 4315SOL    HW213845   1.800   1.210   3.293
 4316SOL     OW13846   5.416   0.039   2.850
 4316SOL    HW113847   5.322   0.059   2.879
 4316SOL    HW213848   5.415   0.014   2.753
 4317SOL     OW13849   4.741   0.997   5.646
 4317SOL    HW113850   4.781   0.936   5.578
 4317SOL    HW213851   4.789   1.084   5.645
 4318SOL     OW13852   0.778   0.978   4.335
 4318SOL    HW113853   0.745   0.884   4.323
 4318SOL    HW213854   0.820   1.009   4.250
 4319SOL     OW13855   2.155   1.886   1.276
 4319SOL    HW113856   2.142   1.979   1.312
 4319SOL    HW213857   2.232   1.844   1.323
 4320SOL     OW13858   3.924   5.832   1.197
 4320SOL    HW113859   3.932   5.925   1.233
 4320SOL    HW213860   3.830   5.816   1.166
 4321SOL     OW13861   0.146   5.182   3.240
 4321SOL    HW113862   0.135   5.103   3.300
 4321SOL    HW213863   0.149   5.152   3.145
 4322SOL     OW13864   6.661   3.322   5.879
 4322SOL    HW113865   6.598   3.387   5.921
 4322SOL    HW213866   6.737   3.371   5.838
 4323SOL     OW13867   4.364   5.052   6.961
 4323SOL    HW113868   4.463   5.051   6.977
 4323SOL    HW213869   4.317   5.065   0.032
 4324SOL     OW13870   6.863   4.082   5.287
 4324SOL    HW113871   6.813   4.052   5.205
 4324SOL    HW213872   6.813   4.055   5.369
 4325SOL     OW13873   2.713   1.722   2.250
 4325SOL    HW113874   2.734   1.813   2.216
 4325SOL    HW213875   2.690   1.662   2.173
 4326SOL     OW13876   6.069   3.505   1.997
 4326SOL    HW113877   6.041   3.428   2.054
 4326SOL    HW213878   5.992   3.567   1.983
 4327SOL     OW13879   4.196   5.798   3.233
 4327SOL    HW113880   4.224   5.827   3.142
 4327SOL    HW213881   4.240   5.711   3.256
 4328SOL     OW13882   6.062   4.374   4.782
 4328SOL    HW113883   6.035   4.451   4.840
 4328SOL    HW213884   6.157   4.386   4.753
 4329SOL     OW13885   6.232   3.412   5.386
 4329SOL    HW113886   6.147   3.419   5.439
 4329SOL    HW213887   6.297   3.354   5.434
 4330SOL     OW13888   2.051   6.587   4.374
 4330SOL    HW113889   2.097   6.507   4.337
 4330SOL    HW213890   2.086   6.607   4.465
 4331SOL     OW13891   0.207   0.484   1.118
 4331SOL    HW113892   0.218   0.385   1.126
 4331SOL    HW213893   0.281   0.522   1.064
 4332SOL     OW13894   6.604   3.393   3.053
 4332SOL    HW113895   6.505   3.383   3.062
 4332SOL    HW213896   6.641   3.442   3.132
 4333SOL     OW13897   4.404   1.908   4.681
 4333SOL    HW113898   4.484   1.872   4.729
 4333SOL    HW213899   4.424   1.915   4.583
 4334SOL     OW13900   1.323   2.683   2.496
 4334SOL    HW113901   1.324   2.741   2.414
 4334SOL    HW213902   1.415   2.680   2.535
 4335SOL     OW13903   3.700   3.073   1.524
 4335SOL    HW113904   3.789   3.083   1.569
 4335SOL    HW213905   3.629   3.117   1.579
 4336SOL     OW13906   2.070   4.622   5.416
 4336SOL    HW113907   2.021   4.698   5.460
 4336SOL    HW213908   2.156   4.606   5.465
 4337SOL     OW13909   1.478   5.447   1.439
 4337SOL    HW113910   1.556   5.498   1.475
 4337SOL    HW213911   1.411   5.433   1.511
 4338SOL     OW13912   5.797   0.560   6.288
 4338SOL    HW113913   5.758   0.545   6.378
 4338SOL    HW213914   5.733   0.612   6.231
 4339SOL     OW13915   3.272   2.612   6.441
 4339SOL    HW113916   3.280   2.702   6.483
 4339SOL    HW213917   3.244   2.622   6.345
 4340SOL     OW13918   5.665   3.189   1.010
 4340SOL    HW113919   5.571   3.221   1.016
 4340SOL    HW213920   5.666   3.089   1.005
 4341SOL     OW13921   1.352   5.230   1.841
 4341SOL    HW113922   1.294   5.302   1.880
 4341SOL    HW213923   1.405   5.187   1.914
 4342SOL     OW13924   5.385   3.892   2.874
 4342SOL    HW113925   5.334   3.868   2.792
 4342SOL    HW213926   5.477   3.920   2.849
 4343SOL     OW13927   3.033   6.258   5.637
 4343SOL    HW113928   3.065   6.163   5.634
 4343SOL    HW213929   3.112   6.319   5.645
 4344SOL     OW13930   0.906   3.160   3.370
 4344SOL    HW113931   0.924   3.114   3.284
 4344SOL    HW213932   0.833   3.112   3.419
 4345SOL     OW13933   2.914   3.587   3.520
 4345SOL    HW113934   3.009   3.558   3.520
 4345SOL    HW213935   2.870   3.559   3.605
 4346SOL     OW13936   2.265   2.814   2.243
 4346SOL    HW113937   2.331   2.741   2.255
 4346SOL    HW213938   2.256   2.837   2.146
 4347SOL     OW13939   6.390   5.915   2.343
 4347SOL    HW113940   6.481   5.879   2.365
 4347SOL    HW213941   6.365   5.885   2.251
 4348SOL     OW13942   0.630   5.788   4.584
 4348SOL    HW113943   0.618   5.885   4.563
 4348SOL    HW213944   0.714   5.774   4.636
 4349SOL     OW13945   6.960   3.342   3.852
 4349SOL    HW113946   6.861   3.349   3.838
 4349SOL    HW213947   6.984   3.376   3.943
 4350SOL     OW13948   5.297   2.176   4.809
 4350SOL    HW113949   5.324   2.147   4.900
 4350SOL    HW213950   5.295   2.097   4.748
 4351SOL     OW13951   1.254   6.274   1.311
 4351SOL    HW113952   1.315   6.238   1.382
 4351SOL    HW213953   1.304   6.284   1.225
 4352SOL     OW13954   6.187   3.822   2.060
 4352SOL    HW113955   6.107   3.857   2.108
 4352SOL    HW213956   6.234   3.754   2.117
 4353SOL     OW13957   3.055   4.182   0.213
 4353SOL    HW113958   2.998   4.101   0.203
 4353SOL    HW213959   3.004   4.262   0.180
 4354SOL     OW13960   0.768   1.568   6.049
 4354SOL    HW113961   0.716   1.580   5.965
 4354SOL    HW213962   0.706   1.574   6.128
 4355SOL     OW13963   1.503   6.889   2.991
 4355SOL    HW113964   1.472   6.837   3.071
 4355SOL    HW213965   1.431   6.888   2.921
 4356SOL     OW13966   4.368   3.481   5.317
 4356SOL    HW113967   4.337   3.576   5.324
 4356SOL    HW213968   4.467   3.478   5.322
 4357SOL     OW13969   0.055   1.450   1.063
 4357SOL    HW113970   0.029   1.483   1.154
 4357SOL    HW213971   0.148   1.413   1.067
 4358SOL     OW13972   6.892   6.974   0.349
 4358SOL    HW113973   6.936   0.048   0.348
 4358SOL    HW213974   6.957   6.906   0.315
 4359SOL     OW13975   1.417   0.782   6.497
 4359SOL    HW113976   1.376   0.870   6.517
 4359SOL    HW213977   1.460   0.784   6.406
 4360SOL     OW13978   0.647   2.563   4.017
 4360SOL    HW113979   0.567   2.598   4.066
 4360SOL    HW213980   0.707   2.639   3.993
 4361SOL     OW13981   2.208   3.262   1.361
 4361SOL    HW113982   2.250   3.198   1.425
 4361SOL    HW213983   2.268   3.341   1.348
 4362SOL     OW13984   0.326   6.101   4.082
 4362SOL    HW113985   0.286   6.052   4.159
 4362SOL    HW213986   0.420   6.127   4.104
 4363SOL     OW13987   4.535   1.241   1.626
 4363SOL    HW113988   4.568   1.324   1.670
 4363SOL    HW213989   4.451   1.210   1.672
 4364SOL     OW13990   3.140   3.829   2.820
 4364SOL    HW113991   3.199   3.758   2.856
 4364SOL    HW213992   3.126   3.900   2.889
 4365SOL     OW13993   3.213   1.382   1.771
 4365SOL    HW113994   3.270   1.326   1.711
 4365SOL    HW213995   3.266   1.409   1.851
 4366SOL     OW13996   6.156   6.288   6.551
 4366SOL    HW113997   6.246   6.324   6.576
 4366SOL    HW213998   6.153   6.190   6.570
 4367SOL     OW13999   3.098   5.260   3.260
 4367SOL    HW114000   3.001   5.242   3.275
 4367SOL    HW214001   3.151   5.176   3.278
 4368SOL     OW14002   4.012   5.497   2.767
 4368SOL    HW114003   4.001   5.487   2.668
 4368SOL    HW214004   4.093   5.447   2.797
 4369SOL     OW14005   5.083   5.827   3.481
 4369SOL    HW114006   5.036   5.791   3.401
 4369SOL    HW214007   5.016   5.848   3.552
 4370SOL     OW14008   3.500   4.064   1.569
 4370SOL    HW114009   3.437   4.116   1.627
 4370SOL    HW214010   3.490   3.967   1.588
 4371SOL     OW14011   2.177   1.333   2.577
 4371SOL    HW114012   2.086   1.324   2.534
 4371SOL    HW214013   2.247   1.339   2.506
 4372SOL     OW14014   2.158   3.378   4.033
 4372SOL    HW114015   2.127   3.393   4.127
 4372SOL    HW214016   2.165   3.280   4.015
 4373SOL     OW14017   4.301   1.153   6.127
 4373SOL    HW114018   4.278   1.154   6.224
 4373SOL    HW214019   4.275   1.065   6.087
 4374SOL     OW14020   1.884   1.766   1.369
 4374SOL    HW114021   1.984   1.765   1.367
 4374SOL    HW214022   1.853   1.825   1.443
 4375SOL     OW14023   3.781   6.465   2.731
 4375SOL    HW114024   3.684   6.443   2.740
 4375SOL    HW214025   3.802   6.484   2.635
 4376SOL     OW14026   6.521   7.002   1.809
 4376SOL    HW114027   6.515   0.073   1.857
 4376SOL    HW214028   6.559   7.015   1.718
 4377SOL     OW14029   6.433   5.160   0.435
 4377SOL    HW114030   6.492   5.088   0.398
 4377SOL    HW214031   6.382   5.203   0.361
 4378SOL     OW14032   1.092   4.534   2.560
 4378SOL    HW114033   1.097   4.557   2.658
 4378SOL    HW214034   1.002   4.560   2.525
 4379SOL     OW14035   2.402   0.846   2.043
 4379SOL    HW114036   2.410   0.847   1.944
 4379SOL    HW214037   2.305   0.848   2.069
 4380SOL     OW14038   2.163   5.821   5.071
 4380SOL    HW114039   2.179   5.723   5.085
 4380SOL    HW214040   2.067   5.835   5.046
 4381SOL     OW14041   2.176   4.448   4.627
 4381SOL    HW114042   2.241   4.496   4.685
 4381SOL    HW214043   2.148   4.363   4.671
 4382SOL     OW14044   6.221   4.189   5.738
 4382SOL    HW114045   6.154   4.123   5.703
 4382SOL    HW214046   6.219   4.189   5.838
 4383SOL     OW14047   0.339   1.705   5.280
 4383SOL    HW114048   0.379   1.613   5.276
 4383SOL    HW214049   0.386   1.758   5.351
 4384SOL     OW14050   5.124   1.213   0.050
 4384SOL    HW114051   5.146   1.142   0.117
 4384SOL    HW214052   5.207   1.263   0.026
 4385SOL     OW14053   0.235   2.681   4.096
 4385SOL    HW114054   0.242   2.632   4.183
 4385SOL    HW214055   0.193   2.620   4.028
 4386SOL     OW14056   1.276   3.311   6.340
 4386SOL    HW114057   1.218   3.230   6.344
 4386SOL    HW214058   1.361   3.290   6.291
 4387SOL     OW14059   0.520   2.222   2.133
 4387SOL    HW114060   0.494   2.293   2.068
 4387SOL    HW214061   0.500   2.252   2.226
 4388SOL     OW14062   4.389   1.437   6.473
 4388SOL    HW114063   4.303   1.436   6.422
 4388SOL    HW214064   4.435   1.349   6.462
 4389SOL     OW14065   5.650   2.629   0.413
 4389SOL    HW114066   5.606   2.586   0.334
 4389SOL    HW214067   5.581   2.677   0.467
 4390SOL     OW14068   4.067   2.167   2.097
 4390SOL    HW114069   4.033   2.255   2.065
 4390SOL    HW214070   4.158   2.178   2.136
 4391SOL     OW14071   1.622   5.939   6.113
 4391SOL    HW114072   1.720   5.936   6.132
 4391SOL    HW214073   1.607   5.955   6.016
 4392SOL     OW14074   6.128   4.315   5.187
 4392SOL    HW114075   6.128   4.232   5.243
 4392SOL    HW214076   6.203   4.310   5.121
 4393SOL     OW14077   4.968   6.367   2.640
 4393SOL    HW114078   5.048   6.372   2.700
 4393SOL    HW214079   4.901   6.435   2.669
 4394SOL     OW14080   6.480   5.345   3.385
 4394SOL    HW114081   6.503   5.428   3.335
 4394SOL    HW214082   6.554   5.279   3.377
 4395SOL     OW14083   3.952   2.124   1.495
 4395SOL    HW114084   3.858   2.157   1.503
 4395SOL    HW214085   3.998   2.172   1.421
 4396SOL     OW14086   2.524   1.788   3.701
 4396SOL    HW114087   2.566   1.872   3.666
 4396SOL    HW214088   2.591   1.737   3.755
 4397SOL     OW14089   0.201   1.547   4.137
 4397SOL    HW114090   0.223   1.636   4.175
 4397SOL    HW214091   0.160   1.558   4.046
 4398SOL     OW14092   1.164   4.330   5.077
 4398SOL    HW114093   1.071   4.365   5.090
 4398SOL    HW214094   1.175   4.300   4.982
 4399SOL     OW14095   2.293   0.789   1.375
 4399SOL    HW114096   2.344   0.703   1.367
 4399SOL    HW214097   2.357   0.863   1.397
 4400SOL     OW14098   2.035   6.892   4.764
 4400SOL    HW114099   2.026   6.939   4.676
 4400SOL    HW214100   1.956   6.914   4.821
 4401SOL     OW14101   5.423   5.910   6.155
 4401SOL    HW114102   5.495   5.914   6.225
 4401SOL    HW214103   5.346   5.968   6.181
 4402SOL     OW14104   1.921   6.185   2.887
 4402SOL    HW114105   1.905   6.217   2.793
 4402SOL    HW214106   1.841   6.133   2.918
 4403SOL     OW14107   0.133   6.823   3.528
 4403SOL    HW114108   0.158   6.872   3.611
 4403SOL    HW214109   0.036   6.837   3.509
 4404SOL     OW14110   1.201   3.824   5.352
 4404SOL    HW114111   1.276   3.872   5.396
 4404SOL    HW214112   1.117   3.838   5.405
 4405SOL     OW14113   3.176   4.563   0.274
 4405SOL    HW114114   3.238   4.485   0.260
 4405SOL    HW214115   3.157   4.606   0.186
 4406SOL     OW14116   5.483   4.700   1.248
 4406SOL    HW114117   5.529   4.703   1.160
 4406SOL    HW214118   5.384   4.713   1.236
 4407SOL     OW14119   0.145   5.022   0.928
 4407SOL    HW114120   0.154   5.054   1.023
 4407SOL    HW214121   0.211   5.070   0.871
 4408SOL     OW14122   4.972   0.942   0.461
 4408SOL    HW114123   4.885   0.922   0.416
 4408SOL    HW214124   4.963   0.928   0.559
 4409SOL     OW14125   3.847   0.718   1.738
 4409SOL    HW114126   3.879   0.644   1.679
 4409SOL    HW214127   3.923   0.776   1.764
 4410SOL     OW14128   2.122   4.598   0.001
 4410SOL    HW114129   2.151   4.589   0.097
 4410SOL    HW214130   2.149   4.515   6.968
 4411SOL     OW14131   4.163   3.470   3.311
 4411SOL    HW114132   4.140   3.412   3.389
 4411SOL    HW214133   4.163   3.565   3.339
 4412SOL     OW14134   3.375   1.800   4.276
 4412SOL    HW114135   3.417   1.782   4.365
 4412SOL    HW214136   3.391   1.896   4.252
 4413SOL     OW14137   4.970   5.738   4.990
 4413SOL    HW114138   5.024   5.783   5.062
 4413SOL    HW214139   4.973   5.793   4.907
 4414SOL     OW14140   4.343   5.179   2.028
 4414SOL    HW114141   4.321   5.119   1.951
 4414SOL    HW214142   4.270   5.175   2.096
 4415SOL     OW14143   4.160   3.362   6.743
 4415SOL    HW114144   4.179   3.436   6.807
 4415SOL    HW214145   4.075   3.382   6.695
 4416SOL     OW14146   2.542   1.001   4.213
 4416SOL    HW114147   2.578   1.002   4.306
 4416SOL    HW214148   2.507   0.909   4.192
 4417SOL     OW14149   6.731   4.277   2.629
 4417SOL    HW114150   6.742   4.365   2.674
 4417SOL    HW214151   6.651   4.230   2.666
 4418SOL     OW14152   4.984   0.033   4.242
 4418SOL    HW114153   5.004   6.971   4.301
 4418SOL    HW214154   5.066   0.060   4.192
 4419SOL     OW14155   5.627   5.655   0.723
 4419SOL    HW114156   5.656   5.654   0.627
 4419SOL    HW214157   5.643   5.746   0.761
 4420SOL     OW14158   5.013   2.039   0.621
 4420SOL    HW114159   5.032   2.137   0.618
 4420SOL    HW214160   5.012   2.009   0.716
 4421SOL     OW14161   2.072   0.813   3.336
 4421SOL    HW114162   2.068   0.715   3.351
 4421SOL    HW214163   2.137   0.854   3.400
 4422SOL     OW14164   2.481   3.803   5.564
 4422SOL    HW114165   2.481   3.879   5.629
 4422SOL    HW214166   2.575   3.771   5.550
 4423SOL     OW14167   1.230   2.814   5.667
 4423SOL    HW114168   1.305   2.762   5.709
 4423SOL    HW214169   1.226   2.905   5.707
 4424SOL     OW14170   5.801   6.577   3.506
 4424SOL    HW114171   5.871   6.542   3.568
 4424SOL    HW214172   5.712   6.542   3.533
 4425SOL     OW14173   3.728   5.774   6.095
 4425SOL    HW114174   3.654   5.739   6.152
 4425SOL    HW214175   3.760   5.701   6.033
 4426SOL     OW14176   6.564   1.788   4.391
 4426SOL    HW114177   6.511   1.727   4.450
 4426SOL    HW214178   6.638   1.829   4.444
 4427SOL     OW14179   7.000   6.730   2.774
 4427SOL    HW114180   0.059   6.797   2.775
 4427SOL    HW214181   6.920   6.771   2.731
 4428SOL     OW14182   2.926   5.540   3.129
 4428SOL    HW114183   3.012   5.558   3.081
 4428SOL    HW214184   2.852   5.530   3.063
 4429SOL     OW14185   2.847   0.499   4.029
 4429SOL    HW114186   2.859   0.554   4.112
 4429SOL    HW214187   2.768   0.534   3.978
 4430SOL     OW14188   5.090   3.038   3.760
 4430SOL    HW114189   5.142   3.023   3.844
 4430SOL    HW214190   5.058   2.950   3.724
 4431SOL     OW14191   1.640   1.476   2.023
 4431SOL    HW114192   1.637   1.547   1.953
 4431SOL    HW214193   1.556   1.480   2.077
 4432SOL     OW14194   3.501   3.960   3.382
 4432SOL    HW114195   3.554   4.035   3.342
 4432SOL    HW214196   3.459   3.992   3.467
 4433SOL     OW14197   6.204   0.583   4.640
 4433SOL    HW114198   6.267   0.564   4.715
 4433SOL    HW214199   6.166   0.675   4.651
 4434SOL     OW14200   5.019   1.710   3.664
 4434SOL    HW114201   5.093   1.748   3.719
 4434SOL    HW214202   4.931   1.727   3.709
 4435SOL     OW14203   4.167   3.773   1.032
 4435SOL    HW114204   4.074   3.736   1.031
 4435SOL    HW214205   4.230   3.706   0.992
 4436SOL     OW14206   3.091   2.341   0.578
 4436SOL    HW114207   3.189   2.337   0.597
 4436SOL    HW214208   3.040   2.306   0.657
 4437SOL     OW14209   5.329   1.921   3.491
 4437SOL    HW114210   5.231   1.938   3.484
 4437SOL    HW214211   5.344   1.838   3.546
 4438SOL     OW14212   4.049   1.692   6.484
 4438SOL    HW114213   3.970   1.647   6.526
 4438SOL    HW214214   4.094   1.750   6.551
 4439SOL     OW14215   0.258   5.389   1.487
 4439SOL    HW114216   0.248   5.421   1.393
 4439SOL    HW214217   0.243   5.291   1.491
 4440SOL     OW14218   1.777   4.868   6.886
 4440SOL    HW114219   1.759   4.900   6.793
 4440SOL    HW214220   1.792   4.769   6.886
 4441SOL     OW14221   6.660   1.482   1.915
 4441SOL    HW114222   6.576   1.437   1.885
 4441SOL    HW214223   6.639   1.575   1.946
 4442SOL     OW14224   3.251   6.259   3.962
 4442SOL    HW114225   3.219   6.168   3.987
 4442SOL    HW214226   3.344   6.273   3.997
 4443SOL     OW14227   0.559   3.073   0.240
 4443SOL    HW114228   0.517   3.109   0.157
 4443SOL    HW214229   0.565   2.974   0.234
 4444SOL     OW14230   3.793   5.752   6.596
 4444SOL    HW114231   3.795   5.779   6.693
 4444SOL    HW214232   3.707   5.782   6.555
 4445SOL     OW14233   6.921   0.461   0.538
 4445SOL    HW114234   6.841   0.447   0.596
 4445SOL    HW214235   7.004   0.459   0.595
 4446SOL     OW14236   5.339   1.381   1.652
 4446SOL    HW114237   5.338   1.304   1.716
 4446SOL    HW214238   5.434   1.407   1.634
 4447SOL     OW14239   5.382   3.875   6.017
 4447SOL    HW114240   5.465   3.860   6.071
 4447SOL    HW214241   5.335   3.788   6.004
 4448SOL     OW14242   3.052   3.806   0.967
 4448SOL    HW114243   3.146   3.835   0.947
 4448SOL    HW214244   2.990   3.882   0.949
 4449SOL     OW14245   4.562   0.422   6.012
 4449SOL    HW114246   4.529   0.506   6.055
 4449SOL    HW214247   4.501   0.346   6.036
 4450SOL     OW14248   4.038   3.195   4.311
 4450SOL    HW114249   4.010   3.188   4.407
 4450SOL    HW214250   4.053   3.291   4.288
 4451SOL     OW14251   6.035   4.097   2.829
 4451SOL    HW114252   5.967   4.050   2.886
 4451SOL    HW214253   6.051   4.189   2.866
 4452SOL     OW14254   5.581   6.484   5.051
 4452SOL    HW114255   5.483   6.490   5.070
 4452SOL    HW214256   5.610   6.388   5.060
 4453SOL     OW14257   6.691   2.522   0.462
 4453SOL    HW114258   6.618   2.546   0.526
 4453SOL    HW214259   6.709   2.424   0.467
 4454SOL     OW14260   4.901   2.628   0.228
 4454SOL    HW114261   4.819   2.577   0.204
 4454SOL    HW214262   4.982   2.574   0.206
 4455SOL     OW14263   3.203   0.241   6.571
 4455SOL    HW114264   3.183   0.335   6.547
 4455SOL    HW214265   3.276   0.239   6.640
 4456SOL     OW14266   2.380   5.191   2.367
 4456SOL    HW114267   2.453   5.227   2.308
 4456SOL    HW214268   2.419   5.164   2.455
 4457SOL     OW14269   4.256   2.231   0.203
 4457SOL    HW114270   4.305   2.233   0.290
 4457SOL    HW214271   4.209   2.318   0.189
 4458SOL     OW14272   1.436   4.093   6.783
 4458SOL    HW114273   1.384   4.046   6.854
 4458SOL    HW214274   1.518   4.040   6.761
 4459SOL     OW14275   5.555   0.294   3.577
 4459SOL    HW114276   5.535   0.346   3.494
 4459SOL    HW214277   5.645   0.252   3.570
 4460SOL     OW14278   2.835   2.795   5.761
 4460SOL    HW114279   2.907   2.844   5.712
 4460SOL    HW214280   2.750   2.799   5.709
 4461SOL     OW14281   1.035   0.855   2.495
 4461SOL    HW114282   1.080   0.907   2.422
 4461SOL    HW214283   0.986   0.777   2.456
 4462SOL     OW14284   0.167   3.586   1.242
 4462SOL    HW114285   0.245   3.557   1.188
 4462SOL    HW214286   0.134   3.675   1.209
 4463SOL     OW14287   2.654   2.574   6.682
 4463SOL    HW114288   2.563   2.604   6.657
 4463SOL    HW214289   2.647   2.496   6.744
 4464SOL     OW14290   6.109   5.112   6.834
 4464SOL    HW114291   6.074   5.175   6.903
 4464SOL    HW214292   6.066   5.132   6.745
 4465SOL     OW14293   2.416   6.079   3.333
 4465SOL    HW114294   2.364   6.021   3.271
 4465SOL    HW214295   2.445   6.025   3.413
 4466SOL     OW14296   1.504   0.299   2.315
 4466SOL    HW114297   1.438   0.264   2.248
 4466SOL    HW214298   1.546   0.383   2.280
 4467SOL     OW14299   1.099   6.240   3.614
 4467SOL    HW114300   1.136   6.321   3.660
 4467SOL    HW214301   1.023   6.203   3.668
 4468SOL     OW14302   1.058   2.122   0.045
 4468SOL    HW114303   1.010   2.198   0.000
 4468SOL    HW214304   1.135   2.092   7.006
 4469SOL     OW14305   3.454   0.526   1.095
 4469SOL    HW114306   3.359   0.517   1.065
 4469SOL    HW214307   3.487   0.618   1.074
 4470SOL     OW14308   6.135   3.759   1.496
 4470SOL    HW114309   6.099   3.666   1.497
 4470SOL    HW214310   6.063   3.823   1.523
 4471SOL     OW14311   0.570   2.305   0.446
 4471SOL    HW114312   0.653   2.275   0.493
 4471SOL    HW214313   0.513   2.358   0.509
 4472SOL     OW14314   1.886   3.190   4.105
 4472SOL    HW114315   1.884   3.157   4.011
 4472SOL    HW214316   1.979   3.182   4.142
 4473SOL     OW14317   6.772   1.865   3.850
 4473SOL    HW114318   6.767   1.953   3.896
 4473SOL    HW214319   6.859   1.857   3.802
 4474SOL     OW14320   2.967   1.232   1.746
 4474SOL    HW114321   3.055   1.265   1.781
 4474SOL    HW214322   2.981   1.193   1.655
 4475SOL     OW14323   1.778   4.071   2.306
 4475SOL    HW114324   1.776   4.078   2.206
 4475SOL    HW214325   1.689   4.098   2.343
 4476SOL     OW14326   5.253   6.442   3.903
 4476SOL    HW114327   5.202   6.364   3.867
 4476SOL    HW214328   5.197   6.525   3.897
 4477SOL     OW14329   1.914   0.115   5.754
 4477SOL    HW114330   1.988   0.062   5.713
 4477SOL    HW214331   1.901   0.087   5.849
 4478SOL     OW14332   2.616   5.849   2.459
 4478SOL    HW114333   2.710   5.836   2.426
 4478SOL    HW214334   2.553   5.802   2.398
 4479SOL     OW14335   0.704   0.686   0.797
 4479SOL    HW114336   0.633   0.751   0.824
 4479SOL    HW214337   0.732   0.632   0.877
 4480SOL     OW14338   2.065   3.750   4.810
 4480SOL    HW114339   2.064   3.782   4.905
 4480SOL    HW214340   1.971   3.736   4.779
 4481SOL     OW14341   2.623   6.834   5.151
 4481SOL    HW114342   2.615   6.788   5.062
 4481SOL    HW214343   2.716   6.823   5.186
 4482SOL     OW14344   0.613   4.051   4.125
 4482SOL    HW114345   0.593   4.148   4.142
 4482SOL    HW214346   0.636   4.039   4.029
 4483SOL     OW14347   5.997   3.442   1.318
 4483SOL    HW114348   5.941   3.363   1.292
 4483SOL    HW214349   6.093   3.414   1.327
 4484SOL     OW14350   3.080   2.105   5.389
 4484SOL    HW114351   3.115   2.194   5.417
 4484SOL    HW214352   3.036   2.113   5.300
 4485SOL     OW14353   5.099   2.244   5.872
 4485SOL    HW114354   5.146   2.314   5.818
 4485SOL    HW214355   5.081   2.280   5.964
 4486SOL     OW14356   5.730   3.801   4.289
 4486SOL    HW114357   5.680   3.884   4.312
 4486SOL    HW214358   5.677   3.721   4.319
 4487SOL     OW14359   2.319   3.295   6.595
 4487SOL    HW114360   2.392   3.363   6.596
 4487SOL    HW214361   2.251   3.320   6.526
 4488SOL     OW14362   5.908   2.726   5.247
 4488SOL    HW114363   5.857   2.783   5.311
 4488SOL    HW214364   5.940   2.781   5.170
 4489SOL     OW14365   4.966   6.273   4.372
 4489SOL    HW114366   5.036   6.296   4.440
 4489SOL    HW214367   4.977   6.334   4.293
 4490SOL     OW14368   5.796   2.215   2.048
 4490SOL    HW114369   5.746   2.301   2.040
 4490SOL    HW214370   5.875   2.217   1.987
 4491SOL     OW14371   0.768   2.915   3.683
 4491SOL    HW114372   0.860   2.901   3.647
 4491SOL    HW214373   0.726   2.826   3.703
 4492SOL     OW14374   5.408   3.770   1.085
 4492SOL    HW114375   5.496   3.722   1.090
 4492SOL    HW214376   5.384   3.805   1.176
 4493SOL     OW14377   4.741   5.477   5.676
 4493SOL    HW114378   4.648   5.507   5.652
 4493SOL    HW214379   4.786   5.440   5.595
 4494SOL     OW14380   0.173   1.742   6.326
 4494SOL    HW114381   0.206   1.733   6.420
 4494SOL    HW214382   0.242   1.788   6.270
 4495SOL     OW14383   4.951   6.471   3.706
 4495SOL    HW114384   4.944   6.497   3.803
 4495SOL    HW214385   4.893   6.531   3.651
 4496SOL     OW14386   4.777   5.842   0.785
 4496SOL    HW114387   4.772   5.766   0.721
 4496SOL    HW214388   4.685   5.878   0.801
 4497SOL     OW14389   4.476   0.323   0.337
 4497SOL    HW114390   4.402   0.271   0.294
 4497SOL    HW214391   4.530   0.369   0.267
 4498SOL     OW14392   0.416   3.194   6.140
 4498SOL    HW114393   0.435   3.186   6.237
 4498SOL    HW214394   0.364   3.115   6.109
 4499SOL     OW14395   7.005   3.737   4.102
 4499SOL    HW114396   6.955   3.776   4.025
 4499SOL    HW214397   6.942   3.687   4.161
 4500SOL     OW14398   2.895   3.439   4.093
 4500SOL    HW114399   2.942   3.354   4.073
 4500SOL    HW214400   2.939   3.484   4.171
 4501SOL     OW14401   0.275   3.399   6.016
 4501SOL    HW114402   0.330   3.319   6.040
 4501SOL    HW214403   0.317   3.448   5.940
 4502SOL     OW14404   1.901   2.105   6.923
 4502SOL    HW114405   1.875   2.192   6.881
 4502SOL    HW214406   1.999   2.090   6.912
 4503SOL     OW14407   2.826   0.457   2.759
 4503SOL    HW114408   2.856   0.544   2.719
 4503SOL    HW214409   2.891   0.385   2.732
 4504SOL     OW14410   6.114   1.871   5.007
 4504SOL    HW114411   6.188   1.819   4.966
 4504SOL    HW214412   6.029   1.818   5.003
 4505SOL     OW14413   6.671   5.933   3.773
 4505SOL    HW114414   6.627   5.855   3.727
 4505SOL    HW214415   6.626   5.949   3.861
 4506SOL     OW14416   4.806   2.271   4.618
 4506SOL    HW114417   4.873   2.337   4.585
 4506SOL    HW214418   4.778   2.295   4.711
 4507SOL     OW14419   4.895   4.310   1.875
 4507SOL    HW114420   4.859   4.255   1.951
 4507SOL    HW214421   4.992   4.326   1.888
 4508SOL     OW14422   0.821   4.946   5.950
 4508SOL    HW114423   0.803   4.848   5.960
 4508SOL    HW214424   0.759   4.985   5.883
 4509SOL     OW14425   5.323   2.829   3.861
 4509SOL    HW114426   5.345   2.733   3.881
 4509SOL    HW214427   5.377   2.860   3.783
 4510SOL     OW14428   5.603   6.497   5.605
 4510SOL    HW114429   5.669   6.434   5.645
 4510SOL    HW214430   5.636   6.527   5.515
 4511SOL     OW14431   6.953   3.542   6.491
 4511SOL    HW114432   0.034   3.551   6.511
 4511SOL    HW214433   6.940   3.525   6.393
 4512SOL     OW14434   2.211   6.459   5.932
 4512SOL    HW114435   2.115   6.475   5.953
 4512SOL    HW214436   2.262   6.544   5.946
 4513SOL     OW14437   5.093   6.246   0.473
 4513SOL    HW114438   5.029   6.283   0.405
 4513SOL    HW214439   5.159   6.316   0.499
 4514SOL     OW14440   4.602   1.123   4.940
 4514SOL    HW114441   4.702   1.122   4.941
 4514SOL    HW214442   4.569   1.194   5.002
 4515SOL     OW14443   6.719   4.057   5.566
 4515SOL    HW114444   6.746   3.961   5.567
 4515SOL    HW214445   6.619   4.063   5.564
 4516SOL     OW14446   1.432   1.173   6.327
 4516SOL    HW114447   1.500   1.100   6.336
 4516SOL    HW214448   1.470   1.258   6.363
 4517SOL     OW14449   2.454   0.331   6.880
 4517SOL    HW114450   2.369   0.281   6.867
 4517SOL    HW214451   2.487   0.318   6.973
 4518SOL     OW14452   6.510   1.263   3.421
 4518SOL    HW114453   6.430   1.279   3.479
 4518SOL    HW214454   6.593   1.291   3.470
 4519SOL     OW14455   5.809   0.536   1.441
 4519SOL    HW114456   5.711   0.520   1.437
 4519SOL    HW214457   5.854   0.489   1.365
 4520SOL     OW14458   5.409   5.550   3.294
 4520SOL    HW114459   5.453   5.534   3.382
 4520SOL    HW214460   5.324   5.499   3.289
 4521SOL     OW14461   4.944   2.065   4.467
 4521SOL    HW114462   4.908   2.135   4.528
 4521SOL    HW214463   4.998   1.999   4.519
 4522SOL     OW14464   5.513   6.918   3.482
 4522SOL    HW114465   5.561   6.908   3.569
 4522SOL    HW214466   5.578   6.936   3.409
 4523SOL     OW14467   1.021   4.170   6.971
 4523SOL    HW114468   1.006   4.077   6.938
 4523SOL    HW214469   1.090   4.215   6.914
 4524SOL     OW14470   5.305   2.503   5.252
 4524SOL    HW114471   5.345   2.462   5.333
 4524SOL    HW214472   5.368   2.493   5.175
 4525SOL     OW14473   6.138   1.308   3.323
 4525SOL    HW114474   6.186   1.370   3.261
 4525SOL    HW214475   6.131   1.218   3.282
 4526SOL     OW14476   4.879   0.910   0.738
 4526SOL    HW114477   4.784   0.915   0.707
 4526SOL    HW214478   4.885   0.941   0.833
 4527SOL     OW14479   4.163   1.334   3.818
 4527SOL    HW114480   4.188   1.287   3.902
 4527SOL    HW214481   4.065   1.328   3.803
 4528SOL     OW14482   4.688   6.684   6.908
 4528SOL    HW114483   4.740   6.645   6.985
 4528SOL    HW214484   4.651   6.609   6.853
 4529SOL     OW14485   3.585   1.261   3.930
 4529SOL    HW114486   3.555   1.166   3.915
 4529SOL    HW214487   3.606   1.274   4.027
 4530SOL     OW14488   0.254   3.159   5.602
 4530SOL    HW114489   0.193   3.083   5.579
 4530SOL    HW214490   0.225   3.241   5.552
 4531SOL     OW14491   0.237   3.431   3.407
 4531SOL    HW114492   0.266   3.380   3.326
 4531SOL    HW214493   0.317   3.472   3.450
 4532SOL     OW14494   0.317   0.914   2.128
 4532SOL    HW114495   0.254   0.940   2.055
 4532SOL    HW214496   0.411   0.916   2.094
 4533SOL     OW14497   1.175   0.398   2.866
 4533SOL    HW114498   1.131   0.487   2.873
 4533SOL    HW214499   1.174   0.368   2.770
 4534SOL     OW14500   6.209   3.658   4.097
 4534SOL    HW114501   6.304   3.665   4.065
 4534SOL    HW214502   6.189   3.564   4.123
 4535SOL     OW14503   4.551   2.049   2.853
 4535SOL    HW114504   4.457   2.015   2.842
 4535SOL    HW214505   4.585   2.024   2.944
 4536SOL     OW14506   4.469   2.392   4.362
 4536SOL    HW114507   4.410   2.356   4.290
 4536SOL    HW214508   4.537   2.324   4.388
 4537SOL     OW14509   3.676   3.259   6.070
 4537SOL    HW114510   3.700   3.234   5.976
 4537SOL    HW214511   3.603   3.199   6.102
 4538SOL     OW14512   2.650   1.164   4.006
 4538SOL    HW114513   2.619   1.092   4.069
 4538SOL    HW214514   2.722   1.218   4.051
 4539SOL     OW14515   2.420   1.386   4.423
 4539SOL    HW114516   2.494   1.324   4.447
 4539SOL    HW214517   2.333   1.338   4.428
 4540SOL     OW14518   3.477   2.922   4.249
 4540SOL    HW114519   3.562   2.929   4.302
 4540SOL    HW214520   3.417   2.854   4.290
 4541SOL     OW14521   5.731   1.433   6.963
 4541SOL    HW114522   5.791   1.353   6.966
 4541SOL    HW214523   5.680   1.433   6.876
 4542SOL     OW14524   6.005   6.730   1.869
 4542SOL    HW114525   5.928   6.794   1.866
 4542SOL    HW214526   5.971   6.637   1.882
 4543SOL     OW14527   4.887   2.211   0.302
 4543SOL    HW114528   4.969   2.212   0.360
 4543SOL    HW214529   4.912   2.240   0.209
 4544SOL     OW14530   2.666   6.602   5.628
 4544SOL    HW114531   2.623   6.617   5.540
 4544SOL    HW214532   2.733   6.528   5.621
 4545SOL     OW14533   5.521   2.362   4.816
 4545SOL    HW114534   5.485   2.333   4.728
 4545SOL    HW214535   5.482   2.305   4.888
 4546SOL     OW14536   1.232   1.013   6.421
 4546SOL    HW114537   1.172   0.988   6.344
 4546SOL    HW214538   1.306   1.072   6.388
 4547SOL     OW14539   6.572   2.750   2.936
 4547SOL    HW114540   6.511   2.811   2.985
 4547SOL    HW214541   6.584   2.666   2.988
 4548SOL     OW14542   1.386   4.628   4.879
 4548SOL    HW114543   1.450   4.701   4.855
 4548SOL    HW214544   1.429   4.566   4.945
 4549SOL     OW14545   6.431   3.661   2.422
 4549SOL    HW114546   6.455   3.687   2.329
 4549SOL    HW214547   6.393   3.740   2.470
 4550SOL     OW14548   0.780   5.869   2.784
 4550SOL    HW114549   0.809   5.822   2.701
 4550SOL    HW214550   0.682   5.890   2.778
 4551SOL     OW14551   6.968   2.310   5.056
 4551SOL    HW114552   0.038   2.304   5.106
 4551SOL    HW214553   6.936   2.219   5.033
 4552SOL     OW14554   6.787   2.682   6.371
 4552SOL    HW114555   6.805   2.746   6.297
 4552SOL    HW214556   6.803   2.589   6.340
 4553SOL     OW14557   3.933   4.364   0.578
 4553SOL    HW114558   3.839   4.397   0.574
 4553SOL    HW214559   3.962   4.355   0.673
 4554SOL     OW14560   3.766   1.053   1.443
 4554SOL    HW114561   3.773   1.128   1.377
 4554SOL    HW214562   3.836   1.064   1.513
 4555SOL     OW14563   3.264   1.724   5.609
 4555SOL    HW114564   3.356   1.736   5.648
 4555SOL    HW214565   3.198   1.776   5.663
 4556SOL     OW14566   4.672   2.298   3.345
 4556SOL    HW114567   4.733   2.272   3.270
 4556SOL    HW214568   4.596   2.232   3.349
 4557SOL     OW14569   5.279   6.799   5.492
 4557SOL    HW114570   5.308   6.894   5.505
 4557SOL    HW214571   5.184   6.797   5.463
 4558SOL     OW14572   6.606   3.820   5.757
 4558SOL    HW114573   6.551   3.874   5.693
 4558SOL    HW214574   6.657   3.751   5.707
 4559SOL     OW14575   1.228   4.732   0.942
 4559SOL    HW114576   1.289   4.806   0.971
 4559SOL    HW214577   1.136   4.750   0.978
 4560SOL     OW14578   5.396   4.669   3.384
 4560SOL    HW114579   5.443   4.737   3.441
 4560SOL    HW214580   5.454   4.647   3.306
 4561SOL     OW14581   3.060   0.834   0.991
 4561SOL    HW114582   3.092   0.773   0.919
 4561SOL    HW214583   3.135   0.854   1.054
 4562SOL     OW14584   2.980   5.599   4.969
 4562SOL    HW114585   3.036   5.527   5.009
 4562SOL    HW214586   2.889   5.598   5.010
 4563SOL     OW14587   6.747   3.714   0.290
 4563SOL    HW114588   6.791   3.727   0.201
 4563SOL    HW214589   6.817   3.698   0.360
 4564SOL     OW14590   0.695   6.288   0.980
 4564SOL    HW114591   0.777   6.342   0.999
 4564SOL    HW214592   0.693   6.207   1.038
 4565SOL     OW14593   0.064   1.531   5.252
 4565SOL    HW114594   7.012   1.487   5.194
 4565SOL    HW214595   0.150   1.538   5.202
 4566SOL     OW14596   6.447   0.931   0.845
 4566SOL    HW114597   6.528   0.989   0.845
 4566SOL    HW214598   6.385   0.959   0.919
 4567SOL     OW14599   0.891   1.006   6.947
 4567SOL    HW114600   0.987   1.035   6.944
 4567SOL    HW214601   0.861   1.002   0.025
 4568SOL     OW14602   1.226   4.482   5.439
 4568SOL    HW114603   1.230   4.443   5.531
 4568SOL    HW214604   1.303   4.448   5.385
 4569SOL     OW14605   2.025   1.418   3.035
 4569SOL    HW114606   2.058   1.474   2.959
 4569SOL    HW214607   2.080   1.335   3.042
 4570SOL     OW14608   0.492   4.797   3.231
 4570SOL    HW114609   0.546   4.714   3.247
 4570SOL    HW214610   0.553   4.876   3.230
 4571SOL     OW14611   3.784   3.406   5.596
 4571SOL    HW114612   3.803   3.315   5.559
 4571SOL    HW214613   3.696   3.439   5.561
 4572SOL     OW14614   0.925   6.181   6.059
 4572SOL    HW114615   0.845   6.164   6.001
 4572SOL    HW214616   0.899   6.245   6.132
 4573SOL     OW14617   6.261   5.877   0.395
 4573SOL    HW114618   6.307   5.838   0.475
 4573SOL    HW214619   6.163   5.858   0.400
 4574SOL     OW14620   6.618   4.126   1.083
 4574SOL    HW114621   6.587   4.129   1.178
 4574SOL    HW214622   6.645   4.217   1.053
 4575SOL     OW14623   6.720   1.788   6.809
 4575SOL    HW114624   6.773   1.859   6.761
 4575SOL    HW214625   6.638   1.766   6.755
 4576SOL     OW14626   2.508   6.048   6.495
 4576SOL    HW114627   2.478   6.011   6.583
 4576SOL    HW214628   2.432   6.094   6.450
 4577SOL     OW14629   0.330   3.022   3.365
 4577SOL    HW114630   0.398   2.952   3.347
 4577SOL    HW214631   0.326   3.042   3.463
 4578SOL     OW14632   0.199   3.587   4.001
 4578SOL    HW114633   0.233   3.534   4.079
 4578SOL    HW214634   0.128   3.650   4.032
 4579SOL     OW14635   5.185   1.426   3.014
 4579SOL    HW114636   5.248   1.348   3.015
 4579SOL    HW214637   5.177   1.461   2.921
 4580SOL     OW14638   5.435   5.511   0.013
 4580SOL    HW114639   5.432   5.416   0.044
 4580SOL    HW214640   5.356   5.529   6.970
 4581SOL     OW14641   2.919   5.470   3.396
 4581SOL    HW114642   3.001   5.456   3.452
 4581SOL    HW214643   2.946   5.484   3.301
 4582SOL     OW14644   6.016   6.592   4.806
 4582SOL    HW114645   5.923   6.615   4.777
 4582SOL    HW214646   6.055   6.668   4.858
 4583SOL     OW14647   2.770   1.180   4.805
 4583SOL    HW114648   2.718   1.100   4.837
 4583SOL    HW214649   2.839   1.150   4.739
 4584SOL     OW14650   0.430   5.391   5.321
 4584SOL    HW114651   0.419   5.294   5.298
 4584SOL    HW214652   0.360   5.445   5.275
 4585SOL     OW14653   2.554   6.509   3.149
 4585SOL    HW114654   2.565   6.410   3.136
 4585SOL    HW214655   2.479   6.541   3.090
 4586SOL     OW14656   3.653   5.298   0.633
 4586SOL    HW114657   3.700   5.269   0.550
 4586SOL    HW214658   3.573   5.240   0.648
 4587SOL     OW14659   4.464   3.208   1.689
 4587SOL    HW114660   4.526   3.160   1.750
 4587SOL    HW214661   4.404   3.267   1.743
 4588SOL     OW14662   3.769   4.109   5.200
 4588SOL    HW114663   3.725   4.196   5.222
 4588SOL    HW214664   3.757   4.045   5.277
 4589SOL     OW14665   6.116   1.509   1.957
 4589SOL    HW114666   6.020   1.529   1.935
 4589SOL    HW214667   6.160   1.465   1.879
 4590SOL     OW14668   4.234   6.242   2.424
 4590SOL    HW114669   4.242   6.171   2.354
 4590SOL    HW214670   4.140   6.278   2.424
 4591SOL     OW14671   0.273   5.924   5.024
 4591SOL    HW114672   0.340   5.893   4.957
 4591SOL    HW214673   0.316   5.925   5.115
 4592SOL     OW14674   3.873   2.685   1.636
 4592SOL    HW114675   3.935   2.607   1.640
 4592SOL    HW214676   3.921   2.767   1.669
 4593SOL     OW14677   4.043   5.948   4.147
 4593SOL    HW114678   3.944   5.953   4.137
 4593SOL    HW214679   4.066   5.900   4.232
 4594SOL     OW14680   3.567   2.153   1.130
 4594SOL    HW114681   3.508   2.075   1.153
 4594SOL    HW214682   3.544   2.230   1.188
 4595SOL     OW14683   3.476   2.971   5.625
 4595SOL    HW114684   3.525   3.019   5.551
 4595SOL    HW214685   3.539   2.910   5.671
 4596SOL     OW14686   6.374   6.555   2.016
 4596SOL    HW114687   6.317   6.475   1.996
 4596SOL    HW214688   6.390   6.560   2.114
 4597SOL     OW14689   4.860   4.531   0.237
 4597SOL    HW114690   4.865   4.595   0.313
 4597SOL    HW214691   4.772   4.542   0.190
 4598SOL     OW14692   1.658   5.522   6.854
 4598SOL    HW114693   1.722   5.485   6.787
 4598SOL    HW214694   1.565   5.488   6.834
 4599SOL     OW14695   1.916   4.501   0.846
 4599SOL    HW114696   1.913   4.433   0.919
 4599SOL    HW214697   1.984   4.474   0.778
 4600SOL     OW14698   2.109   6.098   5.899
 4600SOL    HW114699   2.191   6.042   5.889
 4600SOL    HW214700   2.092   6.116   5.996
 4601SOL     OW14701   1.454   0.604   5.426
 4601SOL    HW114702   1.438   0.658   5.343
 4601SOL    HW214703   1.427   0.658   5.506
 4602SOL     OW14704   0.948   5.981   0.378
 4602SOL    HW114705   1.033   6.005   0.331
 4602SOL    HW214706   0.939   6.035   0.462
 4603SOL     OW14707   3.785   6.510   1.032
 4603SOL    HW114708   3.767   6.413   1.043
 4603SOL    HW214709   3.875   6.532   1.069
 4604SOL     OW14710   4.874   0.828   1.646
 4604SOL    HW114711   4.924   0.910   1.674
 4604SOL    HW214712   4.777   0.838   1.666
 4605SOL     OW14713   4.980   0.960   3.139
 4605SOL    HW114714   4.902   0.909   3.176
 4605SOL    HW214715   5.003   0.926   3.048
 4606SOL     OW14716   0.349   0.140   1.715
 4606SOL    HW114717   0.288   0.088   1.776
 4606SOL    HW214718   0.443   0.112   1.730
 4607SOL     OW14719   2.716   3.223   0.372
 4607SOL    HW114720   2.781   3.226   0.449
 4607SOL    HW214721   2.720   3.133   0.329
 4608SOL     OW14722   1.660   5.435   3.812
 4608SOL    HW114723   1.639   5.436   3.910
 4608SOL    HW214724   1.606   5.506   3.766
 4609SOL     OW14725   3.825   5.610   5.869
 4609SOL    HW114726   3.830   5.578   5.775
 4609SOL    HW214727   3.900   5.674   5.886
 4610SOL     OW14728   6.486   2.547   0.667
 4610SOL    HW114729   6.532   2.565   0.754
 4610SOL    HW214730   6.437   2.629   0.638
 4611SOL     OW14731   5.886   5.505   6.038
 4611SOL    HW114732   5.973   5.550   6.057
 4611SOL    HW214733   5.896   5.447   5.957
 4612SOL     OW14734   1.151   6.417   0.834
 4612SOL    HW114735   1.169   6.360   0.753
 4612SOL    HW214736   1.183   6.510   0.817
 4613SOL     OW14737   2.719   5.440   2.482
 4613SOL    HW114738   2.800   5.448   2.540
 4613SOL    HW214739   2.642   5.485   2.526
 4614SOL     OW14740   0.965   3.927   5.449
 4614SOL    HW114741   0.980   3.951   5.545
 4614SOL    HW214742   0.924   4.005   5.401
 4615SOL     OW14743   1.868   0.521   0.069
 4615SOL    HW114744   1.775   0.539   0.099
 4615SOL    HW214745   1.875   0.427   0.035
 4616SOL     OW14746   5.871   0.282   6.178
 4616SOL    HW114747   5.863   0.378   6.204
 4616SOL    HW214748   5.956   0.267   6.128
 4617SOL     OW14749   1.191   2.441   2.473
 4617SOL    HW114750   1.123   2.463   2.403
 4617SOL    HW214751   1.255   2.517   2.481
 4618SOL     OW14752   1.756   2.537   5.549
 4618SOL    HW114753   1.762   2.441   5.521
 4618SOL    HW214754   1.726   2.592   5.472
 4619SOL     OW14755   4.107   6.528   3.309
 4619SOL    HW114756   4.123   6.498   3.403
 4619SOL    HW214757   4.009   6.521   3.288
 4620SOL     OW14758   3.095   4.359   6.888
 4620SOL    HW114759   3.116   4.262   6.878
 4620SOL    HW214760   3.026   4.370   6.960
 4621SOL     OW14761   5.541   1.720   3.369
 4621SOL    HW114762   5.510   1.812   3.348
 4621SOL    HW214763   5.461   1.660   3.381
 4622SOL     OW14764   0.963   3.194   0.831
 4622SOL    HW114765   1.040   3.250   0.862
 4622SOL    HW214766   0.939   3.220   0.737
 4623SOL     OW14767   0.117   5.757   0.979
 4623SOL    HW114768   0.147   5.662   0.986
 4623SOL    HW214769   0.176   5.806   0.915
 4624SOL     OW14770   5.228   6.710   3.025
 4624SOL    HW114771   5.161   6.668   3.086
 4624SOL    HW214772   5.297   6.758   3.080
 4625SOL     OW14773   2.063   4.737   6.754
 4625SOL    HW114774   2.057   4.657   6.695
 4625SOL    HW214775   2.093   4.711   6.845
 4626SOL     OW14776   6.006   5.425   1.596
 4626SOL    HW114777   6.012   5.504   1.534
 4626SOL    HW214778   6.098   5.402   1.629
 4627SOL     OW14779   3.725   6.035   4.116
 4627SOL    HW114780   3.662   5.987   4.177
 4627SOL    HW214781   3.727   5.989   4.027
 4628SOL     OW14782   6.034   4.258   3.449
 4628SOL    HW114783   6.033   4.358   3.456
 4628SOL    HW214784   6.127   4.226   3.432
 4629SOL     OW14785   1.840   4.877   5.693
 4629SOL    HW114786   1.911   4.921   5.637
 4629SOL    HW214787   1.768   4.842   5.634
 4630SOL     OW14788   3.737   5.558   3.289
 4630SOL    HW114789   3.670   5.533   3.218
 4630SOL    HW214790   3.809   5.614   3.248
 4631SOL     OW14791   2.295   6.606   3.671
 4631SOL    HW114792   2.339   6.530   3.623
 4631SOL    HW214793   2.306   6.690   3.617
 4632SOL     OW14794   4.646   4.519   3.588
 4632SOL    HW114795   4.673   4.430   3.625
 4632SOL    HW214796   4.566   4.553   3.637
 4633SOL     OW14797   5.925   2.002   3.478
 4633SOL    HW114798   5.843   1.987   3.533
 4633SOL    HW214799   6.006   1.980   3.533
 4634SOL     OW14800   2.362   4.472   6.278
 4634SOL    HW114801   2.359   4.411   6.358
 4634SOL    HW214802   2.451   4.518   6.274
 4635SOL     OW14803   5.956   3.111   2.125
 4635SOL    HW114804   5.889   3.059   2.072
 4635SOL    HW214805   5.971   3.066   2.213
 4636SOL     OW14806   2.261   5.195   0.093
 4636SOL    HW114807   2.185   5.242   0.050
 4636SOL    HW214808   2.344   5.249   0.083
 4637SOL     OW14809   2.233   0.872   0.367
 4637SOL    HW114810   2.170   0.903   0.438
 4637SOL    HW214811   2.232   0.937   0.291
 4638SOL     OW14812   3.388   3.504   6.286
 4638SOL    HW114813   3.327   3.425   6.293
 4638SOL    HW214814   3.436   3.517   6.373
 4639SOL     OW14815   1.896   4.785   5.048
 4639SOL    HW114816   1.980   4.737   5.077
 4639SOL    HW214817   1.850   4.731   4.978
 4640SOL     OW14818   5.165   5.435   3.251
 4640SOL    HW114819   5.188   5.349   3.296
 4640SOL    HW214820   5.093   5.482   3.303
 4641SOL     OW14821   2.839   6.130   4.109
 4641SOL    HW114822   2.814   6.193   4.035
 4641SOL    HW214823   2.935   6.104   4.100
 4642SOL     OW14824   0.903   6.768   5.707
 4642SOL    HW114825   0.926   6.731   5.797
 4642SOL    HW214826   0.889   6.693   5.643
 4643SOL     OW14827   5.604   2.398   1.178
 4643SOL    HW114828   5.670   2.424   1.248
 4643SOL    HW214829   5.648   2.404   1.088
 4644SOL     OW14830   1.541   5.082   4.694
 4644SOL    HW114831   1.515   5.162   4.639
 4644SOL    HW214832   1.554   5.110   4.789
 4645SOL     OW14833   1.496   0.123   4.396
 4645SOL    HW114834   1.474   0.049   4.459
 4645SOL    HW214835   1.592   0.150   4.409
 4646SOL     OW14836   2.535   6.231   3.119
 4646SOL    HW114837   2.477   6.190   3.190
 4646SOL    HW214838   2.545   6.166   3.044
 4647SOL     OW14839   0.867   6.361   3.252
 4647SOL    HW114840   0.778   6.363   3.207
 4647SOL    HW214841   0.854   6.355   3.351
 4648SOL     OW14842   4.487   0.685   1.189
 4648SOL    HW114843   4.440   0.614   1.137
 4648SOL    HW214844   4.496   0.655   1.284
 4649SOL     OW14845   5.044   6.801   6.490
 4649SOL    HW114846   5.073   6.790   6.394
 4649SOL    HW214847   4.988   6.724   6.517
 4650SOL     OW14848   4.156   6.039   3.908
 4650SOL    HW114849   4.126   6.013   3.999
 4650SOL    HW214850   4.195   5.959   3.862
 4651SOL     OW14851   6.987   1.559   0.828
 4651SOL    HW114852   0.014   1.524   0.911
 4651SOL    HW214853   6.980   1.658   0.832
 4652SOL     OW14854   0.496   0.739   4.149
 4652SOL    HW114855   0.439   0.716   4.228
 4652SOL    HW214856   0.526   0.655   4.105
 4653SOL     OW14857   6.326   5.404   6.624
 4653SOL    HW114858   6.362   5.496   6.613
 4653SOL    HW214859   6.241   5.394   6.572
 4654SOL     OW14860   0.269   0.140   0.038
 4654SOL    HW114861   0.341   0.152   0.107
 4654SOL    HW214862   0.306   0.090   6.976
 4655SOL     OW14863   6.757   5.470   1.974
 4655SOL    HW114864   6.736   5.458   1.877
 4655SOL    HW214865   6.760   5.381   2.019
 4656SOL     OW14866   1.191   6.887   3.715
 4656SOL    HW114867   1.157   6.805   3.761
 4656SOL    HW214868   1.192   6.963   3.780
 4657SOL     OW14869   4.638   6.738   1.637
 4657SOL    HW114870   4.600   6.718   1.727
 4657SOL    HW214871   4.679   6.829   1.637
 4658SOL     OW14872   3.730   1.322   2.037
 4658SOL    HW114873   3.729   1.273   2.124
 4658SOL    HW214874   3.726   1.421   2.054
 4659SOL     OW14875   2.428   3.782   5.897
 4659SOL    HW114876   2.388   3.870   5.871
 4659SOL    HW214877   2.514   3.798   5.946
 4660SOL     OW14878   1.022   2.647   5.169
 4660SOL    HW114879   1.032   2.551   5.142
 4660SOL    HW214880   1.088   2.669   5.240
 4661SOL     OW14881   3.925   4.190   5.470
 4661SOL    HW114882   3.850   4.126   5.484
 4661SOL    HW214883   3.930   4.254   5.547
 4662SOL     OW14884   4.979   0.515   5.196
 4662SOL    HW114885   5.030   0.486   5.115
 4662SOL    HW214886   4.993   0.613   5.211
 4663SOL     OW14887   0.574   1.355   2.100
 4663SOL    HW114888   0.661   1.402   2.114
 4663SOL    HW214889   0.506   1.421   2.069
 4664SOL     OW14890   2.282   2.318   0.389
 4664SOL    HW114891   2.285   2.247   0.460
 4664SOL    HW214892   2.313   2.405   0.427
 4665SOL     OW14893   4.286   6.860   0.601
 4665SOL    HW114894   4.338   6.797   0.545
 4665SOL    HW214895   4.202   6.816   0.633
 4666SOL     OW14896   1.868   1.639   0.432
 4666SOL    HW114897   1.852   1.736   0.449
 4666SOL    HW214898   1.940   1.606   0.493
 4667SOL     OW14899   6.347   4.343   1.221
 4667SOL    HW114900   6.368   4.440   1.236
 4667SOL    HW214901   6.299   4.334   1.134
 4668SOL     OW14902   6.596   2.379   3.288
 4668SOL    HW114903   6.538   2.357   3.366
 4668SOL    HW214904   6.633   2.295   3.249
 4669SOL     OW14905   3.249   6.851   0.353
 4669SOL    HW114906   3.286   6.896   0.434
 4669SOL    HW214907   3.238   6.753   0.371
 4670SOL     OW14908   3.508   1.406   5.111
 4670SOL    HW114909   3.505   1.483   5.174
 4670SOL    HW214910   3.416   1.366   5.103
 4671SOL     OW14911   6.671   2.651   2.296
 4671SOL    HW114912   6.735   2.657   2.219
 4671SOL    HW214913   6.715   2.604   2.372
 4672SOL     OW14914   2.631   4.839   6.237
 4672SOL    HW114915   2.691   4.909   6.198
 4672SOL    HW214916   2.548   4.883   6.273
 4673SOL     OW14917   5.016   6.901   0.642
 4673SOL    HW114918   5.070   6.952   0.575
 4673SOL    HW214919   4.920   6.901   0.615
 4674SOL     OW14920   5.050   6.576   6.839
 4674SOL    HW114921   5.139   6.562   6.795
 4674SOL    HW214922   5.062   6.633   6.921
 4675SOL     OW14923   0.745   3.118   6.894
 4675SOL    HW114924   0.648   3.144   6.888
 4675SOL    HW214925   0.772   3.115   6.991
 4676SOL     OW14926   6.889   6.111   3.778
 4676SOL    HW114927   6.808   6.056   3.757
 4676SOL    HW214928   6.861   6.195   3.824
 4677SOL     OW14929   2.626   2.065   1.397
 4677SOL    HW114930   2.628   2.145   1.457
 4677SOL    HW214931   2.719   2.028   1.389
 4678SOL     OW14932   2.245   4.504   2.933
 4678SOL    HW114933   2.327   4.532   2.883
 4678SOL    HW214934   2.241   4.404   2.937
 4679SOL     OW14935   4.362   0.368   1.461
 4679SOL    HW114936   4.433   0.438   1.470
 4679SOL    HW214937   4.284   0.406   1.412
 4680SOL     OW14938   3.686   0.908   6.250
 4680SOL    HW114939   3.677   0.811   6.270
 4680SOL    HW214940   3.767   0.945   6.295
 4681SOL     OW14941   5.212   4.616   0.304
 4681SOL    HW114942   5.207   4.555   0.384
 4681SOL    HW214943   5.164   4.574   0.227
 4682SOL     OW14944   4.604   4.581   5.649
 4682SOL    HW114945   4.579   4.485   5.634
 4682SOL    HW214946   4.591   4.632   5.564
 4683SOL     OW14947   5.995   5.454   2.827
 4683SOL    HW114948   6.084   5.411   2.839
 4683SOL    HW214949   5.925   5.383   2.816
 4684SOL     OW14950   5.020   6.866   5.498
 4684SOL    HW114951   5.011   6.910   5.587
 4684SOL    HW214952   4.953   6.792   5.491
 4685SOL     OW14953   2.155   4.733   6.328
 4685SOL    HW114954   2.164   4.633   6.323
 4685SOL    HW214955   2.068   4.756   6.372
 4686SOL     OW14956   4.080   5.900   6.737
 4686SOL    HW114957   4.124   5.903   6.827
 4686SOL    HW214958   4.116   5.823   6.685
 4687SOL     OW14959   4.745   2.802   4.191
 4687SOL    HW114960   4.723   2.758   4.278
 4687SOL    HW214961   4.771   2.897   4.208
 4688SOL     OW14962   6.057   2.573   4.997
 4688SOL    HW114963   6.051   2.672   4.988
 4688SOL    HW214964   6.146   2.549   5.037
 4689SOL     OW14965   5.661   1.121   0.571
 4689SOL    HW114966   5.674   1.217   0.596
 4689SOL    HW214967   5.572   1.090   0.605
 4690SOL     OW14968   2.423   0.443   0.778
 4690SOL    HW114969   2.363   0.503   0.725
 4690SOL    HW214970   2.459   0.371   0.719
 4691SOL     OW14971   3.190   3.799   0.642
 4691SOL    HW114972   3.229   3.882   0.682
 4691SOL    HW214973   3.186   3.727   0.711
 4692SOL     OW14974   5.614   5.031   3.114
 4692SOL    HW114975   5.615   4.991   3.023
 4692SOL    HW214976   5.664   5.118   3.112
 4693SOL     OW14977   1.234   0.408   3.893
 4693SOL    HW114978   1.305   0.338   3.892
 4693SOL    HW214979   1.152   0.372   3.937
 4694SOL     OW14980   2.150   1.700   6.992
 4694SOL    HW114981   2.233   1.726   6.942
 4694SOL    HW214982   2.161   1.609   0.013
 4695SOL     OW14983   1.398   5.124   0.737
 4695SOL    HW114984   1.341   5.080   0.806
 4695SOL    HW214985   1.350   5.203   0.700
 4696SOL     OW14986   0.489   5.771   5.905
 4696SOL    HW114987   0.516   5.866   5.894
 4696SOL    HW214988   0.398   5.766   5.945
 4697SOL     OW14989   1.093   3.850   2.285
 4697SOL    HW114990   1.038   3.793   2.225
 4697SOL    HW214991   1.144   3.917   2.230
 4698SOL     OW14992   4.460   6.252   3.160
 4698SOL    HW114993   4.446   6.351   3.165
 4698SOL    HW214994   4.425   6.218   3.073
 4699SOL     OW14995   0.592   6.420   2.793
 4699SOL    HW114996   0.691   6.431   2.788
 4699SOL    HW214997   0.557   6.387   2.706
 4700SOL     OW14998   6.115   2.210   2.134
 4700SOL    HW114999   6.102   2.128   2.190
 4700SOL    HW215000   6.087   2.191   2.040
 4701SOL     OW15001   3.610   2.051   0.240
 4701SOL    HW115002   3.556   2.109   0.301
 4701SOL    HW215003   3.618   2.095   0.150
 4702SOL     OW15004   4.505   4.815   0.200
 4702SOL    HW115005   4.466   4.818   0.292
 4702SOL    HW215006   4.586   4.874   0.196
 4703SOL     OW15007   1.301   6.425   3.051
 4703SOL    HW115008   1.216   6.378   3.076
 4703SOL    HW215009   1.310   6.509   3.104
 4704SOL     OW15010   6.371   5.856   6.792
 4704SOL    HW115011   6.319   5.938   6.770
 4704SOL    HW215012   6.307   5.783   6.817
 4705SOL     OW15013   3.836   2.479   1.003
 4705SOL    HW115014   3.789   2.397   0.971
 4705SOL    HW215015   3.930   2.478   0.969
 4706SOL     OW15016   1.696   0.507   0.648
 4706SOL    HW115017   1.668   0.601   0.668
 4706SOL    HW215018   1.617   0.455   0.615
 4707SOL     OW15019   1.017   6.383   1.618
 4707SOL    HW115020   0.967   6.310   1.571
 4707SOL    HW215021   1.107   6.394   1.576
 4708SOL     OW15022   1.805   1.912   5.611
 4708SOL    HW115023   1.815   1.874   5.703
 4708SOL    HW215024   1.719   1.881   5.572
 4709SOL     OW15025   4.775   5.330   5.162
 4709SOL    HW115026   4.839   5.395   5.121
 4709SOL    HW215027   4.683   5.348   5.129
 4710SOL     OW15028   5.476   6.810   6.148
 4710SOL    HW115029   5.492   6.906   6.173
 4710SOL    HW215030   5.518   6.751   6.217
 4711SOL     OW15031   6.543   1.319   2.181
 4711SOL    HW115032   6.603   1.332   2.103
 4711SOL    HW215033   6.468   1.386   2.177
 4712SOL     OW15034   3.472   4.840   6.750
 4712SOL    HW115035   3.460   4.919   6.690
 4712SOL    HW215036   3.563   4.841   6.790
 4713SOL     OW15037   4.083   5.149   0.963
 4713SOL    HW115038   4.030   5.173   0.882
 4713SOL    HW215039   4.098   5.231   1.019
 4714SOL     OW15040   0.471   1.264   5.998
 4714SOL    HW115041   0.461   1.199   5.922
 4714SOL    HW215042   0.446   1.355   5.967
 4715SOL     OW15043   5.731   3.276   1.439
 4715SOL    HW115044   5.816   3.226   1.458
 4715SOL    HW215045   5.734   3.312   1.346
 4716SOL     OW15046   4.252   6.344   5.559
 4716SOL    HW115047   4.287   6.284   5.487
 4716SOL    HW215048   4.259   6.298   5.647
 4717SOL     OW15049   0.720   5.864   4.971
 4717SOL    HW115050   0.718   5.778   5.022
 4717SOL    HW215051   0.779   5.929   5.019
 4718SOL     OW15052   5.216   2.220   1.098
 4718SOL    HW115053   5.271   2.232   1.180
 4718SOL    HW215054   5.152   2.145   1.111
 4719SOL     OW15055   4.962   3.725   2.319
 4719SOL    HW115056   4.911   3.690   2.397
 4719SOL    HW215057   4.947   3.666   2.240
 4720SOL     OW15058   1.838   5.263   6.152
 4720SOL    HW115059   1.838   5.207   6.069
 4720SOL    HW215060   1.821   5.359   6.128
 4721SOL     OW15061   6.372   2.094   1.681
 4721SOL    HW115062   6.444   2.129   1.621
 4721SOL    HW215063   6.389   2.126   1.775
 4722SOL     OW15064   0.933   6.297   6.564
 4722SOL    HW115065   0.844   6.336   6.591
 4722SOL    HW215066   0.993   6.294   6.643
 4723SOL     OW15067   2.881   3.444   5.281
 4723SOL    HW115068   2.787   3.425   5.308
 4723SOL    HW215069   2.898   3.407   5.189
 4724SOL     OW15070   0.031   0.103   4.475
 4724SOL    HW115071   6.977   0.161   4.517
 4724SOL    HW215072   0.119   0.122   4.518
 4725SOL     OW15073   6.551   4.961   0.316
 4725SOL    HW115074   6.461   4.923   0.293
 4725SOL    HW215075   6.622   4.894   0.295
 4726SOL     OW15076   1.494   3.278   6.162
 4726SOL    HW115077   1.417   3.273   6.099
 4726SOL    HW215078   1.568   3.331   6.121
 4727SOL     OW15079   0.365   6.375   1.318
 4727SOL    HW115080   0.327   6.294   1.363
 4727SOL    HW215081   0.351   6.455   1.377
 4728SOL     OW15082   6.510   0.372   2.765
 4728SOL    HW115083   6.586   0.398   2.824
 4728SOL    HW215084   6.498   0.441   2.693
 4729SOL     OW15085   4.796   0.770   0.206
 4729SOL    HW115086   4.889   0.739   0.225
 4729SOL    HW215087   4.768   0.837   0.275
 4730SOL     OW15088   3.440   6.004   5.231
 4730SOL    HW115089   3.426   5.938   5.156
 4730SOL    HW215090   3.516   5.973   5.288
 4731SOL     OW15091   3.107   0.985   0.707
 4731SOL    HW115092   3.096   1.077   0.671
 4731SOL    HW215093   3.023   0.958   0.756
 4732SOL     OW15094   0.568   3.219   5.343
 4732SOL    HW115095   0.600   3.286   5.409
 4732SOL    HW215096   0.585   3.253   5.250
 4733SOL     OW15097   1.213   3.830   3.568
 4733SOL    HW115098   1.162   3.763   3.515
 4733SOL    HW215099   1.153   3.905   3.594
 4734SOL     OW15100   4.582   2.919   0.688
 4734SOL    HW115101   4.590   3.007   0.642
 4734SOL    HW215102   4.514   2.863   0.640
 4735SOL     OW15103   6.692   5.734   4.177
 4735SOL    HW115104   6.622   5.736   4.106
 4735SOL    HW215105   6.653   5.766   4.263
 4736SOL     OW15106   5.355   1.942   5.772
 4736SOL    HW115107   5.406   2.027   5.778
 4736SOL    HW215108   5.418   1.865   5.780
 4737SOL     OW15109   2.692   4.278   0.585
 4737SOL    HW115110   2.742   4.325   0.657
 4737SOL    HW215111   2.627   4.214   0.626
 4738SOL     OW15112   2.936   6.211   3.278
 4738SOL    HW115113   3.001   6.135   3.287
 4738SOL    HW215114   2.851   6.187   3.325
 4739SOL     OW15115   5.005   1.324   3.207
 4739SOL    HW115116   5.025   1.242   3.261
 4739SOL    HW215117   5.075   1.335   3.136
 4740SOL     OW15118   0.220   0.439   0.642
 4740SOL    HW115119   0.162   0.512   0.679
 4740SOL    HW215120   0.299   0.480   0.595
 4741SOL     OW15121   4.710   3.476   1.327
 4741SOL    HW115122   4.739   3.570   1.346
 4741SOL    HW215123   4.634   3.451   1.386
 4742SOL     OW15124   2.471   6.616   1.554
 4742SOL    HW115125   2.452   6.519   1.544
 4742SOL    HW215126   2.561   6.637   1.515
 4743SOL     OW15127   1.578   2.637   5.375
 4743SOL    HW115128   1.554   2.711   5.438
 4743SOL    HW215129   1.496   2.582   5.357
 4744SOL     OW15130   2.523   3.540   5.804
 4744SOL    HW115131   2.494   3.632   5.831
 4744SOL    HW215132   2.620   3.528   5.826
 4745SOL     OW15133   2.282   5.381   5.292
 4745SOL    HW115134   2.344   5.345   5.222
 4745SOL    HW215135   2.302   5.338   5.380
 4746SOL     OW15136   6.203   5.890   2.519
 4746SOL    HW115137   6.138   5.825   2.479
 4746SOL    HW215138   6.271   5.916   2.450
 4747SOL     OW15139   1.620   3.848   6.590
 4747SOL    HW115140   1.590   3.788   6.516
 4747SOL    HW215141   1.587   3.811   6.677
 4748SOL     OW15142   1.569   5.300   0.847
 4748SOL    HW115143   1.512   5.381   0.830
 4748SOL    HW215144   1.535   5.223   0.793
 4749SOL     OW15145   3.172   6.226   5.265
 4749SOL    HW115146   3.248   6.275   5.309
 4749SOL    HW215147   3.096   6.217   5.329
 4750SOL     OW15148   0.280   3.032   4.202
 4750SOL    HW115149   0.254   3.076   4.116
 4750SOL    HW215150   0.346   3.089   4.251
 4751SOL     OW15151   2.601   2.775   0.171
 4751SOL    HW115152   2.504   2.798   0.171
 4751SOL    HW215153   2.617   2.701   0.105
 4752SOL     OW15154   2.937   0.069   0.074
 4752SOL    HW115155   2.991   0.048   0.156
 4752SOL    HW215156   2.841   0.050   0.092
 4753SOL     OW15157   5.249   0.124   4.233
 4753SOL    HW115158   5.273   0.189   4.305
 4753SOL    HW215159   5.289   0.034   4.254
 4754SOL     OW15160   5.909   0.483   5.518
 4754SOL    HW115161   5.880   0.410   5.579
 4754SOL    HW215162   5.837   0.553   5.513
 4755SOL     OW15163   2.937   0.433   0.769
 4755SOL    HW115164   2.864   0.476   0.823
 4755SOL    HW215165   2.958   0.490   0.690
 4756SOL     OW15166   5.853   2.764   1.304
 4756SOL    HW115167   5.846   2.675   1.350
 4756SOL    HW215168   5.768   2.784   1.257
 4757SOL     OW15169   1.453   2.270   2.305
 4757SOL    HW115170   1.493   2.244   2.217
 4757SOL    HW215171   1.497   2.353   2.338
 4758SOL     OW15172   3.032   6.111   4.809
 4758SOL    HW115173   3.038   6.118   4.709
 4758SOL    HW215174   3.030   6.015   4.835
 4759SOL     OW15175   5.951   5.372   4.365
 4759SOL    HW115176   5.996   5.334   4.446
 4759SOL    HW215177   5.853   5.354   4.370
 4760SOL     OW15178   3.606   1.800   0.754
 4760SOL    HW115179   3.679   1.863   0.729
 4760SOL    HW215180   3.545   1.786   0.675
 4761SOL     OW15181   0.581   6.764   6.494
 4761SOL    HW115182   0.489   6.740   6.525
 4761SOL    HW215183   0.618   6.836   6.552
 4762SOL     OW15184   2.385   5.211   2.787
 4762SOL    HW115185   2.420   5.159   2.865
 4762SOL    HW215186   2.333   5.289   2.821
 4763SOL     OW15187   6.005   6.069   3.557
 4763SOL    HW115188   6.029   6.036   3.649
 4763SOL    HW215189   6.083   6.117   3.518
 4764SOL     OW15190   4.960   4.295   5.526
 4764SOL    HW115191   5.003   4.256   5.608
 4764SOL    HW215192   4.946   4.223   5.458
 4765SOL     OW15193   5.099   0.213   4.584
 4765SOL    HW115194   5.048   0.299   4.586
 4765SOL    HW215195   5.169   0.218   4.512
 4766SOL     OW15196   4.612   0.373   3.652
 4766SOL    HW115197   4.647   0.411   3.738
 4766SOL    HW215198   4.518   0.405   3.638
 4767SOL     OW15199   3.547   5.467   5.919
 4767SOL    HW115200   3.542   5.490   6.016
 4767SOL    HW215201   3.612   5.528   5.873
 4768SOL     OW15202   4.256   1.910   4.923
 4768SOL    HW115203   4.223   2.001   4.951
 4768SOL    HW215204   4.326   1.920   4.853
 4769SOL     OW15205   4.571   5.194   0.568
 4769SOL    HW115206   4.664   5.159   0.576
 4769SOL    HW215207   4.527   5.153   0.488
 4770SOL     OW15208   1.044   0.163   4.158
 4770SOL    HW115209   0.954   0.120   4.152
 4770SOL    HW215210   1.034   0.262   4.152
 4771SOL     OW15211   3.529   5.169   5.593
 4771SOL    HW115212   3.446   5.168   5.649
 4771SOL    HW215213   3.532   5.252   5.538
 4772SOL     OW15214   2.523   5.710   1.700
 4772SOL    HW115215   2.434   5.756   1.703
 4772SOL    HW215216   2.548   5.693   1.605
 4773SOL     OW15217   6.450   5.413   4.800
 4773SOL    HW115218   6.454   5.497   4.855
 4773SOL    HW215219   6.380   5.424   4.730
 4774SOL     OW15220   1.043   2.389   1.765
 4774SOL    HW115221   0.969   2.439   1.719
 4774SOL    HW215222   1.085   2.326   1.701
 4775SOL     OW15223   5.170   6.875   2.515
 4775SOL    HW115224   5.140   6.856   2.608
 4775SOL    HW215225   5.148   6.798   2.456
 4776SOL     OW15226   1.142   6.612   4.573
 4776SOL    HW115227   1.101   6.551   4.642
 4776SOL    HW215228   1.123   6.707   4.597
 4777SOL     OW15229   2.921   4.704   1.448
 4777SOL    HW115230   2.912   4.605   1.465
 4777SOL    HW215231   2.835   4.738   1.409
 4778SOL     OW15232   5.510   2.354   2.525
 4778SOL    HW115233   5.605   2.364   2.555
 4778SOL    HW215234   5.463   2.289   2.584
 4779SOL     OW15235   6.509   6.570   2.270
 4779SOL    HW115236   6.605   6.589   2.292
 4779SOL    HW215237   6.450   6.615   2.337
 4780SOL     OW15238   0.178   0.752   0.418
 4780SOL    HW115239   0.082   0.726   0.428
 4780SOL    HW215240   0.210   0.793   0.503
 4781SOL     OW15241   2.752   6.711   1.467
 4781SOL    HW115242   2.806   6.755   1.539
 4781SOL    HW215243   2.790   6.736   1.378
 4782SOL     OW15244   4.782   6.163   0.663
 4782SOL    HW115245   4.878   6.135   0.655
 4782SOL    HW215246   4.723   6.083   0.657
 4783SOL     OW15247   4.444   4.359   6.850
 4783SOL    HW115248   4.431   4.458   6.839
 4783SOL    HW215249   4.541   4.337   6.842
 4784SOL     OW15250   6.254   4.120   6.264
 4784SOL    HW115251   6.159   4.139   6.287
 4784SOL    HW215252   6.314   4.160   6.334
 4785SOL     OW15253   6.084   5.684   1.678
 4785SOL    HW115254   6.150   5.750   1.712
 4785SOL    HW215255   6.091   5.677   1.578
 4786SOL     OW15256   2.624   2.279   1.576
 4786SOL    HW115257   2.586   2.240   1.660
 4786SOL    HW215258   2.700   2.340   1.599
 4787SOL     OW15259   3.221   2.180   3.292
 4787SOL    HW115260   3.131   2.198   3.253
 4787SOL    HW215261   3.292   2.201   3.225
 4788SOL     OW15262   1.045   5.055   6.067
 4788SOL    HW115263   0.965   5.008   6.029
 4788SOL    HW215264   1.100   5.092   5.992
 4789SOL     OW15265   5.688   1.078   0.167
 4789SOL    HW115266   5.719   1.046   0.078
 4789SOL    HW215267   5.680   1.001   0.229
 4790SOL     OW15268   0.300   2.980   5.991
 4790SOL    HW115269   0.335   3.042   5.920
 4790SOL    HW215270   0.312   2.885   5.961
 4791SOL     OW15271   6.206   1.886   1.279
 4791SOL    HW115272   6.178   1.844   1.193
 4791SOL    HW215273   6.235   1.815   1.343
 4792SOL     OW15274   2.111   3.359   2.804
 4792SOL    HW115275   2.112   3.434   2.870
 4792SOL    HW215276   2.058   3.385   2.723
 4793SOL     OW15277   1.826   2.884   5.672
 4793SOL    HW115278   1.791   2.808   5.726
 4793SOL    HW215279   1.894   2.935   5.725
 4794SOL     OW15280   4.562   0.682   3.106
 4794SOL    HW115281   4.481   0.722   3.062
 4794SOL    HW215282   4.623   0.644   3.036
 4795SOL     OW15283   6.543   1.492   2.810
 4795SOL    HW115284   6.448   1.475   2.837
 4795SOL    HW215285   6.581   1.566   2.867
 4796SOL     OW15286   5.195   2.124   6.603
 4796SOL    HW115287   5.117   2.184   6.586
 4796SOL    HW215288   5.163   2.031   6.619
 4797SOL     OW15289   1.700   6.327   5.667
 4797SOL    HW115290   1.739   6.344   5.576
 4797SOL    HW215291   1.772   6.301   5.730
 4798SOL     OW15292   0.386   2.727   5.008
 4798SOL    HW115293   0.333   2.728   4.923
 4798SOL    HW215294   0.354   2.801   5.067
 4799SOL     OW15295   4.848   2.318   6.381
 4799SOL    HW115296   4.762   2.278   6.352
 4799SOL    HW215297   4.834   2.414   6.403
 4800SOL     OW15298   2.470   3.321   5.644
 4800SOL    HW115299   2.456   3.355   5.551
 4800SOL    HW215300   2.474   3.397   5.708
 4801SOL     OW15301   2.873   2.271   1.178
 4801SOL    HW115302   2.789   2.230   1.140
 4801SOL    HW215303   2.858   2.368   1.196
 4802SOL     OW15304   1.038   6.378   2.094
 4802SOL    HW115305   1.102   6.325   2.038
 4802SOL    HW215306   1.051   6.355   2.190
 4803SOL     OW15307   1.327   6.367   1.066
 4803SOL    HW115308   1.401   6.435   1.075
 4803SOL    HW215309   1.257   6.402   1.003
 4804SOL     OW15310   5.005   5.360   6.581
 4804SOL    HW115311   4.971   5.414   6.657
 4804SOL    HW215312   5.035   5.421   6.507
 4805SOL     OW15313   5.945   0.411   1.260
 4805SOL    HW115314   5.909   0.338   1.203
 4805SOL    HW215315   6.037   0.435   1.229
 4806SOL     OW15316   0.943   4.332   2.862
 4806SOL    HW115317   0.888   4.360   2.783
 4806SOL    HW215318   1.030   4.381   2.860
 4807SOL     OW15319   1.269   4.729   0.258
 4807SOL    HW115320   1.226   4.807   0.302
 4807SOL    HW215321   1.367   4.746   0.249
 4808SOL     OW15322   6.304   3.822   6.782
 4808SOL    HW115323   6.390   3.801   6.735
 4808SOL    HW215324   6.322   3.875   6.864
 4809SOL     OW15325   3.810   4.236   6.961
 4809SOL    HW115326   3.775   4.263   0.034
 4809SOL    HW215327   3.742   4.260   6.891
 4810SOL     OW15328   1.092   5.060   2.166
 4810SOL    HW115329   1.046   5.093   2.249
 4810SOL    HW215330   1.190   5.049   2.185
 4811SOL     OW15331   1.731   4.911   2.059
 4811SOL    HW115332   1.681   4.994   2.033
 4811SOL    HW215333   1.670   4.833   2.057
 4812SOL     OW15334   0.020   5.210   5.202
 4812SOL    HW115335   0.006   5.279   5.131
 4812SOL    HW215336   0.002   5.251   5.292
 4813SOL     OW15337   5.455   1.924   0.743
 4813SOL    HW115338   5.460   1.876   0.655
 4813SOL    HW215339   5.546   1.929   0.784
 4814SOL     OW15340   5.749   4.063   0.524
 4814SOL    HW115341   5.738   4.005   0.443
 4814SOL    HW215342   5.740   4.006   0.606
 4815SOL     OW15343   6.004   4.399   3.167
 4815SOL    HW115344   5.985   4.303   3.187
 4815SOL    HW215345   5.922   4.453   3.184
 4816SOL     OW15346   0.345   5.427   1.952
 4816SOL    HW115347   0.359   5.423   2.051
 4816SOL    HW215348   0.261   5.477   1.932
 4817SOL     OW15349   1.356   2.309   6.398
 4817SOL    HW115350   1.410   2.232   6.361
 4817SOL    HW215351   1.410   2.355   6.469
 4818SOL     OW15352   1.013   0.631   4.770
 4818SOL    HW115353   0.929   0.673   4.805
 4818SOL    HW215354   1.092   0.670   4.816
 4819SOL     OW15355   1.264   2.439   6.938
 4819SOL    HW115356   1.273   2.507   6.865
 4819SOL    HW215357   1.347   2.383   6.942
 4820SOL     OW15358   6.919   2.684   0.985
 4820SOL    HW115359   6.832   2.681   0.935
 4820SOL    HW215360   6.962   2.774   0.972
 4821SOL     OW15361   1.378   6.310   2.351
 4821SOL    HW115362   1.403   6.304   2.448
 4821SOL    HW215363   1.425   6.237   2.301
 4822SOL     OW15364   1.355   3.194   4.762
 4822SOL    HW115365   1.421   3.196   4.837
 4822SOL    HW215366   1.402   3.211   4.676
 4823SOL     OW15367   1.500   1.454   4.243
 4823SOL    HW115368   1.417   1.487   4.198
 4823SOL    HW215369   1.559   1.410   4.176
 4824SOL     OW15370   4.525   2.169   5.024
 4824SOL    HW115371   4.555   2.075   5.011
 4824SOL    HW215372   4.545   2.223   4.942
 4825SOL     OW15373   1.448   2.380   4.456
 4825SOL    HW115374   1.491   2.443   4.392
 4825SOL    HW215375   1.484   2.396   4.548
 4826SOL     OW15376   5.438   0.631   0.164
 4826SOL    HW115377   5.363   0.650   0.102
 4826SOL    HW215378   5.464   0.535   0.158
 4827SOL     OW15379   6.339   1.803   0.468
 4827SOL    HW115380   6.285   1.740   0.412
 4827SOL    HW215381   6.386   1.868   0.410
 4828SOL     OW15382   5.111   1.328   0.775
 4828SOL    HW115383   5.159   1.359   0.857
 4828SOL    HW215384   5.045   1.398   0.747
 4829SOL     OW15385   3.329   0.414   5.828
 4829SOL    HW115386   3.324   0.496   5.772
 4829SOL    HW215387   3.419   0.372   5.818
 4830SOL     OW15388   3.562   5.700   3.988
 4830SOL    HW115389   3.476   5.737   3.951
 4830SOL    HW215390   3.544   5.611   4.029
 4831SOL     OW15391   1.673   4.607   5.639
 4831SOL    HW115392   1.642   4.516   5.613
 4831SOL    HW215393   1.635   4.674   5.575
 4832SOL     OW15394   3.492   3.892   3.673
 4832SOL    HW115395   3.427   3.967   3.691
 4832SOL    HW215396   3.446   3.805   3.689
 4833SOL     OW15397   6.070   1.745   3.067
 4833SOL    HW115398   6.030   1.694   3.143
 4833SOL    HW215399   6.028   1.715   2.981
 4834SOL     OW15400   2.683   5.660   2.007
 4834SOL    HW115401   2.777   5.632   2.022
 4834SOL    HW215402   2.661   5.658   1.910
 4835SOL     OW15403   5.639   3.017   5.884
 4835SOL    HW115404   5.726   2.996   5.929
 4835SOL    HW215405   5.605   2.936   5.836
 4836SOL     OW15406   5.088   1.887   4.599
 4836SOL    HW115407   5.174   1.916   4.641
 4836SOL    HW215408   5.093   1.790   4.576
 4837SOL     OW15409   0.221   3.102   2.929
 4837SOL    HW115410   0.234   3.104   2.830
 4837SOL    HW215411   0.181   3.014   2.955
 4838SOL     OW15412   2.328   6.142   0.345
 4838SOL    HW115413   2.422   6.108   0.356
 4838SOL    HW215414   2.318   6.184   0.255
 4839SOL     OW15415   1.114   3.523   6.878
 4839SOL    HW115416   1.142   3.489   6.968
 4839SOL    HW215417   1.110   3.446   6.814
 4840SOL     OW15418   6.522   4.688   5.959
 4840SOL    HW115419   6.462   4.627   6.010
 4840SOL    HW215420   6.564   4.638   5.883
 4841SOL     OW15421   2.494   4.916   3.209
 4841SOL    HW115422   2.543   4.877   3.131
 4841SOL    HW215423   2.413   4.861   3.228
 4842SOL     OW15424   2.665   4.977   3.414
 4842SOL    HW115425   2.602   4.979   3.336
 4842SOL    HW215426   2.693   4.883   3.431
 4843SOL     OW15427   6.668   2.648   1.645
 4843SOL    HW115428   6.661   2.653   1.745
 4843SOL    HW215429   6.600   2.584   1.610
 4844SOL     OW15430   0.223   4.151   5.511
 4844SOL    HW115431   0.288   4.226   5.492
 4844SOL    HW215432   0.206   4.101   5.426
 4845SOL     OW15433   4.695   5.071   6.561
 4845SOL    HW115434   4.669   5.037   6.470
 4845SOL    HW215435   4.695   5.171   6.559
 4846SOL     OW15436   0.265   1.875   3.699
 4846SOL    HW115437   0.335   1.932   3.656
 4846SOL    HW215438   0.263   1.786   3.653
 4847SOL     OW15439   2.236   1.705   5.713
 4847SOL    HW115440   2.191   1.781   5.666
 4847SOL    HW215441   2.316   1.739   5.763
 4848SOL     OW15442   2.702   0.934   4.918
 4848SOL    HW115443   2.615   0.907   4.878
 4848SOL    HW215444   2.716   0.885   5.004
 4849SOL     OW15445   1.652   5.776   1.301
 4849SOL    HW115446   1.575   5.833   1.330
 4849SOL    HW215447   1.732   5.798   1.356
 4850SOL     OW15448   5.043   0.982   1.392
 4850SOL    HW115449   5.052   1.011   1.487
 4850SOL    HW215450   5.064   0.884   1.385
 4851SOL     OW15451   3.021   5.761   5.671
 4851SOL    HW115452   2.990   5.785   5.763
 4851SOL    HW215453   3.110   5.714   5.677
 4852SOL     OW15454   2.560   5.837   5.191
 4852SOL    HW115455   2.507   5.792   5.264
 4852SOL    HW215456   2.644   5.785   5.174
 4853SOL     OW15457   3.946   1.190   3.158
 4853SOL    HW115458   3.917   1.264   3.097
 4853SOL    HW215459   3.988   1.229   3.240
 4854SOL     OW15460   4.926   0.330   2.030
 4854SOL    HW115461   4.958   0.413   1.984
 4854SOL    HW215462   4.832   0.311   2.002
 4855SOL     OW15463   6.298   3.524   5.132
 4855SOL    HW115464   6.256   3.502   5.044
 4855SOL    HW215465   6.302   3.441   5.188
 4856SOL     OW15466   1.245   2.952   2.831
 4856SOL    HW115467   1.224   2.855   2.828
 4856SOL    HW215468   1.336   2.966   2.871
 4857SOL     OW15469   2.774   1.887   3.557
 4857SOL    HW115470   2.859   1.897   3.506
 4857SOL    HW215471   2.718   1.970   3.546
 4858SOL     OW15472   6.907   6.500   5.067
 4858SOL    HW115473   6.867   6.409   5.065
 4858SOL    HW215474   6.848   6.564   5.018
 4859SOL     OW15475   0.672   4.952   1.482
 4859SOL    HW115476   0.744   4.976   1.546
 4859SOL    HW215477   0.595   5.015   1.494
 4860SOL     OW15478   4.222   4.708   0.418
 4860SOL    HW115479   4.220   4.652   0.335
 4860SOL    HW215480   4.260   4.656   0.493
 4861SOL     OW15481   6.095   5.415   6.466
 4861SOL    HW115482   6.050   5.337   6.509
 4861SOL    HW215483   6.128   5.389   6.376
 4862SOL     OW15484   2.357   4.482   5.014
 4862SOL    HW115485   2.359   4.475   4.915
 4862SOL    HW215486   2.416   4.558   5.043
 4863SOL     OW15487   4.930   3.215   2.547
 4863SOL    HW115488   4.881   3.129   2.535
 4863SOL    HW215489   4.939   3.262   2.459
 4864SOL     OW15490   3.656   1.707   1.709
 4864SOL    HW115491   3.675   1.678   1.803
 4864SOL    HW215492   3.561   1.685   1.686
 4865SOL     OW15493   2.759   5.950   4.905
 4865SOL    HW115494   2.785   5.855   4.890
 4865SOL    HW215495   2.710   5.985   4.825
 4866SOL     OW15496   5.888   4.435   0.984
 4866SOL    HW115497   5.972   4.487   0.996
 4866SOL    HW215498   5.850   4.410   1.073
 4867SOL     OW15499   4.487   5.759   3.910
 4867SOL    HW115500   4.552   5.709   3.853
 4867SOL    HW215501   4.470   5.708   3.994
 4868SOL     OW15502   0.061   5.274   1.851
 4868SOL    HW115503   0.037   5.356   1.798
 4868SOL    HW215504   0.095   5.302   1.941
 4869SOL     OW15505   0.380   2.781   0.820
 4869SOL    HW115506   0.433   2.822   0.894
 4869SOL    HW215507   0.351   2.689   0.846
 4870SOL     OW15508   5.173   5.099   1.738
 4870SOL    HW115509   5.217   5.010   1.735
 4870SOL    HW215510   5.082   5.094   1.696
 4871SOL     OW15511   0.087   1.089   4.347
 4871SOL    HW115512   0.110   0.994   4.324
 4871SOL    HW215513   0.160   1.150   4.317
 4872SOL     OW15514   0.815   6.272   4.211
 4872SOL    HW115515   0.856   6.341   4.151
 4872SOL    HW215516   0.866   6.269   4.297
 4873SOL     OW15517   0.037   4.948   3.880
 4873SOL    HW115518   0.112   5.002   3.918
 4873SOL    HW215519   0.075   4.876   3.822
 4874SOL     OW15520   5.936   3.779   2.481
 4874SOL    HW115521   6.004   3.833   2.431
 4874SOL    HW215522   5.929   3.814   2.575
 4875SOL     OW15523   5.339   2.823   1.116
 4875SOL    HW115524   5.356   2.852   1.022
 4875SOL    HW215525   5.256   2.767   1.120
 4876SOL     OW15526   6.295   0.317   4.614
 4876SOL    HW115527   6.393   0.304   4.600
 4876SOL    HW215528   6.273   0.414   4.603
 4877SOL     OW15529   6.446   1.508   0.799
 4877SOL    HW115530   6.529   1.467   0.837
 4877SOL    HW215531   6.471   1.576   0.730
 4878SOL     OW15532   6.496   1.925   2.366
 4878SOL    HW115533   6.557   1.866   2.314
 4878SOL    HW215534   6.491   1.894   2.461
 4879SOL     OW15535   4.230   5.105   3.662
 4879SOL    HW115536   4.131   5.113   3.654
 4879SOL    HW215537   4.257   5.009   3.651
 4880SOL     OW15538   5.350   2.701   6.424
 4880SOL    HW115539   5.274   2.650   6.464
 4880SOL    HW215540   5.384   2.654   6.343
 4881SOL     OW15541   2.225   5.965   0.065
 4881SOL    HW115542   2.281   6.048   0.067
 4881SOL    HW215543   2.147   5.976   0.126
 4882SOL     OW15544   6.312   1.418   4.987
 4882SOL    HW115545   6.381   1.490   4.997
 4882SOL    HW215546   6.291   1.379   5.077
 4883SOL     OW15547   5.170   4.586   2.476
 4883SOL    HW115548   5.162   4.497   2.521
 4883SOL    HW215549   5.262   4.596   2.438
 4884SOL     OW15550   4.309   0.117   0.648
 4884SOL    HW115551   4.392   0.167   0.623
 4884SOL    HW215552   4.312   0.025   0.610
 4885SOL     OW15553   3.005   6.333   2.480
 4885SOL    HW115554   2.910   6.299   2.481
 4885SOL    HW215555   3.006   6.429   2.506
 4886SOL     OW15556   0.216   5.800   6.295
 4886SOL    HW115557   0.132   5.843   6.265
 4886SOL    HW215558   0.277   5.868   6.336
 4887SOL     OW15559   0.381   1.474   2.697
 4887SOL    HW115560   0.450   1.464   2.625
 4887SOL    HW215561   0.291   1.487   2.656
 4888SOL     OW15562   2.031   6.253   4.015
 4888SOL    HW115563   2.117   6.301   4.033
 4888SOL    HW215564   2.017   6.247   3.916
 4889SOL     OW15565   0.565   1.960   6.822
 4889SOL    HW115566   0.611   2.047   6.805
 4889SOL    HW215567   0.604   1.890   6.763
 4890SOL     OW15568   0.550   2.061   4.765
 4890SOL    HW115569   0.536   2.097   4.857
 4890SOL    HW215570   0.484   1.988   4.747
 4891SOL     OW15571   1.310   5.664   6.817
 4891SOL    HW115572   1.384   5.714   6.772
 4891SOL    HW215573   1.295   5.700   6.909
 4892SOL     OW15574   2.319   5.896   2.234
 4892SOL    HW115575   2.397   5.836   2.223
 4892SOL    HW215576   2.347   5.991   2.221
 4893SOL     OW15577   6.440   4.518   6.512
 4893SOL    HW115578   6.511   4.555   6.452
 4893SOL    HW215579   6.374   4.589   6.534
 4894SOL     OW15580   2.542   0.504   1.886
 4894SOL    HW115581   2.577   0.436   1.951
 4894SOL    HW215582   2.468   0.557   1.929
 4895SOL     OW15583   0.054   4.604   1.365
 4895SOL    HW115584   0.082   4.618   1.460
 4895SOL    HW215585   0.091   4.677   1.308
 4896SOL     OW15586   2.684   5.512   3.002
 4896SOL    HW115587   2.685   5.436   3.067
 4896SOL    HW215588   2.652   5.480   2.913
 4897SOL     OW15589   2.710   5.061   6.110
 4897SOL    HW115590   2.785   5.122   6.135
 4897SOL    HW215591   2.623   5.111   6.117
 4898SOL     OW15592   6.076   1.524   4.861
 4898SOL    HW115593   5.996   1.465   4.856
 4898SOL    HW215594   6.158   1.468   4.869
 4899SOL     OW15595   6.573   4.558   2.589
 4899SOL    HW115596   6.637   4.622   2.631
 4899SOL    HW215597   6.546   4.592   2.499
 4900SOL     OW15598   1.860   6.055   5.443
 4900SOL    HW115599   1.874   6.151   5.415
 4900SOL    HW215600   1.909   6.038   5.528
 4901SOL     OW15601   2.222   6.737   5.366
 4901SOL    HW115602   2.270   6.800   5.305
 4901SOL    HW215603   2.208   6.650   5.320
 4902SOL     OW15604   2.374   2.103   4.318
 4902SOL    HW115605   2.320   2.171   4.368
 4902SOL    HW215606   2.335   2.089   4.227
 4903SOL     OW15607   3.551   6.426   6.686
 4903SOL    HW115608   3.494   6.370   6.747
 4903SOL    HW215609   3.575   6.372   6.605
 4904SOL     OW15610   1.879   0.166   3.920
 4904SOL    HW115611   1.888   0.077   3.874
 4904SOL    HW215612   1.825   0.228   3.864
 4905SOL     OW15613   4.371   2.243   2.430
 4905SOL    HW115614   4.386   2.155   2.476
 4905SOL    HW215615   4.365   2.316   2.499
 4906SOL     OW15616   3.534   0.827   6.551
 4906SOL    HW115617   3.489   0.888   6.486
 4906SOL    HW215618   3.571   0.748   6.503
 4907SOL     OW15619   4.038   6.080   2.793
 4907SOL    HW115620   3.948   6.038   2.777
 4907SOL    HW215621   4.108   6.026   2.748
 4908SOL     OW15622   3.682   5.243   0.081
 4908SOL    HW115623   3.598   5.277   0.040
 4908SOL    HW215624   3.665   5.154   0.125
 4909SOL     OW15625   6.297   6.983   6.382
 4909SOL    HW115626   6.289   0.044   6.446
 4909SOL    HW215627   6.393   6.959   6.371
 4910SOL     OW15628   5.564   0.113   5.139
 4910SOL    HW115629   5.634   0.150   5.077
 4910SOL    HW215630   5.585   0.018   5.160
 4911SOL     OW15631   6.883   2.688   5.821
 4911SOL    HW115632   6.805   2.688   5.884
 4911SOL    HW215633   6.878   2.608   5.762
 4912SOL     OW15634   5.257   1.902   1.256
 4912SOL    HW115635   5.316   1.958   1.315
 4912SOL    HW215636   5.289   1.907   1.162
 4913SOL     OW15637   3.807   3.567   3.711
 4913SOL    HW115638   3.782   3.660   3.686
 4913SOL    HW215639   3.763   3.503   3.647
 4914SOL     OW15640   3.690   0.807   4.940
 4914SOL    HW115641   3.622   0.831   4.871
 4914SOL    HW215642   3.752   0.738   4.904
 4915SOL     OW15643   4.668   0.500   4.764
 4915SOL    HW115644   4.660   0.424   4.699
 4915SOL    HW215645   4.580   0.514   4.810
 4916SOL     OW15646   1.780   1.714   2.965
 4916SOL    HW115647   1.770   1.614   2.967
 4916SOL    HW215648   1.797   1.744   2.871
 4917SOL     OW15649   1.736   3.898   0.174
 4917SOL    HW115650   1.798   3.976   0.180
 4917SOL    HW215651   1.663   3.919   0.109
 4918SOL     OW15652   3.149   0.348   2.769
 4918SOL    HW115653   3.208   0.284   2.817
 4918SOL    HW215654   3.091   0.298   2.705
 4919SOL     OW15655   2.478   2.211   2.047
 4919SOL    HW115656   2.506   2.247   2.136
 4919SOL    HW215657   2.555   2.164   2.004
 4920SOL     OW15658   4.076   0.379   6.859
 4920SOL    HW115659   4.120   0.295   6.826
 4920SOL    HW215660   4.135   0.424   6.926
 4921SOL     OW15661   2.335   4.199   1.318
 4921SOL    HW115662   2.418   4.255   1.313
 4921SOL    HW215663   2.302   4.197   1.413
 4922SOL     OW15664   1.093   3.523   4.981
 4922SOL    HW115665   1.144   3.526   4.895
 4922SOL    HW215666   1.151   3.556   5.056
 4923SOL     OW15667   4.584   0.918   1.062
 4923SOL    HW115668   4.557   0.982   1.134
 4923SOL    HW215669   4.542   0.829   1.080
 4924SOL     OW15670   2.293   3.041   5.588
 4924SOL    HW115671   2.221   3.088   5.639
 4924SOL    HW215672   2.299   3.080   5.495
 4925SOL     OW15673   6.479   6.397   0.620
 4925SOL    HW115674   6.569   6.395   0.664
 4925SOL    HW215675   6.407   6.392   0.690
 4926SOL     OW15676   5.339   3.148   1.529
 4926SOL    HW115677   5.284   3.156   1.612
 4926SOL    HW215678   5.293   3.086   1.465
 4927SOL     OW15679   4.062   3.600   3.741
 4927SOL    HW115680   3.965   3.578   3.732
 4927SOL    HW215681   4.087   3.595   3.838
 4928SOL     OW15682   0.331   0.091   6.542
 4928SOL    HW115683   0.272   0.050   6.472
 4928SOL    HW215684   0.302   0.186   6.559
 4929SOL     OW15685   0.917   4.193   5.368
 4929SOL    HW115686   1.015   4.184   5.387
 4929SOL    HW215687   0.902   4.272   5.309
 4930SOL     OW15688   6.524   0.238   1.341
 4930SOL    HW115689   6.489   0.288   1.420
 4930SOL    HW215690   6.579   0.299   1.284
 4931SOL     OW15691   0.814   6.465   0.725
 4931SOL    HW115692   0.844   6.502   0.637
 4931SOL    HW215693   0.894   6.433   0.777
 4932SOL     OW15694   2.272   3.293   1.669
 4932SOL    HW115695   2.328   3.289   1.586
 4932SOL    HW215696   2.313   3.358   1.733
 4933SOL     OW15697   2.336   0.203   4.541
 4933SOL    HW115698   2.348   0.105   4.559
 4933SOL    HW215699   2.380   0.227   4.455
 4934SOL     OW15700   1.352   5.273   4.072
 4934SOL    HW115701   1.267   5.253   4.121
 4934SOL    HW215702   1.413   5.194   4.077
 4935SOL     OW15703   1.408   0.810   0.219
 4935SOL    HW115704   1.309   0.815   0.229
 4935SOL    HW215705   1.448   0.899   0.237
 4936SOL     OW15706   1.794   5.612   1.996
 4936SOL    HW115707   1.858   5.589   2.070
 4936SOL    HW215708   1.833   5.584   1.908
 4937SOL     OW15709   0.474   3.936   5.836
 4937SOL    HW115710   0.374   3.936   5.828
 4937SOL    HW215711   0.505   4.025   5.869
 4938SOL     OW15712   3.454   5.088   1.648
 4938SOL    HW115713   3.546   5.118   1.671
 4938SOL    HW215714   3.406   5.059   1.731
 4939SOL     OW15715   1.150   1.953   3.364
 4939SOL    HW115716   1.202   2.038   3.368
 4939SOL    HW215717   1.057   1.972   3.331
 4940SOL     OW15718   6.596   1.740   5.286
 4940SOL    HW115719   6.634   1.755   5.378
 4940SOL    HW215720   6.513   1.796   5.276
 4941SOL     OW15721   4.013   2.722   5.334
 4941SOL    HW115722   4.070   2.802   5.355
 4941SOL    HW215723   4.068   2.656   5.284
 4942SOL     OW15724   5.029   3.010   4.299
 4942SOL    HW115725   5.095   2.995   4.226
 4942SOL    HW215726   5.068   3.071   4.368
 4943SOL     OW15727   5.354   3.683   6.384
 4943SOL    HW115728   5.439   3.676   6.436
 4943SOL    HW215729   5.307   3.768   6.407
 4944SOL     OW15730   2.455   3.986   1.505
 4944SOL    HW115731   2.362   3.994   1.468
 4944SOL    HW215732   2.475   4.066   1.560
 4945SOL     OW15733   1.283   0.210   4.538
 4945SOL    HW115734   1.288   0.157   4.623
 4945SOL    HW215735   1.359   0.183   4.479
 4946SOL     OW15736   1.082   5.161   0.208
 4946SOL    HW115737   0.984   5.147   0.220
 4946SOL    HW215738   1.099   5.255   0.179
 4947SOL     OW15739   2.723   1.247   1.625
 4947SOL    HW115740   2.805   1.239   1.682
 4947SOL    HW215741   2.750   1.262   1.530
 4948SOL     OW15742   1.872   2.598   3.371
 4948SOL    HW115743   1.834   2.611   3.280
 4948SOL    HW215744   1.960   2.551   3.365
 4949SOL     OW15745   0.267   3.638   4.965
 4949SOL    HW115746   0.186   3.608   4.915
 4949SOL    HW215747   0.345   3.642   4.902
 4950SOL     OW15748   2.084   4.317   5.658
 4950SOL    HW115749   2.117   4.412   5.662
 4950SOL    HW215750   2.032   4.296   5.741
 4951SOL     OW15751   6.481   6.545   4.313
 4951SOL    HW115752   6.551   6.474   4.323
 4951SOL    HW215753   6.408   6.511   4.255
 4952SOL     OW15754   0.860   6.813   6.140
 4952SOL    HW115755   0.765   6.829   6.167
 4952SOL    HW215756   0.911   6.898   6.146
 4953SOL     OW15757   1.578   6.968   3.347
 4953SOL    HW115758   1.564   6.941   3.442
 4953SOL    HW215759   1.642   6.904   3.304
 4954SOL     OW15760   2.668   3.624   6.660
 4954SOL    HW115761   2.728   3.672   6.724
 4954SOL    HW215762   2.672   3.670   6.571
 4955SOL     OW15763   3.289   6.525   0.180
 4955SOL    HW115764   3.194   6.521   0.212
 4955SOL    HW215765   3.350   6.500   0.256
 4956SOL     OW15766   2.476   0.180   5.325
 4956SOL    HW115767   2.567   0.151   5.293
 4956SOL    HW215768   2.431   0.233   5.253
 4957SOL     OW15769   5.247   3.325   0.822
 4957SOL    HW115770   5.217   3.388   0.750
 4957SOL    HW215771   5.221   3.232   0.797
 4958SOL     OW15772   1.874   5.867   5.904
 4958SOL    HW115773   1.950   5.925   5.874
 4958SOL    HW215774   1.891   5.834   5.997
 4959SOL     OW15775   6.096   1.470   1.356
 4959SOL    HW115776   6.018   1.512   1.309
 4959SOL    HW215777   6.177   1.527   1.343
 4960SOL     OW15778   4.309   4.756   4.118
 4960SOL    HW115779   4.377   4.826   4.139
 4960SOL    HW215780   4.242   4.751   4.192
 4961SOL     OW15781   2.629   0.512   6.019
 4961SOL    HW115782   2.650   0.420   6.053
 4961SOL    HW215783   2.553   0.508   5.955
 4962SOL     OW15784   5.601   2.724   1.174
 4962SOL    HW115785   5.513   2.752   1.212
 4962SOL    HW215786   5.592   2.632   1.136
 4963SOL     OW15787   1.412   4.983   0.507
 4963SOL    HW115788   1.413   5.039   0.590
 4963SOL    HW215789   1.375   5.036   0.431
 4964SOL     OW15790   2.400   0.496   4.591
 4964SOL    HW115791   2.373   0.405   4.560
 4964SOL    HW215792   2.333   0.530   4.658
 4965SOL     OW15793   1.252   6.571   2.799
 4965SOL    HW115794   1.334   6.558   2.744
 4965SOL    HW215795   1.259   6.518   2.883
 4966SOL     OW15796   2.857   6.485   5.236
 4966SOL    HW115797   2.821   6.408   5.183
 4966SOL    HW215798   2.948   6.463   5.269
 4967SOL     OW15799   2.887   5.348   5.735
 4967SOL    HW115800   2.972   5.373   5.782
 4967SOL    HW215801   2.810   5.397   5.775
 4968SOL     OW15802   0.258   1.298   3.603
 4968SOL    HW115803   0.230   1.352   3.683
 4968SOL    HW215804   0.280   1.360   3.527
 4969SOL     OW15805   1.026   5.889   2.422
 4969SOL    HW115806   1.120   5.858   2.415
 4969SOL    HW215807   0.967   5.832   2.365
 4970SOL     OW15808   2.094   1.349   1.380
 4970SOL    HW115809   2.165   1.413   1.408
 4970SOL    HW215810   2.124   1.255   1.398
 4971SOL     OW15811   6.466   5.772   2.925
 4971SOL    HW115812   6.553   5.739   2.960
 4971SOL    HW215813   6.427   5.838   2.989
 4972SOL     OW15814   0.718   4.030   0.496
 4972SOL    HW115815   0.709   3.949   0.553
 4972SOL    HW215816   0.786   4.014   0.424
 4973SOL     OW15817   0.701   0.355   1.660
 4973SOL    HW115818   0.762   0.305   1.721
 4973SOL    HW215819   0.707   0.316   1.568
 4974SOL     OW15820   6.159   5.135   0.677
 4974SOL    HW115821   6.224   5.176   0.741
 4974SOL    HW215822   6.179   5.037   0.668
 4975SOL     OW15823   5.410   3.791   0.277
 4975SOL    HW115824   5.384   3.747   0.190
 4975SOL    HW215825   5.362   3.878   0.285
 4976SOL     OW15826   1.131   1.338   4.686
 4976SOL    HW115827   1.128   1.251   4.734
 4976SOL    HW215828   1.164   1.410   4.748
 4977SOL     OW15829   4.230   5.295   6.908
 4977SOL    HW115830   4.137   5.284   6.944
 4977SOL    HW215831   4.274   5.205   6.903
 4978SOL     OW15832   5.515   4.755   4.423
 4978SOL    HW115833   5.477   4.788   4.336
 4978SOL    HW215834   5.472   4.668   4.447
 4979SOL     OW15835   6.820   6.354   6.255
 4979SOL    HW115836   6.820   6.430   6.190
 4979SOL    HW215837   6.749   6.369   6.323
 4980SOL     OW15838   5.572   5.435   2.884
 4980SOL    HW115839   5.479   5.403   2.902
 4980SOL    HW215840   5.609   5.479   2.967
 4981SOL     OW15841   3.653   5.427   2.622
 4981SOL    HW115842   3.633   5.492   2.696
 4981SOL    HW215843   3.745   5.443   2.587
 4982SOL     OW15844   3.149   2.205   6.025
 4982SOL    HW115845   3.089   2.257   5.965
 4982SOL    HW215846   3.234   2.185   5.977
 4983SOL     OW15847   5.802   4.038   5.221
 4983SOL    HW115848   5.841   3.947   5.220
 4983SOL    HW215849   5.815   4.081   5.131
 4984SOL     OW15850   4.924   3.866   2.918
 4984SOL    HW115851   4.899   3.859   2.821
 4984SOL    HW215852   4.917   3.776   2.961
 4985SOL     OW15853   5.987   6.704   3.312
 4985SOL    HW115854   5.958   6.653   3.232
 4985SOL    HW215855   5.930   6.678   3.390
 4986SOL     OW15856   6.727   4.811   0.541
 4986SOL    HW115857   6.708   4.719   0.575
 4986SOL    HW215858   6.674   4.878   0.593
 4987SOL     OW15859   1.106   6.257   2.346
 4987SOL    HW115860   1.205   6.270   2.342
 4987SOL    HW215861   1.083   6.198   2.424
 4988SOL     OW15862   6.147   0.873   2.538
 4988SOL    HW115863   6.125   0.928   2.457
 4988SOL    HW215864   6.078   0.888   2.609
 4989SOL     OW15865   5.221   6.872   1.090
 4989SOL    HW115866   5.130   6.868   1.131
 4989SOL    HW215867   5.233   6.959   1.042
 4990SOL     OW15868   3.077   2.002   6.208
 4990SOL    HW115869   3.129   2.035   6.129
 4990SOL    HW215870   3.114   2.041   6.292
 4991SOL     OW15871   6.429   5.247   3.900
 4991SOL    HW115872   6.511   5.295   3.868
 4991SOL    HW215873   6.400   5.182   3.830
 4992SOL     OW15874   5.259   0.577   2.088
 4992SOL    HW115875   5.314   0.611   2.165
 4992SOL    HW215876   5.175   0.630   2.083
 4993SOL     OW15877   3.943   6.284   4.742
 4993SOL    HW115878   3.934   6.192   4.703
 4993SOL    HW215879   3.958   6.278   4.840
 4994SOL     OW15880   2.338   6.404   4.359
 4994SOL    HW115881   2.382   6.342   4.295
 4994SOL    HW215882   2.305   6.352   4.438
 4995SOL     OW15883   0.768   1.638   5.739
 4995SOL    HW115884   0.767   1.538   5.732
 4995SOL    HW215885   0.863   1.669   5.747
 4996SOL     OW15886   0.086   0.560   2.351
 4996SOL    HW115887   7.006   0.560   2.324
 4996SOL    HW215888   0.122   0.653   2.344
 4997SOL     OW15889   4.343   2.376   1.859
 4997SOL    HW115890   4.250   2.359   1.826
 4997SOL    HW215891   4.345   2.368   1.959
 4998SOL     OW15892   1.586   3.718   4.480
 4998SOL    HW115893   1.576   3.704   4.382
 4998SOL    HW215894   1.578   3.815   4.501
 4999SOL     OW15895   0.028   3.242   4.529
 4999SOL    HW115896   6.987   3.215   4.606
 4999SOL    HW215897   0.110   3.287   4.564
 5000SOL     OW15898   2.942   0.091   3.353
 5000SOL    HW115899   2.892   0.087   3.440
 5000SOL    HW215900   2.914   0.173   3.303
 5001SOL     OW15901   1.034   5.382   2.140
 5001SOL    HW115902   1.070   5.410   2.051
 5001SOL    HW215903   0.982   5.297   2.130
 5002SOL     OW15904   0.427   4.399   2.221
 5002SOL    HW115905   0.449   4.313   2.268
 5002SOL    HW215906   0.510   4.455   2.215
 5003SOL     OW15907   3.400   6.039   3.064
 5003SOL    HW115908   3.414   6.017   3.160
 5003SOL    HW215909   3.451   5.975   3.007
 5004SOL     OW15910   2.610   4.571   5.954
 5004SOL    HW115911   2.678   4.580   6.027
 5004SOL    HW215912   2.519   4.566   5.995
 5005SOL     OW15913   3.106   3.179   6.655
 5005SOL    HW115914   3.048   3.116   6.604
 5005SOL    HW215915   3.055   3.262   6.677
 5006SOL     OW15916   5.300   0.746   1.555
 5006SOL    HW115917   5.367   0.744   1.630
 5006SOL    HW215918   5.220   0.692   1.582
 5007SOL     OW15919   0.360   6.888   1.524
 5007SOL    HW115920   0.275   6.936   1.547
 5007SOL    HW215921   0.407   6.936   1.450
 5008SOL     OW15922   6.190   6.079   1.697
 5008SOL    HW115923   6.226   6.166   1.664
 5008SOL    HW215924   6.116   6.096   1.762
 5009SOL     OW15925   0.454   2.600   6.718
 5009SOL    HW115926   0.480   2.697   6.720
 5009SOL    HW215927   0.484   2.557   6.803
 5010SOL     OW15928   4.005   2.702   0.683
 5010SOL    HW115929   3.995   2.708   0.782
 5010SOL    HW215930   4.006   2.606   0.655
 5011SOL     OW15931   1.511   4.452   1.373
 5011SOL    HW115932   1.459   4.442   1.457
 5011SOL    HW215933   1.450   4.479   1.298
 5012SOL     OW15934   6.336   2.775   4.840
 5012SOL    HW115935   6.314   2.745   4.747
 5012SOL    HW215936   6.277   2.852   4.865
 5013SOL     OW15937   5.389   1.669   6.314
 5013SOL    HW115938   5.435   1.581   6.326
 5013SOL    HW215939   5.443   1.740   6.358
 5014SOL     OW15940   5.940   4.251   0.584
 5014SOL    HW115941   5.873   4.188   0.545
 5014SOL    HW215942   6.031   4.210   0.579
 5015SOL     OW15943   5.020   1.301   5.423
 5015SOL    HW115944   5.017   1.204   5.400
 5015SOL    HW215945   5.080   1.348   5.359
 5016SOL     OW15946   2.003   3.164   5.394
 5016SOL    HW115947   1.953   3.087   5.433
 5016SOL    HW215948   2.098   3.137   5.376
 5017SOL     OW15949   2.042   2.935   1.361
 5017SOL    HW115950   2.036   2.989   1.445
 5017SOL    HW215951   1.950   2.921   1.324
 5018SOL     OW15952   0.881   4.683   2.742
 5018SOL    HW115953   0.833   4.595   2.731
 5018SOL    HW215954   0.880   4.731   2.655
 5019SOL     OW15955   1.652   5.778   5.791
 5019SOL    HW115956   1.665   5.688   5.748
 5019SOL    HW215957   1.739   5.811   5.827
 5020SOL     OW15958   5.891   6.856   6.269
 5020SOL    HW115959   5.829   6.907   6.210
 5020SOL    HW215960   5.890   6.759   6.244
 5021SOL     OW15961   0.864   1.294   0.338
 5021SOL    HW115962   0.821   1.376   0.374
 5021SOL    HW215963   0.810   1.214   0.363
 5022SOL     OW15964   1.993   2.379   1.279
 5022SOL    HW115965   2.006   2.471   1.318
 5022SOL    HW215966   2.076   2.350   1.233
 5023SOL     OW15967   0.466   3.677   1.424
 5023SOL    HW115968   0.386   3.730   1.396
 5023SOL    HW215969   0.525   3.662   1.345
 5024SOL     OW15970   6.404   5.716   1.459
 5024SOL    HW115971   6.341   5.761   1.395
 5024SOL    HW215972   6.370   5.728   1.553
 5025SOL     OW15973   4.134   2.020   3.618
 5025SOL    HW115974   4.078   2.034   3.699
 5025SOL    HW215975   4.152   2.108   3.574
 5026SOL     OW15976   6.662   6.400   5.557
 5026SOL    HW115977   6.585   6.372   5.499
 5026SOL    HW215978   6.657   6.352   5.644
 5027SOL     OW15979   6.241   6.712   1.235
 5027SOL    HW115980   6.267   6.732   1.140
 5027SOL    HW215981   6.203   6.620   1.240
 5028SOL     OW15982   0.623   1.828   2.867
 5028SOL    HW115983   0.647   1.731   2.873
 5028SOL    HW215984   0.647   1.863   2.776
 5029SOL     OW15985   6.004   2.719   2.387
 5029SOL    HW115986   5.990   2.627   2.423
 5029SOL    HW215987   5.935   2.739   2.318
 5030SOL     OW15988   0.179   6.344   6.693
 5030SOL    HW115989   0.251   6.373   6.630
 5030SOL    HW215990   0.092   6.383   6.664
 5031SOL     OW15991   6.560   1.327   5.918
 5031SOL    HW115992   6.640   1.331   5.858
 5031SOL    HW215993   6.547   1.233   5.949
 5032SOL     OW15994   2.359   2.409   5.913
 5032SOL    HW115995   2.392   2.463   5.991
 5032SOL    HW215996   2.403   2.442   5.829
 5033SOL     OW15997   2.225   6.695   6.079
 5033SOL    HW115998   2.164   6.709   6.157
 5033SOL    HW215999   2.243   6.782   6.034
 5034SOL     OW16000   6.126   7.005   3.241
 5034SOL    HW116001   6.046   6.954   3.274
 5034SOL    HW216002   6.096   0.076   3.202
 5035SOL     OW16003   6.902   3.977   5.968
 5035SOL    HW116004   6.877   4.072   5.951
 5035SOL    HW216005   6.890   3.924   5.883
 5036SOL     OW16006   0.167   5.167   6.708
 5036SOL    HW116007   0.118   5.219   6.778
 5036SOL    HW216008   0.112   5.088   6.681
 5037SOL     OW16009   5.132   4.549   1.725
 5037SOL    HW116010   5.141   4.471   1.786
 5037SOL    HW216011   5.047   4.542   1.673
 5038SOL     OW16012   3.099   3.606   5.621
 5038SOL    HW116013   3.013   3.634   5.580
 5038SOL    HW216014   3.148   3.545   5.559
 5039SOL     OW16015   2.059   3.993   5.903
 5039SOL    HW116016   2.053   3.893   5.901
 5039SOL    HW216017   1.967   4.032   5.913
 5040SOL     OW16018   1.161   6.630   6.294
 5040SOL    HW116019   1.082   6.687   6.315
 5040SOL    HW216020   1.132   6.535   6.283
 5041SOL     OW16021   1.097   1.758   2.273
 5041SOL    HW116022   1.181   1.807   2.249
 5041SOL    HW216023   1.120   1.666   2.303
 5042SOL     OW16024   6.400   3.439   0.440
 5042SOL    HW116025   6.409   3.509   0.369
 5042SOL    HW216026   6.350   3.476   0.518
 5043SOL     OW16027   3.411   7.008   6.323
 5043SOL    HW116028   3.508   0.017   6.327
 5043SOL    HW216029   3.384   6.970   6.412
 5044SOL     OW16030   0.434   6.063   0.661
 5044SOL    HW116031   0.470   6.016   0.581
 5044SOL    HW216032   0.459   6.160   0.658
 5045SOL     OW16033   6.107   6.486   6.336
 5045SOL    HW116034   6.115   6.418   6.409
 5045SOL    HW216035   6.131   6.576   6.372
 5046SOL     OW16036   3.364   4.124   2.722
 5046SOL    HW116037   3.412   4.206   2.690
 5046SOL    HW216038   3.370   4.052   2.653
 5047SOL     OW16039   1.023   3.904   2.555
 5047SOL    HW116040   0.987   3.846   2.629
 5047SOL    HW216041   1.015   3.855   2.468
 5048SOL     OW16042   1.231   1.428   2.600
 5048SOL    HW116043   1.156   1.452   2.661
 5048SOL    HW216044   1.310   1.399   2.653
 5049SOL     OW16045   5.243   2.052   6.875
 5049SOL    HW116046   5.207   2.132   6.829
 5049SOL    HW216047   5.168   1.993   6.904
 5050SOL     OW16048   2.041   0.794   1.327
 5050SOL    HW116049   2.139   0.797   1.346
 5050SOL    HW216050   2.009   0.886   1.303
 5051SOL     OW16051   4.319   4.133   1.269
 5051SOL    HW116052   4.237   4.180   1.237
 5051SOL    HW216053   4.389   4.200   1.294
 5052SOL     OW16054   2.425   1.340   5.904
 5052SOL    HW116055   2.401   1.243   5.915
 5052SOL    HW216056   2.503   1.361   5.962
 5053SOL     OW16057   1.520   3.849   3.833
 5053SOL    HW116058   1.499   3.944   3.812
 5053SOL    HW216059   1.445   3.790   3.803
 5054SOL     OW16060   3.446   4.977   4.245
 5054SOL    HW116061   3.376   4.960   4.176
 5054SOL    HW216062   3.429   5.065   4.289
 5055SOL     OW16063   1.379   2.384   5.600
 5055SOL    HW116064   1.453   2.394   5.667
 5055SOL    HW216065   1.417   2.351   5.514
 5056SOL     OW16066   5.633   4.018   0.028
 5056SOL    HW116067   5.667   3.991   6.954
 5056SOL    HW216068   5.703   4.002   0.096
 5057SOL     OW16069   0.385   6.613   3.583
 5057SOL    HW116070   0.411   6.613   3.679
 5057SOL    HW216071   0.466   6.594   3.526
 5058SOL     OW16072   3.333   4.230   5.320
 5058SOL    HW116073   3.243   4.239   5.277
 5058SOL    HW216074   3.387   4.161   5.271
 5059SOL     OW16075   6.853   0.723   2.781
 5059SOL    HW116076   6.929   0.672   2.741
 5059SOL    HW216077   6.886   0.809   2.820
 5060SOL     OW16078   0.635   1.802   5.584
 5060SOL    HW116079   0.693   1.738   5.633
 5060SOL    HW216080   0.559   1.831   5.642
 5061SOL     OW16081   4.522   3.184   1.160
 5061SOL    HW116082   4.554   3.145   1.074
 5061SOL    HW216083   4.490   3.278   1.145
 5062SOL     OW16084   6.210   0.133   2.989
 5062SOL    HW116085   6.186   0.194   3.064
 5062SOL    HW216086   6.219   0.039   3.023
 5063SOL     OW16087   0.983   6.532   2.454
 5063SOL    HW116088   1.015   6.613   2.503
 5063SOL    HW216089   1.056   6.465   2.449
 5064SOL     OW16090   5.193   3.776   0.930
 5064SOL    HW116091   5.269   3.782   0.995
 5064SOL    HW216092   5.228   3.753   0.839
 5065SOL     OW16093   2.510   0.795   4.755
 5065SOL    HW116094   2.552   0.706   4.773
 5065SOL    HW216095   2.411   0.783   4.744
 5066SOL     OW16096   5.291   4.354   2.195
 5066SOL    HW116097   5.347   4.272   2.193
 5066SOL    HW216098   5.339   4.426   2.246
 5067SOL     OW16099   4.711   1.148   1.465
 5067SOL    HW116100   4.790   1.208   1.454
 5067SOL    HW216101   4.650   1.185   1.534
 5068SOL     OW16102   2.694   3.604   0.973
 5068SOL    HW116103   2.761   3.534   0.999
 5068SOL    HW216104   2.723   3.647   0.887
 5069SOL     OW16105   1.647   4.042   5.278
 5069SOL    HW116106   1.682   4.071   5.189
 5069SOL    HW216107   1.710   3.976   5.318
 5070SOL     OW16108   5.150   4.313   4.445
 5070SOL    HW116109   5.183   4.235   4.498
 5070SOL    HW216110   5.051   4.321   4.455
 5071SOL     OW16111   4.645   2.178   4.415
 5071SOL    HW116112   4.640   2.078   4.402
 5071SOL    HW216113   4.714   2.200   4.483
 5072SOL     OW16114   1.100   6.860   1.054
 5072SOL    HW116115   1.025   6.805   1.092
 5072SOL    HW216116   1.093   6.953   1.089
 5073SOL     OW16117   7.013   6.040   2.571
 5073SOL    HW116118   6.962   6.118   2.534
 5073SOL    HW216119   0.010   6.053   2.669
 5074SOL     OW16120   2.909   3.303   0.581
 5074SOL    HW116121   2.846   3.308   0.659
 5074SOL    HW216122   2.965   3.385   0.577
 5075SOL     OW16123   1.228   1.875   6.450
 5075SOL    HW116124   1.176   1.836   6.525
 5075SOL    HW216125   1.321   1.896   6.480
 5076SOL     OW16126   3.917   0.694   0.540
 5076SOL    HW116127   3.903   0.779   0.490
 5076SOL    HW216128   3.932   0.714   0.637
 5077SOL     OW16129   0.746   3.499   5.251
 5077SOL    HW116130   0.716   3.514   5.157
 5077SOL    HW216131   0.821   3.434   5.252
 5078SOL     OW16132   1.369   1.477   3.555
 5078SOL    HW116133   1.329   1.554   3.505
 5078SOL    HW216134   1.339   1.391   3.513
 5079SOL     OW16135   2.252   3.700   5.648
 5079SOL    HW116136   2.331   3.738   5.601
 5079SOL    HW216137   2.278   3.673   5.741
 5080SOL     OW16138   6.367   6.597   6.026
 5080SOL    HW116139   6.430   6.611   6.103
 5080SOL    HW216140   6.296   6.667   6.028
 5081SOL     OW16141   3.730   3.051   4.202
 5081SOL    HW116142   3.650   3.073   4.146
 5081SOL    HW216143   3.809   3.039   4.142
 5082SOL     OW16144   5.189   6.029   6.272
 5082SOL    HW116145   5.216   6.120   6.241
 5082SOL    HW216146   5.090   6.023   6.277
 5083SOL     OW16147   2.587   0.353   3.352
 5083SOL    HW116148   2.682   0.374   3.330
 5083SOL    HW216149   2.580   0.323   3.447
 5084SOL     OW16150   0.820   4.900   4.304
 5084SOL    HW116151   0.876   4.982   4.293
 5084SOL    HW216152   0.849   4.850   4.386
 5085SOL     OW16153   4.694   3.447   6.329
 5085SOL    HW116154   4.794   3.447   6.328
 5085SOL    HW216155   4.660   3.381   6.396
 5086SOL     OW16156   0.086   5.785   3.392
 5086SOL    HW116157   0.132   5.706   3.432
 5086SOL    HW216158   0.031   5.755   3.313
 5087SOL     OW16159   0.278   5.640   3.174
 5087SOL    HW116160   0.304   5.561   3.230
 5087SOL    HW216161   0.179   5.640   3.159
 5088SOL     OW16162   5.702   1.734   4.410
 5088SOL    HW116163   5.663   1.823   4.387
 5088SOL    HW216164   5.801   1.736   4.398
 5089SOL     OW16165   5.352   3.134   3.447
 5089SOL    HW116166   5.443   3.100   3.423
 5089SOL    HW216167   5.338   3.224   3.406
 5090SOL     OW16168   1.742   3.248   3.013
 5090SOL    HW116169   1.789   3.233   3.100
 5090SOL    HW216170   1.805   3.227   2.938
 5091SOL     OW16171   1.473   6.579   2.686
 5091SOL    HW116172   1.471   6.545   2.592
 5091SOL    HW216173   1.535   6.657   2.692
 5092SOL     OW16174   3.212   3.225   1.500
 5092SOL    HW116175   3.185   3.150   1.560
 5092SOL    HW216176   3.207   3.196   1.405
 5093SOL     OW16177   3.257   1.312   1.303
 5093SOL    HW116178   3.328   1.381   1.318
 5093SOL    HW216179   3.204   1.336   1.222
 5094SOL     OW16180   1.275   6.319   5.174
 5094SOL    HW116181   1.223   6.402   5.154
 5094SOL    HW216182   1.364   6.325   5.129
 5095SOL     OW16183   0.327   2.423   4.629
 5095SOL    HW116184   0.244   2.469   4.597
 5095SOL    HW216185   0.387   2.489   4.673
 5096SOL     OW16186   4.333   3.549   0.692
 5096SOL    HW116187   4.301   3.511   0.604
 5096SOL    HW216188   4.259   3.545   0.758
 5097SOL     OW16189   1.684   0.424   6.865
 5097SOL    HW116190   1.699   0.512   6.821
 5097SOL    HW216191   1.588   0.417   6.894
 5098SOL     OW16192   1.446   0.553   1.002
 5098SOL    HW116193   1.531   0.507   1.025
 5098SOL    HW216194   1.379   0.539   1.075
 5099SOL     OW16195   0.802   6.583   6.353
 5099SOL    HW116196   0.845   6.672   6.346
 5099SOL    HW216197   0.737   6.583   6.430
 5100SOL     OW16198   4.425   6.301   4.906
 5100SOL    HW116199   4.390   6.236   4.839
 5100SOL    HW216200   4.375   6.388   4.898
 5101SOL     OW16201   4.071   6.890   0.332
 5101SOL    HW116202   4.039   6.814   0.388
 5101SOL    HW216203   4.060   6.976   0.382
 5102SOL     OW16204   6.389   0.361   5.165
 5102SOL    HW116205   6.438   0.274   5.157
 5102SOL    HW216206   6.332   0.360   5.247
 5103SOL     OW16207   0.286   0.756   3.815
 5103SOL    HW116208   0.382   0.727   3.816
 5103SOL    HW216209   0.268   0.805   3.730
 5104SOL     OW16210   2.482   6.534   2.208
 5104SOL    HW116211   2.496   6.614   2.267
 5104SOL    HW216212   2.418   6.471   2.251
 5105SOL     OW16213   3.821   2.791   0.114
 5105SOL    HW116214   3.800   2.885   0.143
 5105SOL    HW216215   3.856   2.739   0.192
 5106SOL     OW16216   3.527   0.580   1.645
 5106SOL    HW116217   3.441   0.529   1.642
 5106SOL    HW216218   3.560   0.594   1.551
 5107SOL     OW16219   4.349   0.929   0.570
 5107SOL    HW116220   4.304   0.882   0.645
 5107SOL    HW216221   4.305   0.904   0.484
 5108SOL     OW16222   3.111   4.014   3.535
 5108SOL    HW116223   3.078   4.011   3.629
 5108SOL    HW216224   3.053   3.956   3.477
 5109SOL     OW16225   1.197   1.073   0.769
 5109SOL    HW116226   1.248   1.158   0.780
 5109SOL    HW216227   1.196   1.047   0.672
 5110SOL     OW16228   0.710   0.486   6.556
 5110SOL    HW116229   0.804   0.506   6.580
 5110SOL    HW216230   0.648   0.527   6.623
 5111SOL     OW16231   1.642   0.759   5.749
 5111SOL    HW116232   1.704   0.754   5.671
 5111SOL    HW216233   1.549   0.778   5.717
 5112SOL     OW16234   0.959   6.957   2.788
 5112SOL    HW116235   0.993   6.874   2.743
 5112SOL    HW216236   0.996   6.963   2.880
 5113SOL     OW16237   2.348   0.221   2.142
 5113SOL    HW116238   2.314   0.150   2.203
 5113SOL    HW216239   2.283   0.234   2.067
 5114SOL     OW16240   3.578   2.672   0.006
 5114SOL    HW116241   3.484   2.690   0.035
 5114SOL    HW216242   3.641   2.722   0.066
 5115SOL     OW16243   2.196   4.883   4.714
 5115SOL    HW116244   2.125   4.951   4.697
 5115SOL    HW216245   2.172   4.798   4.668
 5116SOL     OW16246   5.356   6.120   6.624
 5116SOL    HW116247   5.359   6.120   6.724
 5116SOL    HW216248   5.282   6.180   6.593
 5117SOL     OW16249   1.989   5.052   4.705
 5117SOL    HW116250   1.983   5.084   4.800
 5117SOL    HW216251   1.908   5.082   4.656
 5118SOL     OW16252   4.430   6.857   0.831
 5118SOL    HW116253   4.441   6.758   0.837
 5118SOL    HW216254   4.379   6.879   0.748
 5119SOL     OW16255   5.189   1.027   1.966
 5119SOL    HW116256   5.268   1.042   2.025
 5119SOL    HW216257   5.114   1.086   1.996
 5120SOL     OW16258   4.951   1.454   3.610
 5120SOL    HW116259   4.970   1.551   3.628
 5120SOL    HW216260   4.887   1.447   3.533
 5121SOL     OW16261   2.527   2.481   0.073
 5121SOL    HW116262   2.625   2.475   0.054
 5121SOL    HW216263   2.495   2.394   0.111
 5122SOL     OW16264   3.371   0.462   3.853
 5122SOL    HW116265   3.279   0.486   3.882
 5122SOL    HW216266   3.410   0.395   3.915
 5123SOL     OW16267   5.916   3.109   4.467
 5123SOL    HW116268   5.971   3.034   4.430
 5123SOL    HW216269   5.820   3.082   4.467
 5124SOL     OW16270   2.806   5.130   5.242
 5124SOL    HW116271   2.806   5.136   5.341
 5124SOL    HW216272   2.834   5.039   5.213
 5125SOL     OW16273   6.256   3.056   4.323
 5125SOL    HW116274   6.241   3.117   4.400
 5125SOL    HW216275   6.256   3.109   4.238
 5126SOL     OW16276   6.319   5.594   5.971
 5126SOL    HW116277   6.381   5.658   6.016
 5126SOL    HW216278   6.225   5.618   5.992
 5127SOL     OW16279   0.101   3.696   7.004
 5127SOL    HW116280   0.060   3.746   0.063
 5127SOL    HW216281   0.038   3.625   6.973
 5128SOL     OW16282   0.035   6.745   0.207
 5128SOL    HW116283   0.057   6.651   0.179
 5128SOL    HW216284   0.071   6.809   0.140
 5129SOL     OW16285   4.663   0.434   2.459
 5129SOL    HW116286   4.699   0.356   2.408
 5129SOL    HW216287   4.738   0.496   2.481
 5130SOL     OW16288   1.730   6.149   4.293
 5130SOL    HW116289   1.824   6.178   4.308
 5130SOL    HW216290   1.680   6.222   4.245
 5131SOL     OW16291   3.122   4.892   3.715
 5131SOL    HW116292   3.029   4.862   3.735
 5131SOL    HW216293   3.187   4.834   3.765
 5132SOL     OW16294   3.188   1.467   5.871
 5132SOL    HW116295   3.187   1.381   5.923
 5132SOL    HW216296   3.099   1.512   5.880
 5133SOL     OW16297   2.830   5.724   6.249
 5133SOL    HW116298   2.811   5.822   6.241
 5133SOL    HW216299   2.902   5.710   6.317
 5134SOL     OW16300   6.894   6.989   2.618
 5134SOL    HW116301   6.849   0.010   2.699
 5134SOL    HW216302   6.967   0.034   2.589
 5135SOL     OW16303   5.836   3.793   3.540
 5135SOL    HW116304   5.771   3.774   3.613
 5135SOL    HW216305   5.916   3.839   3.578
 5136SOL     OW16306   5.884   0.550   5.911
 5136SOL    HW116307   5.848   0.458   5.894
 5136SOL    HW216308   5.875   0.605   5.828
 5137SOL     OW16309   5.485   3.155   4.832
 5137SOL    HW116310   5.543   3.159   4.914
 5137SOL    HW216311   5.426   3.236   4.829
 5138SOL     OW16312   4.051   3.796   3.989
 5138SOL    HW116313   3.990   3.829   3.918
 5138SOL    HW216314   4.060   3.865   4.061
 5139SOL     OW16315   1.094   6.877   4.624
 5139SOL    HW116316   1.015   6.939   4.620
 5139SOL    HW216317   1.177   6.930   4.642
 5140SOL     OW16318   3.303   1.925   5.420
 5140SOL    HW116319   3.219   1.967   5.386
 5140SOL    HW216320   3.280   1.843   5.472
 5141SOL     OW16321   6.839   3.593   1.368
 5141SOL    HW116322   6.850   3.662   1.439
 5141SOL    HW216323   6.765   3.620   1.306
 5142SOL     OW16324   5.444   6.721   5.725
 5142SOL    HW116325   5.399   6.749   5.641
 5142SOL    HW216326   5.511   6.649   5.705
 5143SOL     OW16327   0.928   4.004   5.028
 5143SOL    HW116328   0.905   3.911   5.056
 5143SOL    HW216329   0.851   4.044   4.978
 5144SOL     OW16330   1.750   4.026   5.831
 5144SOL    HW116331   1.743   4.050   5.734
 5144SOL    HW216332   1.767   3.928   5.841
 5145SOL     OW16333   3.956   6.795   6.127
 5145SOL    HW116334   3.868   6.835   6.104
 5145SOL    HW216335   3.948   6.695   6.129
 5146SOL     OW16336   3.659   3.898   4.976
 5146SOL    HW116337   3.713   3.969   4.931
 5146SOL    HW216338   3.700   3.875   5.064
 5147SOL     OW16339   6.233   4.974   3.347
 5147SOL    HW116340   6.282   4.893   3.313
 5147SOL    HW216341   6.275   5.056   3.309
 5148SOL     OW16342   0.522   1.039   1.955
 5148SOL    HW116343   0.585   1.110   1.923
 5148SOL    HW216344   0.524   0.962   1.892
 5149SOL     OW16345   6.028   5.292   4.613
 5149SOL    HW116346   6.057   5.342   4.695
 5149SOL    HW216347   6.062   5.199   4.617
 5150SOL     OW16348   2.101   4.133   4.074
 5150SOL    HW116349   2.139   4.121   4.166
 5150SOL    HW216350   2.137   4.063   4.013
 5151SOL     OW16351   6.512   3.948   1.766
 5151SOL    HW116352   6.471   3.859   1.743
 5151SOL    HW216353   6.604   3.952   1.727
 5152SOL     OW16354   1.877   5.780   6.427
 5152SOL    HW116355   1.779   5.790   6.445
 5152SOL    HW216356   1.921   5.739   6.507
 5153SOL     OW16357   0.767   2.236   0.789
 5153SOL    HW116358   0.782   2.144   0.755
 5153SOL    HW216359   0.833   2.298   0.747
 5154SOL     OW16360   1.396   2.806   6.502
 5154SOL    HW116361   1.338   2.842   6.429
 5154SOL    HW216362   1.480   2.770   6.462
 5155SOL     OW16363   4.219   1.202   1.001
 5155SOL    HW116364   4.121   1.187   0.986
 5155SOL    HW216365   4.235   1.300   1.016
 5156SOL     OW16366   5.860   4.701   4.753
 5156SOL    HW116367   5.942   4.741   4.796
 5156SOL    HW216368   5.872   4.699   4.654
 5157SOL     OW16369   3.346   1.915   2.143
 5157SOL    HW116370   3.438   1.927   2.106
 5157SOL    HW216371   3.317   1.820   2.131
 5158SOL     OW16372   3.383   2.383   0.612
 5158SOL    HW116373   3.365   2.481   0.601
 5158SOL    HW216374   3.435   2.368   0.695
 5159SOL     OW16375   5.984   4.130   6.334
 5159SOL    HW116376   5.958   4.036   6.309
 5159SOL    HW216377   5.968   4.190   6.255
 5160SOL     OW16378   7.014   5.506   3.493
 5160SOL    HW116379   6.950   5.459   3.432
 5160SOL    HW216380   0.085   5.457   3.493
 5161SOL     OW16381   1.084   3.270   0.296
 5161SOL    HW116382   1.154   3.224   0.351
 5161SOL    HW216383   1.128   3.332   0.231
 5162SOL     OW16384   1.142   5.326   2.395
 5162SOL    HW116385   1.067   5.270   2.430
 5162SOL    HW216386   1.118   5.361   2.304
 5163SOL     OW16387   3.725   6.512   0.772
 5163SOL    HW116388   3.668   6.584   0.731
 5163SOL    HW216389   3.757   6.543   0.862
 5164SOL     OW16390   3.259   2.866   6.555
 5164SOL    HW116391   3.191   2.885   6.483
 5164SOL    HW216392   3.235   2.917   6.637
 5165SOL     OW16393   0.979   4.359   6.655
 5165SOL    HW116394   1.053   4.291   6.660
 5165SOL    HW216395   0.960   4.394   6.746
 5166SOL     OW16396   1.651   5.198   2.584
 5166SOL    HW116397   1.644   5.266   2.511
 5166SOL    HW216398   1.586   5.218   2.656
 5167SOL     OW16399   6.676   4.260   4.695
 5167SOL    HW116400   6.701   4.335   4.634
 5167SOL    HW216401   6.729   4.266   4.779
 5168SOL     OW16402   5.150   2.543   2.979
 5168SOL    HW116403   5.094   2.563   2.898
 5168SOL    HW216404   5.221   2.477   2.955
 5169SOL     OW16405   4.423   2.118   3.322
 5169SOL    HW116406   4.375   2.065   3.253
 5169SOL    HW216407   4.408   2.077   3.412
 5170SOL     OW16408   1.320   3.515   5.451
 5170SOL    HW116409   1.258   3.513   5.530
 5170SOL    HW216410   1.400   3.572   5.474
 5171SOL     OW16411   0.127   4.654   5.537
 5171SOL    HW116412   0.112   4.571   5.591
 5171SOL    HW216413   0.126   4.734   5.598
 5172SOL     OW16414   0.928   4.395   3.354
 5172SOL    HW116415   0.971   4.314   3.313
 5172SOL    HW216416   0.945   4.475   3.295
 5173SOL     OW16417   4.153   4.732   5.993
 5173SOL    HW116418   4.216   4.663   6.029
 5173SOL    HW216419   4.147   4.724   5.894
 5174SOL     OW16420   2.255   5.837   3.986
 5174SOL    HW116421   2.336   5.801   4.032
 5174SOL    HW216422   2.180   5.843   4.051
 5175SOL     OW16423   2.797   3.890   0.105
 5175SOL    HW116424   2.785   3.989   0.102
 5175SOL    HW216425   2.727   3.845   0.050
 5176SOL     OW16426   5.088   4.388   6.671
 5176SOL    HW116427   5.151   4.456   6.707
 5176SOL    HW216428   4.995   4.410   6.701
 5177SOL     OW16429   4.413   6.932   1.318
 5177SOL    HW116430   4.490   6.893   1.370
 5177SOL    HW216431   4.376   6.863   1.257
 5178SOL     OW16432   1.313   4.366   2.433
 5178SOL    HW116433   1.277   4.277   2.405
 5178SOL    HW216434   1.240   4.418   2.479
 5179SOL     OW16435   4.656   4.331   4.191
 5179SOL    HW116436   4.709   4.298   4.269
 5179SOL    HW216437   4.573   4.377   4.225
 5180SOL     OW16438   3.627   0.755   1.076
 5180SOL    HW116439   3.654   0.847   1.106
 5180SOL    HW216440   3.665   0.687   1.138
 5181SOL     OW16441   6.037   6.865   1.251
 5181SOL    HW116442   6.073   6.957   1.265
 5181SOL    HW216443   6.107   6.798   1.273
 5182SOL     OW16444   4.253   4.718   1.960
 5182SOL    HW116445   4.228   4.710   2.056
 5182SOL    HW216446   4.262   4.627   1.919
 5183SOL     OW16447   4.174   1.884   2.494
 5183SOL    HW116448   4.254   1.939   2.519
 5183SOL    HW216449   4.205   1.801   2.447
 5184SOL     OW16450   2.216   1.597   2.949
 5184SOL    HW116451   2.246   1.564   3.039
 5184SOL    HW216452   2.221   1.697   2.947
 5185SOL     OW16453   5.357   0.511   2.717
 5185SOL    HW116454   5.448   0.502   2.759
 5185SOL    HW216455   5.348   0.445   2.643
 5186SOL     OW16456   6.351   2.943   5.942
 5186SOL    HW116457   6.390   2.909   6.027
 5186SOL    HW216458   6.416   3.003   5.896
 5187SOL     OW16459   1.209   5.428   5.528
 5187SOL    HW116460   1.232   5.525   5.525
 5187SOL    HW216461   1.245   5.383   5.446
 5188SOL     OW16462   5.986   5.566   1.900
 5188SOL    HW116463   6.007   5.600   1.809
 5188SOL    HW216464   5.967   5.468   1.896
 5189SOL     OW16465   4.953   5.790   0.297
 5189SOL    HW116466   4.865   5.761   0.334
 5189SOL    HW216467   5.008   5.830   0.370
 5190SOL     OW16468   1.228   3.630   3.350
 5190SOL    HW116469   1.211   3.535   3.377
 5190SOL    HW216470   1.186   3.647   3.261
 5191SOL     OW16471   3.708   6.086   2.436
 5191SOL    HW116472   3.658   6.159   2.484
 5191SOL    HW216473   3.646   6.010   2.419
 5192SOL     OW16474   1.480   5.997   1.279
 5192SOL    HW116475   1.432   6.032   1.360
 5192SOL    HW216476   1.527   6.073   1.233
 5193SOL     OW16477   4.639   5.909   5.437
 5193SOL    HW116478   4.568   5.942   5.374
 5193SOL    HW216479   4.597   5.861   5.513
 5194SOL     OW16480   3.526   2.466   6.826
 5194SOL    HW116481   3.549   2.535   6.894
 5194SOL    HW216482   3.454   2.500   6.766
 5195SOL     OW16483   0.152   0.816   4.286
 5195SOL    HW116484   0.120   0.755   4.213
 5195SOL    HW216485   0.173   0.762   4.368
 5196SOL     OW16486   4.567   6.837   2.269
 5196SOL    HW116487   4.548   6.915   2.329
 5196SOL    HW216488   4.548   6.752   2.318
 5197SOL     OW16489   1.515   3.709   6.404
 5197SOL    HW116490   1.464   3.697   6.319
 5197SOL    HW216491   1.473   3.654   6.476
 5198SOL     OW16492   4.345   5.536   3.298
 5198SOL    HW116493   4.380   5.571   3.385
 5198SOL    HW216494   4.259   5.488   3.313
 5199SOL     OW16495   0.874   5.413   0.382
 5199SOL    HW116496   0.880   5.512   0.375
 5199SOL    HW216497   0.956   5.378   0.429
 5200SOL     OW16498   6.899   3.598   4.828
 5200SOL    HW116499   6.914   3.691   4.860
 5200SOL    HW216500   6.935   3.533   4.895
 5201SOL     OW16501   0.996   6.890   3.485
 5201SOL    HW116502   1.025   6.860   3.575
 5201SOL    HW216503   0.898   6.875   3.475
 5202SOL     OW16504   5.899   2.829   6.323
 5202SOL    HW116505   5.826   2.875   6.272
 5202SOL    HW216506   5.859   2.771   6.394
 5203SOL     OW16507   1.934   1.787   6.833
 5203SOL    HW116508   1.995   1.767   6.910
 5203SOL    HW216509   1.841   1.800   6.867
 5204SOL     OW16510   4.220   5.135   0.186
 5204SOL    HW116511   4.152   5.063   0.174
 5204SOL    HW216512   4.195   5.191   0.265
 5205SOL     OW16513   2.094   6.721   0.801
 5205SOL    HW116514   2.135   6.700   0.890
 5205SOL    HW216515   2.020   6.657   0.782
 5206SOL     OW16516   0.313   3.782   5.395
 5206SOL    HW116517   0.309   3.700   5.452
 5206SOL    HW216518   0.223   3.826   5.394
 5207SOL     OW16519   1.044   5.570   4.346
 5207SOL    HW116520   0.962   5.513   4.344
 5207SOL    HW216521   1.069   5.596   4.253
 5208SOL     OW16522   3.996   1.861   0.042
 5208SOL    HW116523   4.036   1.781   7.013
 5208SOL    HW216524   3.920   1.831   0.101
 5209SOL     OW16525   5.768   5.648   3.811
 5209SOL    HW116526   5.714   5.716   3.861
 5209SOL    HW216527   5.827   5.599   3.875
 5210SOL     OW16528   5.836   2.705   5.608
 5210SOL    HW116529   5.772   2.651   5.662
 5210SOL    HW216530   5.899   2.644   5.559
 5211SOL     OW16531   3.778   2.959   4.784
 5211SOL    HW116532   3.787   3.051   4.746
 5211SOL    HW216533   3.845   2.898   4.742
 5212SOL     OW16534   6.135   1.658   0.763
 5212SOL    HW116535   6.069   1.592   0.728
 5212SOL    HW216536   6.227   1.619   0.759
 5213SOL     OW16537   4.965   4.022   6.523
 5213SOL    HW116538   5.028   3.956   6.564
 5213SOL    HW216539   4.874   4.009   6.562
 5214SOL     OW16540   5.069   1.716   6.619
 5214SOL    HW116541   5.020   1.719   6.707
 5214SOL    HW216542   5.091   1.621   6.597
 5215SOL     OW16543   5.592   5.573   3.568
 5215SOL    HW116544   5.555   5.663   3.590
 5215SOL    HW216545   5.660   5.547   3.637
 5216SOL     OW16546   4.064   5.800   2.166
 5216SOL    HW116547   4.012   5.870   2.118
 5216SOL    HW216548   4.096   5.731   2.101
 5217SOL     OW16549   3.835   5.461   4.026
 5217SOL    HW116550   3.891   5.378   4.016
 5217SOL    HW216551   3.742   5.436   4.051
 5218SOL     OW16552   1.196   0.573   3.633
 5218SOL    HW116553   1.103   0.556   3.600
 5218SOL    HW216554   1.212   0.519   3.716
 5219SOL     OW16555   3.338   0.466   6.094
 5219SOL    HW116556   3.371   0.449   6.002
 5219SOL    HW216557   3.254   0.414   6.110
 5220SOL     OW16558   1.802   5.758   2.980
 5220SOL    HW116559   1.749   5.677   2.956
 5220SOL    HW216560   1.868   5.735   3.052
 5221SOL     OW16561   5.424   2.219   4.228
 5221SOL    HW116562   5.436   2.189   4.134
 5221SOL    HW216563   5.353   2.288   4.233
 5222SOL     OW16564   2.204   0.142   3.949
 5222SOL    HW116565   2.285   0.086   3.965
 5222SOL    HW216566   2.149   0.101   3.877
 5223SOL     OW16567   5.592   0.500   1.038
 5223SOL    HW116568   5.588   0.414   1.088
 5223SOL    HW216569   5.678   0.547   1.059
 5224SOL     OW16570   1.116   2.071   4.011
 5224SOL    HW116571   1.146   2.165   3.999
 5224SOL    HW216572   1.194   2.009   4.009
 5225SOL     OW16573   6.458   7.007   2.828
 5225SOL    HW116574   6.404   7.004   2.744
 5225SOL    HW216575   6.553   6.983   2.809
 5226SOL     OW16576   0.813   5.630   5.151
 5226SOL    HW116577   0.789   5.534   5.169
 5226SOL    HW216578   0.840   5.675   5.236
 5227SOL     OW16579   1.534   4.458   3.505
 5227SOL    HW116580   1.472   4.415   3.439
 5227SOL    HW216581   1.490   4.462   3.594
 5228SOL     OW16582   6.679   2.427   1.072
 5228SOL    HW116583   6.588   2.468   1.074
 5228SOL    HW216584   6.695   2.377   1.157
 5229SOL     OW16585   1.343   4.034   0.372
 5229SOL    HW116586   1.251   4.010   0.399
 5229SOL    HW216587   1.394   3.951   0.349
 5230SOL     OW16588   0.061   6.412   1.422
 5230SOL    HW116589   0.095   6.325   1.386
 5230SOL    HW216590   0.073   6.484   1.354
 5231SOL     OW16591   3.973   3.909   4.217
 5231SOL    HW116592   3.916   3.970   4.163
 5231SOL    HW216593   3.932   3.818   4.220
 5232SOL     OW16594   3.358   2.144   5.869
 5232SOL    HW116595   3.449   2.167   5.902
 5232SOL    HW216596   3.352   2.161   5.771
 5233SOL     OW16597   6.102   7.001   1.746
 5233SOL    HW116598   6.014   6.954   1.734
 5233SOL    HW216599   6.165   6.939   1.793
 5234SOL     OW16600   2.777   0.426   6.590
 5234SOL    HW116601   2.795   0.522   6.571
 5234SOL    HW216602   2.681   0.406   6.572
 5235SOL     OW16603   2.160   3.134   1.111
 5235SOL    HW116604   2.203   3.044   1.114
 5235SOL    HW216605   2.169   3.179   1.200
 5236SOL     OW16606   5.798   3.573   2.320
 5236SOL    HW116607   5.855   3.500   2.283
 5236SOL    HW216608   5.855   3.639   2.369
 5237SOL     OW16609   2.660   0.927   5.620
 5237SOL    HW116610   2.683   0.935   5.717
 5237SOL    HW216611   2.720   0.860   5.576
 5238SOL     OW16612   1.677   4.907   0.484
 5238SOL    HW116613   1.718   4.978   0.427
 5238SOL    HW216614   1.586   4.937   0.513
 5239SOL     OW16615   4.072   3.529   4.011
 5239SOL    HW116616   4.069   3.629   4.006
 5239SOL    HW216617   4.077   3.500   4.106
 5240SOL     OW16618   2.681   1.425   6.024
 5240SOL    HW116619   2.668   1.478   5.940
 5240SOL    HW216620   2.761   1.460   6.073
 5241SOL     OW16621   1.297   5.649   6.371
 5241SOL    HW116622   1.249   5.730   6.336
 5241SOL    HW216623   1.238   5.600   6.436
 5242SOL     OW16624   6.723   6.563   6.107
 5242SOL    HW116625   6.673   6.589   6.189
 5242SOL    HW216626   6.755   6.644   6.059
 5243SOL     OW16627   1.179   5.984   1.657
 5243SOL    HW116628   1.149   5.916   1.590
 5243SOL    HW216629   1.099   6.028   1.698
 5244SOL     OW16630   3.844   4.014   5.817
 5244SOL    HW116631   3.757   3.975   5.847
 5244SOL    HW216632   3.840   4.114   5.825
 5245SOL     OW16633   4.175   4.486   0.213
 5245SOL    HW116634   4.086   4.500   0.168
 5245SOL    HW216635   4.164   4.420   0.287
 5246SOL     OW16636   5.802   4.346   2.893
 5246SOL    HW116637   5.757   4.355   2.804
 5246SOL    HW216638   5.765   4.268   2.942
 5247SOL     OW16639   1.211   6.245   0.617
 5247SOL    HW116640   1.235   6.149   0.634
 5247SOL    HW216641   1.223   6.265   0.520
 5248SOL     OW16642   6.221   0.533   4.941
 5248SOL    HW116643   6.144   0.558   5.000
 5248SOL    HW216644   6.273   0.459   4.984
 5249SOL     OW16645   0.864   5.003   5.261
 5249SOL    HW116646   0.865   5.059   5.344
 5249SOL    HW216647   0.901   5.056   5.185
 5250SOL     OW16648   0.084   1.125   5.648
 5250SOL    HW116649   0.026   1.205   5.660
 5250SOL    HW216650   0.106   1.114   5.551
 5251SOL     OW16651   0.586   3.082   1.164
 5251SOL    HW116652   0.574   3.044   1.256
 5251SOL    HW216653   0.552   3.016   1.096
 5252SOL     OW16654   2.026   5.494   0.882
 5252SOL    HW116655   2.095   5.521   0.949
 5252SOL    HW216656   1.969   5.572   0.860
 5253SOL     OW16657   6.091   4.079   5.337
 5253SOL    HW116658   6.091   4.076   5.437
 5253SOL    HW216659   5.998   4.061   5.303
 5254SOL     OW16660   5.859   1.241   3.438
 5254SOL    HW116661   5.812   1.157   3.414
 5254SOL    HW216662   5.957   1.224   3.445
 5255SOL     OW16663   4.603   0.470   5.761
 5255SOL    HW116664   4.576   0.437   5.852
 5255SOL    HW216665   4.701   0.487   5.760
 5256SOL     OW16666   4.565   1.042   3.236
 5256SOL    HW116667   4.650   1.035   3.288
 5256SOL    HW216668   4.495   0.985   3.277
 5257SOL     OW16669   4.297   0.300   1.715
 5257SOL    HW116670   4.226   0.369   1.727
 5257SOL    HW216671   4.321   0.293   1.618
 5258SOL     OW16672   5.366   4.121   1.860
 5258SOL    HW116673   5.428   4.110   1.938
 5258SOL    HW216674   5.368   4.038   1.804
 5259SOL     OW16675   4.428   6.604   1.376
 5259SOL    HW116676   4.458   6.517   1.335
 5259SOL    HW216677   4.490   6.628   1.451
 5260SOL     OW16678   5.874   3.697   1.241
 5260SOL    HW116679   5.946   3.765   1.224
 5260SOL    HW216680   5.916   3.608   1.260
 5261SOL     OW16681   1.809   2.918   6.040
 5261SOL    HW116682   1.724   2.967   6.058
 5261SOL    HW216683   1.869   2.975   5.984
 5262SOL     OW16684   3.250   0.621   2.611
 5262SOL    HW116685   3.260   0.554   2.685
 5262SOL    HW216686   3.334   0.623   2.557
 5263SOL     OW16687   0.929   1.196   5.536
 5263SOL    HW116688   0.845   1.244   5.560
 5263SOL    HW216689   0.958   1.139   5.614
 5264SOL     OW16690   6.773   0.051   2.233
 5264SOL    HW116691   6.700   0.098   2.282
 5264SOL    HW216692   6.734   7.016   2.157
 5265SOL     OW16693   4.927   4.313   2.823
 5265SOL    HW116694   4.834   4.301   2.857
 5265SOL    HW216695   4.986   4.345   2.896
 5266SOL     OW16696   2.779   0.644   2.111
 5266SOL    HW116697   2.717   0.661   2.187
 5266SOL    HW216698   2.731   0.661   2.024
 5267SOL     OW16699   4.836   4.836   5.964
 5267SOL    HW116700   4.762   4.771   5.942
 5267SOL    HW216701   4.848   4.840   6.063
 5268SOL     OW16702   6.083   5.860   6.283
 5268SOL    HW116703   6.035   5.815   6.358
 5268SOL    HW216704   6.150   5.925   6.320
 5269SOL     OW16705   2.609   6.226   4.408
 5269SOL    HW116706   2.571   6.229   4.500
 5269SOL    HW216707   2.707   6.246   4.411
 5270SOL     OW16708   4.849   1.639   1.700
 5270SOL    HW116709   4.832   1.693   1.618
 5270SOL    HW216710   4.930   1.581   1.686
 5271SOL     OW16711   4.413   5.173   4.668
 5271SOL    HW116712   4.472   5.103   4.628
 5271SOL    HW216713   4.408   5.251   4.606
 5272SOL     OW16714   1.903   5.772   3.406
 5272SOL    HW116715   1.861   5.754   3.495
 5272SOL    HW216716   1.981   5.833   3.417
 5273SOL     OW16717   0.377   3.658   3.720
 5273SOL    HW116718   0.372   3.568   3.676
 5273SOL    HW216719   0.332   3.654   3.809
 5274SOL     OW16720   5.922   5.176   2.314
 5274SOL    HW116721   5.881   5.097   2.359
 5274SOL    HW216722   5.924   5.161   2.215
 5275SOL     OW16723   3.489   1.489   5.916
 5275SOL    HW116724   3.491   1.426   5.993
 5275SOL    HW216725   3.400   1.485   5.871
 5276SOL     OW16726   0.887   6.822   1.346
 5276SOL    HW116727   0.924   6.745   1.397
 5276SOL    HW216728   0.856   6.790   1.256
 5277SOL     OW16729   1.248   2.609   3.314
 5277SOL    HW116730   1.343   2.578   3.309
 5277SOL    HW216731   1.241   2.699   3.270
 5278SOL     OW16732   5.168   6.537   4.286
 5278SOL    HW116733   5.249   6.529   4.229
 5278SOL    HW216734   5.088   6.501   4.237
 5279SOL     OW16735   1.481   5.283   6.553
 5279SOL    HW116736   1.487   5.337   6.637
 5279SOL    HW216737   1.468   5.186   6.576
 5280SOL     OW16738   2.690   5.656   5.766
 5280SOL    HW116739   2.666   5.559   5.769
 5280SOL    HW216740   2.743   5.675   5.683
 5281SOL     OW16741   1.326   0.821   3.650
 5281SOL    HW116742   1.284   0.740   3.607
 5281SOL    HW216743   1.395   0.859   3.588
 5282SOL     OW16744   1.693   1.096   2.639
 5282SOL    HW116745   1.780   1.051   2.663
 5282SOL    HW216746   1.624   1.027   2.621
 5283SOL     OW16747   2.993   0.300   2.531
 5283SOL    HW116748   2.990   0.364   2.454
 5283SOL    HW216749   2.978   0.207   2.498
 5284SOL     OW16750   4.870   2.952   2.474
 5284SOL    HW116751   4.794   2.947   2.410
 5284SOL    HW216752   4.956   2.941   2.424
 5285SOL     OW16753   1.338   3.651   4.169
 5285SOL    HW116754   1.264   3.645   4.102
 5285SOL    HW216755   1.314   3.599   4.250
 5286SOL     OW16756   6.567   3.751   1.283
 5286SOL    HW116757   6.489   3.813   1.274
 5286SOL    HW216758   6.560   3.678   1.214
 5287SOL     OW16759   2.433   6.010   1.542
 5287SOL    HW116760   2.508   6.056   1.590
 5287SOL    HW216761   2.372   5.967   1.608
 5288SOL     OW16762   3.813   0.944   2.412
 5288SOL    HW116763   3.831   0.986   2.501
 5288SOL    HW216764   3.882   0.973   2.346
 5289SOL     OW16765   1.442   5.702   5.999
 5289SOL    HW116766   1.353   5.746   5.990
 5289SOL    HW216767   1.500   5.727   5.921
 5290SOL     OW16768   0.719   4.676   6.097
 5290SOL    HW116769   0.793   4.619   6.133
 5290SOL    HW216770   0.650   4.690   6.168
 5291SOL     OW16771   2.944   4.987   6.418
 5291SOL    HW116772   2.994   5.000   6.504
 5291SOL    HW216773   2.902   4.896   6.417
 5292SOL     OW16774   6.234   4.700   6.532
 5292SOL    HW116775   6.148   4.678   6.487
 5292SOL    HW216776   6.237   4.798   6.553
 5293SOL     OW16777   1.653   0.106   4.741
 5293SOL    HW116778   1.556   0.103   4.714
 5293SOL    HW216779   1.674   0.196   4.779
 5294SOL     OW16780   5.820   3.132   4.827
 5294SOL    HW116781   5.739   3.155   4.881
 5294SOL    HW216782   5.830   3.032   4.821
 5295SOL     OW16783   4.107   0.597   2.779
 5295SOL    HW116784   4.133   0.509   2.819
 5295SOL    HW216785   4.156   0.609   2.692
 5296SOL     OW16786   3.150   5.131   0.007
 5296SOL    HW116787   3.072   5.070   0.020
 5296SOL    HW216788   3.137   5.183   6.939
 5297SOL     OW16789   1.878   3.038   0.882
 5297SOL    HW116790   1.904   3.068   0.791
 5297SOL    HW216791   1.959   3.008   0.932
 5298SOL     OW16792   0.733   6.276   0.231
 5298SOL    HW116793   0.758   6.332   0.152
 5298SOL    HW216794   0.808   6.276   0.297
 5299SOL     OW16795   2.436   3.559   0.396
 5299SOL    HW116796   2.404   3.515   0.312
 5299SOL    HW216797   2.391   3.518   0.475
 5300SOL     OW16798   1.049   5.815   1.090
 5300SOL    HW116799   1.111   5.737   1.092
 5300SOL    HW216800   1.088   5.887   1.033
 5301SOL     OW16801   3.542   2.321   6.195
 5301SOL    HW116802   3.443   2.333   6.188
 5301SOL    HW216803   3.586   2.410   6.200
 5302SOL     OW16804   5.871   5.481   3.631
 5302SOL    HW116805   5.961   5.505   3.595
 5302SOL    HW216806   5.849   5.541   3.708
 5303SOL     OW16807   0.481   5.774   4.040
 5303SOL    HW116808   0.402   5.787   3.980
 5303SOL    HW216809   0.547   5.847   4.024
 5304SOL     OW16810   5.406   0.999   0.305
 5304SOL    HW116811   5.447   1.076   0.354
 5304SOL    HW216812   5.473   0.925   0.297
 5305SOL     OW16813   0.847   4.944   2.808
 5305SOL    HW116814   0.889   4.854   2.802
 5305SOL    HW216815   0.752   4.939   2.777
 5306SOL     OW16816   1.199   4.155   4.722
 5306SOL    HW116817   1.166   4.061   4.720
 5306SOL    HW216818   1.292   4.156   4.758
 5307SOL     OW16819   4.301   1.935   0.391
 5307SOL    HW116820   4.381   1.904   0.340
 5307SOL    HW216821   4.318   1.926   0.489
 5308SOL     OW16822   0.971   4.983   3.651
 5308SOL    HW116823   0.983   4.896   3.698
 5308SOL    HW216824   0.930   5.050   3.714
 5309SOL     OW16825   4.185   4.874   1.566
 5309SOL    HW116826   4.132   4.850   1.647
 5309SOL    HW216827   4.277   4.903   1.593
 5310SOL     OW16828   6.416   3.971   2.013
 5310SOL    HW116829   6.333   3.914   2.013
 5310SOL    HW216830   6.450   3.981   1.920
 5311SOL     OW16831   6.614   5.493   6.862
 5311SOL    HW116832   6.530   5.443   6.885
 5311SOL    HW216833   6.615   5.580   6.912
 5312SOL     OW16834   6.873   5.127   1.686
 5312SOL    HW116835   6.875   5.047   1.626
 5312SOL    HW216836   6.932   5.111   1.765
 5313SOL     OW16837   1.567   3.683   5.952
 5313SOL    HW116838   1.539   3.746   5.879
 5313SOL    HW216839   1.501   3.687   6.026
 5314SOL     OW16840   3.058   6.422   0.648
 5314SOL    HW116841   3.006   6.489   0.701
 5314SOL    HW216842   2.996   6.375   0.584
 5315SOL     OW16843   5.052   3.603   1.742
 5315SOL    HW116844   5.007   3.553   1.668
 5315SOL    HW216845   5.124   3.545   1.782
 5316SOL     OW16846   0.839   3.635   4.416
 5316SOL    HW116847   0.920   3.634   4.358
 5316SOL    HW216848   0.779   3.711   4.389
 5317SOL     OW16849   6.343   6.676   4.503
 5317SOL    HW116850   6.399   6.674   4.586
 5317SOL    HW216851   6.393   6.635   4.427
 5318SOL     OW16852   0.561   2.898   6.492
 5318SOL    HW116853   0.467   2.892   6.526
 5318SOL    HW216854   0.570   2.841   6.411
 5319SOL     OW16855   3.723   6.697   0.347
 5319SOL    HW116856   3.645   6.658   0.396
 5319SOL    HW216857   3.747   6.638   0.270
 5320SOL     OW16858   5.435   5.004   0.537
 5320SOL    HW116859   5.357   5.060   0.565
 5320SOL    HW216860   5.488   5.052   0.468
 5321SOL     OW16861   1.301   4.947   4.650
 5321SOL    HW116862   1.234   4.982   4.715
 5321SOL    HW216863   1.392   4.978   4.677
 5322SOL     OW16864   4.958   6.233   6.276
 5322SOL    HW116865   5.053   6.258   6.258
 5322SOL    HW216866   4.898   6.296   6.227
 5323SOL     OW16867   4.156   1.812   6.744
 5323SOL    HW116868   4.253   1.835   6.738
 5323SOL    HW216869   4.105   1.891   6.778
 5324SOL     OW16870   3.745   2.400   0.720
 5324SOL    HW116871   3.780   2.421   0.629
 5324SOL    HW216872   3.696   2.312   0.718
 5325SOL     OW16873   4.636   0.767   4.696
 5325SOL    HW116874   4.657   0.670   4.691
 5325SOL    HW216875   4.552   0.787   4.645
 5326SOL     OW16876   6.856   4.970   3.156
 5326SOL    HW116877   6.861   5.037   3.082
 5326SOL    HW216878   6.763   4.936   3.164
 5327SOL     OW16879   5.816   3.162   5.311
 5327SOL    HW116880   5.895   3.161   5.373
 5327SOL    HW216881   5.732   3.156   5.363
 5328SOL     OW16882   4.454   2.942   5.389
 5328SOL    HW116883   4.474   3.040   5.384
 5328SOL    HW216884   4.511   2.893   5.323
 5329SOL     OW16885   0.174   4.774   0.451
 5329SOL    HW116886   0.127   4.821   0.376
 5329SOL    HW216887   0.199   4.840   0.522
 5330SOL     OW16888   3.629   4.312   5.726
 5330SOL    HW116889   3.589   4.396   5.688
 5330SOL    HW216890   3.705   4.336   5.786
 5331SOL     OW16891   5.315   1.390   0.595
 5331SOL    HW116892   5.370   1.452   0.652
 5331SOL    HW216893   5.223   1.382   0.634
 5332SOL     OW16894   0.796   3.434   1.368
 5332SOL    HW116895   0.724   3.466   1.306
 5332SOL    HW216896   0.861   3.377   1.317
 5333SOL     OW16897   0.924   0.533   3.501
 5333SOL    HW116898   0.905   0.615   3.447
 5333SOL    HW216899   0.838   0.493   3.533
 5334SOL     OW16900   3.837   0.202   4.774
 5334SOL    HW116901   3.875   0.260   4.847
 5334SOL    HW216902   3.878   0.228   4.687
 5335SOL     OW16903   6.248   5.569   2.516
 5335SOL    HW116904   6.316   5.605   2.580
 5335SOL    HW216905   6.166   5.626   2.520
 5336SOL     OW16906   2.464   1.961   3.125
 5336SOL    HW116907   2.396   1.914   3.181
 5336SOL    HW216908   2.434   2.056   3.109
 5337SOL     OW16909   5.290   4.429   1.400
 5337SOL    HW116910   5.350   4.460   1.475
 5337SOL    HW216911   5.205   4.393   1.439
 5338SOL     OW16912   5.923   1.879   6.186
 5338SOL    HW116913   5.968   1.920   6.265
 5338SOL    HW216914   5.835   1.923   6.171
 5339SOL     OW16915   6.686   2.089   4.096
 5339SOL    HW116916   6.755   2.123   4.033
 5339SOL    HW216917   6.691   2.141   4.182
 5340SOL     OW16918   5.677   2.904   0.982
 5340SOL    HW116919   5.666   2.844   1.061
 5340SOL    HW216920   5.606   2.885   0.915
 5341SOL     OW16921   3.105   3.669   6.673
 5341SOL    HW116922   3.077   3.585   6.721
 5341SOL    HW216923   3.152   3.644   6.588
 5342SOL     OW16924   3.154   0.033   3.769
 5342SOL    HW116925   3.087   6.978   3.750
 5342SOL    HW216926   3.237   0.016   3.716
 5343SOL     OW16927   4.116   3.694   4.796
 5343SOL    HW116928   4.018   3.695   4.817
 5343SOL    HW216929   4.141   3.782   4.755
 5344SOL     OW16930   2.362   2.216   2.348
 5344SOL    HW116931   2.323   2.210   2.439
 5344SOL    HW216932   2.398   2.127   2.321
 5345SOL     OW16933   3.741   6.677   1.488
 5345SOL    HW116934   3.763   6.768   1.453
 5345SOL    HW216935   3.659   6.642   1.442
 5346SOL     OW16936   3.109   5.564   4.329
 5346SOL    HW116937   3.051   5.607   4.397
 5346SOL    HW216938   3.101   5.613   4.242
 5347SOL     OW16939   0.623   2.623   1.435
 5347SOL    HW116940   0.570   2.582   1.361
 5347SOL    HW216941   0.687   2.690   1.398
 5348SOL     OW16942   6.631   1.870   1.010
 5348SOL    HW116943   6.715   1.919   1.033
 5348SOL    HW216944   6.649   1.808   0.933
 5349SOL     OW16945   1.922   2.899   0.430
 5349SOL    HW116946   1.887   2.940   0.346
 5349SOL    HW216947   1.885   2.806   0.440
 5350SOL     OW16948   1.637   7.013   5.247
 5350SOL    HW116949   1.568   6.966   5.303
 5350SOL    HW216950   1.631   0.095   5.262
 5351SOL     OW16951   6.838   5.115   2.439
 5351SOL    HW116952   6.884   5.082   2.522
 5351SOL    HW216953   6.817   5.212   2.449
 5352SOL     OW16954   2.683   4.706   3.485
 5352SOL    HW116955   2.603   4.656   3.453
 5352SOL    HW216956   2.765   4.650   3.474
 5353SOL     OW16957   4.110   4.786   3.917
 5353SOL    HW116958   4.179   4.752   3.981
 5353SOL    HW216959   4.028   4.814   3.968
 5354SOL     OW16960   2.707   5.365   1.893
 5354SOL    HW116961   2.656   5.433   1.946
 5354SOL    HW216962   2.702   5.276   1.938
 5355SOL     OW16963   6.649   4.091   4.001
 5355SOL    HW116964   6.674   4.072   3.906
 5355SOL    HW216965   6.613   4.184   4.007
 5356SOL     OW16966   5.835   4.664   1.804
 5356SOL    HW116967   5.883   4.730   1.746
 5356SOL    HW216968   5.898   4.590   1.828
 5357SOL     OW16969   3.968   6.099   0.946
 5357SOL    HW116970   4.014   6.144   0.869
 5357SOL    HW216971   4.015   6.123   1.031
 5358SOL     OW16972   4.641   1.243   0.401
 5358SOL    HW116973   4.592   1.264   0.316
 5358SOL    HW216974   4.735   1.276   0.395
 5359SOL     OW16975   1.169   1.554   5.574
 5359SOL    HW116976   1.183   1.524   5.480
 5359SOL    HW216977   1.244   1.521   5.632
 5360SOL     OW16978   3.633   6.959   4.952
 5360SOL    HW116979   3.659   6.863   4.943
 5360SOL    HW216980   3.574   6.984   4.875
 5361SOL     OW16981   2.741   1.177   5.803
 5361SOL    HW116982   2.704   1.238   5.732
 5361SOL    HW216983   2.835   1.203   5.824
 5362SOL     OW16984   6.695   5.933   3.441
 5362SOL    HW116985   6.780   5.986   3.438
 5362SOL    HW216986   6.706   5.857   3.506
 5363SOL     OW16987   0.031   0.746   0.028
 5363SOL    HW116988   6.983   0.792   0.087
 5363SOL    HW216989   0.053   0.804   6.966
 5364SOL     OW16990   0.190   6.528   1.871
 5364SOL    HW116991   0.267   6.516   1.809
 5364SOL    HW216992   0.116   6.467   1.844
 5365SOL     OW16993   3.703   3.459   6.892
 5365SOL    HW116994   3.749   3.436   6.807
 5365SOL    HW216995   3.752   3.533   6.937
 5366SOL     OW16996   5.055   5.841   1.934
 5366SOL    HW116997   5.073   5.933   1.898
 5366SOL    HW216998   5.061   5.843   2.034
 5367SOL     OW16999   0.662   6.545   0.919
 5367SOL    HW117000   0.681   6.461   0.970
 5367SOL    HW217001   0.718   6.547   0.837
 5368SOL     OW17002   5.407   7.005   2.551
 5368SOL    HW117003   5.319   6.960   2.538
 5368SOL    HW217004   5.478   6.954   2.503
 5369SOL     OW17005   2.606   0.293   2.072
 5369SOL    HW117006   2.657   0.293   2.158
 5369SOL    HW217007   2.508   0.292   2.092
 5370SOL     OW17008   4.492   2.876   1.695
 5370SOL    HW117009   4.397   2.906   1.688
 5370SOL    HW217010   4.544   2.945   1.745
 5371SOL     OW17011   0.897   3.733   5.072
 5371SOL    HW117012   0.967   3.662   5.071
 5371SOL    HW217013   0.809   3.695   5.046
 5372SOL     OW17014   2.013   6.244   4.289
 5372SOL    HW117015   2.030   6.248   4.191
 5372SOL    HW217016   2.072   6.174   4.330
 5373SOL     OW17017   3.759   6.886   4.459
 5373SOL    HW117018   3.811   6.919   4.538
 5373SOL    HW217019   3.815   6.820   4.409
 5374SOL     OW17020   1.581   4.403   6.936
 5374SOL    HW117021   1.619   4.341   7.005
 5374SOL    HW217022   1.605   4.370   6.845
 5375SOL     OW17023   0.997   5.206   5.129
 5375SOL    HW117024   1.090   5.176   5.147
 5375SOL    HW217025   0.982   5.211   5.030
 5376SOL     OW17026   1.775   2.887   1.335
 5376SOL    HW117027   1.733   2.977   1.345
 5376SOL    HW217028   1.716   2.830   1.277
 5377SOL     OW17029   0.374   6.456   2.265
 5377SOL    HW117030   0.300   6.440   2.330
 5377SOL    HW217031   0.343   6.518   2.193
 5378SOL     OW17032   6.570   0.262   1.860
 5378SOL    HW117033   6.670   0.256   1.857
 5378SOL    HW217034   6.543   0.321   1.937
 5379SOL     OW17035   1.189   4.637   5.165
 5379SOL    HW117036   1.189   4.603   5.259
 5379SOL    HW217037   1.172   4.561   5.103
 5380SOL     OW17038   2.180   1.249   2.825
 5380SOL    HW117039   2.158   1.293   2.737
 5380SOL    HW217040   2.259   1.189   2.813
 5381SOL     OW17041   6.481   5.036   2.039
 5381SOL    HW117042   6.467   4.944   2.074
 5381SOL    HW217043   6.520   5.031   1.946
 5382SOL     OW17044   3.166   0.972   2.217
 5382SOL    HW117045   3.265   0.966   2.203
 5382SOL    HW217046   3.142   0.924   2.302
 5383SOL     OW17047   2.308   2.395   5.598
 5383SOL    HW117048   2.310   2.317   5.534
 5383SOL    HW217049   2.240   2.462   5.566
 5384SOL     OW17050   6.061   6.934   5.232
 5384SOL    HW117051   6.149   6.981   5.246
 5384SOL    HW217052   6.044   6.873   5.310
 5385SOL     OW17053   3.467   3.215   4.144
 5385SOL    HW117054   3.466   3.126   4.189
 5385SOL    HW217055   3.374   3.252   4.142
 5386SOL     OW17056   4.898   0.836   4.610
 5386SOL    HW117057   4.894   0.922   4.662
 5386SOL    HW217058   4.806   0.797   4.604
 5387SOL     OW17059   2.377   0.151   3.478
 5387SOL    HW117060   2.440   0.197   3.540
 5387SOL    HW217061   2.370   0.203   3.392
 5388SOL     OW17062   6.985   0.998   3.970
 5388SOL    HW117063   0.015   1.086   3.979
 5388SOL    HW217064   0.034   0.924   3.981
 5389SOL     OW17065   4.582   1.211   3.009
 5389SOL    HW117066   4.583   1.310   3.022
 5389SOL    HW217067   4.599   1.165   3.096
 5390SOL     OW17068   4.840   4.079   3.094
 5390SOL    HW117069   4.798   4.138   3.025
 5390SOL    HW217070   4.877   3.997   3.050
 5391SOL     OW17071   2.476   1.815   0.922
 5391SOL    HW117072   2.522   1.785   1.006
 5391SOL    HW217073   2.542   1.818   0.847
 5392SOL     OW17074   5.416   3.283   1.036
 5392SOL    HW117075   5.357   3.308   0.960
 5392SOL    HW217076   5.378   3.203   1.084
 5393SOL     OW17077   4.561   0.045   6.723
 5393SOL    HW117078   4.471   0.005   6.706
 5393SOL    HW217079   4.631   6.991   6.714
 5394SOL     OW17080   6.747   4.563   6.876
 5394SOL    HW117081   6.828   4.619   6.893
 5394SOL    HW217082   6.668   4.603   6.922
 5395SOL     OW17083   5.158   1.366   1.278
 5395SOL    HW117084   5.151   1.362   1.378
 5395SOL    HW217085   5.189   1.278   1.243
 5396SOL     OW17086   4.315   4.492   1.813
 5396SOL    HW117087   4.345   4.526   1.724
 5396SOL    HW217088   4.358   4.404   1.832
 5397SOL     OW17089   0.574   3.000   1.411
 5397SOL    HW117090   0.659   2.961   1.445
 5397SOL    HW217091   0.536   3.063   1.479
 5398SOL     OW17092   3.617   2.101   3.682
 5398SOL    HW117093   3.570   2.100   3.594
 5398SOL    HW217094   3.586   2.025   3.738
 5399SOL     OW17095   2.997   5.811   0.800
 5399SOL    HW117096   2.906   5.771   0.790
 5399SOL    HW217097   3.047   5.801   0.713
 5400SOL     OW17098   2.424   4.149   0.122
 5400SOL    HW117099   2.456   4.165   0.028
 5400SOL    HW217100   2.350   4.081   0.120
 5401SOL     OW17101   6.314   3.885   1.328
 5401SOL    HW117102   6.249   3.918   1.260
 5401SOL    HW217103   6.266   3.865   1.413
 5402SOL     OW17104   2.876   5.089   1.863
 5402SOL    HW117105   2.951   5.054   1.919
 5402SOL    HW217106   2.902   5.177   1.823
 5403SOL     OW17107   5.624   2.951   6.223
 5403SOL    HW117108   5.682   3.031   6.207
 5403SOL    HW217109   5.533   2.980   6.250
 5404SOL     OW17110   0.933   0.771   2.062
 5404SOL    HW117111   0.848   0.726   2.092
 5404SOL    HW217112   0.954   0.845   2.126
 5405SOL     OW17113   5.956   6.234   0.155
 5405SOL    HW117114   6.032   6.283   0.114
 5405SOL    HW217115   5.934   6.274   0.244
 5406SOL     OW17116   2.607   6.919   6.709
 5406SOL    HW117117   2.629   6.995   6.769
 5406SOL    HW217118   2.692   6.877   6.675
 5407SOL     OW17119   4.215   2.493   1.386
 5407SOL    HW117120   4.195   2.577   1.336
 5407SOL    HW217121   4.276   2.513   1.462
 5408SOL     OW17122   3.524   1.034   5.827
 5408SOL    HW117123   3.577   1.040   5.912
 5408SOL    HW217124   3.445   0.975   5.842
 5409SOL     OW17125   5.935   2.011   4.095
 5409SOL    HW117126   6.002   1.945   4.058
 5409SOL    HW217127   5.983   2.089   4.134
 5410SOL     OW17128   1.539   3.437   0.326
 5410SOL    HW117129   1.637   3.448   0.338
 5410SOL    HW217130   1.495   3.428   0.415
 5411SOL     OW17131   6.296   5.192   5.566
 5411SOL    HW117132   6.261   5.243   5.645
 5411SOL    HW217133   6.370   5.132   5.595
 5412SOL     OW17134   4.313   0.530   0.238
 5412SOL    HW117135   4.340   0.450   0.292
 5412SOL    HW217136   4.396   0.580   0.209
 5413SOL     OW17137   0.515   0.424   1.186
 5413SOL    HW117138   0.459   0.352   1.144
 5413SOL    HW217139   0.507   0.508   1.132
 5414SOL     OW17140   6.530   3.003   5.520
 5414SOL    HW117141   6.594   2.930   5.498
 5414SOL    HW217142   6.492   3.040   5.435
 5415SOL     OW17143   1.492   6.452   1.752
 5415SOL    HW117144   1.478   6.547   1.781
 5415SOL    HW217145   1.532   6.399   1.827
 5416SOL     OW17146   3.705   4.973   6.501
 5416SOL    HW117147   3.757   5.014   6.575
 5416SOL    HW217148   3.765   4.956   6.423
 5417SOL     OW17149   4.158   0.132   4.730
 5417SOL    HW117150   4.186   0.087   4.814
 5417SOL    HW217151   4.112   0.067   4.670
 5418SOL     OW17152   4.802   0.187   4.380
 5418SOL    HW117153   4.795   0.260   4.313
 5418SOL    HW217154   4.884   0.132   4.360
 5419SOL     OW17155   2.903   5.608   0.564
 5419SOL    HW117156   2.962   5.680   0.527
 5419SOL    HW217157   2.812   5.646   0.582
 5420SOL     OW17158   1.625   2.782   2.053
 5420SOL    HW117159   1.642   2.802   2.149
 5420SOL    HW217160   1.670   2.850   1.996
 5421SOL     OW17161   2.246   4.249   2.969
 5421SOL    HW117162   2.221   4.211   2.880
 5421SOL    HW217163   2.249   4.176   3.037
 5422SOL     OW17164   0.906   5.912   5.839
 5422SOL    HW117165   0.922   5.973   5.761
 5422SOL    HW217166   0.979   5.844   5.844
 5423SOL     OW17167   5.519   3.616   6.984
 5423SOL    HW117168   5.584   3.568   6.926
 5423SOL    HW217169   5.507   3.565   0.053
 5424SOL     OW17170   5.803   3.405   3.983
 5424SOL    HW117171   5.863   3.337   4.026
 5424SOL    HW217172   5.708   3.384   4.005
 5425SOL     OW17173   5.059   1.608   3.975
 5425SOL    HW117174   5.056   1.512   3.945
 5425SOL    HW217175   5.135   1.654   3.930
 5426SOL     OW17176   0.005   5.606   3.746
 5426SOL    HW117177   7.004   5.557   3.661
 5426SOL    HW217178   0.103   5.606   3.765
 5427SOL     OW17179   5.190   4.994   1.162
 5427SOL    HW117180   5.263   5.061   1.151
 5427SOL    HW217181   5.115   5.035   1.213
 5428SOL     OW17182   0.044   0.358   1.754
 5428SOL    HW117183   0.092   0.438   1.718
 5428SOL    HW217184   0.110   0.284   1.770
 5429SOL     OW17185   1.199   1.095   5.456
 5429SOL    HW117186   1.109   1.135   5.474
 5429SOL    HW217187   1.221   1.106   5.359
 5430SOL     OW17188   1.240   2.852   5.351
 5430SOL    HW117189   1.308   2.924   5.340
 5430SOL    HW217190   1.240   2.821   5.446
 5431SOL     OW17191   3.469   5.424   6.435
 5431SOL    HW117192   3.476   5.361   6.358
 5431SOL    HW217193   3.495   5.377   6.520
 5432SOL     OW17194   4.036   6.263   6.185
 5432SOL    HW117195   4.043   6.239   6.089
 5432SOL    HW217196   4.091   6.200   6.240
 5433SOL     OW17197   7.003   1.196   3.636
 5433SOL    HW117198   0.035   1.226   3.553
 5433SOL    HW217199   0.029   1.239   3.716
 5434SOL     OW17200   3.948   0.841   4.718
 5434SOL    HW117201   3.907   0.758   4.755
 5434SOL    HW217202   3.876   0.905   4.690
 5435SOL     OW17203   5.894   1.613   1.235
 5435SOL    HW117204   5.944   1.610   1.148
 5435SOL    HW217205   5.881   1.709   1.262
 5436SOL     OW17206   5.551   4.218   4.769
 5436SOL    HW117207   5.534   4.152   4.696
 5436SOL    HW217208   5.529   4.177   4.858
 5437SOL     OW17209   2.247   5.040   5.403
 5437SOL    HW117210   2.255   5.060   5.306
 5437SOL    HW217211   2.319   5.088   5.453
 5438SOL     OW17212   6.147   3.840   2.777
 5438SOL    HW117213   6.118   3.932   2.803
 5438SOL    HW217214   6.102   3.773   2.836
 5439SOL     OW17215   0.012   2.320   0.527
 5439SOL    HW117216   0.020   2.270   0.441
 5439SOL    HW217217   6.932   2.327   0.553
 5440SOL     OW17218   0.549   0.072   2.747
 5440SOL    HW117219   0.510   0.113   2.664
 5440SOL    HW217220   0.542   0.137   2.823
 5441SOL     OW17221   4.835   3.056   3.255
 5441SOL    HW117222   4.785   3.034   3.172
 5441SOL    HW217223   4.895   2.979   3.280
 5442SOL     OW17224   3.351   6.435   3.067
 5442SOL    HW117225   3.417   6.497   3.108
 5442SOL    HW217226   3.274   6.421   3.130
 5443SOL     OW17227   2.661   6.629   3.795
 5443SOL    HW117228   2.729   6.560   3.769
 5443SOL    HW217229   2.616   6.664   3.713
 5444SOL     OW17230   0.672   0.386   3.582
 5444SOL    HW117231   0.675   0.349   3.489
 5444SOL    HW217232   0.656   0.311   3.646
 5445SOL     OW17233   6.257   4.357   3.933
 5445SOL    HW117234   6.226   4.452   3.937
 5445SOL    HW217235   6.352   4.352   3.965
 5446SOL     OW17236   5.646   5.173   5.046
 5446SOL    HW117237   5.605   5.187   5.136
 5446SOL    HW217238   5.739   5.140   5.057
 5447SOL     OW17239   1.424   1.879   0.696
 5447SOL    HW117240   1.335   1.840   0.719
 5447SOL    HW217241   1.474   1.815   0.638
 5448SOL     OW17242   5.613   3.865   4.889
 5448SOL    HW117243   5.593   3.797   4.818
 5448SOL    HW217244   5.707   3.897   4.878
 5449SOL     OW17245   1.394   1.815   7.012
 5449SOL    HW117246   1.434   1.760   6.939
 5449SOL    HW217247   1.460   1.885   0.024
 5450SOL     OW17248   2.285   0.901   1.798
 5450SOL    HW117249   2.313   0.939   1.710
 5450SOL    HW217250   2.248   0.809   1.785
 5451SOL     OW17251   1.675   5.357   3.332
 5451SOL    HW117252   1.662   5.285   3.264
 5451SOL    HW217253   1.630   5.331   3.417
 5452SOL     OW17254   2.143   4.032   0.029
 5452SOL    HW117255   2.191   4.059   6.961
 5452SOL    HW217256   2.126   3.934   0.028
 5453SOL     OW17257   5.016   4.314   1.475
 5453SOL    HW117258   5.056   4.247   1.539
 5453SOL    HW217259   4.924   4.336   1.504
 5454SOL     OW17260   6.285   4.451   5.680
 5454SOL    HW117261   6.229   4.487   5.606
 5454SOL    HW217262   6.268   4.353   5.690
 5455SOL     OW17263   6.310   2.380   1.940
 5455SOL    HW117264   6.337   2.284   1.937
 5455SOL    HW217265   6.366   2.428   2.008
 5456SOL     OW17266   2.689   0.002   0.149
 5456SOL    HW117267   2.640   6.951   0.093
 5456SOL    HW217268   2.729   6.973   0.229
 5457SOL     OW17269   0.351   2.514   0.853
 5457SOL    HW117270   0.319   2.430   0.898
 5457SOL    HW217271   0.451   2.511   0.845
 5458SOL     OW17272   0.232   4.357   0.325
 5458SOL    HW117273   0.176   4.349   0.407
 5458SOL    HW217274   0.247   4.454   0.304
 5459SOL     OW17275   2.624   4.178   6.609
 5459SOL    HW117276   2.543   4.190   6.553
 5459SOL    HW217277   2.703   4.219   6.564
 5460SOL     OW17278   3.977   6.966   3.380
 5460SOL    HW117279   4.071   6.974   3.413
 5460SOL    HW217280   3.926   0.032   3.404
 5461SOL     OW17281   0.231   0.638   5.796
 5461SOL    HW117282   0.280   0.636   5.883
 5461SOL    HW217283   0.176   0.555   5.787
 5462SOL     OW17284   0.125   6.626   1.220
 5462SOL    HW117285   0.213   6.581   1.209
 5462SOL    HW217286   0.068   6.609   1.139
 5463SOL     OW17287   0.228   1.472   0.710
 5463SOL    HW117288   0.250   1.481   0.613
 5463SOL    HW217289   0.146   1.525   0.731
 5464SOL     OW17290   0.235   0.646   4.534
 5464SOL    HW117291   0.328   0.633   4.498
 5464SOL    HW217292   0.185   0.560   4.529
 5465SOL     OW17293   4.817   0.578   4.433
 5465SOL    HW117294   4.782   0.653   4.378
 5465SOL    HW217295   4.806   0.492   4.384
 5466SOL     OW17296   5.403   3.030   4.608
 5466SOL    HW117297   5.413   2.935   4.637
 5466SOL    HW217298   5.434   3.090   4.681
 5467SOL     OW17299   4.803   4.029   3.608
 5467SOL    HW117300   4.862   4.060   3.534
 5467SOL    HW217301   4.854   3.969   3.670
 5468SOL     OW17302   6.512   2.602   3.683
 5468SOL    HW117303   6.443   2.572   3.748
 5468SOL    HW217304   6.470   2.659   3.612
 5469SOL     OW17305   2.973   5.776   5.949
 5469SOL    HW117306   3.024   5.837   6.009
 5469SOL    HW217307   2.894   5.825   5.911
 5470SOL     OW17308   3.395   5.481   3.361
 5470SOL    HW117309   3.485   5.522   3.374
 5470SOL    HW217310   3.395   5.425   3.279
 5471SOL     OW17311   5.617   6.856   2.406
 5471SOL    HW117312   5.556   6.815   2.338
 5471SOL    HW217313   5.708   6.813   2.400
 5472SOL     OW17314   3.689   3.941   6.352
 5472SOL    HW117315   3.652   4.004   6.284
 5472SOL    HW217316   3.712   3.854   6.308
 5473SOL     OW17317   0.552   3.049   2.318
 5473SOL    HW117318   0.547   3.041   2.219
 5473SOL    HW217319   0.562   2.959   2.359
 5474SOL     OW17320   1.055   4.605   3.918
 5474SOL    HW117321   1.090   4.698   3.932
 5474SOL    HW217322   1.068   4.579   3.822
 5475SOL     OW17323   2.332   2.942   1.092
 5475SOL    HW117324   2.307   2.845   1.082
 5475SOL    HW217325   2.417   2.959   1.043
 5476SOL     OW17326   2.500   4.439   5.722
 5476SOL    HW117327   2.502   4.341   5.701
 5476SOL    HW217328   2.531   4.454   5.816
 5477SOL     OW17329   1.936   4.484   2.838
 5477SOL    HW117330   2.032   4.485   2.866
 5477SOL    HW217331   1.885   4.422   2.898
 5478SOL     OW17332   3.331   5.954   4.716
 5478SOL    HW117333   3.271   5.902   4.777
 5478SOL    HW217334   3.426   5.940   4.743
 5479SOL     OW17335   5.471   1.467   6.093
 5479SOL    HW117336   5.481   1.427   6.184
 5479SOL    HW217337   5.523   1.553   6.089
 5480SOL     OW17338   5.930   4.805   3.378
 5480SOL    HW117339   5.994   4.812   3.302
 5480SOL    HW217340   5.970   4.848   3.459
 5481SOL     OW17341   4.207   1.796   3.953
 5481SOL    HW117342   4.259   1.722   3.908
 5481SOL    HW217343   4.250   1.884   3.932
 5482SOL     OW17344   3.580   4.334   1.746
 5482SOL    HW117345   3.566   4.431   1.767
 5482SOL    HW217346   3.530   4.278   1.811
 5483SOL     OW17347   0.078   1.567   5.529
 5483SOL    HW117348   0.175   1.569   5.552
 5483SOL    HW217349   0.068   1.559   5.430
 5484SOL     OW17350   3.949   1.356   4.213
 5484SOL    HW117351   3.995   1.430   4.163
 5484SOL    HW217352   3.938   1.383   4.309
 5485SOL     OW17353   3.963   0.013   4.966
 5485SOL    HW117354   4.056   7.005   4.940
 5485SOL    HW217355   3.913   0.048   4.887
 5486SOL     OW17356   2.152   6.282   5.368
 5486SOL    HW117357   2.229   6.241   5.417
 5486SOL    HW217358   2.137   6.233   5.282
 5487SOL     OW17359   4.899   2.423   6.967
 5487SOL    HW117360   4.819   2.454   0.003
 5487SOL    HW217361   4.981   2.432   0.006
 5488SOL     OW17362   6.216   0.405   1.218
 5488SOL    HW117363   6.297   0.383   1.165
 5488SOL    HW217364   6.176   0.320   1.255
 5489SOL     OW17365   0.477   4.622   1.362
 5489SOL    HW117366   0.463   4.527   1.336
 5489SOL    HW217367   0.425   4.682   1.302
 5490SOL     OW17368   3.426   0.431   2.256
 5490SOL    HW117369   3.351   0.367   2.273
 5490SOL    HW217370   3.393   0.508   2.203
 5491SOL     OW17371   1.019   2.868   0.355
 5491SOL    HW117372   1.091   2.802   0.375
 5491SOL    HW217373   1.047   2.927   0.280
 5492SOL     OW17374   0.748   3.598   6.455
 5492SOL    HW117375   0.689   3.530   6.499
 5492SOL    HW217376   0.731   3.600   6.357
 5493SOL     OW17377   3.283   4.077   3.858
 5493SOL    HW117378   3.304   3.998   3.916
 5493SOL    HW217379   3.187   4.074   3.831
 5494SOL     OW17380   0.850   4.040   5.882
 5494SOL    HW117381   0.767   4.096   5.893
 5494SOL    HW217382   0.850   3.967   5.950
 5495SOL     OW17383   5.695   1.405   0.606
 5495SOL    HW117384   5.629   1.480   0.619
 5495SOL    HW217385   5.713   1.393   0.508
 5496SOL     OW17386   4.122   0.833   3.461
 5496SOL    HW117387   4.128   0.877   3.371
 5496SOL    HW217388   4.121   0.903   3.532
 5497SOL     OW17389   0.025   0.769   4.974
 5497SOL    HW117390   0.016   0.854   5.027
 5497SOL    HW217391   7.001   0.783   4.883
 5498SOL     OW17392   6.762   5.435   1.435
 5498SOL    HW117393   6.827   5.360   1.419
 5498SOL    HW217394   6.812   5.521   1.438
 5499SOL     OW17395   0.925   0.581   4.522
 5499SOL    HW117396   0.996   0.588   4.451
 5499SOL    HW217397   0.965   0.598   4.611
 5500SOL     OW17398   0.730   0.533   0.100
 5500SOL    HW117399   0.799   0.477   0.147
 5500SOL    HW217400   0.775   0.608   0.052
 5501SOL     OW17401   3.334   1.365   6.474
 5501SOL    HW117402   3.369   1.395   6.563
 5501SOL    HW217403   3.366   1.427   6.402
 5502SOL     OW17404   4.665   3.806   0.403
 5502SOL    HW117405   4.701   3.857   0.324
 5502SOL    HW217406   4.738   3.750   0.442
 5503SOL     OW17407   6.724   4.374   1.137
 5503SOL    HW117408   6.764   4.447   1.081
 5503SOL    HW217409   6.771   4.371   1.225
 5504SOL     OW17410   4.504   1.462   5.506
 5504SOL    HW117411   4.575   1.528   5.532
 5504SOL    HW217412   4.436   1.508   5.448
 5505SOL     OW17413   2.016   5.313   3.991
 5505SOL    HW117414   1.953   5.272   4.058
 5505SOL    HW217415   2.092   5.251   3.975
 5506SOL     OW17416   0.447   3.819   0.708
 5506SOL    HW117417   0.405   3.730   0.695
 5506SOL    HW217418   0.534   3.823   0.660
 5507SOL     OW17419   4.159   1.145   4.964
 5507SOL    HW117420   4.082   1.118   5.021
 5507SOL    HW217421   4.237   1.085   4.983
 5508SOL     OW17422   1.535   1.124   0.506
 5508SOL    HW117423   1.598   1.047   0.497
 5508SOL    HW217424   1.574   1.204   0.460
 5509SOL     OW17425   0.229   6.063   6.574
 5509SOL    HW117426   0.136   6.029   6.584
 5509SOL    HW217427   0.238   6.152   6.618
 5510SOL     OW17428   4.501   5.288   6.786
 5510SOL    HW117429   4.425   5.294   6.851
 5510SOL    HW217430   4.472   5.236   6.706
 5511SOL     OW17431   0.774   0.195   4.092
 5511SOL    HW117432   0.716   0.273   4.117
 5511SOL    HW217433   0.728   0.140   4.022
 5512SOL     OW17434   5.062   2.310   0.649
 5512SOL    HW117435   4.973   2.354   0.638
 5512SOL    HW217436   5.103   2.339   0.736
 5513SOL     OW17437   3.639   5.221   5.863
 5513SOL    HW117438   3.628   5.199   5.766
 5513SOL    HW217439   3.613   5.316   5.879
 5514SOL     OW17440   3.584   0.507   4.803
 5514SOL    HW117441   3.588   0.444   4.881
 5514SOL    HW217442   3.488   0.519   4.775
 5515SOL     OW17443   0.889   5.689   1.549
 5515SOL    HW117444   0.816   5.645   1.496
 5515SOL    HW217445   0.893   5.786   1.526
 5516SOL     OW17446   1.832   2.809   5.417
 5516SOL    HW117447   1.827   2.846   5.509
 5516SOL    HW217448   1.740   2.799   5.380
 5517SOL     OW17449   2.170   3.701   2.201
 5517SOL    HW117450   2.163   3.659   2.291
 5517SOL    HW217451   2.225   3.643   2.141
 5518SOL     OW17452   5.787   5.643   6.782
 5518SOL    HW117453   5.755   5.708   6.852
 5518SOL    HW217454   5.713   5.580   6.759
 5519SOL     OW17455   5.408   3.424   3.412
 5519SOL    HW117456   5.417   3.461   3.319
 5519SOL    HW217457   5.451   3.486   3.477
 5520SOL     OW17458   6.193   6.590   2.320
 5520SOL    HW117459   6.166   6.593   2.416
 5520SOL    HW217460   6.133   6.526   2.271
 5521SOL     OW17461   4.669   6.468   2.365
 5521SOL    HW117462   4.745   6.465   2.301
 5521SOL    HW217463   4.588   6.427   2.323
 5522SOL     OW17464   6.192   4.854   0.622
 5522SOL    HW117465   6.177   4.834   0.526
 5522SOL    HW217466   6.275   4.806   0.654
 5523SOL     OW17467   3.973   1.613   1.876
 5523SOL    HW117468   3.880   1.602   1.840
 5523SOL    HW217469   3.987   1.708   1.903
 5524SOL     OW17470   4.437   0.102   4.604
 5524SOL    HW117471   4.340   0.076   4.601
 5524SOL    HW217472   4.493   0.023   4.581
 5525SOL     OW17473   0.535   2.335   0.183
 5525SOL    HW117474   0.441   2.312   0.159
 5525SOL    HW217475   0.545   2.335   0.282
 5526SOL     OW17476   4.921   5.280   2.879
 5526SOL    HW117477   4.932   5.202   2.941
 5526SOL    HW217478   5.001   5.339   2.886
 5527SOL     OW17479   4.912   3.610   3.751
 5527SOL    HW117480   4.890   3.513   3.765
 5527SOL    HW217481   4.869   3.641   3.666
 5528SOL     OW17482   1.731   0.779   0.744
 5528SOL    HW117483   1.735   0.840   0.664
 5528SOL    HW217484   1.786   0.818   0.818
 5529SOL     OW17485   3.377   6.904   5.128
 5529SOL    HW117486   3.424   6.891   5.041
 5529SOL    HW217487   3.431   6.865   5.202
 5530SOL     OW17488   6.091   1.954   0.781
 5530SOL    HW117489   6.078   1.854   0.785
 5530SOL    HW217490   6.126   1.979   0.691
 5531SOL     OW17491   3.794   3.401   1.892
 5531SOL    HW117492   3.718   3.379   1.831
 5531SOL    HW217493   3.758   3.434   1.980
 5532SOL     OW17494   1.060   3.208   1.300
 5532SOL    HW117495   0.983   3.195   1.237
 5532SOL    HW217496   1.072   3.126   1.356
 5533SOL     OW17497   3.770   1.789   3.212
 5533SOL    HW117498   3.860   1.825   3.235
 5533SOL    HW217499   3.729   1.846   3.141
 5534SOL     OW17500   0.937   1.855   0.086
 5534SOL    HW117501   0.863   1.822   0.145
 5534SOL    HW217502   0.928   1.953   0.071
 5535SOL     OW17503   1.239   1.144   3.023
 5535SOL    HW117504   1.334   1.159   3.049
 5535SOL    HW217505   1.197   1.231   2.996
 5536SOL     OW17506   3.970   0.683   4.279
 5536SOL    HW117507   4.026   0.643   4.351
 5536SOL    HW217508   3.909   0.614   4.241
 5537SOL     OW17509   3.177   1.188   2.481
 5537SOL    HW117510   3.164   1.091   2.501
 5537SOL    HW217511   3.158   1.205   2.384
 5538SOL     OW17512   3.794   5.742   4.830
 5538SOL    HW117513   3.881   5.731   4.782
 5538SOL    HW217514   3.791   5.679   4.908
 5539SOL     OW17515   1.249   4.328   2.059
 5539SOL    HW117516   1.297   4.359   2.141
 5539SOL    HW217517   1.237   4.405   1.996
 5540SOL     OW17518   4.731   4.582   4.104
 5540SOL    HW117519   4.680   4.498   4.087
 5540SOL    HW217520   4.812   4.561   4.158
 5541SOL     OW17521   4.814   0.279   6.866
 5541SOL    HW117522   4.884   0.308   6.801
 5541SOL    HW217523   4.746   0.223   6.819
 5542SOL     OW17524   4.336   3.507   5.988
 5542SOL    HW117525   4.408   3.542   5.929
 5542SOL    HW217526   4.373   3.488   6.079
 5543SOL     OW17527   4.410   3.745   6.507
 5543SOL    HW117528   4.428   3.823   6.447
 5543SOL    HW217529   4.431   3.769   6.601
 5544SOL     OW17530   5.138   5.255   6.922
 5544SOL    HW117531   5.196   5.309   6.862
 5544SOL    HW217532   5.061   5.219   6.870
 5545SOL     OW17533   4.441   0.659   2.688
 5545SOL    HW117534   4.440   0.560   2.682
 5545SOL    HW217535   4.385   0.697   2.614
 5546SOL     OW17536   0.229   4.685   4.505
 5546SOL    HW117537   0.226   4.759   4.438
 5546SOL    HW217538   0.260   4.720   4.593
 5547SOL     OW17539   3.173   6.846   5.619
 5547SOL    HW117540   3.085   6.813   5.587
 5547SOL    HW217541   3.190   6.812   5.712
 5548SOL     OW17542   6.215   2.608   5.666
 5548SOL    HW117543   6.133   2.633   5.615
 5548SOL    HW217544   6.293   2.660   5.630
 5549SOL     OW17545   4.275   4.811   0.062
 5549SOL    HW117546   4.351   4.876   0.062
 5549SOL    HW217547   4.310   4.718   0.076
 5550SOL     OW17548   2.953   5.525   2.602
 5550SOL    HW117549   3.032   5.503   2.545
 5550SOL    HW217550   2.976   5.601   2.663
 5551SOL     OW17551   1.745   0.986   2.966
 5551SOL    HW117552   1.783   0.973   3.057
 5551SOL    HW217553   1.818   1.009   2.902
 5552SOL     OW17554   0.085   1.227   0.107
 5552SOL    HW117555   0.086   1.147   0.166
 5552SOL    HW217556   0.009   1.221   0.043
 5553SOL     OW17557   3.988   6.690   0.469
 5553SOL    HW117558   4.000   6.641   0.556
 5553SOL    HW217559   3.893   6.685   0.440
 5554SOL     OW17560   2.465   1.801   5.831
 5554SOL    HW117561   2.509   1.884   5.796
 5554SOL    HW217562   2.446   1.813   5.929
 5555SOL     OW17563   0.809   4.743   3.771
 5555SOL    HW117564   0.828   4.822   3.829
 5555SOL    HW217565   0.794   4.662   3.829
 5556SOL     OW17566   0.492   2.781   4.105
 5556SOL    HW117567   0.539   2.777   4.193
 5556SOL    HW217568   0.397   2.751   4.116
 5557SOL     OW17569   3.165   5.027   4.008
 5557SOL    HW117570   3.154   5.000   3.913
 5557SOL    HW217571   3.196   5.122   4.013
 5558SOL     OW17572   4.993   3.384   5.387
 5558SOL    HW117573   5.003   3.440   5.304
 5558SOL    HW217574   4.906   3.334   5.383
 5559SOL     OW17575   2.712   6.958   2.392
 5559SOL    HW117576   2.651   0.020   2.381
 5559SOL    HW217577   2.703   6.920   2.484
 5560SOL     OW17578   0.422   6.735   2.812
 5560SOL    HW117579   0.471   6.688   2.885
 5560SOL    HW217580   0.463   6.712   2.724
 5561SOL     OW17581   2.212   2.060   4.094
 5561SOL    HW117582   2.169   2.093   4.010
 5561SOL    HW217583   2.151   1.996   4.141
 5562SOL     OW17584   1.706   2.047   6.727
 5562SOL    HW117585   1.766   2.059   6.807
 5562SOL    HW217586   1.755   2.074   6.645
 5563SOL     OW17587   4.394   6.406   2.625
 5563SOL    HW117588   4.405   6.372   2.532
 5563SOL    HW217589   4.322   6.354   2.672
 5564SOL     OW17590   5.001   2.280   1.392
 5564SOL    HW117591   5.098   2.254   1.398
 5564SOL    HW217592   4.945   2.197   1.385
 5565SOL     OW17593   4.810   2.085   5.898
 5565SOL    HW117594   4.773   1.996   5.925
 5565SOL    HW217595   4.891   2.105   5.954
 5566SOL     OW17596   0.816   5.849   1.263
 5566SOL    HW117597   0.889   5.808   1.208
 5566SOL    HW217598   0.854   5.923   1.319
 5567SOL     OW17599   0.892   5.087   0.550
 5567SOL    HW117600   0.911   5.040   0.636
 5567SOL    HW217601   0.834   5.029   0.493
 5568SOL     OW17602   4.447   2.569   1.561
 5568SOL    HW117603   4.534   2.545   1.604
 5568SOL    HW217604   4.403   2.642   1.614
 5569SOL     OW17605   4.062   1.871   1.944
 5569SOL    HW117606   4.139   1.906   1.997
 5569SOL    HW217607   4.011   1.948   1.906
 5570SOL     OW17608   6.293   4.748   4.882
 5570SOL    HW117609   6.329   4.729   4.791
 5570SOL    HW217610   6.368   4.769   4.944
 5571SOL     OW17611   0.339   6.396   0.440
 5571SOL    HW117612   0.410   6.333   0.409
 5571SOL    HW217613   0.251   6.369   0.402
 5572SOL     OW17614   2.913   2.716   6.186
 5572SOL    HW117615   2.919   2.685   6.091
 5572SOL    HW217616   2.870   2.806   6.188
 5573SOL     OW17617   1.312   2.650   0.403
 5573SOL    HW117618   1.322   2.727   0.466
 5573SOL    HW217619   1.331   2.565   0.452
 5574SOL     OW17620   6.880   0.896   4.423
 5574SOL    HW117621   6.978   0.886   4.404
 5574SOL    HW217622   6.845   0.975   4.373
 5575SOL     OW17623   1.617   0.664   1.589
 5575SOL    HW117624   1.613   0.721   1.508
 5575SOL    HW217625   1.676   0.707   1.657
 5576SOL     OW17626   6.260   5.369   1.683
 5576SOL    HW117627   6.242   5.274   1.708
 5576SOL    HW217628   6.331   5.407   1.742
 5577SOL     OW17629   2.152   3.629   5.115
 5577SOL    HW117630   2.144   3.544   5.065
 5577SOL    HW217631   2.241   3.633   5.161
 5578SOL     OW17632   3.078   3.091   0.212
 5578SOL    HW117633   3.141   3.054   0.144
 5578SOL    HW217634   3.051   3.017   0.275
 5579SOL     OW17635   5.341   4.141   5.970
 5579SOL    HW117636   5.343   4.041   5.980
 5579SOL    HW217637   5.276   4.180   6.035
 5580SOL     OW17638   4.570   1.781   0.769
 5580SOL    HW117639   4.588   1.688   0.739
 5580SOL    HW217640   4.493   1.782   0.832
 5581SOL     OW17641   2.687   0.338   0.449
 5581SOL    HW117642   2.655   0.325   0.355
 5581SOL    HW217643   2.711   0.434   0.463
 5582SOL     OW17644   3.674   3.795   4.459
 5582SOL    HW117645   3.633   3.755   4.541
 5582SOL    HW217646   3.620   3.873   4.429
 5583SOL     OW17647   4.321   6.894   2.700
 5583SOL    HW117648   4.273   6.971   2.658
 5583SOL    HW217649   4.392   6.927   2.761
 5584SOL     OW17650   5.435   4.136   3.603
 5584SOL    HW117651   5.343   4.112   3.632
 5584SOL    HW217652   5.462   4.223   3.645
 5585SOL     OW17653   5.751   0.184   3.843
 5585SOL    HW117654   5.689   0.227   3.908
 5585SOL    HW217655   5.845   0.208   3.865
 5586SOL     OW17656   1.573   1.672   6.493
 5586SOL    HW117657   1.637   1.674   6.569
 5586SOL    HW217658   1.622   1.685   6.407
 5587SOL     OW17659   3.442   0.189   2.627
 5587SOL    HW117660   3.503   0.159   2.701
 5587SOL    HW217661   3.404   0.279   2.650
 5588SOL     OW17662   1.695   6.617   4.803
 5588SOL    HW117663   1.720   6.714   4.807
 5588SOL    HW217664   1.617   6.606   4.742
 5589SOL     OW17665   5.100   3.254   5.575
 5589SOL    HW117666   5.066   3.310   5.500
 5589SOL    HW217667   5.065   3.161   5.565
 5590SOL     OW17668   6.566   5.611   3.316
 5590SOL    HW117669   6.477   5.652   3.337
 5590SOL    HW217670   6.598   5.645   3.228
 5591SOL     OW17671   5.899   0.448   0.135
 5591SOL    HW117672   5.932   0.533   0.093
 5591SOL    HW217673   5.904   0.456   0.234
 5592SOL     OW17674   2.089   3.393   3.744
 5592SOL    HW117675   2.002   3.345   3.756
 5592SOL    HW217676   2.131   3.410   3.833
 5593SOL     OW17677   0.387   2.195   5.668
 5593SOL    HW117678   0.288   2.206   5.673
 5593SOL    HW217679   0.427   2.273   5.621
 5594SOL     OW17680   2.369   0.986   6.954
 5594SOL    HW117681   2.329   1.071   6.920
 5594SOL    HW217682   2.358   0.914   6.885
 5595SOL     OW17683   6.347   0.667   6.033
 5595SOL    HW117684   6.366   0.629   5.942
 5595SOL    HW217685   6.340   0.593   6.099
 5596SOL     OW17686   5.978   0.275   2.421
 5596SOL    HW117687   6.069   0.311   2.440
 5596SOL    HW217688   5.982   0.212   2.344
 5597SOL     OW17689   5.365   2.161   5.968
 5597SOL    HW117690   5.373   2.078   6.024
 5597SOL    HW217691   5.276   2.162   5.923
 5598SOL     OW17692   4.970   2.090   4.192
 5598SOL    HW117693   4.921   2.009   4.161
 5598SOL    HW217694   4.969   2.093   4.292
 5599SOL     OW17695   5.681   3.998   1.860
 5599SOL    HW117696   5.632   4.073   1.904
 5599SOL    HW217697   5.648   3.988   1.766
 5600SOL     OW17698   2.419   0.244   3.146
 5600SOL    HW117699   2.483   0.259   3.221
 5600SOL    HW217700   2.466   0.254   3.058
 5601SOL     OW17701   5.402   3.148   5.963
 5601SOL    HW117702   5.496   3.120   5.941
 5601SOL    HW217703   5.357   3.180   5.880
 5602SOL     OW17704   0.170   1.477   3.347
 5602SOL    HW117705   0.148   1.392   3.300
 5602SOL    HW217706   0.122   1.553   3.304
 5603SOL     OW17707   4.462   2.576   5.201
 5603SOL    HW117708   4.424   2.582   5.109
 5603SOL    HW217709   4.501   2.664   5.226
 5604SOL     OW17710   0.578   0.170   4.458
 5604SOL    HW117711   0.657   0.228   4.437
 5604SOL    HW217712   0.591   0.080   4.417
 5605SOL     OW17713   0.835   6.996   4.579
 5605SOL    HW117714   0.759   6.931   4.574
 5605SOL    HW217715   0.881   7.000   4.490
 5606SOL     OW17716   4.585   1.467   0.196
 5606SOL    HW117717   4.592   1.545   0.135
 5606SOL    HW217718   4.647   1.480   0.274
 5607SOL     OW17719   5.992   2.733   3.188
 5607SOL    HW117720   5.988   2.665   3.261
 5607SOL    HW217721   6.076   2.719   3.135
 5608SOL     OW17722   6.232   0.272   3.454
 5608SOL    HW117723   6.143   0.256   3.411
 5608SOL    HW217724   6.304   0.257   3.386
 5609SOL     OW17725   4.796   6.659   0.185
 5609SOL    HW117726   4.865   6.729   0.206
 5609SOL    HW217727   4.830   6.569   0.211
 5610SOL     OW17728   5.736   4.070   6.791
 5610SOL    HW117729   5.640   4.086   6.767
 5610SOL    HW217730   5.766   3.984   6.750
 5611SOL     OW17731   0.660   4.754   1.850
 5611SOL    HW117732   0.657   4.741   1.751
 5611SOL    HW217733   0.687   4.849   1.870
 5612SOL     OW17734   2.987   2.665   0.090
 5612SOL    HW117735   3.004   2.713   0.004
 5612SOL    HW217736   2.971   2.732   0.163
 5613SOL     OW17737   0.148   5.409   4.366
 5613SOL    HW117738   0.183   5.406   4.273
 5613SOL    HW217739   0.075   5.477   4.372
 5614SOL     OW17740   5.978   1.764   4.375
 5614SOL    HW117741   6.004   1.723   4.463
 5614SOL    HW217742   6.013   1.858   4.371
 5615SOL     OW17743   0.310   1.876   2.516
 5615SOL    HW117744   0.341   1.801   2.458
 5615SOL    HW217745   0.387   1.937   2.534
 5616SOL     OW17746   1.912   1.744   4.312
 5616SOL    HW117747   1.915   1.785   4.221
 5616SOL    HW217748   1.971   1.796   4.375
 5617SOL     OW17749   1.918   5.313   5.141
 5617SOL    HW117750   1.904   5.364   5.226
 5617SOL    HW217751   2.000   5.349   5.095
 5618SOL     OW17752   6.779   5.192   4.046
 5618SOL    HW117753   6.744   5.261   3.984
 5618SOL    HW217754   6.872   5.216   4.074
 5619SOL     OW17755   3.153   3.012   3.504
 5619SOL    HW117756   3.149   2.982   3.408
 5619SOL    HW217757   3.228   2.965   3.550
 5620SOL     OW17758   4.083   3.607   6.022
 5620SOL    HW117759   4.163   3.551   5.999
 5620SOL    HW217760   4.097   3.648   6.112
 5621SOL     OW17761   1.992   3.052   5.845
 5621SOL    HW117762   2.034   3.113   5.777
 5621SOL    HW217763   2.064   3.010   5.900
 5622SOL     OW17764   4.182   5.639   4.928
 5622SOL    HW117765   4.201   5.708   4.998
 5622SOL    HW217766   4.267   5.598   4.896
 5623SOL     OW17767   4.842   6.635   4.009
 5623SOL    HW117768   4.766   6.575   3.982
 5623SOL    HW217769   4.805   6.721   4.044
 5624SOL     OW17770   0.470   5.232   3.636
 5624SOL    HW117771   0.484   5.295   3.559
 5624SOL    HW217772   0.373   5.228   3.659
 5625SOL     OW17773   0.854   5.801   4.723
 5625SOL    HW117774   0.916   5.880   4.725
 5625SOL    HW217775   0.824   5.780   4.816
 5626SOL     OW17776   1.965   4.616   4.227
 5626SOL    HW117777   1.929   4.584   4.140
 5626SOL    HW217778   2.062   4.639   4.217
 5627SOL     OW17779   0.893   5.899   6.367
 5627SOL    HW117780   0.891   5.856   6.277
 5627SOL    HW217781   0.821   5.969   6.372
 5628SOL     OW17782   2.709   3.366   0.754
 5628SOL    HW117783   2.655   3.284   0.735
 5628SOL    HW217784   2.683   3.403   0.843
 5629SOL     OW17785   3.926   3.659   0.993
 5629SOL    HW117786   3.884   3.746   0.968
 5629SOL    HW217787   3.867   3.611   1.057
 5630SOL     OW17788   1.775   4.015   6.251
 5630SOL    HW117789   1.813   3.923   6.259
 5630SOL    HW217790   1.790   4.049   6.158
 5631SOL     OW17791   4.728   0.954   2.032
 5631SOL    HW117792   4.719   0.865   1.988
 5631SOL    HW217793   4.665   0.960   2.110
 5632SOL     OW17794   5.027   1.101   5.936
 5632SOL    HW117795   5.078   1.092   6.021
 5632SOL    HW217796   4.971   1.019   5.922
 5633SOL     OW17797   0.487   5.200   4.456
 5633SOL    HW117798   0.493   5.113   4.407
 5633SOL    HW217799   0.424   5.191   4.533
 5634SOL     OW17800   2.665   5.431   5.441
 5634SOL    HW117801   2.720   5.357   5.401
 5634SOL    HW217802   2.723   5.485   5.503
 5635SOL     OW17803   3.118   6.965   6.636
 5635SOL    HW117804   3.132   0.046   6.652
 5635SOL    HW217805   3.201   6.926   6.595
 5636SOL     OW17806   5.745   1.398   5.620
 5636SOL    HW117807   5.675   1.375   5.552
 5636SOL    HW217808   5.703   1.448   5.696
 5637SOL     OW17809   5.797   6.283   4.446
 5637SOL    HW117810   5.793   6.334   4.360
 5637SOL    HW217811   5.824   6.345   4.520
 5638SOL     OW17812   5.254   6.158   1.713
 5638SOL    HW117813   5.246   6.244   1.661
 5638SOL    HW217814   5.297   6.089   1.656
 5639SOL     OW17815   1.787   0.185   1.658
 5639SOL    HW117816   1.816   0.279   1.674
 5639SOL    HW217817   1.712   0.184   1.592
 5640SOL     OW17818   2.586   6.701   2.908
 5640SOL    HW117819   2.489   6.688   2.928
 5640SOL    HW217820   2.641   6.669   2.985
 5641SOL     OW17821   0.501   4.543   5.633
 5641SOL    HW117822   0.566   4.531   5.558
 5641SOL    HW217823   0.539   4.503   5.717
 5642SOL     OW17824   0.505   5.267   6.214
 5642SOL    HW117825   0.467   5.275   6.306
 5642SOL    HW217826   0.586   5.208   6.216
 5643SOL     OW17827   3.380   1.245   4.631
 5643SOL    HW117828   3.458   1.306   4.646
 5643SOL    HW217829   3.316   1.253   4.708
 5644SOL     OW17830   5.203   1.855   4.208
 5644SOL    HW117831   5.190   1.922   4.135
 5644SOL    HW217832   5.138   1.873   4.282
 5645SOL     OW17833   5.698   4.333   2.655
 5645SOL    HW117834   5.782   4.288   2.624
 5645SOL    HW217835   5.620   4.270   2.641
 5646SOL     OW17836   1.131   5.425   3.904
 5646SOL    HW117837   1.228   5.418   3.926
 5646SOL    HW217838   1.096   5.513   3.936
 5647SOL     OW17839   6.599   6.034   6.704
 5647SOL    HW117840   6.608   6.022   6.803
 5647SOL    HW217841   6.539   5.963   6.667
 5648SOL     OW17842   1.874   0.916   3.199
 5648SOL    HW117843   1.965   0.902   3.239
 5648SOL    HW217844   1.824   0.983   3.254
 5649SOL     OW17845   1.413   0.251   5.013
 5649SOL    HW117846   1.375   0.331   4.966
 5649SOL    HW217847   1.374   0.168   4.975
 5650SOL     OW17848   0.067   4.805   1.160
 5650SOL    HW117849   0.095   4.757   1.076
 5650SOL    HW217850   0.088   4.902   1.151
 5651SOL     OW17851   0.302   1.833   1.456
 5651SOL    HW117852   0.231   1.836   1.527
 5651SOL    HW217853   0.296   1.915   1.400
 5652SOL     OW17854   4.886   5.920   2.426
 5652SOL    HW117855   4.884   5.981   2.506
 5652SOL    HW217856   4.819   5.952   2.359
 5653SOL     OW17857   0.054   6.622   6.627
 5653SOL    HW117858   6.973   6.644   6.639
 5653SOL    HW217859   0.079   6.633   6.531
 5654SOL     OW17860   0.605   0.349   6.280
 5654SOL    HW117861   0.512   0.372   6.310
 5654SOL    HW217862   0.670   0.371   6.354
 5655SOL     OW17863   0.943   2.917   4.512
 5655SOL    HW117864   0.996   2.903   4.596
 5655SOL    HW217865   0.857   2.865   4.518
 5656SOL     OW17866   3.091   5.170   1.067
 5656SOL    HW117867   3.024   5.115   1.116
 5656SOL    HW217868   3.172   5.183   1.124
 5657SOL     OW17869   4.780   6.640   1.422
 5657SOL    HW117870   4.770   6.709   1.350
 5657SOL    HW217871   4.717   6.661   1.497
 5658SOL     OW17872   2.889   7.001   6.070
 5658SOL    HW117873   2.841   6.977   6.155
 5658SOL    HW217874   2.985   6.976   6.078
 5659SOL     OW17875   2.911   3.404   2.994
 5659SOL    HW117876   2.906   3.447   3.085
 5659SOL    HW217877   2.921   3.475   2.924
 5660SOL     OW17878   5.428   0.587   6.875
 5660SOL    HW117879   5.508   0.536   6.907
 5660SOL    HW217880   5.433   0.597   6.776
 5661SOL     OW17881   6.961   5.222   5.751
 5661SOL    HW117882   7.003   5.182   5.669
 5661SOL    HW217883   0.007   5.288   5.792
 5662SOL     OW17884   2.472   5.050   4.135
 5662SOL    HW117885   2.437   5.000   4.056
 5662SOL    HW217886   2.438   5.144   4.132
 5663SOL     OW17887   1.058   3.933   6.761
 5663SOL    HW117888   1.119   3.854   6.756
 5663SOL    HW217889   1.085   4.000   6.692
 5664SOL     OW17890   0.124   3.878   3.609
 5664SOL    HW117891   0.038   3.828   3.594
 5664SOL    HW217892   0.191   3.816   3.651
 5665SOL     OW17893   1.601   1.418   6.819
 5665SOL    HW117894   1.666   1.415   6.894
 5665SOL    HW217895   1.635   1.363   6.743
 5666SOL     OW17896   4.842   6.033   1.139
 5666SOL    HW117897   4.786   5.979   1.202
 5666SOL    HW217898   4.889   5.972   1.075
 5667SOL     OW17899   0.530   4.773   3.677
 5667SOL    HW117900   0.625   4.761   3.704
 5667SOL    HW217901   0.526   4.836   3.599
 5668SOL     OW17902   5.691   1.985   6.661
 5668SOL    HW117903   5.763   1.920   6.687
 5668SOL    HW217904   5.734   2.065   6.619
 5669SOL     OW17905   0.456   3.846   6.283
 5669SOL    HW117906   0.525   3.839   6.211
 5669SOL    HW217907   0.431   3.755   6.315
 5670SOL     OW17908   7.008   3.101   3.659
 5670SOL    HW117909   7.012   3.170   3.732
 5670SOL    HW217910   0.000   3.010   3.700
 5671SOL     OW17911   1.111   0.008   6.449
 5671SOL    HW117912   1.039   0.078   6.453
 5671SOL    HW217913   1.166   0.012   6.532
 5672SOL     OW17914   4.344   4.901   6.410
 5672SOL    HW117915   4.334   4.827   6.476
 5672SOL    HW217916   4.271   4.896   6.342
 5673SOL     OW17917   0.852   0.203   1.852
 5673SOL    HW117918   0.869   0.296   1.884
 5673SOL    HW217919   0.793   0.156   1.918
 5674SOL     OW17920   6.856   3.772   2.103
 5674SOL    HW117921   6.786   3.701   2.115
 5674SOL    HW217922   6.848   3.840   2.176
 5675SOL     OW17923   4.135   2.472   5.731
 5675SOL    HW117924   4.144   2.386   5.781
 5675SOL    HW217925   4.225   2.515   5.723
 5676SOL     OW17926   2.143   1.238   1.707
 5676SOL    HW117927   2.120   1.202   1.798
 5676SOL    HW217928   2.213   1.309   1.716
 5677SOL     OW17929   0.877   2.257   3.430
 5677SOL    HW117930   0.797   2.315   3.422
 5677SOL    HW217931   0.948   2.304   3.483
 5678SOL     OW17932   3.515   6.441   2.770
 5678SOL    HW117933   3.473   6.527   2.741
 5678SOL    HW217934   3.510   6.433   2.869
 5679SOL     OW17935   1.879   6.958   4.344
 5679SOL    HW117936   1.896   6.994   4.436
 5679SOL    HW217937   1.855   0.017   4.283
 5680SOL     OW17938   1.592   5.760   0.714
 5680SOL    HW117939   1.589   5.839   0.774
 5680SOL    HW217940   1.530   5.689   0.748
 5681SOL     OW17941   1.490   3.464   6.601
 5681SOL    HW117942   1.444   3.401   6.664
 5681SOL    HW217943   1.507   3.417   6.515
 5682SOL     OW17944   2.427   4.282   5.966
 5682SOL    HW117945   2.402   4.189   5.938
 5682SOL    HW217946   2.345   4.332   5.992
 5683SOL     OW17947   4.679   1.954   6.526
 5683SOL    HW117948   4.773   1.986   6.511
 5683SOL    HW217949   4.667   1.865   6.482
 5684SOL     OW17950   4.085   3.394   4.831
 5684SOL    HW117951   4.113   3.485   4.798
 5684SOL    HW217952   4.112   3.383   4.926
 5685SOL     OW17953   0.977   4.439   1.519
 5685SOL    HW117954   0.877   4.430   1.518
 5685SOL    HW217955   1.018   4.349   1.504
 5686SOL     OW17956   3.317   0.768   6.974
 5686SOL    HW117957   3.400   0.719   6.946
 5686SOL    HW217958   3.263   0.709   0.017
 5687SOL     OW17959   6.527   3.890   4.889
 5687SOL    HW117960   6.508   3.835   4.971
 5687SOL    HW217961   6.441   3.925   4.852
 5688SOL     OW17962   6.194   1.618   0.306
 5688SOL    HW117963   6.282   1.605   0.260
 5688SOL    HW217964   6.185   1.552   0.381
 5689SOL     OW17965   4.096   1.304   0.011
 5689SOL    HW117966   4.040   1.371   0.060
 5689SOL    HW217967   4.191   1.313   0.040
 5690SOL     OW17968   2.860   6.186   0.934
 5690SOL    HW117969   2.803   6.224   1.008
 5690SOL    HW217970   2.879   6.258   0.867
 5691SOL     OW17971   3.111   6.306   2.248
 5691SOL    HW117972   3.111   6.399   2.211
 5691SOL    HW217973   3.095   6.310   2.347
 5692SOL     OW17974   6.846   2.233   6.023
 5692SOL    HW117975   6.767   2.193   6.070
 5692SOL    HW217976   6.930   2.194   6.060
 5693SOL     OW17977   5.255   2.892   2.132
 5693SOL    HW117978   5.341   2.941   2.151
 5693SOL    HW217979   5.238   2.893   2.034
 5694SOL     OW17980   0.524   0.967   3.641
 5694SOL    HW117981   0.426   0.984   3.649
 5694SOL    HW217982   0.573   1.054   3.646
 5695SOL     OW17983   1.227   2.335   3.157
 5695SOL    HW117984   1.207   2.419   3.208
 5695SOL    HW217985   1.283   2.357   3.077
 5696SOL     OW17986   1.750   0.396   3.140
 5696SOL    HW117987   1.765   0.422   3.045
 5696SOL    HW217988   1.729   0.478   3.194
 5697SOL     OW17989   6.056   1.940   1.050
 5697SOL    HW117990   6.052   2.024   1.105
 5697SOL    HW217991   6.058   1.964   0.953
 5698SOL     OW17992   0.333   2.404   2.524
 5698SOL    HW117993   0.382   2.471   2.580
 5698SOL    HW217994   0.354   2.421   2.427
 5699SOL     OW17995   6.755   1.928   3.541
 5699SOL    HW117996   6.838   1.882   3.574
 5699SOL    HW217997   6.713   1.872   3.469
 5700SOL     OW17998   6.559   6.129   4.749
 5700SOL    HW117999   6.549   6.034   4.720
 5700SOL    HW218000   6.473   6.163   4.786
 5701SOL     OW18001   0.977   5.718   3.563
 5701SOL    HW118002   1.067   5.678   3.543
 5701SOL    HW218003   0.937   5.753   3.479
 5702SOL     OW18004   1.857   0.071   6.017
 5702SOL    HW118005   1.865   0.145   6.082
 5702SOL    HW218006   1.837   7.002   6.065
 5703SOL     OW18007   4.899   4.446   0.513
 5703SOL    HW118008   4.988   4.408   0.485
 5703SOL    HW218009   4.907   4.483   0.605
 5704SOL     OW18010   3.948   5.470   2.471
 5704SOL    HW118011   3.903   5.536   2.412
 5704SOL    HW218012   4.042   5.454   2.438
 5705SOL     OW18013   6.052   1.202   0.035
 5705SOL    HW118014   5.988   1.253   0.093
 5705SOL    HW218015   6.042   1.231   6.957
 5706SOL     OW18016   1.505   1.564   0.735
 5706SOL    HW118017   1.450   1.503   0.794
 5706SOL    HW218018   1.466   1.564   0.643
 5707SOL     OW18019   0.756   6.947   0.146
 5707SOL    HW118020   0.734   6.918   0.053
 5707SOL    HW218021   0.749   6.869   0.208
 5708SOL     OW18022   5.315   6.827   1.441
 5708SOL    HW118023   5.230   6.777   1.430
 5708SOL    HW218024   5.368   6.823   1.357
 5709SOL     OW18025   1.082   6.533   3.669
 5709SOL    HW118026   1.112   6.542   3.575
 5709SOL    HW218027   0.989   6.567   3.678
 5710SOL     OW18028   2.346   3.459   5.412
 5710SOL    HW118029   2.354   3.556   5.389
 5710SOL    HW218030   2.253   3.440   5.443
 5711SOL     OW18031   5.269   0.522   3.042
 5711SOL    HW118032   5.350   0.522   2.984
 5711SOL    HW218033   5.267   0.438   3.097
 5712SOL     OW18034   0.589   6.533   5.663
 5712SOL    HW118035   0.599   6.625   5.701
 5712SOL    HW218036   0.525   6.535   5.586
 5713SOL     OW18037   1.462   2.071   0.940
 5713SOL    HW118038   1.432   2.054   0.847
 5713SOL    HW218039   1.527   2.000   0.968
 5714SOL     OW18040   1.278   6.704   0.198
 5714SOL    HW118041   1.224   6.633   0.152
 5714SOL    HW218042   1.375   6.688   0.180
 5715SOL     OW18043   1.434   5.797   3.486
 5715SOL    HW118044   1.375   5.877   3.476
 5715SOL    HW218045   1.463   5.764   3.396
 5716SOL     OW18046   1.089   3.526   5.659
 5716SOL    HW118047   0.994   3.552   5.645
 5716SOL    HW218048   1.134   3.594   5.717
 5717SOL     OW18049   1.389   5.637   0.156
 5717SOL    HW118050   1.420   5.548   0.125
 5717SOL    HW218051   1.459   5.706   0.138
 5718SOL     OW18052   1.370   4.038   6.200
 5718SOL    HW118053   1.283   3.999   6.230
 5718SOL    HW218054   1.424   4.066   6.280
 5719SOL     OW18055   2.441   1.356   6.315
 5719SOL    HW118056   2.460   1.404   6.401
 5719SOL    HW218057   2.506   1.281   6.304
 5720SOL     OW18058   0.843   4.764   4.752
 5720SOL    HW118059   0.853   4.729   4.659
 5720SOL    HW218060   0.870   4.693   4.817
 5721SOL     OW18061   0.704   3.738   0.624
 5721SOL    HW118062   0.663   3.719   0.535
 5721SOL    HW218063   0.785   3.680   0.636
 5722SOL     OW18064   5.612   1.867   5.310
 5722SOL    HW118065   5.672   1.787   5.305
 5722SOL    HW218066   5.519   1.837   5.331
 5723SOL     OW18067   4.354   3.904   0.209
 5723SOL    HW118068   4.255   3.901   0.198
 5723SOL    HW218069   4.381   3.847   0.287
 5724SOL     OW18070   3.901   2.433   5.320
 5724SOL    HW118071   3.976   2.480   5.274
 5724SOL    HW218072   3.813   2.469   5.289
 5725SOL     OW18073   5.117   6.128   3.494
 5725SOL    HW118074   5.109   6.031   3.472
 5725SOL    HW218075   5.209   6.160   3.470
 5726SOL     OW18076   6.329   3.150   3.324
 5726SOL    HW118077   6.290   3.202   3.400
 5726SOL    HW218078   6.424   3.126   3.344
 5727SOL     OW18079   6.857   3.454   3.459
 5727SOL    HW118080   6.852   3.373   3.401
 5727SOL    HW218081   6.827   3.534   3.408
 5728SOL     OW18082   4.581   1.749   6.225
 5728SOL    HW118083   4.633   1.687   6.283
 5728SOL    HW218084   4.497   1.704   6.194
 5729SOL     OW18085   1.342   1.333   0.757
 5729SOL    HW118086   1.330   1.358   0.661
 5729SOL    HW218087   1.265   1.368   0.810
 5730SOL     OW18088   4.364   5.621   5.433
 5730SOL    HW118089   4.374   5.580   5.524
 5730SOL    HW218090   4.366   5.549   5.364
 5731SOL     OW18091   2.280   6.364   4.053
 5731SOL    HW118092   2.360   6.319   4.094
 5731SOL    HW218093   2.299   6.461   4.041
 5732SOL     OW18094   6.626   4.388   5.190
 5732SOL    HW118095   6.540   4.439   5.184
 5732SOL    HW218096   6.607   4.290   5.185
 5733SOL     OW18097   3.458   0.574   5.625
 5733SOL    HW118098   3.510   0.496   5.660
 5733SOL    HW218099   3.479   0.655   5.678
 5734SOL     OW18100   1.283   6.647   6.573
 5734SOL    HW118101   1.193   6.639   6.616
 5734SOL    HW218102   1.275   6.632   6.474
 5735SOL     OW18103   3.240   1.426   2.616
 5735SOL    HW118104   3.254   1.336   2.575
 5735SOL    HW218105   3.179   1.480   2.558
 5736SOL     OW18106   5.530   4.784   0.661
 5736SOL    HW118107   5.494   4.864   0.613
 5736SOL    HW218108   5.597   4.737   0.604
 5737SOL     OW18109   5.505   6.264   0.612
 5737SOL    HW118110   5.485   6.166   0.609
 5737SOL    HW218111   5.604   6.278   0.615
 5738SOL     OW18112   3.625   1.586   6.742
 5738SOL    HW118113   3.680   1.629   6.671
 5738SOL    HW218114   3.667   1.602   6.832
 5739SOL     OW18115   1.272   6.944   5.650
 5739SOL    HW118116   1.325   6.910   5.728
 5739SOL    HW218117   1.214   6.870   5.615
 5740SOL     OW18118   4.421   3.665   1.144
 5740SOL    HW118119   4.494   3.629   1.086
 5740SOL    HW218120   4.451   3.750   1.186
 5741SOL     OW18121   0.150   3.926   4.232
 5741SOL    HW118122   0.239   3.919   4.188
 5741SOL    HW218123   0.088   3.858   4.193
 5742SOL     OW18124   4.660   6.533   3.226
 5742SOL    HW118125   4.567   6.497   3.234
 5742SOL    HW218126   4.663   6.603   3.156
 5743SOL     OW18127   3.356   5.650   5.414
 5743SOL    HW118128   3.308   5.738   5.414
 5743SOL    HW218129   3.392   5.632   5.322
 5744SOL     OW18130   5.674   0.935   2.298
 5744SOL    HW118131   5.626   0.847   2.291
 5744SOL    HW218132   5.758   0.932   2.244
 5745SOL     OW18133   2.584   0.713   4.144
 5745SOL    HW118134   2.512   0.701   4.075
 5745SOL    HW218135   2.665   0.754   4.100
 5746SOL     OW18136   4.922   6.682   2.003
 5746SOL    HW118137   4.998   6.727   2.048
 5746SOL    HW218138   4.844   6.745   1.997
 5747SOL     OW18139   0.922   5.263   1.694
 5747SOL    HW118140   0.900   5.343   1.749
 5747SOL    HW218141   0.963   5.193   1.752
 5748SOL     OW18142   1.991   6.986   0.801
 5748SOL    HW118143   1.971   0.002   0.709
 5748SOL    HW218144   2.048   6.904   0.796
 5749SOL     OW18145   1.737   6.659   5.107
 5749SOL    HW118146   1.768   6.753   5.120
 5749SOL    HW218147   1.728   6.641   5.009
 5750SOL     OW18148   6.213   6.027   5.657
 5750SOL    HW118149   6.287   6.003   5.720
 5750SOL    HW218150   6.125   6.023   5.705
 5751SOL     OW18151   2.383   2.718   5.016
 5751SOL    HW118152   2.292   2.701   4.976
 5751SOL    HW218153   2.395   2.816   5.031
 5752SOL     OW18154   5.430   0.105   0.534
 5752SOL    HW118155   5.418   0.195   0.492
 5752SOL    HW218156   5.342   0.072   0.568
 5753SOL     OW18157   3.129   4.077   4.357
 5753SOL    HW118158   3.167   4.168   4.349
 5753SOL    HW218159   3.109   4.057   4.453
 5754SOL     OW18160   1.075   5.549   1.401
 5754SOL    HW118161   1.149   5.591   1.453
 5754SOL    HW218162   0.987   5.575   1.440
 5755SOL     OW18163   1.684   1.968   6.068
 5755SOL    HW118164   1.685   1.921   5.979
 5755SOL    HW218165   1.752   2.041   6.068
 5756SOL     OW18166   0.239   0.565   2.883
 5756SOL    HW118167   0.231   0.665   2.887
 5756SOL    HW218168   0.303   0.540   2.810
 5757SOL     OW18169   0.701   5.609   4.285
 5757SOL    HW118170   0.679   5.625   4.381
 5757SOL    HW218171   0.618   5.619   4.230
 5758SOL     OW18172   2.469   1.486   2.821
 5758SOL    HW118173   2.533   1.473   2.896
 5758SOL    HW218174   2.415   1.568   2.837
 5759SOL     OW18175   4.694   0.949   0.395
 5759SOL    HW118176   4.651   0.887   0.461
 5759SOL    HW218177   4.695   1.042   0.433
 5760SOL     OW18178   6.421   2.130   1.261
 5760SOL    HW118179   6.384   2.156   1.171
 5760SOL    HW218180   6.375   2.047   1.293
 5761SOL     OW18181   5.942   5.085   5.773
 5761SOL    HW118182   5.891   5.170   5.789
 5761SOL    HW218183   6.000   5.096   5.692
 5762SOL     OW18184   4.597   4.428   0.793
 5762SOL    HW118185   4.638   4.496   0.731
 5762SOL    HW218186   4.626   4.446   0.887
 5763SOL     OW18187   5.895   6.066   1.117
 5763SOL    HW118188   5.864   5.977   1.149
 5763SOL    HW218189   5.819   6.115   1.074
 5764SOL     OW18190   4.475   5.122   4.367
 5764SOL    HW118191   4.555   5.070   4.396
 5764SOL    HW218192   4.503   5.191   4.301
 5765SOL     OW18193   6.012   3.609   0.415
 5765SOL    HW118194   5.964   3.527   0.386
 5765SOL    HW218195   6.014   3.614   0.515
 5766SOL     OW18196   1.724   2.052   5.251
 5766SOL    HW118197   1.716   2.006   5.340
 5766SOL    HW218198   1.671   2.001   5.182
 5767SOL     OW18199   2.491   0.202   0.609
 5767SOL    HW118200   2.563   0.250   0.559
 5767SOL    HW218201   2.530   0.127   0.661
 5768SOL     OW18202   0.572   7.010   3.621
 5768SOL    HW118203   0.534   0.065   3.562
 5768SOL    HW218204   0.500   6.948   3.650
 5769SOL     OW18205   2.813   5.672   4.753
 5769SOL    HW118206   2.891   5.654   4.812
 5769SOL    HW218207   2.728   5.658   4.804
 5770SOL     OW18208   6.762   6.742   6.466
 5770SOL    HW118209   6.766   6.796   6.550
 5770SOL    HW218210   6.785   6.647   6.485
 5771SOL     OW18211   1.431   7.007   4.117
 5771SOL    HW118212   1.511   6.992   4.059
 5771SOL    HW218213   1.458   0.044   4.198
 5772SOL     OW18214   5.523   0.968   0.805
 5772SOL    HW118215   5.607   0.970   0.859
 5772SOL    HW218216   5.444   0.966   0.866
 5773SOL     OW18217   4.468   1.003   3.577
 5773SOL    HW118218   4.530   0.925   3.583
 5773SOL    HW218219   4.521   1.088   3.575
 5774SOL     OW18220   3.059   0.355   4.322
 5774SOL    HW118221   2.992   0.362   4.395
 5774SOL    HW218222   3.015   0.316   4.240
 5775SOL     OW18223   1.068   0.481   2.425
 5775SOL    HW118224   1.003   0.526   2.487
 5775SOL    HW218225   1.146   0.448   2.478
 5776SOL     OW18226   0.615   6.703   3.903
 5776SOL    HW118227   0.564   6.751   3.831
 5776SOL    HW218228   0.560   6.700   3.986
 5777SOL     OW18229   0.539   0.657   4.815
 5777SOL    HW118230   0.475   0.587   4.848
 5777SOL    HW218231   0.590   0.620   4.737
 5778SOL     OW18232   1.644   0.428   0.341
 5778SOL    HW118233   1.722   0.386   0.387
 5778SOL    HW218234   1.638   0.524   0.367
 5779SOL     OW18235   4.642   2.675   0.902
 5779SOL    HW118236   4.627   2.581   0.870
 5779SOL    HW218237   4.631   2.738   0.825
 5780SOL     OW18238   6.080   6.027   3.811
 5780SOL    HW118239   6.077   6.013   3.910
 5780SOL    HW218240   6.114   5.944   3.766
 5781SOL     OW18241   0.215   4.954   4.370
 5781SOL    HW118242   0.151   4.941   4.294
 5781SOL    HW218243   0.223   5.052   4.390
 5782SOL     OW18244   1.857   1.625   0.777
 5782SOL    HW118245   1.817   1.536   0.756
 5782SOL    HW218246   1.872   1.633   0.875
 5783SOL     OW18247   1.078   0.952   1.609
 5783SOL    HW118248   1.036   1.007   1.537
 5783SOL    HW218249   1.175   0.938   1.588
 5784SOL     OW18250   0.189   6.557   5.611
 5784SOL    HW118251   0.269   6.539   5.554
 5784SOL    HW218252   0.106   6.543   5.557
 5785SOL     OW18253   2.472   2.002   0.534
 5785SOL    HW118254   2.438   2.045   0.617
 5785SOL    HW218255   2.521   2.070   0.479
 5786SOL     OW18256   0.315   3.888   0.406
 5786SOL    HW118257   0.279   3.921   0.494
 5786SOL    HW218258   0.308   3.961   0.338
 5787SOL     OW18259   2.282   1.539   4.638
 5787SOL    HW118260   2.306   1.470   4.570
 5787SOL    HW218261   2.339   1.620   4.624
 5788SOL     OW18262   2.685   1.574   1.564
 5788SOL    HW118263   2.654   1.669   1.559
 5788SOL    HW218264   2.784   1.570   1.551
 5789SOL     OW18265   3.521   5.111   0.306
 5789SOL    HW118266   3.540   5.013   0.310
 5789SOL    HW218267   3.448   5.133   0.370
 5790SOL     OW18268   1.480   4.179   4.841
 5790SOL    HW118269   1.488   4.260   4.899
 5790SOL    HW218270   1.563   4.170   4.785
 5791SOL     OW18271   4.032   1.085   2.237
 5791SOL    HW118272   4.130   1.084   2.214
 5791SOL    HW218273   4.000   1.180   2.242
 5792SOL     OW18274   6.285   3.270   2.314
 5792SOL    HW118275   6.238   3.191   2.354
 5792SOL    HW218276   6.362   3.238   2.258
 5793SOL     OW18277   5.271   0.970   3.906
 5793SOL    HW118278   5.190   0.914   3.886
 5793SOL    HW218279   5.308   0.943   3.996
 5794SOL     OW18280   2.796   1.339   0.160
 5794SOL    HW118281   2.791   1.333   0.060
 5794SOL    HW218282   2.709   1.311   0.200
 5795SOL     OW18283   6.585   6.740   0.342
 5795SOL    HW118284   6.629   6.823   0.308
 5795SOL    HW218285   6.651   6.687   0.395
 5796SOL     OW18286   4.075   1.632   6.916
 5796SOL    HW118287   4.087   1.697   6.842
 5796SOL    HW218288   4.162   1.585   6.934
 5797SOL     OW18289   4.915   2.440   5.981
 5797SOL    HW118290   4.822   2.476   5.990
 5797SOL    HW218291   4.949   2.460   5.889
 5798SOL     OW18292   0.746   4.648   5.201
 5798SOL    HW118293   0.672   4.698   5.155
 5798SOL    HW218294   0.765   4.691   5.289
 5799SOL     OW18295   0.226   0.323   2.413
 5799SOL    HW118296   0.280   0.330   2.329
 5799SOL    HW218297   0.161   0.400   2.417
 5800SOL     OW18298   6.190   6.355   1.965
 5800SOL    HW118299   6.228   6.338   1.875
 5800SOL    HW218300   6.188   6.270   2.018
 5801SOL     OW18301   1.849   2.380   3.129
 5801SOL    HW118302   1.771   2.345   3.182
 5801SOL    HW218303   1.924   2.401   3.191
 5802SOL     OW18304   1.086   4.757   1.784
 5802SOL    HW118305   1.064   4.812   1.703
 5802SOL    HW218306   1.023   4.679   1.790
 5803SOL     OW18307   2.361   4.874   2.301
 5803SOL    HW118308   2.440   4.933   2.318
 5803SOL    HW218309   2.298   4.920   2.237
 5804SOL     OW18310   0.612   5.063   4.069
 5804SOL    HW118311   0.563   4.984   4.105
 5804SOL    HW218312   0.582   5.080   3.975
 5805SOL     OW18313   2.680   3.919   6.687
 5805SOL    HW118314   2.668   4.016   6.664
 5805SOL    HW218315   2.701   3.867   6.604
 5806SOL     OW18316   6.724   5.925   5.359
 5806SOL    HW118317   6.636   5.878   5.353
 5806SOL    HW218318   6.795   5.869   5.317
 5807SOL     OW18319   0.624   3.731   2.372
 5807SOL    HW118320   0.579   3.789   2.440
 5807SOL    HW218321   0.566   3.651   2.353
 5808SOL     OW18322   5.939   5.413   4.882
 5808SOL    HW118323   5.897   5.450   4.965
 5808SOL    HW218324   5.873   5.355   4.835
 5809SOL     OW18325   5.852   1.376   4.856
 5809SOL    HW118326   5.851   1.309   4.782
 5809SOL    HW218327   5.773   1.437   4.846
 5810SOL     OW18328   3.469   1.815   4.543
 5810SOL    HW118329   3.529   1.768   4.608
 5810SOL    HW218330   3.409   1.878   4.593
 5811SOL     OW18331   3.163   0.697   5.653
 5811SOL    HW118332   3.089   0.636   5.682
 5811SOL    HW218333   3.202   0.662   5.568
 5812SOL     OW18334   6.552   2.443   4.249
 5812SOL    HW118335   6.570   2.455   4.152
 5812SOL    HW218336   6.628   2.393   4.292
 5813SOL     OW18337   2.048   1.559   1.011
 5813SOL    HW118338   2.121   1.615   1.052
 5813SOL    HW218339   1.977   1.543   1.079
 5814SOL     OW18340   6.340   4.613   1.281
 5814SOL    HW118341   6.242   4.599   1.291
 5814SOL    HW218342   6.357   4.690   1.220
 5815SOL     OW18343   4.241   2.258   4.382
 5815SOL    HW118344   4.238   2.158   4.387
 5815SOL    HW218345   4.331   2.291   4.410
 5816SOL     OW18346   4.648   5.128   6.984
 5816SOL    HW118347   4.618   5.174   6.900
 5816SOL    HW218348   4.674   5.197   0.034
 5817SOL     OW18349   5.592   3.819   6.213
 5817SOL    HW118350   5.638   3.737   6.247
 5817SOL    HW218351   5.600   3.893   6.280
 5818SOL     OW18352   6.325   5.876   4.647
 5818SOL    HW118353   6.325   5.911   4.740
 5818SOL    HW218354   6.250   5.811   4.635
 5819SOL     OW18355   4.006   6.702   6.851
 5819SOL    HW118356   3.965   6.747   6.930
 5819SOL    HW218357   4.076   6.762   6.812
 5820SOL     OW18358   3.799   5.671   3.849
 5820SOL    HW118359   3.793   5.592   3.910
 5820SOL    HW218360   3.729   5.738   3.874
 5821SOL     OW18361   0.054   6.879   1.273
 5821SOL    HW118362   7.005   6.893   1.347
 5821SOL    HW218363   0.070   6.781   1.261
 5822SOL     OW18364   0.849   2.359   2.221
 5822SOL    HW118365   0.802   2.412   2.151
 5822SOL    HW218366   0.926   2.411   2.257
 5823SOL     OW18367   1.636   1.207   5.710
 5823SOL    HW118368   1.579   1.152   5.650
 5823SOL    HW218369   1.647   1.298   5.671
 5824SOL     OW18370   6.575   5.222   2.629
 5824SOL    HW118371   6.661   5.272   2.617
 5824SOL    HW218372   6.562   5.200   2.725
 5825SOL     OW18373   2.114   1.941   5.691
 5825SOL    HW118374   2.045   2.003   5.654
 5825SOL    HW218375   2.205   1.972   5.664
 5826SOL     OW18376   0.068   5.080   5.531
 5826SOL    HW118377   0.113   5.045   5.450
 5826SOL    HW218378   0.086   5.018   5.608
 5827SOL     OW18379   1.851   4.819   4.728
 5827SOL    HW118380   1.920   4.889   4.747
 5827SOL    HW218381   1.847   4.802   4.629
 5828SOL     OW18382   6.457   2.565   1.070
 5828SOL    HW118383   6.466   2.641   1.135
 5828SOL    HW218384   6.361   2.539   1.064
 5829SOL     OW18385   1.987   0.528   3.340
 5829SOL    HW118386   1.958   0.532   3.245
 5829SOL    HW218387   2.049   0.451   3.353
 5830SOL     OW18388   5.130   6.986   5.245
 5830SOL    HW118389   5.047   6.937   5.221
 5830SOL    HW218390   5.143   6.985   5.344
 5831SOL     OW18391   0.022   1.021   5.110
 5831SOL    HW118392   6.941   1.045   5.103
 5831SOL    HW218393   0.076   1.085   5.055
 5832SOL     OW18394   3.123   4.920   6.225
 5832SOL    HW118395   3.204   4.913   6.283
 5832SOL    HW218396   3.042   4.898   6.278
 5833SOL     OW18397   3.868   3.811   4.680
 5833SOL    HW118398   3.910   3.870   4.611
 5833SOL    HW218399   3.784   3.771   4.643
 5834SOL     OW18400   6.962   3.476   6.920
 5834SOL    HW118401   6.930   3.417   6.846
 5834SOL    HW218402   6.908   3.458   7.002
 5835SOL     OW18403   4.866   3.074   3.916
 5835SOL    HW118404   4.808   3.006   3.870
 5835SOL    HW218405   4.951   3.084   3.865
 5836SOL     OW18406   2.693   6.894   2.667
 5836SOL    HW118407   2.622   6.827   2.690
 5836SOL    HW218408   2.765   6.892   2.736
 5837SOL     OW18409   3.952   4.366   5.650
 5837SOL    HW118410   3.890   4.440   5.624
 5837SOL    HW218411   4.046   4.400   5.651
 5838SOL     OW18412   3.312   2.478   6.675
 5838SOL    HW118413   3.321   2.520   6.585
 5838SOL    HW218414   3.218   2.490   6.709
 5839SOL     OW18415   0.534   2.012   2.416
 5839SOL    HW118416   0.551   1.920   2.381
 5839SOL    HW218417   0.611   2.072   2.390
 5840SOL     OW18418   0.864   5.355   6.296
 5840SOL    HW118419   0.796   5.409   6.347
 5840SOL    HW218420   0.933   5.417   6.257
 5841SOL     OW18421   5.145   1.576   2.764
 5841SOL    HW118422   5.107   1.668   2.771
 5841SOL    HW218423   5.108   1.531   2.683
 5842SOL     OW18424   4.436   3.011   1.349
 5842SOL    HW118425   4.459   3.085   1.285
 5842SOL    HW218426   4.520   2.965   1.378
 5843SOL     OW18427   2.158   3.956   2.897
 5843SOL    HW118428   2.061   3.959   2.924
 5843SOL    HW218429   2.215   3.975   2.977
 5844SOL     OW18430   1.779   6.492   6.265
 5844SOL    HW118431   1.696   6.457   6.307
 5844SOL    HW218432   1.789   6.589   6.288
 5845SOL     OW18433   0.624   0.553   2.245
 5845SOL    HW118434   0.670   0.594   2.166
 5845SOL    HW218435   0.624   0.619   2.321
 5846SOL     OW18436   0.466   2.261   4.145
 5846SOL    HW118437   0.560   2.279   4.113
 5846SOL    HW218438   0.410   2.234   4.067
 5847SOL     OW18439   2.325   2.296   1.645
 5847SOL    HW118440   2.354   2.236   1.570
 5847SOL    HW218441   2.275   2.374   1.607
 5848SOL     OW18442   2.127   5.235   3.423
 5848SOL    HW118443   2.095   5.328   3.441
 5848SOL    HW218444   2.224   5.228   3.446
 5849SOL     OW18445   0.055   0.211   6.511
 5849SOL    HW118446   0.111   0.247   6.585
 5849SOL    HW218447   0.093   0.241   6.423
 5850SOL     OW18448   0.139   2.844   1.755
 5850SOL    HW118449   0.196   2.809   1.681
 5850SOL    HW218450   0.049   2.869   1.720
 5851SOL     OW18451   5.448   4.055   3.335
 5851SOL    HW118452   5.440   4.054   3.434
 5851SOL    HW218453   5.433   3.963   3.298
 5852SOL     OW18454   6.459   5.923   3.194
 5852SOL    HW118455   6.406   5.885   3.269
 5852SOL    HW218456   6.525   5.990   3.230
 5853SOL     OW18457   3.692   6.001   4.494
 5853SOL    HW118458   3.704   6.097   4.470
 5853SOL    HW218459   3.634   5.956   4.426
 5854SOL     OW18460   5.795   4.810   6.035
 5854SOL    HW118461   5.765   4.848   5.947
 5854SOL    HW218462   5.830   4.718   6.020
 5855SOL     OW18463   6.923   1.288   4.340
 5855SOL    HW118464   6.979   1.206   4.341
 5855SOL    HW218465   6.960   1.355   4.405
 5856SOL     OW18466   1.708   5.889   4.228
 5856SOL    HW118467   1.633   5.865   4.166
 5856SOL    HW218468   1.700   5.985   4.255
 5857SOL     OW18469   6.191   2.288   5.819
 5857SOL    HW118470   6.227   2.275   5.726
 5857SOL    HW218471   6.218   2.379   5.852
 5858SOL     OW18472   2.183   2.611   2.446
 5858SOL    HW118473   2.204   2.700   2.404
 5858SOL    HW218474   2.177   2.541   2.375
 5859SOL     OW18475   5.451   5.908   2.145
 5859SOL    HW118476   5.370   5.966   2.145
 5859SOL    HW218477   5.510   5.934   2.069
 5860SOL     OW18478   1.413   4.377   1.685
 5860SOL    HW118479   1.379   4.292   1.726
 5860SOL    HW218480   1.338   4.444   1.682
 5861SOL     OW18481   4.483   1.553   4.578
 5861SOL    HW118482   4.575   1.554   4.619
 5861SOL    HW218483   4.433   1.473   4.610
 5862SOL     OW18484   5.155   4.894   2.017
 5862SOL    HW118485   5.111   4.984   2.010
 5862SOL    HW218486   5.171   4.858   1.925
 5863SOL     OW18487   3.135   1.242   4.762
 5863SOL    HW118488   3.069   1.195   4.704
 5863SOL    HW218489   3.086   1.303   4.824
 5864SOL     OW18490   4.117   3.636   1.736
 5864SOL    HW118491   4.179   3.711   1.717
 5864SOL    HW218492   4.048   3.666   1.803
 5865SOL     OW18493   6.013   0.563   5.122
 5865SOL    HW118494   6.038   0.611   5.207
 5865SOL    HW218495   5.929   0.511   5.137
 5866SOL     OW18496   4.166   4.692   1.008
 5866SOL    HW118497   4.246   4.642   0.974
 5866SOL    HW218498   4.138   4.760   0.940
 5867SOL     OW18499   1.000   4.114   0.687
 5867SOL    HW118500   1.088   4.157   0.708
 5867SOL    HW218501   0.926   4.178   0.712
 5868SOL     OW18502   0.442   1.113   5.070
 5868SOL    HW118503   0.440   1.064   4.982
 5868SOL    HW218504   0.521   1.172   5.073
 5869SOL     OW18505   2.480   6.232   4.176
 5869SOL    HW118506   2.551   6.235   4.247
 5869SOL    HW218507   2.519   6.264   4.089
 5870SOL     OW18508   5.190   6.095   4.873
 5870SOL    HW118509   5.266   6.041   4.910
 5870SOL    HW218510   5.126   6.118   4.946
 5871SOL     OW18511   3.915   3.071   1.197
 5871SOL    HW118512   3.885   3.058   1.103
 5871SOL    HW218513   3.979   3.148   1.201
 5872SOL     OW18514   3.837   5.775   1.503
 5872SOL    HW118515   3.743   5.804   1.486
 5872SOL    HW218516   3.900   5.849   1.479
 5873SOL     OW18517   2.913   2.028   1.298
 5873SOL    HW118518   2.984   2.039   1.367
 5873SOL    HW218519   2.905   2.112   1.244
 5874SOL     OW18520   3.765   4.348   0.232
 5874SOL    HW118521   3.667   4.366   0.219
 5874SOL    HW218522   3.777   4.271   0.294
 5875SOL     OW18523   3.956   1.400   6.639
 5875SOL    HW118524   4.053   1.390   6.663
 5875SOL    HW218525   3.903   1.417   6.723
 5876SOL     OW18526   3.169   3.365   0.210
 5876SOL    HW118527   3.121   3.278   0.223
 5876SOL    HW218528   3.102   3.440   0.210
 5877SOL     OW18529   0.193   0.174   0.667
 5877SOL    HW118530   0.106   0.159   0.713
 5877SOL    HW218531   0.206   0.272   0.651
 5878SOL     OW18532   5.403   5.325   3.892
 5878SOL    HW118533   5.465   5.263   3.844
 5878SOL    HW218534   5.454   5.378   3.960
 5879SOL     OW18535   1.998   3.387   6.163
 5879SOL    HW118536   1.998   3.295   6.202
 5879SOL    HW218537   1.904   3.421   6.160
 5880SOL     OW18538   4.899   4.549   6.819
 5880SOL    HW118539   4.872   4.616   6.889
 5880SOL    HW218540   4.951   4.596   6.747
 5881SOL     OW18541   1.454   0.015   1.738
 5881SOL    HW118542   1.528   7.007   1.801
 5881SOL    HW218543   1.366   0.002   1.784
 5882SOL     OW18544   0.944   6.659   5.938
 5882SOL    HW118545   0.869   6.597   5.914
 5882SOL    HW218546   0.923   6.704   6.025
 5883SOL     OW18547   0.881   1.421   0.081
 5883SOL    HW118548   0.952   1.387   0.019
 5883SOL    HW218549   0.863   1.353   0.152
 5884SOL     OW18550   4.884   1.195   4.936
 5884SOL    HW118551   4.936   1.278   4.956
 5884SOL    HW218552   4.906   1.164   4.843
 5885SOL     OW18553   0.364   5.629   2.363
 5885SOL    HW118554   0.306   5.681   2.425
 5885SOL    HW218555   0.328   5.636   2.270
 5886SOL     OW18556   1.360   1.927   4.081
 5886SOL    HW118557   1.457   1.905   4.094
 5886SOL    HW218558   1.328   1.983   4.158
 5887SOL     OW18559   2.253   2.185   1.900
 5887SOL    HW118560   2.266   2.212   1.804
 5887SOL    HW218561   2.334   2.209   1.953
 5888SOL     OW18562   2.408   6.978   1.182
 5888SOL    HW118563   2.489   0.000   1.139
 5888SOL    HW218564   2.326   7.010   1.135
 5889SOL     OW18565   6.090   1.646   6.219
 5889SOL    HW118566   6.130   1.650   6.311
 5889SOL    HW218567   6.023   1.719   6.210
 5890SOL     OW18568   2.232   0.014   3.032
 5890SOL    HW118569   2.171   0.003   3.111
 5890SOL    HW218570   2.276   0.104   3.036
 5891SOL     OW18571   2.491   4.094   0.890
 5891SOL    HW118572   2.510   3.998   0.910
 5891SOL    HW218573   2.503   4.112   0.793
 5892SOL     OW18574   0.496   5.200   1.864
 5892SOL    HW118575   0.447   5.138   1.802
 5892SOL    HW218576   0.435   5.275   1.890
 5893SOL     OW18577   2.189   4.909   1.899
 5893SOL    HW118578   2.142   4.912   1.988
 5893SOL    HW218579   2.238   4.995   1.885
 5894SOL     OW18580   0.560   5.869   5.476
 5894SOL    HW118581   0.599   5.837   5.562
 5894SOL    HW218582   0.486   5.808   5.447
 5895SOL     OW18583   6.156   3.899   3.385
 5895SOL    HW118584   6.217   3.979   3.381
 5895SOL    HW218585   6.133   3.881   3.481
 5896SOL     OW18586   4.636   1.541   0.674
 5896SOL    HW118587   4.677   1.474   0.736
 5896SOL    HW218588   4.676   1.531   0.583
 5897SOL     OW18589   4.182   0.764   0.954
 5897SOL    HW118590   4.270   0.765   0.907
 5897SOL    HW218591   4.182   0.834   1.025
 5898SOL     OW18592   2.469   0.875   5.119
 5898SOL    HW118593   2.542   0.807   5.129
 5898SOL    HW218594   2.382   0.827   5.103
 5899SOL     OW18595   5.644   6.132   6.639
 5899SOL    HW118596   5.548   6.123   6.616
 5899SOL    HW218597   5.687   6.041   6.637
 5900SOL     OW18598   6.940   5.029   2.692
 5900SOL    HW118599   6.952   4.934   2.661
 5900SOL    HW218600   6.946   5.032   2.791
 5901SOL     OW18601   2.831   0.941   0.588
 5901SOL    HW118602   2.898   0.925   0.516
 5901SOL    HW218603   2.833   1.037   0.615
 5902SOL     OW18604   5.370   3.610   5.933
 5902SOL    HW118605   5.396   3.576   5.842
 5902SOL    HW218606   5.275   3.583   5.952
 5903SOL     OW18607   4.489   3.878   6.984
 5903SOL    HW118608   4.579   3.845   7.012
 5903SOL    HW218609   4.439   3.911   0.047
 5904SOL     OW18610   1.110   4.303   1.174
 5904SOL    HW118611   1.012   4.284   1.186
 5904SOL    HW218612   1.157   4.292   1.261
 5905SOL     OW18613   6.432   0.555   3.528
 5905SOL    HW118614   6.399   0.540   3.435
 5905SOL    HW218615   6.530   0.536   3.532
 5906SOL     OW18616   4.883   1.942   4.770
 5906SOL    HW118617   4.957   1.907   4.712
 5906SOL    HW218618   4.903   1.920   4.865
 5907SOL     OW18619   1.336   6.619   0.686
 5907SOL    HW118620   1.415   6.679   0.702
 5907SOL    HW218621   1.285   6.652   0.606
 5908SOL     OW18622   6.495   3.641   0.238
 5908SOL    HW118623   6.474   3.701   0.160
 5908SOL    HW218624   6.585   3.665   0.274
 5909SOL     OW18625   6.237   5.018   6.266
 5909SOL    HW118626   6.289   4.986   6.345
 5909SOL    HW218627   6.291   5.087   6.217
 5910SOL     OW18628   0.702   4.513   1.237
 5910SOL    HW118629   0.679   4.609   1.254
 5910SOL    HW218630   0.660   4.456   1.307
 5911SOL     OW18631   6.243   4.984   6.597
 5911SOL    HW118632   6.283   5.030   6.676
 5911SOL    HW218633   6.163   5.035   6.565
 5912SOL     OW18634   5.862   3.658   6.844
 5912SOL    HW118635   5.830   3.563   6.841
 5912SOL    HW218636   5.834   3.700   6.930
 5913SOL     OW18637   3.066   2.876   6.360
 5913SOL    HW118638   3.009   2.957   6.343
 5913SOL    HW218639   3.020   2.795   6.326
 5914SOL     OW18640   3.027   5.490   5.967
 5914SOL    HW118641   2.942   5.489   6.020
 5914SOL    HW218642   3.043   5.583   5.933
 5915SOL     OW18643   6.200   4.187   1.922
 5915SOL    HW118644   6.126   4.176   1.988
 5915SOL    HW218645   6.189   4.120   1.849
 5916SOL     OW18646   4.396   5.997   5.792
 5916SOL    HW118647   4.438   5.973   5.879
 5916SOL    HW218648   4.420   5.929   5.723
 5917SOL     OW18649   3.822   3.006   4.514
 5917SOL    HW118650   3.791   3.012   4.419
 5917SOL    HW218651   3.904   3.062   4.526
 5918SOL     OW18652   2.371   3.736   5.317
 5918SOL    HW118653   2.425   3.762   5.396
 5918SOL    HW218654   2.378   3.807   5.247
 5919SOL     OW18655   2.986   2.555   0.447
 5919SOL    HW118656   3.039   2.485   0.496
 5919SOL    HW218657   2.908   2.512   0.403
 5920SOL     OW18658   3.715   6.944   0.464
 5920SOL    HW118659   3.721   6.852   0.424
 5920SOL    HW218660   3.662   7.003   0.403
 5921SOL     OW18661   3.535   5.673   5.630
 5921SOL    HW118662   3.480   5.667   5.546
 5921SOL    HW218663   3.623   5.629   5.614
 5922SOL     OW18664   6.816   5.588   3.921
 5922SOL    HW118665   6.886   5.595   3.851
 5922SOL    HW218666   6.779   5.679   3.941
 5923SOL     OW18667   5.215   0.419   1.368
 5923SOL    HW118668   5.233   0.513   1.340
 5923SOL    HW218669   5.152   0.377   1.302
 5924SOL     OW18670   5.837   2.054   4.591
 5924SOL    HW118671   5.926   2.027   4.554
 5924SOL    HW218672   5.797   1.978   4.642
 5925SOL     OW18673   4.134   5.770   3.518
 5925SOL    HW118674   4.154   5.823   3.435
 5925SOL    HW218675   4.196   5.797   3.591
 5926SOL     OW18676   3.566   5.102   2.309
 5926SOL    HW118677   3.648   5.064   2.351
 5926SOL    HW218678   3.507   5.028   2.276
 5927SOL     OW18679   1.436   4.240   3.305
 5927SOL    HW118680   1.440   4.165   3.370
 5927SOL    HW218681   1.517   4.239   3.247
 5928SOL     OW18682   3.164   0.618   1.513
 5928SOL    HW118683   3.238   0.643   1.450
 5928SOL    HW218684   3.127   0.701   1.555
 5929SOL     OW18685   0.729   6.448   5.886
 5929SOL    HW118686   0.675   6.491   5.813
 5929SOL    HW218687   0.745   6.352   5.864
 5930SOL     OW18688   6.682   1.263   2.773
 5930SOL    HW118689   6.647   1.355   2.792
 5930SOL    HW218690   6.774   1.270   2.733
 5931SOL     OW18691   5.811   5.313   3.416
 5931SOL    HW118692   5.882   5.249   3.385
 5931SOL    HW218693   5.850   5.376   3.483
 5932SOL     OW18694   2.548   6.346   1.135
 5932SOL    HW118695   2.513   6.256   1.160
 5932SOL    HW218696   2.607   6.380   1.208
 5933SOL     OW18697   0.699   5.753   3.045
 5933SOL    HW118698   0.726   5.824   3.110
 5933SOL    HW218699   0.600   5.749   3.038
 5934SOL     OW18700   4.056   3.468   4.270
 5934SOL    HW118701   4.110   3.517   4.338
 5934SOL    HW218702   3.959   3.474   4.295
 5935SOL     OW18703   4.166   3.387   5.127
 5935SOL    HW118704   4.256   3.410   5.164
 5935SOL    HW218705   4.103   3.462   5.145
 5936SOL     OW18706   3.829   3.503   0.574
 5936SOL    HW118707   3.853   3.572   0.506
 5936SOL    HW218708   3.861   3.413   0.544
 5937SOL     OW18709   0.442   4.777   2.360
 5937SOL    HW118710   0.451   4.705   2.428
 5937SOL    HW218711   0.346   4.790   2.338
 5938SOL     OW18712   1.451   5.641   4.237
 5938SOL    HW118713   1.522   5.617   4.304
 5938SOL    HW218714   1.492   5.695   4.164
 5939SOL     OW18715   3.279   0.411   3.501
 5939SOL    HW118716   3.217   0.392   3.577
 5939SOL    HW218717   3.373   0.409   3.535
 5940SOL     OW18718   4.292   5.903   1.609
 5940SOL    HW118719   4.292   5.901   1.509
 5940SOL    HW218720   4.221   5.842   1.644
 5941SOL     OW18721   6.161   3.182   1.793
 5941SOL    HW118722   6.094   3.175   1.719
 5941SOL    HW218723   6.222   3.258   1.776
 5942SOL     OW18724   4.987   2.675   6.548
 5942SOL    HW118725   4.997   2.675   6.449
 5942SOL    HW218726   5.056   2.735   6.589
 5943SOL     OW18727   3.336   5.377   0.878
 5943SOL    HW118728   3.310   5.347   0.969
 5943SOL    HW218729   3.291   5.463   0.856
 5944SOL     OW18730   5.581   2.046   1.269
 5944SOL    HW118731   5.538   2.124   1.315
 5944SOL    HW218732   5.610   2.073   1.177
 5945SOL     OW18733   6.684   5.282   5.487
 5945SOL    HW118734   6.658   5.305   5.581
 5945SOL    HW218735   6.720   5.189   5.485
 5946SOL     OW18736   3.814   3.114   5.501
 5946SOL    HW118737   3.906   3.107   5.462
 5946SOL    HW218738   3.746   3.091   5.431
 5947SOL     OW18739   4.046   2.921   1.762
 5947SOL    HW118740   4.036   2.999   1.700
 5947SOL    HW218741   3.984   2.933   1.840
 5948SOL     OW18742   3.696   4.882   3.425
 5948SOL    HW118743   3.697   4.892   3.525
 5948SOL    HW218744   3.789   4.895   3.390
 5949SOL     OW18745   3.940   3.468   1.308
 5949SOL    HW118746   4.006   3.394   1.317
 5949SOL    HW218747   3.962   3.541   1.372
 5950SOL     OW18748   5.767   3.490   5.762
 5950SOL    HW118749   5.786   3.453   5.853
 5950SOL    HW218750   5.671   3.517   5.756
 5951SOL     OW18751   0.138   5.755   4.881
 5951SOL    HW118752   0.187   5.826   4.932
 5951SOL    HW218753   0.201   5.680   4.861
 5952SOL     OW18754   5.790   5.608   4.252
 5952SOL    HW118755   5.816   5.598   4.348
 5952SOL    HW218756   5.846   5.680   4.210
 5953SOL     OW18757   6.415   2.796   5.674
 5953SOL    HW118758   6.419   2.808   5.773
 5953SOL    HW218759   6.465   2.869   5.629
 5954SOL     OW18760   0.098   4.373   5.647
 5954SOL    HW118761   0.000   4.360   5.664
 5954SOL    HW218762   0.128   4.310   5.576
 5955SOL     OW18763   5.552   5.651   2.677
 5955SOL    HW118764   5.499   5.728   2.711
 5955SOL    HW218765   5.536   5.571   2.735
 5956SOL     OW18766   3.763   1.739   6.574
 5956SOL    HW118767   3.768   1.706   6.480
 5956SOL    HW218768   3.772   1.839   6.574
 5957SOL     OW18769   4.507   0.233   5.666
 5957SOL    HW118770   4.526   0.326   5.697
 5957SOL    HW218771   4.410   0.225   5.642
 5958SOL     OW18772   6.620   5.565   2.713
 5958SOL    HW118773   6.533   5.613   2.703
 5958SOL    HW218774   6.678   5.584   2.634
 5959SOL     OW18775   3.976   2.025   4.891
 5959SOL    HW118776   3.926   1.968   4.825
 5959SOL    HW218777   4.005   2.110   4.846
 5960SOL     OW18778   4.068   6.489   4.646
 5960SOL    HW118779   4.081   6.492   4.547
 5960SOL    HW218780   4.026   6.402   4.671
 5961SOL     OW18781   5.105   1.374   3.859
 5961SOL    HW118782   5.054   1.288   3.864
 5961SOL    HW218783   5.078   1.424   3.777
 5962SOL     OW18784   5.078   5.882   1.467
 5962SOL    HW118785   5.077   5.868   1.368
 5962SOL    HW218786   4.987   5.864   1.504
 5963SOL     OW18787   2.987   3.403   4.589
 5963SOL    HW118788   3.077   3.428   4.624
 5963SOL    HW218789   2.973   3.447   4.501
 5964SOL     OW18790   0.334   4.942   5.820
 5964SOL    HW118791   0.404   4.882   5.783
 5964SOL    HW218792   0.368   5.037   5.820
 5965SOL     OW18793   1.522   2.108   6.321
 5965SOL    HW118794   1.610   2.155   6.332
 5965SOL    HW218795   1.510   2.081   6.225
 5966SOL     OW18796   2.857   6.148   5.335
 5966SOL    HW118797   2.874   6.091   5.254
 5966SOL    HW218798   2.776   6.204   5.320
 5967SOL     OW18799   4.319   6.309   1.111
 5967SOL    HW118800   4.387   6.335   1.179
 5967SOL    HW218801   4.296   6.212   1.122
 5968SOL     OW18802   4.607   1.145   2.429
 5968SOL    HW118803   4.615   1.183   2.521
 5968SOL    HW218804   4.643   1.210   2.362
 5969SOL     OW18805   6.879   0.958   6.188
 5969SOL    HW118806   6.898   0.876   6.135
 5969SOL    HW218807   6.781   0.967   6.203
 5970SOL     OW18808   0.448   4.587   2.546
 5970SOL    HW118809   0.375   4.535   2.589
 5970SOL    HW218810   0.531   4.581   2.602
 5971SOL     OW18811   1.712   0.654   3.208
 5971SOL    HW118812   1.760   0.736   3.177
 5971SOL    HW218813   1.706   0.654   3.308
 5972SOL     OW18814   5.419   6.588   0.112
 5972SOL    HW118815   5.449   6.649   0.038
 5972SOL    HW218816   5.424   6.637   0.199
 5973SOL     OW18817   1.851   4.596   2.376
 5973SOL    HW118818   1.868   4.551   2.288
 5973SOL    HW218819   1.756   4.628   2.379
 5974SOL     OW18820   5.547   4.525   6.614
 5974SOL    HW118821   5.473   4.549   6.552
 5974SOL    HW218822   5.591   4.441   6.583
 5975SOL     OW18823   3.000   2.129   0.379
 5975SOL    HW118824   3.004   2.193   0.456
 5975SOL    HW218825   3.093   2.105   0.351
 5976SOL     OW18826   3.238   3.675   4.558
 5976SOL    HW118827   3.285   3.651   4.473
 5976SOL    HW218828   3.156   3.729   4.537
 5977SOL     OW18829   1.818   4.600   1.568
 5977SOL    HW118830   1.738   4.574   1.622
 5977SOL    HW218831   1.850   4.690   1.595
 5978SOL     OW18832   4.965   5.262   3.656
 5978SOL    HW118833   4.925   5.217   3.576
 5978SOL    HW218834   5.013   5.344   3.627
 5979SOL     OW18835   6.482   6.733   2.508
 5979SOL    HW118836   6.520   6.673   2.579
 5979SOL    HW218837   6.433   6.809   2.552
 5980SOL     OW18838   4.088   3.494   0.000
 5980SOL    HW118839   4.106   3.591   7.005
 5980SOL    HW218840   4.101   3.469   0.096
 5981SOL     OW18841   6.548   0.597   1.893
 5981SOL    HW118842   6.576   0.575   1.987
 5981SOL    HW218843   6.628   0.592   1.833
 5982SOL     OW18844   6.266   2.675   0.187
 5982SOL    HW118845   6.199   2.674   0.261
 5982SOL    HW218846   6.342   2.735   0.211
 5983SOL     OW18847   1.413   0.922   4.726
 5983SOL    HW118848   1.510   0.895   4.725
 5983SOL    HW218849   1.401   1.006   4.673
 5984SOL     OW18850   6.367   6.550   5.076
 5984SOL    HW118851   6.405   6.500   5.154
 5984SOL    HW218852   6.429   6.624   5.052
 5985SOL     OW18853   6.313   3.536   3.831
 5985SOL    HW118854   6.353   3.448   3.807
 5985SOL    HW218855   6.213   3.529   3.826
 5986SOL     OW18856   3.631   3.904   3.908
 5986SOL    HW118857   3.668   3.812   3.915
 5986SOL    HW218858   3.587   3.915   3.818
 5987SOL     OW18859   4.138   0.902   5.450
 5987SOL    HW118860   4.199   0.824   5.467
 5987SOL    HW218861   4.063   0.874   5.391
 5988SOL     OW18862   4.400   0.328   5.113
 5988SOL    HW118863   4.345   0.261   5.163
 5988SOL    HW218864   4.489   0.337   5.157
 5989SOL     OW18865   2.719   5.829   6.844
 5989SOL    HW118866   2.733   5.928   6.843
 5989SOL    HW218867   2.805   5.782   6.823
 5990SOL     OW18868   3.786   4.603   0.376
 5990SOL    HW118869   3.780   4.530   0.444
 5990SOL    HW218870   3.811   4.564   0.287
 5991SOL     OW18871   4.105   5.429   5.634
 5991SOL    HW118872   4.180   5.489   5.663
 5991SOL    HW218873   4.133   5.333   5.645
 5992SOL     OW18874   3.591   0.797   3.491
 5992SOL    HW118875   3.633   0.750   3.414
 5992SOL    HW218876   3.536   0.732   3.544
 5993SOL     OW18877   3.335   6.666   5.498
 5993SOL    HW118878   3.332   6.599   5.572
 5993SOL    HW218879   3.303   6.755   5.532
 5994SOL     OW18880   6.307   1.720   1.997
 5994SOL    HW118881   6.278   1.797   2.053
 5994SOL    HW218882   6.226   1.670   1.966
 5995SOL     OW18883   6.148   4.431   2.639
 5995SOL    HW118884   6.236   4.401   2.601
 5995SOL    HW218885   6.144   4.531   2.639
 5996SOL     OW18886   0.623   5.961   0.831
 5996SOL    HW118887   0.643   6.023   0.906
 5996SOL    HW218888   0.558   6.004   0.768
 5997SOL     OW18889   1.305   5.884   2.615
 5997SOL    HW118890   1.311   5.971   2.664
 5997SOL    HW218891   1.294   5.810   2.682
 5998SOL     OW18892   6.108   2.106   1.664
 5998SOL    HW118893   6.062   2.018   1.678
 5998SOL    HW218894   6.206   2.096   1.682
 5999SOL     OW18895   1.623   2.031   2.719
 5999SOL    HW118896   1.563   2.094   2.669
 5999SOL    HW218897   1.584   2.012   2.809
 6000SOL     OW18898   3.654   6.883   2.000
 6000SOL    HW118899   3.624   6.978   2.014
 6000SOL    HW218900   3.753   6.881   1.987
 6001SOL     OW18901   0.438   4.147   6.299
 6001SOL    HW118902   0.503   4.187   6.234
 6001SOL    HW218903   0.454   4.049   6.305
 6002SOL     OW18904   6.807   0.472   0.831
 6002SOL    HW118905   6.805   0.387   0.883
 6002SOL    HW218906   6.776   0.548   0.888
 6003SOL     OW18907   6.968   1.850   4.376
 6003SOL    HW118908   7.004   1.935   4.339
 6003SOL    HW218909   6.917   1.802   4.304
 6004SOL     OW18910   0.003   4.634   2.962
 6004SOL    HW118911   0.091   4.601   2.997
 6004SOL    HW218912   6.963   4.665   3.039
 6005SOL     OW18913   4.854   5.009   4.628
 6005SOL    HW118914   4.869   4.959   4.713
 6005SOL    HW218915   4.903   5.096   4.631
 6006SOL     OW18916   3.437   6.673   6.720
 6006SOL    HW118917   3.429   6.679   6.820
 6006SOL    HW218918   3.446   6.578   6.693
 6007SOL     OW18919   4.981   3.419   4.649
 6007SOL    HW118920   4.933   3.501   4.619
 6007SOL    HW218921   5.070   3.413   4.604
 6008SOL     OW18922   2.261   5.567   5.941
 6008SOL    HW118923   2.320   5.639   5.904
 6008SOL    HW218924   2.264   5.570   6.041
 6009SOL     OW18925   4.106   0.650   5.219
 6009SOL    HW118926   4.050   0.713   5.273
 6009SOL    HW218927   4.050   0.572   5.191
 6010SOL     OW18928   1.176   4.081   3.023
 6010SOL    HW118929   1.220   4.059   2.936
 6010SOL    HW218930   1.202   4.012   3.091
 6011SOL     OW18931   4.727   2.646   3.006
 6011SOL    HW118932   4.762   2.561   2.965
 6011SOL    HW218933   4.650   2.625   3.066
 6012SOL     OW18934   6.340   1.445   6.987
 6012SOL    HW118935   6.330   1.501   6.904
 6012SOL    HW218936   6.310   1.498   0.049
 6013SOL     OW18937   5.403   2.137   2.673
 6013SOL    HW118938   5.328   2.085   2.713
 6013SOL    HW218939   5.486   2.124   2.729
 6014SOL     OW18940   4.082   2.428   0.722
 6014SOL    HW118941   4.064   2.362   0.649
 6014SOL    HW218942   4.072   2.383   0.811
 6015SOL     OW18943   5.550   2.340   5.285
 6015SOL    HW118944   5.600   2.422   5.257
 6015SOL    HW218945   5.614   2.271   5.318
 6016SOL     OW18946   0.316   1.905   6.631
 6016SOL    HW118947   0.292   1.990   6.584
 6016SOL    HW218948   0.373   1.927   6.711
 6017SOL     OW18949   6.397   4.573   2.836
 6017SOL    HW118950   6.314   4.583   2.782
 6017SOL    HW218951   6.471   4.539   2.777
 6018SOL     OW18952   3.286   1.473   0.090
 6018SOL    HW118953   3.221   1.398   0.080
 6018SOL    HW218954   3.329   1.470   0.180
 6019SOL     OW18955   5.962   1.577   4.176
 6019SOL    HW118956   5.926   1.498   4.226
 6019SOL    HW218957   5.988   1.649   4.240
 6020SOL     OW18958   1.963   5.320   1.563
 6020SOL    HW118959   2.037   5.382   1.537
 6020SOL    HW218960   1.914   5.290   1.481
 6021SOL     OW18961   3.715   0.634   2.155
 6021SOL    HW118962   3.669   0.551   2.186
 6021SOL    HW218963   3.675   0.714   2.200
 6022SOL     OW18964   4.622   1.317   5.128
 6022SOL    HW118965   4.655   1.311   5.222
 6022SOL    HW218966   4.676   1.384   5.077
 6023SOL     OW18967   6.076   1.773   2.530
 6023SOL    HW118968   6.151   1.709   2.546
 6023SOL    HW218969   6.067   1.789   2.432
 6024SOL     OW18970   0.768   4.166   3.696
 6024SOL    HW118971   0.699   4.153   3.625
 6024SOL    HW218972   0.820   4.250   3.678
 6025SOL     OW18973   3.695   1.630   1.997
 6025SOL    HW118974   3.779   1.646   2.049
 6025SOL    HW218975   3.616   1.641   2.057
 6026SOL     OW18976   6.874   4.465   4.234
 6026SOL    HW118977   6.855   4.367   4.227
 6026SOL    HW218978   6.927   4.494   4.155
 6027SOL     OW18979   1.625   4.350   5.536
 6027SOL    HW118980   1.593   4.287   5.607
 6027SOL    HW218981   1.709   4.314   5.496
 6028SOL     OW18982   1.086   3.957   0.480
 6028SOL    HW118983   1.032   3.946   0.397
 6028SOL    HW218984   1.036   4.012   0.546
 6029SOL     OW18985   1.877   6.128   5.023
 6029SOL    HW118986   1.835   6.140   4.933
 6029SOL    HW218987   1.805   6.127   5.093
 6030SOL     OW18988   3.596   6.634   3.040
 6030SOL    HW118989   3.687   6.653   3.003
 6030SOL    HW218990   3.602   6.555   3.102
 6031SOL     OW18991   4.040   5.265   4.004
 6031SOL    HW118992   4.081   5.177   4.026
 6031SOL    HW218993   3.989   5.257   3.918
 6032SOL     OW18994   2.175   3.142   3.101
 6032SOL    HW118995   2.234   3.187   3.034
 6032SOL    HW218996   2.084   3.129   3.062
 6033SOL     OW18997   2.836   1.681   2.480
 6033SOL    HW118998   2.804   1.694   2.387
 6033SOL    HW218999   2.775   1.728   2.544
 6034SOL     OW19000   1.508   5.571   4.881
 6034SOL    HW119001   1.587   5.573   4.820
 6034SOL    HW219002   1.536   5.537   4.971
 6035SOL     OW19003   6.913   0.580   3.073
 6035SOL    HW119004   6.844   0.610   3.139
 6035SOL    HW219005   6.950   0.659   3.024
 6036SOL     OW19006   6.744   6.269   3.988
 6036SOL    HW119007   6.669   6.296   3.928
 6036SOL    HW219008   6.728   6.177   4.023
 6037SOL     OW19009   4.212   4.758   5.751
 6037SOL    HW119010   4.221   4.794   5.658
 6037SOL    HW219011   4.299   4.767   5.799
 6038SOL     OW19012   1.343   2.845   6.199
 6038SOL    HW119013   1.393   2.763   6.170
 6038SOL    HW219014   1.244   2.828   6.193
 6039SOL     OW19015   3.533   2.845   2.791
 6039SOL    HW119016   3.511   2.854   2.693
 6039SOL    HW219017   3.616   2.896   2.811
 6040SOL     OW19018   0.642   2.393   6.263
 6040SOL    HW119019   0.644   2.431   6.355
 6040SOL    HW219020   0.566   2.329   6.255
 6041SOL     OW19021   1.814   1.050   4.984
 6041SOL    HW119022   1.899   1.091   4.950
 6041SOL    HW219023   1.754   1.122   5.019
 6042SOL     OW19024   5.087   5.372   2.175
 6042SOL    HW119025   5.133   5.425   2.246
 6042SOL    HW219026   5.154   5.331   2.114
 6043SOL     OW19027   0.650   4.229   5.558
 6043SOL    HW119028   0.693   4.147   5.519
 6043SOL    HW219029   0.607   4.282   5.485
 6044SOL     OW19030   1.572   2.708   1.255
 6044SOL    HW119031   1.526   2.620   1.270
 6044SOL    HW219032   1.547   2.743   1.164
 6045SOL     OW19033   6.222   5.839   1.288
 6045SOL    HW119034   6.185   5.841   1.196
 6045SOL    HW219035   6.199   5.924   1.335
 6046SOL     OW19036   2.860   1.617   0.211
 6046SOL    HW119037   2.948   1.639   0.169
 6046SOL    HW219038   2.836   1.523   0.189
 6047SOL     OW19039   6.282   1.961   2.206
 6047SOL    HW119040   6.205   1.971   2.269
 6047SOL    HW219041   6.367   1.953   2.258
 6048SOL     OW19042   4.482   6.310   3.454
 6048SOL    HW119043   4.399   6.357   3.484
 6048SOL    HW219044   4.484   6.305   3.355
 6049SOL     OW19045   5.264   3.973   5.741
 6049SOL    HW119046   5.220   3.923   5.816
 6049SOL    HW219047   5.297   4.061   5.775
 6050SOL     OW19048   3.198   4.608   5.325
 6050SOL    HW119049   3.145   4.652   5.398
 6050SOL    HW219050   3.135   4.569   5.257
 6051SOL     OW19051   2.239   1.347   3.735
 6051SOL    HW119052   2.253   1.256   3.773
 6051SOL    HW219053   2.310   1.408   3.770
 6052SOL     OW19054   6.394   6.357   0.242
 6052SOL    HW119055   6.417   6.389   0.150
 6052SOL    HW219056   6.406   6.432   0.307
 6053SOL     OW19057   3.645   0.643   6.323
 6053SOL    HW119058   3.598   0.578   6.382
 6053SOL    HW219059   3.589   0.662   6.242
 6054SOL     OW19060   3.008   4.186   0.592
 6054SOL    HW119061   2.973   4.256   0.653
 6054SOL    HW219062   2.940   4.166   0.521
 6055SOL     OW19063   5.550   1.351   5.417
 6055SOL    HW119064   5.463   1.388   5.449
 6055SOL    HW219065   5.536   1.305   5.329
 6056SOL     OW19066   5.297   3.439   4.839
 6056SOL    HW119067   5.247   3.526   4.839
 6056SOL    HW219068   5.268   3.385   4.918
 6057SOL     OW19069   5.664   3.024   4.480
 6057SOL    HW119070   5.654   2.945   4.420
 6057SOL    HW219071   5.574   3.057   4.507
 6058SOL     OW19072   5.034   2.797   2.318
 6058SOL    HW119073   4.941   2.791   2.283
 6058SOL    HW219074   5.090   2.850   2.255
 6059SOL     OW19075   4.753   5.771   5.163
 6059SOL    HW119076   4.791   5.816   5.243
 6059SOL    HW219077   4.823   5.762   5.093
 6060SOL     OW19078   3.069   3.961   6.564
 6060SOL    HW119079   3.083   3.878   6.618
 6060SOL    HW219080   3.156   4.010   6.554
 6061SOL     OW19081   4.363   1.757   0.930
 6061SOL    HW119082   4.282   1.762   0.872
 6061SOL    HW219083   4.342   1.704   1.012
 6062SOL     OW19084   1.658   0.856   4.701
 6062SOL    HW119085   1.683   0.845   4.605
 6062SOL    HW219086   1.726   0.911   4.748
 6063SOL     OW19087   3.594   1.201   6.978
 6063SOL    HW119088   3.642   1.274   0.009
 6063SOL    HW219089   3.547   1.143   0.028
 6064SOL     OW19090   2.809   6.384   1.916
 6064SOL    HW119091   2.818   6.327   1.997
 6064SOL    HW219092   2.857   6.470   1.930
 6065SOL     OW19093   5.803   6.890   2.171
 6065SOL    HW119094   5.840   6.806   2.212
 6065SOL    HW219095   5.792   6.877   2.073
 6066SOL     OW19096   4.165   1.655   0.365
 6066SOL    HW119097   4.226   1.734   0.351
 6066SOL    HW219098   4.216   1.583   0.412
 6067SOL     OW19099   5.567   1.845   6.457
 6067SOL    HW119100   5.612   1.914   6.401
 6067SOL    HW219101   5.549   1.883   6.548
 6068SOL     OW19102   5.781   2.885   4.736
 6068SOL    HW119103   5.731   2.917   4.655
 6068SOL    HW219104   5.754   2.791   4.756
 6069SOL     OW19105   0.198   3.187   4.872
 6069SOL    HW119106   0.217   3.173   4.969
 6069SOL    HW219107   0.132   3.119   4.841
 6070SOL     OW19108   2.473   1.677   6.270
 6070SOL    HW119109   2.523   1.698   6.186
 6070SOL    HW219110   2.449   1.580   6.271
 6071SOL     OW19111   5.144   4.935   4.502
 6071SOL    HW119112   5.200   4.969   4.577
 6071SOL    HW219113   5.095   4.853   4.531
 6072SOL     OW19114   0.069   0.571   2.017
 6072SOL    HW119115   0.161   0.566   1.977
 6072SOL    HW219116   0.068   0.524   2.105
 6073SOL     OW19117   6.645   3.977   0.360
 6073SOL    HW119118   6.643   3.887   0.317
 6073SOL    HW219119   6.739   3.999   0.387
 6074SOL     OW19120   0.812   6.887   4.071
 6074SOL    HW119121   0.807   6.914   4.167
 6074SOL    HW219122   0.743   6.817   4.052
 6075SOL     OW19123   0.027   2.401   6.669
 6075SOL    HW119124   0.067   2.470   6.609
 6075SOL    HW219125   6.944   2.405   6.663
 6076SOL     OW19126   2.914   5.948   5.122
 6076SOL    HW119127   2.844   5.965   5.052
 6076SOL    HW219128   3.004   5.971   5.085
 6077SOL     OW19129   4.364   5.458   2.095
 6077SOL    HW119130   4.333   5.374   2.052
 6077SOL    HW219131   4.459   5.448   2.126
 6078SOL     OW19132   3.677   4.826   1.685
 6078SOL    HW119133   3.651   4.796   1.776
 6078SOL    HW219134   3.614   4.788   1.617
 6079SOL     OW19135   3.233   3.381   5.982
 6079SOL    HW119136   3.227   3.474   5.945
 6079SOL    HW219137   3.285   3.324   5.919
 6080SOL     OW19138   6.965   1.511   1.318
 6080SOL    HW119139   6.869   1.487   1.307
 6080SOL    HW219140   6.973   1.596   1.371
 6081SOL     OW19141   6.098   3.194   4.808
 6081SOL    HW119142   6.123   3.287   4.837
 6081SOL    HW219143   6.000   3.189   4.793
 6082SOL     OW19144   3.719   1.189   2.891
 6082SOL    HW119145   3.656   1.232   2.826
 6082SOL    HW219146   3.813   1.198   2.856
 6083SOL     OW19147   0.547   5.905   6.311
 6083SOL    HW119148   0.618   5.969   6.340
 6083SOL    HW219149   0.480   5.895   6.385
 6084SOL     OW19150   0.632   5.547   3.950
 6084SOL    HW119151   0.604   5.498   4.032
 6084SOL    HW219152   0.573   5.628   3.938
 6085SOL     OW19153   0.507   4.416   6.951
 6085SOL    HW119154   0.566   4.369   6.885
 6085SOL    HW219155   0.526   4.383   0.026
 6086SOL     OW19156   3.057   1.657   4.978
 6086SOL    HW119157   3.130   1.599   5.015
 6086SOL    HW219158   2.970   1.633   5.023
 6087SOL     OW19159   4.398   5.768   6.975
 6087SOL    HW119160   4.472   5.826   7.010
 6087SOL    HW219161   4.417   5.744   6.880
 6088SOL     OW19162   6.257   6.452   4.629
 6088SOL    HW119163   6.235   6.401   4.545
 6088SOL    HW219164   6.298   6.539   4.605
 6089SOL     OW19165   0.614   3.597   1.209
 6089SOL    HW119166   0.616   3.574   1.112
 6089SOL    HW219167   0.658   3.686   1.224
 6090SOL     OW19168   2.082   6.164   6.151
 6090SOL    HW119169   2.089   6.252   6.198
 6090SOL    HW219170   2.043   6.096   6.213
 6091SOL     OW19171   1.677   1.842   2.123
 6091SOL    HW119172   1.746   1.788   2.074
 6091SOL    HW219173   1.668   1.807   2.216
 6092SOL     OW19174   2.808   0.397   3.583
 6092SOL    HW119175   2.831   0.411   3.487
 6092SOL    HW219176   2.727   0.340   3.590
 6093SOL     OW19177   1.470   2.975   2.974
 6093SOL    HW119178   1.467   3.073   2.993
 6093SOL    HW219179   1.539   2.957   2.904
 6094SOL     OW19180   3.844   0.466   0.932
 6094SOL    HW119181   3.754   0.492   0.899
 6094SOL    HW219182   3.909   0.465   0.856
 6095SOL     OW19183   4.651   3.224   6.499
 6095SOL    HW119184   4.552   3.237   6.500
 6095SOL    HW219185   4.682   3.198   6.590
 6096SOL     OW19186   5.878   0.506   3.347
 6096SOL    HW119187   5.912   0.501   3.253
 6096SOL    HW219188   5.946   0.549   3.406
 6097SOL     OW19189   1.674   6.975   1.884
 6097SOL    HW119190   1.722   6.963   1.971
 6097SOL    HW219191   1.732   6.944   1.809
 6098SOL     OW19192   1.144   2.325   6.145
 6098SOL    HW119193   1.179   2.302   6.236
 6098SOL    HW219194   1.220   2.353   6.086
 6099SOL     OW19195   0.005   5.903   0.457
 6099SOL    HW119196   6.979   5.913   0.367
 6099SOL    HW219197   0.098   5.867   0.446
 6100SOL     OW19198   5.166   3.077   6.521
 6100SOL    HW119199   5.193   3.156   6.575
 6100SOL    HW219200   5.072   3.050   6.545
 6101SOL     OW19201   6.217   2.093   5.356
 6101SOL    HW119202   6.208   2.144   5.441
 6101SOL    HW219203   6.231   2.157   5.280
 6102SOL     OW19204   3.688   0.627   3.900
 6102SOL    HW119205   3.709   0.715   3.942
 6102SOL    HW219206   3.597   0.630   3.860
 6103SOL     OW19207   0.341   1.867   2.879
 6103SOL    HW119208   0.437   1.870   2.850
 6103SOL    HW219209   0.316   1.773   2.901
 6104SOL     OW19210   6.343   2.561   5.897
 6104SOL    HW119211   6.302   2.590   5.810
 6104SOL    HW219212   6.271   2.556   5.967
 6105SOL     OW19213   2.447   0.370   5.899
 6105SOL    HW119214   2.352   0.400   5.886
 6105SOL    HW219215   2.449   0.296   5.967
 6106SOL     OW19216   1.204   4.154   5.304
 6106SOL    HW119217   1.214   4.062   5.266
 6106SOL    HW219218   1.189   4.219   5.230
 6107SOL     OW19219   2.416   4.882   3.878
 6107SOL    HW119220   2.336   4.832   3.845
 6107SOL    HW219221   2.473   4.909   3.801
 6108SOL     OW19222   0.655   2.551   3.112
 6108SOL    HW119223   0.716   2.616   3.068
 6108SOL    HW219224   0.570   2.597   3.137
 6109SOL     OW19225   5.036   3.015   6.212
 6109SOL    HW119226   4.998   3.013   6.119
 6109SOL    HW219227   4.962   3.006   6.279
 6110SOL     OW19228   3.873   3.194   6.764
 6110SOL    HW119229   3.941   3.209   6.835
 6110SOL    HW219230   3.866   3.276   6.707
 6111SOL     OW19231   1.656   4.601   2.721
 6111SOL    HW119232   1.611   4.566   2.803
 6111SOL    HW219233   1.660   4.529   2.652
 6112SOL     OW19234   3.815   0.972   3.532
 6112SOL    HW119235   3.744   0.904   3.514
 6112SOL    HW219236   3.782   1.063   3.507
 6113SOL     OW19237   0.337   1.103   5.730
 6113SOL    HW119238   0.244   1.101   5.694
 6113SOL    HW219239   0.367   1.011   5.753
 6114SOL     OW19240   4.878   4.842   1.052
 6114SOL    HW119241   4.850   4.930   1.014
 6114SOL    HW219242   4.966   4.815   1.013
 6115SOL     OW19243   5.396   6.321   2.990
 6115SOL    HW119244   5.492   6.296   2.985
 6115SOL    HW219245   5.370   6.333   3.086
 6116SOL     OW19246   2.638   0.975   0.937
 6116SOL    HW119247   2.691   0.896   0.968
 6116SOL    HW219248   2.582   1.009   1.013
 6117SOL     OW19249   6.130   0.244   6.073
 6117SOL    HW119250   6.175   0.155   6.079
 6117SOL    HW219251   6.189   0.315   6.113
 6118SOL     OW19252   0.092   0.411   1.354
 6118SOL    HW119253   0.129   0.320   1.334
 6118SOL    HW219254   0.108   0.471   1.276
 6119SOL     OW19255   1.014   3.411   4.260
 6119SOL    HW119256   1.087   3.374   4.317
 6119SOL    HW219257   1.035   3.506   4.235
 6120SOL     OW19258   4.361   6.967   3.761
 6120SOL    HW119259   4.339   6.994   3.854
 6120SOL    HW219260   4.450   7.004   3.735
 6121SOL     OW19261   0.236   2.779   4.457
 6121SOL    HW119262   0.144   2.818   4.466
 6121SOL    HW219263   0.303   2.852   4.446
 6122SOL     OW19264   3.740   6.931   1.386
 6122SOL    HW119265   3.710   6.939   1.291
 6122SOL    HW219266   3.678   6.982   1.445
 6123SOL     OW19267   6.743   0.337   6.766
 6123SOL    HW119268   6.752   0.435   6.787
 6123SOL    HW219269   6.747   0.285   6.851
 6124SOL     OW19270   3.275   0.568   5.427
 6124SOL    HW119271   3.347   0.588   5.495
 6124SOL    HW219272   3.318   0.542   5.341
 6125SOL     OW19273   3.407   5.726   0.586
 6125SOL    HW119274   3.336   5.737   0.655
 6125SOL    HW219275   3.383   5.650   0.525
 6126SOL     OW19276   6.117   6.802   4.225
 6126SOL    HW119277   6.066   6.887   4.237
 6126SOL    HW219278   6.075   6.729   4.280
 6127SOL     OW19279   2.582   0.835   2.731
 6127SOL    HW119280   2.530   0.784   2.800
 6127SOL    HW219281   2.630   0.911   2.774
 6128SOL     OW19282   6.600   3.277   0.626
 6128SOL    HW119283   6.646   3.242   0.544
 6128SOL    HW219284   6.502   3.258   0.619
 6129SOL     OW19285   6.180   4.697   3.204
 6129SOL    HW119286   6.256   4.682   3.267
 6129SOL    HW219287   6.158   4.612   3.157
 6130SOL     OW19288   5.625   1.880   3.895
 6130SOL    HW119289   5.557   1.860   3.965
 6130SOL    HW219290   5.701   1.815   3.902
 6131SOL     OW19291   6.485   1.230   5.357
 6131SOL    HW119292   6.458   1.263   5.447
 6131SOL    HW219293   6.405   1.222   5.298
 6132SOL     OW19294   5.196   1.582   0.458
 6132SOL    HW119295   5.259   1.567   0.382
 6132SOL    HW219296   5.195   1.502   0.517
 6133SOL     OW19297   1.085   2.700   2.843
 6133SOL    HW119298   1.058   2.611   2.880
 6133SOL    HW219299   1.064   2.703   2.745
 6134SOL     OW19300   3.544   4.280   0.464
 6134SOL    HW119301   3.585   4.363   0.500
 6134SOL    HW219302   3.475   4.246   0.528
 6135SOL     OW19303   0.541   6.921   1.725
 6135SOL    HW119304   0.631   6.925   1.681
 6135SOL    HW219305   0.470   6.930   1.654
 6136SOL     OW19306   0.682   2.531   2.438
 6136SOL    HW119307   0.692   2.486   2.349
 6136SOL    HW219308   0.763   2.512   2.494
 6137SOL     OW19309   5.284   1.923   5.111
 6137SOL    HW119310   5.217   1.989   5.143
 6137SOL    HW219311   5.377   1.957   5.129
 6138SOL     OW19312   3.991   6.357   2.407
 6138SOL    HW119313   3.974   6.278   2.348
 6138SOL    HW219314   3.907   6.411   2.417
 6139SOL     OW19315   1.767   2.610   4.897
 6139SOL    HW119316   1.753   2.554   4.978
 6139SOL    HW219317   1.682   2.614   4.844
 6140SOL     OW19318   0.236   5.856   1.670
 6140SOL    HW119319   0.329   5.845   1.704
 6140SOL    HW219320   0.175   5.879   1.746
 6141SOL     OW19321   5.625   5.889   5.435
 6141SOL    HW119322   5.673   5.876   5.349
 6141SOL    HW219323   5.600   5.986   5.445
 6142SOL     OW19324   6.736   5.205   0.787
 6142SOL    HW119325   6.682   5.133   0.744
 6142SOL    HW219326   6.676   5.282   0.810
 6143SOL     OW19327   6.436   4.641   0.371
 6143SOL    HW119328   6.471   4.648   0.465
 6143SOL    HW219329   6.344   4.680   0.367
 6144SOL     OW19330   5.985   4.962   2.570
 6144SOL    HW119331   5.990   4.926   2.476
 6144SOL    HW219332   6.075   4.996   2.597
 6145SOL     OW19333   4.665   5.981   4.117
 6145SOL    HW119334   4.615   5.902   4.150
 6145SOL    HW219335   4.760   5.977   4.148
 6146SOL     OW19336   4.143   1.396   3.543
 6146SOL    HW119337   4.157   1.351   3.631
 6146SOL    HW219338   4.215   1.367   3.479
 6147SOL     OW19339   1.363   4.141   4.129
 6147SOL    HW119340   1.268   4.133   4.096
 6147SOL    HW219341   1.381   4.067   4.194
 6148SOL     OW19342   6.888   0.264   4.627
 6148SOL    HW119343   6.936   0.204   4.691
 6148SOL    HW219344   6.789   0.261   4.647
 6149SOL     OW19345   3.122   4.870   3.001
 6149SOL    HW119346   3.222   4.858   3.003
 6149SOL    HW219347   3.097   4.948   3.057
 6150SOL     OW19348   4.057   4.842   6.700
 6150SOL    HW119349   4.021   4.843   6.793
 6150SOL    HW219350   4.157   4.848   6.703
 6151SOL     OW19351   5.963   3.987   4.507
 6151SOL    HW119352   5.886   4.035   4.466
 6151SOL    HW219353   6.035   3.975   4.439
 6152SOL     OW19354   5.694   4.925   5.343
 6152SOL    HW119355   5.654   4.982   5.415
 6152SOL    HW219356   5.772   4.973   5.303
 6153SOL     OW19357   4.825   3.939   1.924
 6153SOL    HW119358   4.824   4.013   1.992
 6153SOL    HW219359   4.919   3.914   1.903
 6154SOL     OW19360   5.499   1.358   2.615
 6154SOL    HW119361   5.478   1.261   2.630
 6154SOL    HW219362   5.476   1.410   2.697
 6155SOL     OW19363   1.972   1.691   5.009
 6155SOL    HW119364   2.052   1.637   5.037
 6155SOL    HW219365   1.989   1.788   5.027
 6156SOL     OW19366   4.458   4.843   2.533
 6156SOL    HW119367   4.371   4.823   2.489
 6156SOL    HW219368   4.477   4.772   2.602
 6157SOL     OW19369   1.236   1.606   4.485
 6157SOL    HW119370   1.247   1.522   4.432
 6157SOL    HW219371   1.307   1.611   4.555
 6158SOL     OW19372   4.519   0.778   5.874
 6158SOL    HW119373   4.534   0.759   5.777
 6158SOL    HW219374   4.581   0.851   5.904
 6159SOL     OW19375   4.600   2.776   1.165
 6159SOL    HW119376   4.570   2.693   1.212
 6159SOL    HW219377   4.605   2.759   1.067
 6160SOL     OW19378   5.105   6.553   0.149
 6160SOL    HW119379   5.054   6.631   0.112
 6160SOL    HW219380   5.192   6.584   0.186
 6161SOL     OW19381   5.661   1.962   5.793
 6161SOL    HW119382   5.698   2.030   5.731
 6161SOL    HW219383   5.694   1.871   5.767
 6162SOL     OW19384   0.914   5.624   3.969
 6162SOL    HW119385   0.823   5.588   3.949
 6162SOL    HW219386   0.911   5.677   4.054
 6163SOL     OW19387   5.124   6.103   1.934
 6163SOL    HW119388   5.177   6.114   1.850
 6163SOL    HW219389   5.043   6.162   1.931
 6164SOL     OW19390   2.416   3.101   1.463
 6164SOL    HW119391   2.394   3.013   1.422
 6164SOL    HW219392   2.462   3.159   1.395
 6165SOL     OW19393   4.061   0.049   6.034
 6165SOL    HW119394   3.992   6.994   6.027
 6165SOL    HW219395   4.084   0.064   6.130
 6166SOL     OW19396   4.038   1.070   5.650
 6166SOL    HW119397   3.954   1.111   5.615
 6166SOL    HW219398   4.081   1.016   5.578
 6167SOL     OW19399   0.072   4.569   2.525
 6167SOL    HW119400   0.116   4.583   2.436
 6167SOL    HW219401   0.136   4.522   2.587
 6168SOL     OW19402   0.549   3.254   0.458
 6168SOL    HW119403   0.563   3.190   0.383
 6168SOL    HW219404   0.613   3.330   0.450
 6169SOL     OW19405   1.076   3.650   2.075
 6169SOL    HW119406   1.036   3.569   2.032
 6169SOL    HW219407   1.086   3.722   2.006
 6170SOL     OW19408   0.907   3.332   5.107
 6170SOL    HW119409   0.967   3.394   5.057
 6170SOL    HW219410   0.898   3.246   5.057
 6171SOL     OW19411   0.641   1.841   0.124
 6171SOL    HW119412   0.659   1.920   0.066
 6171SOL    HW219413   0.597   1.871   0.209
 6172SOL     OW19414   1.228   3.324   2.901
 6172SOL    HW119415   1.250   3.304   2.806
 6172SOL    HW219416   1.309   3.308   2.958
 6173SOL     OW19417   6.757   5.374   3.181
 6173SOL    HW119418   6.725   5.364   3.087
 6173SOL    HW219419   6.705   5.446   3.227
 6174SOL     OW19420   4.993   5.241   4.149
 6174SOL    HW119421   5.051   5.196   4.217
 6174SOL    HW219422   5.030   5.224   4.057
 6175SOL     OW19423   3.796   0.492   4.100
 6175SOL    HW119424   3.766   0.556   4.030
 6175SOL    HW219425   3.720   0.471   4.161
 6176SOL     OW19426   4.942   4.009   5.314
 6176SOL    HW119427   5.023   4.016   5.372
 6176SOL    HW219428   4.925   3.914   5.291
 6177SOL     OW19429   5.314   1.836   2.161
 6177SOL    HW119430   5.380   1.814   2.089
 6177SOL    HW219431   5.240   1.891   2.122
 6178SOL     OW19432   5.188   3.759   2.493
 6178SOL    HW119433   5.115   3.742   2.426
 6178SOL    HW219434   5.260   3.690   2.482
 6179SOL     OW19435   6.419   4.794   2.162
 6179SOL    HW119436   6.490   4.746   2.214
 6179SOL    HW219437   6.359   4.727   2.118
 6180SOL     OW19438   2.696   4.917   1.140
 6180SOL    HW119439   2.642   5.000   1.129
 6180SOL    HW219440   2.785   4.939   1.179
 6181SOL     OW19441   4.854   6.555   6.320
 6181SOL    HW119442   4.889   6.586   6.408
 6181SOL    HW219443   4.767   6.601   6.301
 6182SOL     OW19444   4.676   3.339   6.006
 6182SOL    HW119445   4.709   3.433   6.018
 6182SOL    HW219446   4.587   3.330   6.051
 6183SOL     OW19447   1.787   2.131   1.878
 6183SOL    HW119448   1.812   2.133   1.975
 6183SOL    HW219449   1.778   2.225   1.844
 6184SOL     OW19450   3.337   7.000   5.881
 6184SOL    HW119451   3.378   6.909   5.890
 6184SOL    HW219452   3.353   0.035   5.965
 6185SOL     OW19453   1.497   4.522   6.185
 6185SOL    HW119454   1.577   4.557   6.235
 6185SOL    HW219455   1.521   4.436   6.139
 6186SOL     OW19456   6.004   1.243   1.178
 6186SOL    HW119457   6.072   1.316   1.175
 6186SOL    HW219458   6.041   1.166   1.229
 6187SOL     OW19459   4.934   3.130   4.655
 6187SOL    HW119460   4.911   3.225   4.672
 6187SOL    HW219461   5.000   3.124   4.580
 6188SOL     OW19462   1.736   1.779   5.838
 6188SOL    HW119463   1.822   1.771   5.888
 6188SOL    HW219464   1.676   1.703   5.862
 6189SOL     OW19465   3.559   4.907   3.207
 6189SOL    HW119466   3.618   4.879   3.283
 6189SOL    HW219467   3.609   4.969   3.147
 6190SOL     OW19468   0.284   3.341   5.382
 6190SOL    HW119469   0.261   3.384   5.295
 6190SOL    HW219470   0.364   3.282   5.370
 6191SOL     OW19471   2.821   2.993   6.231
 6191SOL    HW119472   2.871   3.080   6.224
 6191SOL    HW219473   2.794   2.963   6.140
 6192SOL     OW19474   2.782   1.897   6.734
 6192SOL    HW119475   2.763   1.832   6.807
 6192SOL    HW219476   2.719   1.975   6.742
 6193SOL     OW19477   4.277   6.023   1.104
 6193SOL    HW119478   4.215   5.960   1.057
 6193SOL    HW219479   4.361   6.034   1.051
 6194SOL     OW19480   6.032   0.520   6.575
 6194SOL    HW119481   5.980   0.437   6.557
 6194SOL    HW219482   6.080   0.511   6.662
 6195SOL     OW19483   5.743   6.224   4.759
 6195SOL    HW119484   5.655   6.187   4.729
 6195SOL    HW219485   5.746   6.224   4.859
 6196SOL     OW19486   4.666   4.220   2.570
 6196SOL    HW119487   4.632   4.210   2.477
 6196SOL    HW219488   4.763   4.197   2.573
 6197SOL     OW19489   2.591   5.311   2.262
 6197SOL    HW119490   2.646   5.363   2.327
 6197SOL    HW219491   2.647   5.237   2.222
 6198SOL     OW19492   4.414   6.186   0.522
 6198SOL    HW119493   4.482   6.226   0.459
 6198SOL    HW219494   4.325   6.227   0.504
 6199SOL     OW19495   0.720   1.071   0.438
 6199SOL    HW119496   0.739   1.093   0.534
 6199SOL    HW219497   0.650   1.000   0.432
 6200SOL     OW19498   1.088   1.963   4.464
 6200SOL    HW119499   1.135   1.890   4.513
 6200SOL    HW219500   1.145   2.044   4.463
 6201SOL     OW19501   1.148   3.243   4.459
 6201SOL    HW119502   1.200   3.160   4.444
 6201SOL    HW219503   1.053   3.220   4.481
 6202SOL     OW19504   5.891   1.580   1.789
 6202SOL    HW119505   5.957   1.554   1.718
 6202SOL    HW219506   5.824   1.507   1.799
 6203SOL     OW19507   5.490   5.300   1.994
 6203SOL    HW119508   5.531   5.320   2.082
 6203SOL    HW219509   5.540   5.225   1.950
 6204SOL     OW19510   0.872   5.992   5.146
 6204SOL    HW119511   0.838   6.035   5.230
 6204SOL    HW219512   0.944   5.926   5.169
 6205SOL     OW19513   6.089   4.553   1.345
 6205SOL    HW119514   5.995   4.585   1.362
 6205SOL    HW219515   6.124   4.507   1.427
 6206SOL     OW19516   5.393   1.258   2.970
 6206SOL    HW119517   5.445   1.174   2.953
 6206SOL    HW219518   5.439   1.313   3.039
 6207SOL     OW19519   1.500   6.385   5.030
 6207SOL    HW119520   1.548   6.451   5.088
 6207SOL    HW219521   1.489   6.423   4.939
 6208SOL     OW19522   3.257   2.310   5.491
 6208SOL    HW119523   3.346   2.321   5.535
 6208SOL    HW219524   3.261   2.345   5.398
 6209SOL     OW19525   3.685   5.566   0.683
 6209SOL    HW119526   3.662   5.468   0.683
 6209SOL    HW219527   3.629   5.613   0.614
 6210SOL     OW19528   5.386   4.125   3.011
 6210SOL    HW119529   5.339   4.163   3.091
 6210SOL    HW219530   5.328   4.055   2.969
 6211SOL     OW19531   3.505   6.799   5.345
 6211SOL    HW119532   3.455   6.725   5.390
 6211SOL    HW219533   3.595   6.765   5.317
 6212SOL     OW19534   2.237   4.710   4.166
 6212SOL    HW119535   2.313   4.766   4.132
 6212SOL    HW219536   2.252   4.614   4.140
 6213SOL     OW19537   4.278   6.897   6.730
 6213SOL    HW119538   4.252   6.900   6.634
 6213SOL    HW219539   4.245   6.979   6.777
 6214SOL     OW19540   5.748   5.689   5.707
 6214SOL    HW119541   5.758   5.747   5.788
 6214SOL    HW219542   5.700   5.740   5.636
 6215SOL     OW19543   3.939   2.998   6.213
 6215SOL    HW119544   3.932   3.092   6.181
 6215SOL    HW219545   4.021   2.987   6.269
 6216SOL     OW19546   6.106   2.488   2.121
 6216SOL    HW119547   6.083   2.393   2.144
 6216SOL    HW219548   6.169   2.525   2.189
 6217SOL     OW19549   0.893   4.783   2.466
 6217SOL    HW119550   0.970   4.763   2.404
 6217SOL    HW219551   0.863   4.877   2.452
 6218SOL     OW19552   3.726   6.511   6.865
 6218SOL    HW119553   3.784   6.590   6.842
 6218SOL    HW219554   3.660   6.496   6.791
 6219SOL     OW19555   1.549   0.689   4.917
 6219SOL    HW119556   1.551   0.704   4.818
 6219SOL    HW219557   1.623   0.739   4.960
 6220SOL     OW19558   3.333   1.173   6.179
 6220SOL    HW119559   3.258   1.118   6.141
 6220SOL    HW219560   3.401   1.190   6.108
 6221SOL     OW19561   6.365   6.597   6.577
 6221SOL    HW119562   6.432   6.626   6.646
 6221SOL    HW219563   6.291   6.664   6.573
 6222SOL     OW19564   6.630   0.184   2.409
 6222SOL    HW119565   6.653   0.136   2.493
 6222SOL    HW219566   6.681   0.269   2.403
 6223SOL     OW19567   1.627   5.672   3.325
 6223SOL    HW119568   1.717   5.716   3.330
 6223SOL    HW219569   1.639   5.573   3.320
 6224SOL     OW19570   4.046   1.598   5.757
 6224SOL    HW119571   3.995   1.647   5.686
 6224SOL    HW219572   4.051   1.654   5.839
 6225SOL     OW19573   4.306   2.229   6.357
 6225SOL    HW119574   4.365   2.301   6.392
 6225SOL    HW219575   4.340   2.198   6.268
 6226SOL     OW19576   1.344   1.197   3.813
 6226SOL    HW119577   1.349   1.140   3.896
 6226SOL    HW219578   1.318   1.290   3.838
 6227SOL     OW19579   3.099   4.932   5.082
 6227SOL    HW119580   3.005   4.898   5.081
 6227SOL    HW219581   3.134   4.930   5.176
 6228SOL     OW19582   0.655   2.407   3.391
 6228SOL    HW119583   0.577   2.381   3.449
 6228SOL    HW219584   0.622   2.427   3.298
 6229SOL     OW19585   0.318   2.905   5.202
 6229SOL    HW119586   0.255   2.916   5.279
 6229SOL    HW219587   0.407   2.876   5.235
 6230SOL     OW19588   1.494   1.953   3.254
 6230SOL    HW119589   1.405   1.992   3.278
 6230SOL    HW219590   1.567   2.005   3.299
 6231SOL     OW19591   5.166   5.612   0.731
 6231SOL    HW119592   5.189   5.693   0.785
 6231SOL    HW219593   5.250   5.562   0.708
 6232SOL     OW19594   6.132   1.358   0.427
 6232SOL    HW119595   6.147   1.364   0.525
 6232SOL    HW219596   6.197   1.293   0.386
 6233SOL     OW19597   7.011   3.167   1.638
 6233SOL    HW119598   6.975   3.243   1.693
 6233SOL    HW219599   6.941   3.096   1.631
 6234SOL     OW19600   7.008   0.301   5.509
 6234SOL    HW119601   0.043   0.228   5.464
 6234SOL    HW219602   6.915   0.304   5.473
 6235SOL     OW19603   0.290   0.569   1.861
 6235SOL    HW119604   0.330   0.506   1.794
 6235SOL    HW219605   0.255   0.650   1.813
 6236SOL     OW19606   6.994   4.560   0.392
 6236SOL    HW119607   0.047   4.610   0.444
 6236SOL    HW219608   6.910   4.555   0.446
 6237SOL     OW19609   3.381   6.696   6.975
 6237SOL    HW119610   3.384   6.785   0.003
 6237SOL    HW219611   3.351   6.627   0.023
 6238SOL     OW19612   4.426   6.765   3.371
 6238SOL    HW119613   4.462   6.853   3.340
 6238SOL    HW219614   4.479   6.734   3.450
 6239SOL     OW19615   3.378   0.667   1.344
 6239SOL    HW119616   3.417   0.586   1.301
 6239SOL    HW219617   3.448   0.711   1.400
 6240SOL     OW19618   2.984   3.689   4.949
 6240SOL    HW119619   2.955   3.670   4.855
 6240SOL    HW219620   2.921   3.644   5.013
 6241SOL     OW19621   3.985   0.229   3.868
 6241SOL    HW119622   4.011   0.283   3.949
 6241SOL    HW219623   3.966   0.135   3.896
 6242SOL     OW19624   2.807   1.017   3.765
 6242SOL    HW119625   2.762   1.023   3.854
 6242SOL    HW219626   2.796   1.104   3.716
 6243SOL     OW19627   6.748   0.758   5.764
 6243SOL    HW119628   6.684   0.828   5.794
 6243SOL    HW219629   6.842   0.791   5.775
 6244SOL     OW19630   4.983   4.084   3.384
 6244SOL    HW119631   4.949   4.106   3.293
 6244SOL    HW219632   5.025   3.993   3.384
 6245SOL     OW19633   1.046   4.942   1.567
 6245SOL    HW119634   1.007   5.028   1.533
 6245SOL    HW219635   1.008   4.865   1.515
 6246SOL     OW19636   0.736   0.708   4.336
 6246SOL    HW119637   0.793   0.667   4.407
 6246SOL    HW219638   0.761   0.670   4.247
 6247SOL     OW19639   1.635   6.124   3.372
 6247SOL    HW119640   1.709   6.119   3.305
 6247SOL    HW219641   1.656   6.064   3.450
 6248SOL     OW19642   3.437   4.098   0.125
 6248SOL    HW119643   3.490   4.033   0.180
 6248SOL    HW219644   3.374   4.148   0.184
 6249SOL     OW19645   0.332   2.949   1.250
 6249SOL    HW119646   0.400   3.001   1.302
 6249SOL    HW219647   0.242   2.960   1.291
 6250SOL     OW19648   6.724   6.499   0.776
 6250SOL    HW119649   6.681   6.532   0.860
 6250SOL    HW219650   6.814   6.461   0.797
 6251SOL     OW19651   3.718   5.739   4.242
 6251SOL    HW119652   3.649   5.764   4.175
 6251SOL    HW219653   3.683   5.663   4.298
 6252SOL     OW19654   2.912   5.108   0.467
 6252SOL    HW119655   2.929   5.046   0.543
 6252SOL    HW219656   2.986   5.099   0.400
 6253SOL     OW19657   2.455   5.274   5.096
 6253SOL    HW119658   2.477   5.181   5.124
 6253SOL    HW219659   2.427   5.275   5.000
 6254SOL     OW19660   0.406   6.616   1.474
 6254SOL    HW119661   0.493   6.630   1.427
 6254SOL    HW219662   0.373   6.703   1.510
 6255SOL     OW19663   2.269   2.361   0.663
 6255SOL    HW119664   2.319   2.280   0.692
 6255SOL    HW219665   2.171   2.340   0.662
 6256SOL     OW19666   4.170   5.100   2.294
 6256SOL    HW119667   4.126   5.024   2.342
 6256SOL    HW219668   4.215   5.160   2.360
 6257SOL     OW19669   3.939   3.216   0.505
 6257SOL    HW119670   3.885   3.135   0.530
 6257SOL    HW219671   3.949   3.219   0.405
 6258SOL     OW19672   3.002   0.202   5.195
 6258SOL    HW119673   3.064   0.125   5.214
 6258SOL    HW219674   3.055   0.286   5.186
 6259SOL     OW19675   2.088   0.969   6.246
 6259SOL    HW119676   2.165   0.971   6.310
 6259SOL    HW219677   2.060   0.874   6.231
 6260SOL     OW19678   1.820   0.450   0.873
 6260SOL    HW119679   1.859   0.358   0.871
 6260SOL    HW219680   1.767   0.466   0.790
 6261SOL     OW19681   4.624   6.638   1.090
 6261SOL    HW119682   4.652   6.716   1.146
 6261SOL    HW219683   4.527   6.647   1.066
 6262SOL     OW19684   0.799   6.054   2.475
 6262SOL    HW119685   0.733   6.024   2.406
 6262SOL    HW219686   0.875   5.989   2.480
 6263SOL     OW19687   0.215   6.321   5.420
 6263SOL    HW119688   0.185   6.367   5.336
 6263SOL    HW219689   0.196   6.223   5.414
 6264SOL     OW19690   1.306   0.058   1.278
 6264SOL    HW119691   1.228   0.107   1.318
 6264SOL    HW219692   1.332   0.103   1.193
 6265SOL     OW19693   3.725   2.850   0.842
 6265SOL    HW119694   3.674   2.774   0.801
 6265SOL    HW219695   3.781   2.816   0.917
 6266SOL     OW19696   4.083   6.726   3.539
 6266SOL    HW119697   4.082   6.698   3.443
 6266SOL    HW219698   4.156   6.678   3.586
 6267SOL     OW19699   0.999   6.851   5.284
 6267SOL    HW119700   0.993   6.904   5.368
 6267SOL    HW219701   1.089   6.806   5.280
 6268SOL     OW19702   2.909   0.904   2.117
 6268SOL    HW119703   2.880   0.808   2.118
 6268SOL    HW219704   3.005   0.909   2.143
 6269SOL     OW19705   5.655   6.468   1.367
 6269SOL    HW119706   5.576   6.519   1.333
 6269SOL    HW219707   5.735   6.490   1.312
 6270SOL     OW19708   0.504   6.215   0.346
 6270SOL    HW119709   0.594   6.240   0.312
 6270SOL    HW219710   0.476   6.127   0.307
 6271SOL     OW19711   6.333   2.921   6.745
 6271SOL    HW119712   6.346   2.995   6.679
 6271SOL    HW219713   6.330   2.833   6.697
 6272SOL     OW19714   0.671   0.688   0.358
 6272SOL    HW119715   0.745   0.718   0.418
 6272SOL    HW219716   0.708   0.627   0.287
 6273SOL     OW19717   0.290   6.010   3.388
 6273SOL    HW119718   0.351   6.016   3.467
 6273SOL    HW219719   0.228   5.932   3.400
 6274SOL     OW19720   2.715   0.176   4.932
 6274SOL    HW119721   2.627   0.195   4.888
 6274SOL    HW219722   2.752   0.090   4.897
 6275SOL     OW19723   2.063   6.121   0.722
 6275SOL    HW119724   2.009   6.144   0.641
 6275SOL    HW219725   2.147   6.075   0.694
 6276SOL     OW19726   3.594   5.544   3.718
 6276SOL    HW119727   3.654   5.599   3.777
 6276SOL    HW219728   3.644   5.517   3.636
 6277SOL     OW19729   5.268   1.903   0.978
 6277SOL    HW119730   5.325   1.949   0.911
 6277SOL    HW219731   5.172   1.917   0.956
 6278SOL     OW19732   3.979   0.645   5.974
 6278SOL    HW119733   4.059   0.598   6.009
 6278SOL    HW219734   3.985   0.743   5.997
 6279SOL     OW19735   4.053   6.029   0.678
 6279SOL    HW119736   4.088   5.936   0.691
 6279SOL    HW219737   4.012   6.037   0.587
 6280SOL     OW19738   0.324   1.086   6.537
 6280SOL    HW119739   0.316   1.085   6.637
 6280SOL    HW219740   0.278   1.167   6.501
 6281SOL     OW19741   6.061   4.937   3.595
 6281SOL    HW119742   6.127   4.922   3.522
 6281SOL    HW219743   6.019   5.027   3.584
 6282SOL     OW19744   6.272   3.081   5.075
 6282SOL    HW119745   6.177   3.107   5.090
 6282SOL    HW219746   6.292   3.083   4.977
 6283SOL     OW19747   0.886   4.697   4.504
 6283SOL    HW119748   0.856   4.625   4.440
 6283SOL    HW219749   0.971   4.737   4.472
 6284SOL     OW19750   1.131   5.633   6.608
 6284SOL    HW119751   1.166   5.541   6.593
 6284SOL    HW219752   1.182   5.677   6.682
 6285SOL     OW19753   1.450   3.349   3.329
 6285SOL    HW119754   1.504   3.337   3.412
 6285SOL    HW219755   1.483   3.428   3.278
 6286SOL     OW19756   6.449   3.475   4.090
 6286SOL    HW119757   6.452   3.376   4.104
 6286SOL    HW219758   6.407   3.495   4.002
 6287SOL     OW19759   4.163   5.118   5.215
 6287SOL    HW119760   4.261   5.134   5.213
 6287SOL    HW219761   4.117   5.184   5.155
 6288SOL     OW19762   4.576   4.745   1.433
 6288SOL    HW119763   4.509   4.804   1.389
 6288SOL    HW219764   4.668   4.768   1.401
 6289SOL     OW19765   2.654   4.705   6.694
 6289SOL    HW119766   2.646   4.626   6.634
 6289SOL    HW219767   2.744   4.748   6.682
 6290SOL     OW19768   6.173   5.371   6.218
 6290SOL    HW119769   6.182   5.296   6.152
 6290SOL    HW219770   6.238   5.443   6.195
 6291SOL     OW19771   4.009   3.153   3.381
 6291SOL    HW119772   4.046   3.171   3.472
 6291SOL    HW219773   3.913   3.124   3.389
 6292SOL     OW19774   2.187   2.258   4.727
 6292SOL    HW119775   2.224   2.266   4.634
 6292SOL    HW219776   2.168   2.162   4.747
 6293SOL     OW19777   4.408   1.188   0.521
 6293SOL    HW119778   4.382   1.094   0.542
 6293SOL    HW219779   4.503   1.189   0.488
 6294SOL     OW19780   4.391   0.353   3.253
 6294SOL    HW119781   4.429   0.438   3.290
 6294SOL    HW219782   4.294   0.348   3.276
 6295SOL     OW19783   5.163   4.764   4.929
 6295SOL    HW119784   5.183   4.782   5.025
 6295SOL    HW219785   5.232   4.701   4.892
 6296SOL     OW19786   0.399   4.510   6.138
 6296SOL    HW119787   0.376   4.560   6.055
 6296SOL    HW219788   0.329   4.440   6.155
 6297SOL     OW19789   6.511   0.118   5.553
 6297SOL    HW119790   6.480   0.212   5.538
 6297SOL    HW219791   6.438   0.055   5.526
 6298SOL     OW19792   6.774   4.955   6.301
 6298SOL    HW119793   6.811   4.879   6.247
 6298SOL    HW219794   6.678   4.939   6.322
 6299SOL     OW19795   5.587   2.818   2.226
 6299SOL    HW119796   5.554   2.729   2.258
 6299SOL    HW219797   5.676   2.806   2.182
 6300SOL     OW19798   4.518   0.870   6.728
 6300SOL    HW119799   4.599   0.883   6.784
 6300SOL    HW219800   4.541   0.817   6.647
 6301SOL     OW19801   3.123   6.944   6.150
 6301SOL    HW119802   3.120   0.011   6.205
 6301SOL    HW219803   3.216   6.909   6.146
 6302SOL     OW19804   2.446   1.538   5.555
 6302SOL    HW119805   2.416   1.499   5.468
 6302SOL    HW219806   2.370   1.588   5.597
 6303SOL     OW19807   0.350   6.204   6.137
 6303SOL    HW119808   0.381   6.239   6.225
 6303SOL    HW219809   0.316   6.280   6.081
 6304SOL     OW19810   3.584   1.608   3.137
 6304SOL    HW119811   3.641   1.680   3.177
 6304SOL    HW219812   3.578   1.622   3.038
 6305SOL     OW19813   5.971   5.958   0.161
 6305SOL    HW119814   5.960   5.920   0.069
 6305SOL    HW219815   5.970   6.057   0.157
 6306SOL     OW19816   0.247   3.447   4.262
 6306SOL    HW119817   0.299   3.532   4.259
 6306SOL    HW219818   0.179   3.452   4.335
 6307SOL     OW19819   3.470   2.897   3.949
 6307SOL    HW119820   3.452   2.909   4.046
 6307SOL    HW219821   3.569   2.906   3.932
 6308SOL     OW19822   0.726   2.259   5.560
 6308SOL    HW119823   0.777   2.329   5.511
 6308SOL    HW219824   0.728   2.173   5.509
 6309SOL     OW19825   0.330   0.405   4.214
 6309SOL    HW119826   0.294   0.431   4.124
 6309SOL    HW219827   0.364   0.487   4.261
 6310SOL     OW19828   2.355   6.394   2.766
 6310SOL    HW119829   2.318   6.311   2.808
 6310SOL    HW219830   2.454   6.394   2.775
 6311SOL     OW19831   4.765   0.940   0.003
 6311SOL    HW119832   4.725   1.021   0.046
 6311SOL    HW219833   4.768   0.866   0.070
 6312SOL     OW19834   1.674   6.736   6.417
 6312SOL    HW119835   1.603   6.805   6.401
 6312SOL    HW219836   1.738   6.769   6.486
 6313SOL     OW19837   5.682   6.656   3.226
 6313SOL    HW119838   5.711   6.616   3.312
 6313SOL    HW219839   5.751   6.638   3.156
 6314SOL     OW19840   3.393   0.246   1.424
 6314SOL    HW119841   3.470   0.271   1.364
 6314SOL    HW219842   3.416   0.163   1.474
 6315SOL     OW19843   2.191   1.991   4.828
 6315SOL    HW119844   2.288   1.967   4.835
 6315SOL    HW219845   2.140   1.912   4.793
 6316SOL     OW19846   5.036   1.562   6.029
 6316SOL    HW119847   5.006   1.642   5.977
 6316SOL    HW219848   5.119   1.525   5.988
 6317SOL     OW19849   5.102   4.064   2.810
 6317SOL    HW119850   5.060   3.981   2.847
 6317SOL    HW219851   5.054   4.144   2.844
 6318SOL     OW19852   4.530   0.030   0.031
 6318SOL    HW119853   4.464   0.059   0.100
 6318SOL    HW219854   4.481   7.008   6.970
 6319SOL     OW19855   5.878   2.254   4.322
 6319SOL    HW119856   5.883   2.319   4.398
 6319SOL    HW219857   5.920   2.167   4.350
 6320SOL     OW19858   0.122   0.178   3.968
 6320SOL    HW119859   0.118   0.110   3.895
 6320SOL    HW219860   0.194   0.152   4.033
 6321SOL     OW19861   4.942   3.870   0.049
 6321SOL    HW119862   4.917   3.946   0.108
 6321SOL    HW219863   4.997   3.904   6.989
 6322SOL     OW19864   2.800   1.206   0.571
 6322SOL    HW119865   2.702   1.187   0.576
 6322SOL    HW219866   2.825   1.273   0.641
 6323SOL     OW19867   2.029   2.674   1.229
 6323SOL    HW119868   1.966   2.726   1.171
 6323SOL    HW219869   2.031   2.715   1.321
 6324SOL     OW19870   4.139   1.536   0.714
 6324SOL    HW119871   4.233   1.500   0.708
 6324SOL    HW219872   4.142   1.636   0.712
 6325SOL     OW19873   2.092   2.694   3.085
 6325SOL    HW119874   2.113   2.606   3.043
 6325SOL    HW219875   2.160   2.713   3.156
 6326SOL     OW19876   5.122   5.533   5.847
 6326SOL    HW119877   5.065   5.451   5.841
 6326SOL    HW219878   5.144   5.564   5.755
 6327SOL     OW19879   0.102   1.347   3.827
 6327SOL    HW119880   0.046   1.358   3.909
 6327SOL    HW219881   0.176   1.415   3.829
 6328SOL     OW19882   4.638   3.448   0.173
 6328SOL    HW119883   4.546   3.479   0.149
 6328SOL    HW219884   4.641   3.421   0.269
 6329SOL     OW19885   0.627   2.802   5.134
 6329SOL    HW119886   0.716   2.783   5.093
 6329SOL    HW219887   0.554   2.770   5.074
 6330SOL     OW19888   5.457   0.188   2.344
 6330SOL    HW119889   5.527   0.159   2.279
 6330SOL    HW219890   5.419   0.108   2.391
 6331SOL     OW19891   6.495   2.911   4.606
 6331SOL    HW119892   6.461   2.963   4.685
 6331SOL    HW219893   6.418   2.866   4.561
 6332SOL     OW19894   1.060   2.241   1.406
 6332SOL    HW119895   1.156   2.233   1.382
 6332SOL    HW219896   1.032   2.159   1.457
 6333SOL     OW19897   4.767   6.871   6.707
 6333SOL    HW119898   4.755   6.849   6.804
 6333SOL    HW219899   4.752   6.788   6.653
 6334SOL     OW19900   2.617   1.536   2.069
 6334SOL    HW119901   2.671   1.457   2.099
 6334SOL    HW219902   2.599   1.527   1.970
 6335SOL     OW19903   4.853   1.209   0.621
 6335SOL    HW119904   4.933   1.220   0.680
 6335SOL    HW219905   4.770   1.211   0.677
 6336SOL     OW19906   0.030   4.218   6.630
 6336SOL    HW119907   0.094   4.146   6.657
 6336SOL    HW219908   6.991   4.243   6.708
 6337SOL     OW19909   4.172   6.007   4.893
 6337SOL    HW119910   4.088   6.008   4.839
 6337SOL    HW219911   4.249   6.032   4.835
 6338SOL     OW19912   3.148   1.676   4.325
 6338SOL    HW119913   3.241   1.713   4.325
 6338SOL    HW219914   3.151   1.579   4.347
 6339SOL     OW19915   1.130   3.658   3.111
 6339SOL    HW119916   1.152   3.657   3.013
 6339SOL    HW219917   1.031   3.654   3.122
 6340SOL     OW19918   2.370   3.275   0.930
 6340SOL    HW119919   2.310   3.354   0.917
 6340SOL    HW219920   2.327   3.210   0.992
 6341SOL     OW19921   0.897   3.384   3.490
 6341SOL    HW119922   0.991   3.405   3.516
 6341SOL    HW219923   0.893   3.293   3.449
 6342SOL     OW19924   3.426   1.330   0.499
 6342SOL    HW119925   3.411   1.247   0.444
 6342SOL    HW219926   3.523   1.340   0.519
 6343SOL     OW19927   3.709   6.560   6.445
 6343SOL    HW119928   3.777   6.514   6.503
 6343SOL    HW219929   3.629   6.502   6.435
 6344SOL     OW19930   6.165   1.873   3.863
 6344SOL    HW119931   6.074   1.835   3.849
 6344SOL    HW219932   6.234   1.805   3.838
 6345SOL     OW19933   4.975   3.045   1.862
 6345SOL    HW119934   4.894   3.029   1.918
 6345SOL    HW219935   4.996   3.143   1.862
 6346SOL     OW19936   6.821   4.360   4.936
 6346SOL    HW119937   6.772   4.444   4.913
 6346SOL    HW219938   6.825   4.351   5.036
 6347SOL     OW19939   2.364   1.755   2.017
 6347SOL    HW119940   2.350   1.847   2.056
 6347SOL    HW219941   2.310   1.689   2.070
 6348SOL     OW19942   1.031   2.152   5.940
 6348SOL    HW119943   1.093   2.173   6.016
 6348SOL    HW219944   1.079   2.169   5.853
 6349SOL     OW19945   1.400   0.455   0.234
 6349SOL    HW119946   1.487   0.455   0.283
 6349SOL    HW219947   1.340   0.526   0.272
 6350SOL     OW19948   0.905   5.157   2.672
 6350SOL    HW119949   0.957   5.221   2.727
 6350SOL    HW219950   0.888   5.074   2.725
 6351SOL     OW19951   6.535   4.362   3.918
 6351SOL    HW119952   6.586   4.442   3.947
 6351SOL    HW219953   6.560   4.339   3.823
 6352SOL     OW19954   2.530   0.403   3.975
 6352SOL    HW119955   2.478   0.486   3.956
 6352SOL    HW219956   2.526   0.382   4.073
 6353SOL     OW19957   2.404   5.556   0.462
 6353SOL    HW119958   2.479   5.593   0.407
 6353SOL    HW219959   2.431   5.467   0.499
 6354SOL     OW19960   3.786   5.963   2.733
 6354SOL    HW119961   3.794   5.872   2.693
 6354SOL    HW219962   3.735   6.022   2.671
 6355SOL     OW19963   3.089   5.811   0.523
 6355SOL    HW119964   3.148   5.759   0.461
 6355SOL    HW219965   3.083   5.905   0.490
 6356SOL     OW19966   5.619   5.181   0.360
 6356SOL    HW119967   5.595   5.183   0.263
 6356SOL    HW219968   5.712   5.218   0.372
 6357SOL     OW19969   5.643   2.378   1.819
 6357SOL    HW119970   5.593   2.408   1.901
 6357SOL    HW219971   5.683   2.458   1.774
 6358SOL     OW19972   0.997   2.380   6.951
 6358SOL    HW119973   1.096   2.369   6.954
 6358SOL    HW219974   0.973   2.459   6.894
 6359SOL     OW19975   6.068   6.297   0.700
 6359SOL    HW119976   6.114   6.383   0.722
 6359SOL    HW219977   6.112   6.255   0.621
 6360SOL     OW19978   0.485   3.620   4.264
 6360SOL    HW119979   0.567   3.602   4.210
 6360SOL    HW219980   0.470   3.547   4.330
 6361SOL     OW19981   0.475   0.892   0.550
 6361SOL    HW119982   0.514   0.803   0.527
 6361SOL    HW219983   0.390   0.879   0.600
 6362SOL     OW19984   1.544   6.254   0.098
 6362SOL    HW119985   1.624   6.205   0.132
 6362SOL    HW219986   1.493   6.196   0.035
 6363SOL     OW19987   2.819   4.753   4.041
 6363SOL    HW119988   2.732   4.705   4.027
 6363SOL    HW219989   2.848   4.742   4.135
 6364SOL     OW19990   2.325   2.208   5.379
 6364SOL    HW119991   2.230   2.218   5.351
 6364SOL    HW219992   2.383   2.203   5.298
 6365SOL     OW19993   5.698   5.878   5.181
 6365SOL    HW119994   5.751   5.887   5.097
 6365SOL    HW219995   5.604   5.854   5.159
 6366SOL     OW19996   6.782   6.730   4.959
 6366SOL    HW119997   6.723   6.657   4.926
 6366SOL    HW219998   6.787   6.803   4.891
 6367SOL     OW19999   3.280   2.013   2.657
 6367SOL    HW120000   3.186   1.992   2.633
 6367SOL    HW220001   3.303   1.971   2.745
 6368SOL     OW20002   4.161   4.743   4.354
 6368SOL    HW120003   4.199   4.746   4.446
 6368SOL    HW220004   4.082   4.803   4.348
 6369SOL     OW20005   2.167   6.661   4.684
 6369SOL    HW120006   2.099   6.729   4.713
 6369SOL    HW220007   2.153   6.576   4.735
 6370SOL     OW20008   5.168   4.031   3.666
 6370SOL    HW120009   5.128   3.965   3.730
 6370SOL    HW220010   5.118   4.029   3.580
 6371SOL     OW20011   5.573   3.963   1.599
 6371SOL    HW120012   5.622   3.883   1.565
 6371SOL    HW220013   5.557   4.028   1.524
 6372SOL     OW20014   0.365   1.294   1.811
 6372SOL    HW120015   0.394   1.252   1.725
 6372SOL    HW220016   0.359   1.224   1.883
 6373SOL     OW20017   5.865   4.040   2.262
 6373SOL    HW120018   5.887   3.977   2.187
 6373SOL    HW220019   5.790   4.003   2.316
 6374SOL     OW20020   4.585   2.455   0.391
 6374SOL    HW120021   4.507   2.399   0.363
 6374SOL    HW220022   4.558   2.516   0.466
 6375SOL     OW20023   0.774   2.607   2.109
 6375SOL    HW120024   0.691   2.618   2.054
 6375SOL    HW220025   0.837   2.681   2.088
 6376SOL     OW20026   3.818   1.670   5.518
 6376SOL    HW120027   3.793   1.604   5.589
 6376SOL    HW220028   3.781   1.760   5.541
 6377SOL     OW20029   6.702   1.213   5.650
 6377SOL    HW120030   6.792   1.254   5.634
 6377SOL    HW220031   6.654   1.202   5.562
 6378SOL     OW20032   4.846   5.690   3.017
 6378SOL    HW120033   4.836   5.591   3.026
 6378SOL    HW220034   4.756   5.733   3.021
 6379SOL     OW20035   0.983   4.559   5.517
 6379SOL    HW120036   1.072   4.533   5.480
 6379SOL    HW220037   0.957   4.649   5.481
 6380SOL     OW20038   6.795   3.041   3.987
 6380SOL    HW120039   6.806   3.098   4.068
 6380SOL    HW220040   6.850   2.958   3.996
 6381SOL     OW20041   4.365   3.019   0.388
 6381SOL    HW120042   4.306   3.022   0.468
 6381SOL    HW220043   4.327   2.957   0.320
 6382SOL     OW20044   3.301   2.041   1.201
 6382SOL    HW120045   3.260   2.132   1.199
 6382SOL    HW220046   3.244   1.980   1.257
 6383SOL     OW20047   1.585   2.232   2.069
 6383SOL    HW120048   1.601   2.324   2.102
 6383SOL    HW220049   1.665   2.175   2.088
 6384SOL     OW20050   5.628   3.189   1.911
 6384SOL    HW120051   5.708   3.133   1.889
 6384SOL    HW220052   5.593   3.231   1.827
 6385SOL     OW20053   6.771   3.972   1.684
 6385SOL    HW120054   6.796   3.954   1.589
 6385SOL    HW220055   6.810   4.058   1.714
 6386SOL     OW20056   2.066   3.752   0.084
 6386SOL    HW120057   2.075   3.669   0.139
 6386SOL    HW220058   1.997   3.737   0.013
 6387SOL     OW20059   5.973   1.420   0.205
 6387SOL    HW120060   6.000   1.509   0.169
 6387SOL    HW220061   6.016   1.405   0.294
 6388SOL     OW20062   6.218   4.618   2.083
 6388SOL    HW120063   6.214   4.594   2.180
 6388SOL    HW220064   6.143   4.574   2.034
 6389SOL     OW20065   1.275   6.851   1.399
 6389SOL    HW120066   1.180   6.823   1.418
 6389SOL    HW220067   1.280   6.950   1.390
 6390SOL     OW20068   6.330   0.380   6.201
 6390SOL    HW120069   6.413   0.363   6.148
 6390SOL    HW220070   6.344   0.348   6.295
 6391SOL     OW20071   1.495   1.442   6.381
 6391SOL    HW120072   1.533   1.508   6.446
 6391SOL    HW220073   1.448   1.492   6.308
 6392SOL     OW20074   3.051   6.376   3.634
 6392SOL    HW120075   3.018   6.300   3.690
 6392SOL    HW220076   3.141   6.353   3.597
 6393SOL     OW20077   5.806   6.074   1.463
 6393SOL    HW120078   5.713   6.085   1.429
 6393SOL    HW220079   5.826   6.146   1.530
 6394SOL     OW20080   1.692   4.593   1.170
 6394SOL    HW120081   1.629   4.519   1.191
 6394SOL    HW220082   1.696   4.606   1.071
 6395SOL     OW20083   6.900   3.490   2.426
 6395SOL    HW120084   6.967   3.541   2.370
 6395SOL    HW220085   6.939   3.402   2.453
 6396SOL     OW20086   6.141   3.754   5.665
 6396SOL    HW120087   6.084   3.674   5.645
 6396SOL    HW220088   6.216   3.758   5.599
 6397SOL     OW20089   6.093   1.072   2.338
 6397SOL    HW120090   6.039   1.124   2.272
 6397SOL    HW220091   6.185   1.110   2.343
 6398SOL     OW20092   1.080   6.669   1.506
 6398SOL    HW120093   1.166   6.626   1.535
 6398SOL    HW220094   1.010   6.653   1.576
 6399SOL     OW20095   1.784   0.179   0.224
 6399SOL    HW120096   1.687   0.197   0.233
 6399SOL    HW220097   1.830   0.195   0.311
 6400SOL     OW20098   2.184   5.051   2.678
 6400SOL    HW120099   2.214   5.044   2.583
 6400SOL    HW220100   2.260   5.084   2.734
 6401SOL     OW20101   5.066   4.934   3.427
 6401SOL    HW120102   5.136   4.905   3.493
 6401SOL    HW220103   5.044   4.858   3.366
 6402SOL     OW20104   2.112   3.477   3.478
 6402SOL    HW120105   2.056   3.559   3.486
 6402SOL    HW220106   2.117   3.431   3.567
 6403SOL     OW20107   5.696   6.539   5.361
 6403SOL    HW120108   5.768   6.478   5.329
 6403SOL    HW220109   5.618   6.535   5.299
 6404SOL     OW20110   3.828   1.633   2.504
 6404SOL    HW120111   3.835   1.719   2.454
 6404SOL    HW220112   3.788   1.649   2.594
 6405SOL     OW20113   4.550   1.629   3.776
 6405SOL    HW120114   4.458   1.602   3.803
 6405SOL    HW220115   4.612   1.551   3.785
 6406SOL     OW20116   1.594   3.120   2.276
 6406SOL    HW120117   1.596   3.153   2.182
 6406SOL    HW220118   1.688   3.105   2.307
 6407SOL     OW20119   1.704   6.388   3.208
 6407SOL    HW120120   1.801   6.376   3.231
 6407SOL    HW220121   1.672   6.308   3.157
 6408SOL     OW20122   5.997   0.720   0.995
 6408SOL    HW120123   5.991   0.784   0.918
 6408SOL    HW220124   6.064   0.649   0.973
 6409SOL     OW20125   0.096   4.893   3.094
 6409SOL    HW120126   0.137   4.854   3.176
 6409SOL    HW220127   7.014   4.907   3.109
 6410SOL     OW20128   2.032   0.889   6.850
 6410SOL    HW120129   2.093   0.874   6.927
 6410SOL    HW220130   1.965   0.959   6.873
 6411SOL     OW20131   1.139   3.293   2.157
 6411SOL    HW120132   1.130   3.268   2.254
 6411SOL    HW220133   1.221   3.347   2.144
 6412SOL     OW20134   2.715   0.624   6.844
 6412SOL    HW120135   2.700   0.571   6.927
 6412SOL    HW220136   2.635   0.617   6.785
 6413SOL     OW20137   4.052   4.839   4.638
 6413SOL    HW120138   4.016   4.837   4.731
 6413SOL    HW220139   4.131   4.779   4.632
 6414SOL     OW20140   6.446   6.346   6.660
 6414SOL    HW120141   6.497   6.325   6.743
 6414SOL    HW220142   6.429   6.444   6.655
 6415SOL     OW20143   1.821   3.196   3.715
 6415SOL    HW120144   1.734   3.151   3.693
 6415SOL    HW220145   1.805   3.295   3.726
 6416SOL     OW20146   2.853   6.837   6.571
 6416SOL    HW120147   2.900   6.755   6.603
 6416SOL    HW220148   2.920   6.909   6.554
 6417SOL     OW20149   5.221   2.508   0.461
 6417SOL    HW120150   5.312   2.479   0.491
 6417SOL    HW220151   5.153   2.441   0.491
 6418SOL     OW20152   5.264   4.035   2.603
 6418SOL    HW120153   5.227   3.951   2.563
 6418SOL    HW220154   5.210   4.060   2.683
 6419SOL     OW20155   0.201   5.491   5.238
 6419SOL    HW120156   0.142   5.473   5.316
 6419SOL    HW220157   0.149   5.482   5.153
 6420SOL     OW20158   1.678   1.673   3.688
 6420SOL    HW120159   1.678   1.576   3.665
 6420SOL    HW220160   1.589   1.712   3.666
 6421SOL     OW20161   5.172   0.431   0.955
 6421SOL    HW120162   5.122   0.510   0.991
 6421SOL    HW220163   5.182   0.362   1.026
 6422SOL     OW20164   6.595   1.559   5.554
 6422SOL    HW120165   6.553   1.471   5.532
 6422SOL    HW220166   6.692   1.546   5.570
 6423SOL     OW20167   4.562   5.454   5.072
 6423SOL    HW120168   4.499   5.415   5.005
 6423SOL    HW220169   4.524   5.539   5.109
 6424SOL     OW20170   1.433   3.585   4.659
 6424SOL    HW120171   1.473   3.588   4.751
 6424SOL    HW220172   1.487   3.643   4.598
 6425SOL     OW20173   0.360   5.736   2.729
 6425SOL    HW120174   0.389   5.643   2.709
 6425SOL    HW220175   0.386   5.761   2.823
 6426SOL     OW20176   5.587   4.916   3.978
 6426SOL    HW120177   5.540   4.918   4.066
 6426SOL    HW220178   5.531   4.964   3.910
 6427SOL     OW20179   2.974   3.773   3.096
 6427SOL    HW120180   2.940   3.711   3.025
 6427SOL    HW220181   3.016   3.853   3.054
 6428SOL     OW20182   5.209   3.351   0.001
 6428SOL    HW120183   5.209   3.450   0.009
 6428SOL    HW220184   5.126   3.321   6.971
 6429SOL     OW20185   1.055   0.432   5.332
 6429SOL    HW120186   1.060   0.485   5.417
 6429SOL    HW220187   1.080   0.491   5.254
 6430SOL     OW20188   6.182   0.910   4.594
 6430SOL    HW120189   6.222   0.866   4.513
 6430SOL    HW220190   6.252   0.920   4.664
 6431SOL     OW20191   4.529   5.174   2.827
 6431SOL    HW120192   4.612   5.119   2.813
 6431SOL    HW220193   4.527   5.208   2.921
 6432SOL     OW20194   3.573   4.133   6.150
 6432SOL    HW120195   3.563   4.228   6.119
 6432SOL    HW220196   3.488   4.104   6.195
 6433SOL     OW20197   3.237   5.349   0.110
 6433SOL    HW120198   3.220   5.250   0.112
 6433SOL    HW220199   3.193   5.389   0.030
 6434SOL     OW20200   2.675   6.714   5.903
 6434SOL    HW120201   2.696   6.700   5.807
 6434SOL    HW220202   2.640   6.807   5.916
 6435SOL     OW20203   6.322   0.026   0.847
 6435SOL    HW120204   6.357   0.118   0.831
 6435SOL    HW220205   6.379   6.997   0.915
 6436SOL     OW20206   0.712   3.514   3.307
 6436SOL    HW120207   0.765   3.458   3.369
 6436SOL    HW220208   0.644   3.458   3.260
 6437SOL     OW20209   1.335   2.121   6.006
 6437SOL    HW120210   1.351   2.215   5.977
 6437SOL    HW220211   1.393   2.059   5.952
 6438SOL     OW20212   1.400   4.915   6.327
 6438SOL    HW120213   1.314   4.885   6.367
 6438SOL    HW220214   1.424   4.858   6.249
 6439SOL     OW20215   6.016   0.805   3.124
 6439SOL    HW120216   6.005   0.888   3.070
 6439SOL    HW220217   6.058   0.827   3.212
 6440SOL     OW20218   2.751   0.738   6.134
 6440SOL    HW120219   2.712   0.653   6.098
 6440SOL    HW220220   2.729   0.814   6.073
 6441SOL     OW20221   0.118   1.284   2.184
 6441SOL    HW120222   0.196   1.237   2.225
 6441SOL    HW220223   0.093   1.240   2.098
 6442SOL     OW20224   2.482   1.998   4.856
 6442SOL    HW120225   2.521   1.907   4.844
 6442SOL    HW220226   2.530   2.064   4.798
 6443SOL     OW20227   3.640   2.323   5.898
 6443SOL    HW120228   3.611   2.338   5.992
 6443SOL    HW220229   3.716   2.384   5.876
 6444SOL     OW20230   6.682   2.653   4.606
 6444SOL    HW120231   6.629   2.723   4.557
 6444SOL    HW220232   6.745   2.608   4.542
 6445SOL     OW20233   4.125   3.286   3.074
 6445SOL    HW120234   4.190   3.213   3.052
 6445SOL    HW220235   4.159   3.337   3.153
 6446SOL     OW20236   0.864   2.140   0.259
 6446SOL    HW120237   0.778   2.138   0.207
 6446SOL    HW220238   0.940   2.146   0.195
 6447SOL     OW20239   6.392   4.392   1.996
 6447SOL    HW120240   6.328   4.316   1.987
 6447SOL    HW220241   6.348   4.468   2.044
 6448SOL     OW20242   5.203   5.290   1.498
 6448SOL    HW120243   5.239   5.372   1.543
 6448SOL    HW220244   5.171   5.226   1.566
 6449SOL     OW20245   2.735   5.143   2.109
 6449SOL    HW120246   2.816   5.101   2.067
 6449SOL    HW220247   2.656   5.085   2.091
 6450SOL     OW20248   1.307   4.050   0.018
 6450SOL    HW120249   1.210   4.033   0.036
 6450SOL    HW220250   1.338   4.129   0.071
 6451SOL     OW20251   2.926   2.043   5.882
 6451SOL    HW120252   2.902   1.950   5.853
 6451SOL    HW220253   3.020   2.046   5.913
 6452SOL     OW20254   4.880   3.601   2.542
 6452SOL    HW120255   4.869   3.696   2.571
 6452SOL    HW220256   4.932   3.551   2.610
 6453SOL     OW20257   2.778   0.037   1.463
 6453SOL    HW120258   2.702   7.003   1.422
 6453SOL    HW220259   2.842   6.990   1.505
 6454SOL     OW20260   0.144   1.627   1.928
 6454SOL    HW120261   0.232   1.590   1.957
 6454SOL    HW220262   0.070   1.584   1.980
 6455SOL     OW20263   6.665   3.859   3.526
 6455SOL    HW120264   6.685   3.878   3.430
 6455SOL    HW220265   6.581   3.805   3.533
 6456SOL     OW20266   1.090   0.678   2.878
 6456SOL    HW120267   1.077   0.724   2.966
 6456SOL    HW220268   1.003   0.641   2.847
 6457SOL     OW20269   4.933   6.451   2.220
 6457SOL    HW120270   5.012   6.409   2.264
 6457SOL    HW220271   4.962   6.532   2.170
 6458SOL     OW20272   1.463   5.128   5.281
 6458SOL    HW120273   1.545   5.122   5.224
 6458SOL    HW220274   1.400   5.055   5.256
 6459SOL     OW20275   6.023   2.474   2.496
 6459SOL    HW120276   6.075   2.504   2.575
 6459SOL    HW220277   6.075   2.405   2.446
 6460SOL     OW20278   5.517   6.189   6.058
 6460SOL    HW120279   5.521   6.117   5.988
 6460SOL    HW220280   5.602   6.241   6.057
 6461SOL     OW20281   3.133   5.042   0.307
 6461SOL    HW120282   3.147   5.042   0.208
 6461SOL    HW220283   3.199   4.980   0.350
 6462SOL     OW20284   0.471   2.966   4.502
 6462SOL    HW120285   0.498   3.023   4.424
 6462SOL    HW220286   0.446   3.025   4.579
 6463SOL     OW20287   5.290   6.767   0.707
 6463SOL    HW120288   5.208   6.760   0.763
 6463SOL    HW220289   5.269   6.743   0.613
 6464SOL     OW20290   1.412   5.867   5.343
 6464SOL    HW120291   1.392   5.872   5.245
 6464SOL    HW220292   1.348   5.925   5.393
 6465SOL     OW20293   6.431   2.171   2.507
 6465SOL    HW120294   6.378   2.136   2.584
 6465SOL    HW220295   6.443   2.099   2.439
 6466SOL     OW20296   6.815   2.026   6.707
 6466SOL    HW120297   6.779   2.085   6.635
 6466SOL    HW220298   6.831   2.080   6.789
 6467SOL     OW20299   4.404   0.752   0.790
 6467SOL    HW120300   4.414   0.703   0.704
 6467SOL    HW220301   4.493   0.782   0.823
 6468SOL     OW20302   3.614   6.386   1.635
 6468SOL    HW120303   3.637   6.327   1.558
 6468SOL    HW220304   3.682   6.459   1.643
 6469SOL     OW20305   3.259   2.137   4.110
 6469SOL    HW120306   3.331   2.123   4.042
 6469SOL    HW220307   3.297   2.130   4.202
 6470SOL     OW20308   5.995   2.581   6.865
 6470SOL    HW120309   5.933   2.535   6.929
 6470SOL    HW220310   5.982   2.680   6.871
 6471SOL     OW20311   0.620   6.553   5.166
 6471SOL    HW120312   0.648   6.464   5.200
 6471SOL    HW220313   0.647   6.624   5.231
 6472SOL     OW20314   6.049   5.998   2.851
 6472SOL    HW120315   6.131   6.041   2.890
 6472SOL    HW220316   6.072   5.907   2.817
 6473SOL     OW20317   2.047   2.023   5.193
 6473SOL    HW120318   2.047   2.115   5.232
 6473SOL    HW220319   2.016   1.957   5.261
 6474SOL     OW20320   3.740   5.532   5.568
 6474SOL    HW120321   3.821   5.540   5.510
 6474SOL    HW220322   3.706   5.438   5.565
 6475SOL     OW20323   5.878   4.881   3.834
 6475SOL    HW120324   5.961   4.935   3.822
 6475SOL    HW220325   5.798   4.941   3.830
 6476SOL     OW20326   4.726   3.017   6.358
 6476SOL    HW120327   4.692   3.091   6.416
 6476SOL    HW220328   4.753   3.054   6.269
 6477SOL     OW20329   6.569   5.006   0.682
 6477SOL    HW120330   6.541   4.936   0.748
 6477SOL    HW220331   6.489   5.033   0.628
 6478SOL     OW20332   3.158   6.626   2.197
 6478SOL    HW120333   3.140   6.690   2.122
 6478SOL    HW220334   3.089   6.638   2.269
 6479SOL     OW20335   3.052   4.974   4.239
 6479SOL    HW120336   3.060   4.960   4.141
 6479SOL    HW220337   2.989   5.049   4.258
 6480SOL     OW20338   2.280   1.170   6.792
 6480SOL    HW120339   2.223   1.128   6.722
 6480SOL    HW220340   2.356   1.219   6.748
 6481SOL     OW20341   3.305   2.681   1.805
 6481SOL    HW120342   3.369   2.606   1.790
 6481SOL    HW220343   3.351   2.768   1.788
 6482SOL     OW20344   6.376   2.150   5.972
 6482SOL    HW120345   6.437   2.112   5.903
 6482SOL    HW220346   6.302   2.200   5.928
 6483SOL     OW20347   0.576   6.226   4.099
 6483SOL    HW120348   0.567   6.269   4.009
 6483SOL    HW220349   0.661   6.256   4.141
 6484SOL     OW20350   2.505   1.787   2.909
 6484SOL    HW120351   2.590   1.799   2.859
 6484SOL    HW220352   2.510   1.837   2.996
 6485SOL     OW20353   1.852   5.698   4.330
 6485SOL    HW120354   1.783   5.760   4.294
 6485SOL    HW220355   1.907   5.660   4.255
 6486SOL     OW20356   1.042   5.377   2.818
 6486SOL    HW120357   1.128   5.411   2.780
 6486SOL    HW220358   1.013   5.436   2.893
 6487SOL     OW20359   1.074   6.403   4.753
 6487SOL    HW120360   0.996   6.438   4.805
 6487SOL    HW220361   1.118   6.329   4.804
 6488SOL     OW20362   4.236   5.849   5.109
 6488SOL    HW120363   4.294   5.898   5.174
 6488SOL    HW220364   4.230   5.901   5.024
 6489SOL     OW20365   3.081   3.520   6.413
 6489SOL    HW120366   2.989   3.525   6.452
 6489SOL    HW220367   3.118   3.428   6.425
 6490SOL     OW20368   2.684   1.484   6.429
 6490SOL    HW120369   2.759   1.502   6.365
 6490SOL    HW220370   2.657   1.570   6.473
 6491SOL     OW20371   2.921   0.973   1.837
 6491SOL    HW120372   2.965   1.060   1.813
 6491SOL    HW220373   2.896   0.973   1.933
 6492SOL     OW20374   3.985   3.602   5.176
 6492SOL    HW120375   4.042   3.682   5.156
 6492SOL    HW220376   3.985   3.584   5.274
 6493SOL     OW20377   1.727   4.571   6.370
 6493SOL    HW120378   1.708   4.480   6.408
 6493SOL    HW220379   1.734   4.637   6.444
 6494SOL     OW20380   6.755   6.642   2.381
 6494SOL    HW120381   6.735   6.649   2.479
 6494SOL    HW220382   6.833   6.700   2.359
 6495SOL     OW20383   6.579   0.507   4.052
 6495SOL    HW120384   6.548   0.511   4.147
 6495SOL    HW220385   6.598   0.413   4.027
 6496SOL     OW20386   5.875   6.604   1.499
 6496SOL    HW120387   5.934   6.526   1.516
 6496SOL    HW220388   5.790   6.573   1.456
 6497SOL     OW20389   1.074   0.454   1.040
 6497SOL    HW120390   1.125   0.539   1.028
 6497SOL    HW220391   1.083   0.398   0.958
 6498SOL     OW20392   0.930   3.535   3.893
 6498SOL    HW120393   0.896   3.584   3.813
 6498SOL    HW220394   1.027   3.556   3.906
 6499SOL     OW20395   5.588   3.752   4.603
 6499SOL    HW120396   5.536   3.667   4.612
 6499SOL    HW220397   5.682   3.731   4.577
 6500SOL     OW20398   0.144   4.278   2.343
 6500SOL    HW120399   0.121   4.359   2.288
 6500SOL    HW220400   0.224   4.233   2.303
 6501SOL     OW20401   0.144   1.320   1.393
 6501SOL    HW120402   0.086   1.387   1.348
 6501SOL    HW220403   0.134   1.328   1.492
 6502SOL     OW20404   6.799   3.363   1.468
 6502SOL    HW120405   6.837   3.384   1.559
 6502SOL    HW220406   6.807   3.443   1.410
 6503SOL     OW20407   5.457   0.987   3.661
 6503SOL    HW120408   5.404   1.001   3.744
 6503SOL    HW220409   5.528   0.919   3.678
 6504SOL     OW20410   4.546   6.212   0.119
 6504SOL    HW120411   4.641   6.184   0.104
 6504SOL    HW220412   4.494   6.199   0.034
 6505SOL     OW20413   4.461   6.857   6.359
 6505SOL    HW120414   4.370   6.832   6.392
 6505SOL    HW220415   4.468   6.956   6.352
 6506SOL     OW20416   0.073   3.213   3.424
 6506SOL    HW120417   0.153   3.272   3.417
 6506SOL    HW220418   0.069   3.173   3.516
 6507SOL     OW20419   2.714   5.550   6.094
 6507SOL    HW120420   2.754   5.616   6.158
 6507SOL    HW220421   2.712   5.589   6.002
 6508SOL     OW20422   1.699   0.286   2.862
 6508SOL    HW120423   1.695   0.187   2.874
 6508SOL    HW220424   1.795   0.316   2.860
 6509SOL     OW20425   4.963   1.512   4.920
 6509SOL    HW120426   5.019   1.593   4.938
 6509SOL    HW220427   4.874   1.522   4.965
 6510SOL     OW20428   4.934   5.112   0.145
 6510SOL    HW120429   5.033   5.111   0.159
 6510SOL    HW220430   4.901   5.206   0.145
 6511SOL     OW20431   4.056   1.356   5.287
 6511SOL    HW120432   4.148   1.316   5.289
 6511SOL    HW220433   4.028   1.380   5.380
 6512SOL     OW20434   3.409   6.699   2.656
 6512SOL    HW120435   3.325   6.754   2.660
 6512SOL    HW220436   3.401   6.633   2.581
 6513SOL     OW20437   1.978   5.908   4.134
 6513SOL    HW120438   1.891   5.912   4.183
 6513SOL    HW220439   1.963   5.933   4.038
 6514SOL     OW20440   6.000   0.423   4.718
 6514SOL    HW120441   6.030   0.331   4.744
 6514SOL    HW220442   6.079   0.484   4.715
 6515SOL     OW20443   1.227   3.618   2.302
 6515SOL    HW120444   1.256   3.706   2.339
 6515SOL    HW220445   1.170   3.632   2.221
 6516SOL     OW20446   6.560   3.229   1.522
 6516SOL    HW120447   6.641   3.286   1.510
 6516SOL    HW220448   6.478   3.286   1.513
 6517SOL     OW20449   0.081   1.913   1.007
 6517SOL    HW120450   0.029   1.953   0.932
 6517SOL    HW220451   0.022   1.848   1.056
 6518SOL     OW20452   0.193   0.094   2.069
 6518SOL    HW120453   0.182   7.012   2.078
 6518SOL    HW220454   0.150   0.140   2.147
 6519SOL     OW20455   0.444   1.345   3.103
 6519SOL    HW120456   0.437   1.253   3.142
 6519SOL    HW220457   0.500   1.343   3.020
 6520SOL     OW20458   6.802   5.368   0.031
 6520SOL    HW120459   6.762   5.403   6.963
 6520SOL    HW220460   6.857   5.439   0.075
 6521SOL     OW20461   1.933   2.908   3.908
 6521SOL    HW120462   1.952   2.825   3.855
 6521SOL    HW220463   1.838   2.934   3.896
 6522SOL     OW20464   2.570   4.553   5.470
 6522SOL    HW120465   2.568   4.469   5.417
 6522SOL    HW220466   2.535   4.536   5.562
 6523SOL     OW20467   3.816   0.239   7.005
 6523SOL    HW120468   3.728   0.196   6.984
 6523SOL    HW220469   3.883   0.214   6.936
 6524SOL     OW20470   2.815   2.683   1.488
 6524SOL    HW120471   2.722   2.721   1.481
 6524SOL    HW220472   2.881   2.755   1.467
 6525SOL     OW20473   1.941   5.071   3.292
 6525SOL    HW120474   1.987   5.150   3.332
 6525SOL    HW220475   1.970   5.059   3.197
 6526SOL     OW20476   0.844   0.584   1.031
 6526SOL    HW120477   0.817   0.631   1.115
 6526SOL    HW220478   0.929   0.533   1.048
 6527SOL     OW20479   0.085   2.169   0.306
 6527SOL    HW120480   0.130   2.116   0.378
 6527SOL    HW220481   0.035   2.107   0.245
 6528SOL     OW20482   6.280   1.730   5.496
 6528SOL    HW120483   6.307   1.634   5.490
 6528SOL    HW220484   6.306   1.765   5.586
 6529SOL     OW20485   1.220   0.679   2.266
 6529SOL    HW120486   1.164   0.630   2.334
 6529SOL    HW220487   1.215   0.631   2.179
 6530SOL     OW20488   0.331   1.818   0.878
 6530SOL    HW120489   0.250   1.853   0.925
 6530SOL    HW220490   0.383   1.759   0.940
 6531SOL     OW20491   4.857   3.760   5.331
 6531SOL    HW120492   4.777   3.779   5.387
 6531SOL    HW220493   4.831   3.699   5.256
 6532SOL     OW20494   1.841   1.040   1.293
 6532SOL    HW120495   1.777   1.042   1.370
 6532SOL    HW220496   1.850   1.132   1.255
 6533SOL     OW20497   4.509   6.425   0.271
 6533SOL    HW120498   4.526   6.355   0.201
 6533SOL    HW220499   4.573   6.413   0.346
 6534SOL     OW20500   4.860   4.953   2.009
 6534SOL    HW120501   4.829   5.024   2.072
 6534SOL    HW220502   4.801   4.953   1.928
 6535SOL     OW20503   5.914   4.365   4.560
 6535SOL    HW120504   5.983   4.341   4.628
 6535SOL    HW220505   5.925   4.461   4.534
 6536SOL     OW20506   0.351   1.678   4.876
 6536SOL    HW120507   0.375   1.612   4.804
 6536SOL    HW220508   0.379   1.641   4.965
 6537SOL     OW20509   6.703   4.864   5.281
 6537SOL    HW120510   6.738   4.873   5.375
 6537SOL    HW220511   6.751   4.789   5.235
 6538SOL     OW20512   1.203   3.711   5.827
 6538SOL    HW120513   1.174   3.700   5.922
 6538SOL    HW220514   1.284   3.769   5.824
 6539SOL     OW20515   4.680   0.476   7.012
 6539SOL    HW120516   4.594   0.445   6.970
 6539SOL    HW220517   4.755   0.419   6.979
 6540SOL     OW20518   3.138   2.750   5.849
 6540SOL    HW120519   3.117   2.727   5.754
 6540SOL    HW220520   3.115   2.845   5.866
 6541SOL     OW20521   5.437   2.663   5.536
 6541SOL    HW120522   5.411   2.571   5.566
 6541SOL    HW220523   5.467   2.716   5.615
 6542SOL     OW20524   1.284   2.966   4.498
 6542SOL    HW120525   1.210   2.939   4.559
 6542SOL    HW220526   1.309   2.889   4.439
 6543SOL     OW20527   3.649   2.696   5.715
 6543SOL    HW120528   3.733   2.672   5.666
 6543SOL    HW220529   3.570   2.661   5.665
 6544SOL     OW20530   1.307   6.137   2.768
 6544SOL    HW120531   1.380   6.191   2.726
 6544SOL    HW220532   1.224   6.145   2.712
 6545SOL     OW20533   4.086   0.406   0.335
 6545SOL    HW120534   3.992   0.441   0.342
 6545SOL    HW220535   4.146   0.479   0.301
 6546SOL     OW20536   3.883   3.787   6.087
 6546SOL    HW120537   3.868   3.875   6.044
 6546SOL    HW220538   3.960   3.740   6.042
 6547SOL     OW20539   4.748   0.826   6.171
 6547SOL    HW120540   4.666   0.872   6.206
 6547SOL    HW220541   4.819   0.828   6.242
 6548SOL     OW20542   1.756   3.119   0.456
 6548SOL    HW120543   1.667   3.135   0.500
 6548SOL    HW220544   1.795   3.033   0.491
 6549SOL     OW20545   4.434   0.276   1.949
 6549SOL    HW120546   4.397   0.202   2.006
 6549SOL    HW220547   4.377   0.285   1.867
 6550SOL     OW20548   0.403   6.850   3.770
 6550SOL    HW120549   0.369   6.916   3.837
 6550SOL    HW220550   0.349   6.766   3.777
 6551SOL     OW20551   2.392   3.602   1.595
 6551SOL    HW120552   2.324   3.675   1.604
 6551SOL    HW220553   2.385   3.539   1.673
 6552SOL     OW20554   2.448   6.799   0.719
 6552SOL    HW120555   2.353   6.776   0.701
 6552SOL    HW220556   2.474   6.767   0.810
 6553SOL     OW20557   0.611   2.294   2.943
 6553SOL    HW120558   0.626   2.392   2.947
 6553SOL    HW220559   0.647   2.259   2.856
 6554SOL     OW20560   2.636   0.939   4.483
 6554SOL    HW120561   2.698   0.897   4.416
 6554SOL    HW220562   2.629   0.879   4.563
 6555SOL     OW20563   5.710   1.924   3.648
 6555SOL    HW120564   5.671   1.893   3.735
 6555SOL    HW220565   5.651   1.993   3.607
 6556SOL     OW20566   6.131   3.253   2.920
 6556SOL    HW120567   6.209   3.256   2.982
 6556SOL    HW220568   6.156   3.203   2.837
 6557SOL     OW20569   2.636   0.666   3.088
 6557SOL    HW120570   2.660   0.762   3.077
 6557SOL    HW220571   2.550   0.658   3.138
 6558SOL     OW20572   5.979   5.601   0.654
 6558SOL    HW120573   5.937   5.691   0.661
 6558SOL    HW220574   5.927   5.535   0.708
 6559SOL     OW20575   6.976   3.781   6.205
 6559SOL    HW120576   7.010   3.821   6.290
 6559SOL    HW220577   7.002   3.839   6.128
 6560SOL     OW20578   3.867   4.776   0.930
 6560SOL    HW120579   3.931   4.840   0.888
 6560SOL    HW220580   3.918   4.699   0.970
 6561SOL     OW20581   3.600   4.565   1.126
 6561SOL    HW120582   3.607   4.585   1.029
 6561SOL    HW220583   3.574   4.648   1.176
 6562SOL     OW20584   5.621   2.073   1.008
 6562SOL    HW120585   5.530   2.079   0.969
 6562SOL    HW220586   5.666   1.990   0.975
 6563SOL     OW20587   5.076   6.714   6.210
 6563SOL    HW120588   5.123   6.679   6.129
 6563SOL    HW220589   5.002   6.651   6.235
 6564SOL     OW20590   6.374   3.440   1.556
 6564SOL    HW120591   6.298   3.470   1.615
 6564SOL    HW220592   6.443   3.512   1.552
 6565SOL     OW20593   6.141   6.573   2.593
 6565SOL    HW120594   6.220   6.520   2.625
 6565SOL    HW220595   6.067   6.565   2.659
 6566SOL     OW20596   3.311   5.938   2.542
 6566SOL    HW120597   3.216   5.908   2.550
 6566SOL    HW220598   3.320   6.030   2.581
 6567SOL     OW20599   4.921   1.138   1.980
 6567SOL    HW120600   4.926   1.179   2.072
 6567SOL    HW220601   4.867   1.055   1.984
 6568SOL     OW20602   3.782   1.747   2.800
 6568SOL    HW120603   3.708   1.713   2.857
 6568SOL    HW220604   3.753   1.831   2.753
 6569SOL     OW20605   2.328   2.724   6.618
 6569SOL    HW120606   2.311   2.725   6.519
 6569SOL    HW220607   2.399   2.791   6.640
 6570SOL     OW20608   2.929   1.206   2.870
 6570SOL    HW120609   2.944   1.255   2.784
 6570SOL    HW220610   2.990   1.242   2.940
 6571SOL     OW20611   2.765   5.014   2.588
 6571SOL    HW120612   2.775   4.918   2.561
 6571SOL    HW220613   2.795   5.073   2.514
 6572SOL     OW20614   7.008   4.498   4.014
 6572SOL    HW120615   0.001   4.437   3.935
 6572SOL    HW220616   0.076   4.550   4.025
 6573SOL     OW20617   0.836   1.285   3.361
 6573SOL    HW120618   0.783   1.366   3.385
 6573SOL    HW220619   0.883   1.251   3.443
 6574SOL     OW20620   2.554   5.805   3.277
 6574SOL    HW120621   2.584   5.802   3.182
 6574SOL    HW220622   2.616   5.749   3.333
 6575SOL     OW20623   0.311   6.557   3.092
 6575SOL    HW120624   0.270   6.503   3.018
 6575SOL    HW220625   0.244   6.573   3.164
 6576SOL     OW20626   3.211   6.200   0.610
 6576SOL    HW120627   3.157   6.279   0.638
 6576SOL    HW220628   3.228   6.141   0.689
 6577SOL     OW20629   1.443   1.806   3.599
 6577SOL    HW120630   1.386   1.878   3.640
 6577SOL    HW220631   1.397   1.768   3.519
 6578SOL     OW20632   0.955   6.098   1.791
 6578SOL    HW120633   0.946   6.192   1.826
 6578SOL    HW220634   0.914   6.034   1.855
 6579SOL     OW20635   6.702   2.788   3.809
 6579SOL    HW120636   6.640   2.734   3.753
 6579SOL    HW220637   6.651   2.832   3.883
 6580SOL     OW20638   0.678   2.098   0.045
 6580SOL    HW120639   0.595   2.150   0.064
 6580SOL    HW220640   0.707   2.115   6.968
 6581SOL     OW20641   1.888   0.969   0.995
 6581SOL    HW120642   1.957   1.029   0.957
 6581SOL    HW220643   1.867   0.997   1.089
 6582SOL     OW20644   0.076   0.604   2.645
 6582SOL    HW120645   0.158   0.596   2.703
 6582SOL    HW220646   0.104   0.612   2.549
 6583SOL     OW20647   4.623   6.442   5.263
 6583SOL    HW120648   4.653   6.392   5.182
 6583SOL    HW220649   4.665   6.401   5.344
 6584SOL     OW20650   3.764   2.022   0.466
 6584SOL    HW120651   3.850   1.973   0.448
 6584SOL    HW220652   3.712   2.031   0.381
 6585SOL     OW20653   6.244   6.015   0.061
 6585SOL    HW120654   6.280   6.028   0.153
 6585SOL    HW220655   6.219   5.919   0.048
 6586SOL     OW20656   6.732   1.737   5.860
 6586SOL    HW120657   6.646   1.689   5.849
 6586SOL    HW220658   6.760   1.777   5.773
 6587SOL     OW20659   1.433   5.014   6.660
 6587SOL    HW120660   1.339   4.985   6.679
 6587SOL    HW220661   1.488   4.935   6.635
 6588SOL     OW20662   0.431   3.206   1.965
 6588SOL    HW120663   0.435   3.116   1.921
 6588SOL    HW220664   0.338   3.241   1.961
 6589SOL     OW20665   4.330   0.893   1.880
 6589SOL    HW120666   4.370   0.809   1.915
 6589SOL    HW220667   4.357   0.905   1.784
 6590SOL     OW20668   0.666   0.579   6.090
 6590SOL    HW120669   0.727   0.612   6.162
 6590SOL    HW220670   0.643   0.483   6.107
 6591SOL     OW20671   5.148   6.043   4.077
 6591SOL    HW120672   5.073   6.042   4.144
 6591SOL    HW220673   5.211   6.117   4.100
 6592SOL     OW20674   5.136   6.380   2.864
 6592SOL    HW120675   5.218   6.352   2.913
 6592SOL    HW220676   5.097   6.461   2.907
 6593SOL     OW20677   2.674   2.263   2.232
 6593SOL    HW120678   2.680   2.322   2.312
 6593SOL    HW220679   2.734   2.299   2.160
 6594SOL     OW20680   3.545   1.342   5.635
 6594SOL    HW120681   3.586   1.430   5.659
 6594SOL    HW220682   3.501   1.348   5.546
 6595SOL     OW20683   1.388   3.741   6.149
 6595SOL    HW120684   1.395   3.840   6.162
 6595SOL    HW220685   1.292   3.717   6.131
 6596SOL     OW20686   3.525   6.623   3.789
 6596SOL    HW120687   3.491   6.529   3.784
 6596SOL    HW220688   3.615   6.628   3.746
 6597SOL     OW20689   2.049   5.216   2.102
 6597SOL    HW120690   2.072   5.222   2.005
 6597SOL    HW220691   2.044   5.120   2.130
 6598SOL     OW20692   1.900   4.828   3.441
 6598SOL    HW120693   1.839   4.845   3.519
 6598SOL    HW220694   1.925   4.915   3.398
 6599SOL     OW20695   4.438   5.759   6.692
 6599SOL    HW120696   4.530   5.789   6.666
 6599SOL    HW220697   4.400   5.702   6.619
 6600SOL     OW20698   3.886   6.666   4.352
 6600SOL    HW120699   3.835   6.590   4.311
 6600SOL    HW220700   3.942   6.631   4.428
 6601SOL     OW20701   1.017   2.091   3.769
 6601SOL    HW120702   1.038   2.067   3.864
 6601SOL    HW220703   0.979   2.010   3.723
 6602SOL     OW20704   1.804   0.552   1.309
 6602SOL    HW120705   1.888   0.552   1.363
 6602SOL    HW220706   1.750   0.633   1.331
 6603SOL     OW20707   0.833   2.997   3.919
 6603SOL    HW120708   0.812   2.974   3.824
 6603SOL    HW220709   0.894   3.076   3.921
 6604SOL     OW20710   1.761   6.776   1.632
 6604SOL    HW120711   1.836   6.842   1.625
 6604SOL    HW220712   1.678   6.816   1.594
 6605SOL     OW20713   5.619   5.622   2.426
 6605SOL    HW120714   5.701   5.568   2.444
 6605SOL    HW220715   5.579   5.652   2.513
 6606SOL     OW20716   6.666   4.968   2.289
 6606SOL    HW120717   6.617   5.019   2.219
 6606SOL    HW220718   6.722   5.032   2.342
 6607SOL     OW20719   0.443   4.960   3.485
 6607SOL    HW120720   0.431   5.058   3.501
 6607SOL    HW220721   0.426   4.939   3.389
 6608SOL     OW20722   6.921   6.221   0.145
 6608SOL    HW120723   6.864   6.258   0.218
 6608SOL    HW220724   6.946   6.294   0.081
 6609SOL     OW20725   5.431   1.205   6.820
 6609SOL    HW120726   5.377   1.248   6.893
 6609SOL    HW220727   5.473   1.276   6.763
 6610SOL     OW20728   2.427   6.663   0.096
 6610SOL    HW120729   2.490   6.614   0.157
 6610SOL    HW220730   2.480   6.725   0.038
 6611SOL     OW20731   4.714   2.797   3.486
 6611SOL    HW120732   4.671   2.706   3.483
 6611SOL    HW220733   4.667   2.858   3.423
 6612SOL     OW20734   0.212   2.598   6.155
 6612SOL    HW120735   0.285   2.573   6.092
 6612SOL    HW220736   0.149   2.521   6.166
 6613SOL     OW20737   5.942   6.421   5.558
 6613SOL    HW120738   5.961   6.343   5.498
 6613SOL    HW220739   5.887   6.390   5.636
 6614SOL     OW20740   4.432   6.442   6.780
 6614SOL    HW120741   4.430   6.353   6.825
 6614SOL    HW220742   4.411   6.514   6.847
 6615SOL     OW20743   1.279   5.732   1.527
 6615SOL    HW120744   1.280   5.804   1.458
 6615SOL    HW220745   1.366   5.734   1.577
 6616SOL     OW20746   4.799   0.084   6.374
 6616SOL    HW120747   4.744   0.149   6.425
 6616SOL    HW220748   4.854   0.029   6.437
 6617SOL     OW20749   4.244   6.190   3.599
 6617SOL    HW120750   4.268   6.147   3.512
 6617SOL    HW220751   4.226   6.118   3.667
 6618SOL     OW20752   1.378   1.889   2.475
 6618SOL    HW120753   1.283   1.878   2.504
 6618SOL    HW220754   1.418   1.968   2.521
 6619SOL     OW20755   4.907   0.265   3.931
 6619SOL    HW120756   4.827   0.326   3.932
 6619SOL    HW220757   4.987   0.316   3.899
 6620SOL     OW20758   2.159   3.392   4.989
 6620SOL    HW120759   2.148   3.394   4.890
 6620SOL    HW220760   2.169   3.298   5.020
 6621SOL     OW20761   3.716   2.778   5.257
 6621SOL    HW120762   3.806   2.749   5.289
 6621SOL    HW220763   3.726   2.839   5.178
 6622SOL     OW20764   6.408   5.885   2.049
 6622SOL    HW120765   6.475   5.843   1.987
 6622SOL    HW220766   6.318   5.843   2.034
 6623SOL     OW20767   3.477   3.679   4.994
 6623SOL    HW120768   3.541   3.756   4.994
 6623SOL    HW220769   3.389   3.709   4.958
 6624SOL     OW20770   0.782   3.727   5.381
 6624SOL    HW120771   0.779   3.642   5.328
 6624SOL    HW220772   0.874   3.766   5.376
 6625SOL     OW20773   5.107   1.728   4.985
 6625SOL    HW120774   5.062   1.813   5.012
 6625SOL    HW220775   5.205   1.746   4.969
 6626SOL     OW20776   3.334   0.261   5.457
 6626SOL    HW120777   3.243   0.260   5.499
 6626SOL    HW220778   3.379   0.173   5.472
 6627SOL     OW20779   1.620   6.632   3.915
 6627SOL    HW120780   1.577   6.685   3.988
 6627SOL    HW220781   1.715   6.661   3.905
 6628SOL     OW20782   5.802   4.756   4.313
 6628SOL    HW120783   5.774   4.715   4.226
 6628SOL    HW220784   5.721   4.794   4.359
 6629SOL     OW20785   4.852   5.766   6.109
 6629SOL    HW120786   4.946   5.737   6.090
 6629SOL    HW220787   4.853   5.841   6.175
 6630SOL     OW20788   3.549   2.381   1.275
 6630SOL    HW120789   3.647   2.392   1.260
 6630SOL    HW220790   3.534   2.321   1.354
 6631SOL     OW20791   2.168   5.844   4.304
 6631SOL    HW120792   2.101   5.865   4.232
 6631SOL    HW220793   2.121   5.835   4.392
 6632SOL     OW20794   0.985   1.013   1.182
 6632SOL    HW120795   1.049   0.937   1.193
 6632SOL    HW220796   0.913   0.988   1.117
 6633SOL     OW20797   2.118   5.261   6.107
 6633SOL    HW120798   2.110   5.256   6.008
 6633SOL    HW220799   2.028   5.277   6.148
 6634SOL     OW20800   4.892   1.917   5.048
 6634SOL    HW120801   4.909   1.970   5.131
 6634SOL    HW220802   4.797   1.884   5.049
 6635SOL     OW20803   4.626   4.682   3.873
 6635SOL    HW120804   4.547   4.620   3.880
 6635SOL    HW220805   4.681   4.675   3.956
 6636SOL     OW20806   4.353   1.520   0.503
 6636SOL    HW120807   4.338   1.430   0.462
 6636SOL    HW220808   4.418   1.513   0.578
 6637SOL     OW20809   1.843   6.802   6.624
 6637SOL    HW120810   1.832   6.804   6.723
 6637SOL    HW220811   1.915   6.737   6.599
 6638SOL     OW20812   3.010   3.170   3.087
 6638SOL    HW120813   2.973   3.250   3.040
 6638SOL    HW220814   2.991   3.177   3.185
 6639SOL     OW20815   3.944   3.966   7.014
 6639SOL    HW120816   3.850   3.997   7.001
 6639SOL    HW220817   4.006   4.044   7.007
 6640SOL     OW20818   0.358   1.873   4.700
 6640SOL    HW120819   0.377   1.792   4.756
 6640SOL    HW220820   0.259   1.883   4.690
 6641SOL     OW20821   3.611   1.625   0.066
 6641SOL    HW120822   3.512   1.638   0.068
 6641SOL    HW220823   3.656   1.703   0.110
 6642SOL     OW20824   2.820   5.368   6.352
 6642SOL    HW120825   2.853   5.285   6.307
 6642SOL    HW220826   2.745   5.407   6.299
 6643SOL     OW20827   6.188   6.287   0.001
 6643SOL    HW120828   6.270   6.344   0.004
 6643SOL    HW220829   6.214   6.191   0.012
 6644SOL     OW20830   2.130   5.750   2.379
 6644SOL    HW120831   2.177   5.696   2.449
 6644SOL    HW220832   2.198   5.802   2.327
 6645SOL     OW20833   5.409   3.666   0.744
 6645SOL    HW120834   5.387   3.585   0.799
 6645SOL    HW220835   5.453   3.637   0.659
 6646SOL     OW20836   4.695   1.264   5.423
 6646SOL    HW120837   4.622   1.326   5.452
 6646SOL    HW220838   4.769   1.265   5.490
 6647SOL     OW20839   4.372   6.917   0.248
 6647SOL    HW120840   4.431   6.837   0.257
 6647SOL    HW220841   4.282   6.888   0.215
 6648SOL     OW20842   2.827   6.799   4.670
 6648SOL    HW120843   2.806   6.702   4.652
 6648SOL    HW220844   2.867   6.808   4.761
 6649SOL     OW20845   6.107   1.957   5.869
 6649SOL    HW120846   6.094   1.947   5.968
 6649SOL    HW220847   6.058   2.039   5.838
 6650SOL     OW20848   3.903   1.648   4.600
 6650SOL    HW120849   3.965   1.648   4.678
 6650SOL    HW220850   3.809   1.662   4.633
 6651SOL     OW20851   1.697   1.266   6.111
 6651SOL    HW120852   1.602   1.275   6.141
 6651SOL    HW220853   1.735   1.356   6.093
 6652SOL     OW20854   0.529   4.836   6.675
 6652SOL    HW120855   0.496   4.741   6.675
 6652SOL    HW220856   0.477   4.889   6.609
 6653SOL     OW20857   4.277   3.060   0.947
 6653SOL    HW120858   4.185   3.035   0.917
 6653SOL    HW220859   4.303   3.002   1.024
 6654SOL     OW20860   1.864   5.586   2.509
 6654SOL    HW120861   1.944   5.643   2.527
 6654SOL    HW220862   1.782   5.630   2.546
 6655SOL     OW20863   6.905   6.290   2.482
 6655SOL    HW120864   6.862   6.309   2.570
 6655SOL    HW220865   6.835   6.276   2.412
 6656SOL     OW20866   5.625   2.568   2.888
 6656SOL    HW120867   5.670   2.571   2.978
 6656SOL    HW220868   5.692   2.543   2.818
 6657SOL     OW20869   6.186   3.446   4.875
 6657SOL    HW120870   6.141   3.526   4.834
 6657SOL    HW220871   6.278   3.437   4.837
 6658SOL     OW20872   5.193   6.654   5.882
 6658SOL    HW120873   5.108   6.696   5.852
 6658SOL    HW220874   5.263   6.664   5.811
 6659SOL     OW20875   1.632   3.102   1.435
 6659SOL    HW120876   1.680   3.184   1.467
 6659SOL    HW220877   1.562   3.076   1.502
 6660SOL     OW20878   1.343   5.049   1.537
 6660SOL    HW120879   1.246   5.071   1.531
 6660SOL    HW220880   1.396   5.115   1.483
 6661SOL     OW20881   2.374   0.215   5.587
 6661SOL    HW120882   2.409   0.194   5.495
 6661SOL    HW220883   2.418   0.298   5.621
 6662SOL     OW20884   2.054   0.655   0.234
 6662SOL    HW120885   1.990   0.605   0.176
 6662SOL    HW220886   2.112   0.712   0.177
 6663SOL     OW20887   6.379   6.318   4.844
 6663SOL    HW120888   6.332   6.306   4.932
 6663SOL    HW220889   6.328   6.382   4.788
 6664SOL     OW20890   2.265   6.977   0.933
 6664SOL    HW120891   2.167   6.978   0.951
 6664SOL    HW220892   2.297   6.882   0.931
 6665SOL     OW20893   1.868   6.897   5.097
 6665SOL    HW120894   1.965   6.896   5.120
 6665SOL    HW220895   1.821   6.962   5.157
 6666SOL     OW20896   6.373   5.926   5.823
 6666SOL    HW120897   6.367   5.893   5.917
 6666SOL    HW220898   6.444   5.874   5.774
 6667SOL     OW20899   6.938   6.474   5.552
 6667SOL    HW120900   6.997   6.395   5.533
 6667SOL    HW220901   6.842   6.448   5.542
 6668SOL     OW20902   6.401   6.588   0.969
 6668SOL    HW120903   6.327   6.625   0.913
 6668SOL    HW220904   6.403   6.488   0.961
 6669SOL     OW20905   3.017   2.129   1.925
 6669SOL    HW120906   3.056   2.091   1.841
 6669SOL    HW220907   3.026   2.229   1.924
 6670SOL     OW20908   3.098   1.067   6.120
 6670SOL    HW120909   3.012   1.103   6.156
 6670SOL    HW220910   3.114   0.976   6.156
 6671SOL     OW20911   5.260   6.587   6.628
 6671SOL    HW120912   5.335   6.578   6.692
 6671SOL    HW220913   5.238   6.684   6.615
 6672SOL     OW20914   0.336   2.193   0.689
 6672SOL    HW120915   0.338   2.274   0.631
 6672SOL    HW220916   0.323   2.220   0.784
 6673SOL     OW20917   4.793   4.166   3.901
 6673SOL    HW120918   4.805   4.078   3.855
 6673SOL    HW220919   4.833   4.161   3.992
 6674SOL     OW20920   6.992   3.788   0.476
 6674SOL    HW120921   6.907   3.829   0.509
 6674SOL    HW220922   0.030   3.757   0.553
 6675SOL     OW20923   6.156   2.999   0.323
 6675SOL    HW120924   6.242   2.984   0.274
 6675SOL    HW220925   6.151   3.094   0.353
 6676SOL     OW20926   0.742   3.410   4.527
 6676SOL    HW120927   0.772   3.492   4.479
 6676SOL    HW220928   0.817   3.343   4.528
 6677SOL     OW20929   0.580   1.355   6.521
 6677SOL    HW120930   0.540   1.346   6.430
 6677SOL    HW220931   0.554   1.276   6.577
 6678SOL     OW20932   2.873   4.398   0.780
 6678SOL    HW120933   2.886   4.354   0.869
 6678SOL    HW220934   2.863   4.496   0.792
 6679SOL     OW20935   3.741   0.373   3.791
 6679SOL    HW120936   3.721   0.465   3.826
 6679SOL    HW220937   3.840   0.360   3.788
 6680SOL     OW20938   3.967   6.478   6.591
 6680SOL    HW120939   3.966   6.576   6.612
 6680SOL    HW220940   3.973   6.426   6.676
 6681SOL     OW20941   4.992   5.909   0.926
 6681SOL    HW120942   5.017   5.979   0.859
 6681SOL    HW220943   4.906   5.865   0.898
 6682SOL     OW20944   2.197   4.870   0.049
 6682SOL    HW120945   2.204   4.892   0.146
 6682SOL    HW220946   2.160   4.778   0.039
 6683SOL     OW20947   6.027   3.182   5.144
 6683SOL    HW120948   6.020   3.272   5.100
 6683SOL    HW220949   5.943   3.165   5.197
 6684SOL     OW20950   4.150   6.578   2.277
 6684SOL    HW120951   4.104   6.490   2.291
 6684SOL    HW220952   4.160   6.625   2.365
 6685SOL     OW20953   4.883   2.853   5.787
 6685SOL    HW120954   4.913   2.931   5.842
 6685SOL    HW220955   4.784   2.860   5.770
 6686SOL     OW20956   5.514   5.753   3.941
 6686SOL    HW120957   5.494   5.847   3.914
 6686SOL    HW220958   5.456   5.690   3.889
 6687SOL     OW20959   0.671   2.801   2.437
 6687SOL    HW120960   0.663   2.718   2.383
 6687SOL    HW220961   0.765   2.835   2.432
 6688SOL     OW20962   3.742   5.072   1.197
 6688SOL    HW120963   3.825   5.105   1.241
 6688SOL    HW220964   3.737   4.972   1.206
 6689SOL     OW20965   4.692   4.182   5.626
 6689SOL    HW120966   4.791   4.191   5.618
 6689SOL    HW220967   4.667   4.086   5.634
 6690SOL     OW20968   0.536   6.977   0.937
 6690SOL    HW120969   0.538   6.894   0.994
 6690SOL    HW220970   0.624   0.007   0.944
 6691SOL     OW20971   1.971   0.476   2.419
 6691SOL    HW120972   2.000   0.533   2.496
 6691SOL    HW220973   2.023   0.390   2.420
 6692SOL     OW20974   3.971   3.880   3.093
 6692SOL    HW120975   4.006   3.787   3.101
 6692SOL    HW220976   4.025   3.931   3.026
 6693SOL     OW20977   4.485   2.435   4.839
 6693SOL    HW120978   4.435   2.457   4.755
 6693SOL    HW220979   4.429   2.461   4.918
 6694SOL     OW20980   4.097   6.196   1.976
 6694SOL    HW120981   4.047   6.265   2.028
 6694SOL    HW220982   4.060   6.105   1.996
 6695SOL     OW20983   2.828   2.333   6.373
 6695SOL    HW120984   2.856   2.245   6.412
 6695SOL    HW220985   2.906   2.375   6.327
 6696SOL     OW20986   3.921   3.320   3.906
 6696SOL    HW120987   3.830   3.328   3.945
 6696SOL    HW220988   3.980   3.391   3.943
 6697SOL     OW20989   4.651   1.952   3.089
 6697SOL    HW120990   4.708   1.872   3.075
 6697SOL    HW220991   4.623   1.957   3.185
 6698SOL     OW20992   2.849   3.203   1.118
 6698SOL    HW120993   2.757   3.243   1.122
 6698SOL    HW220994   2.882   3.206   1.023
 6699SOL     OW20995   2.097   6.513   5.628
 6699SOL    HW120996   2.065   6.422   5.655
 6699SOL    HW220997   2.181   6.535   5.677
 6700SOL     OW20998   6.669   1.834   1.272
 6700SOL    HW120999   6.652   1.858   1.177
 6700SOL    HW221000   6.721   1.907   1.316
 6701SOL     OW21001   5.203   5.602   1.902
 6701SOL    HW121002   5.137   5.676   1.913
 6701SOL    HW221003   5.259   5.594   1.985
 6702SOL     OW21004   2.165   2.809   1.965
 6702SOL    HW121005   2.253   2.762   1.967
 6702SOL    HW221006   2.104   2.761   1.902
 6703SOL     OW21007   6.382   0.293   0.781
 6703SOL    HW121008   6.424   0.344   0.857
 6703SOL    HW221009   6.308   0.348   0.742
 6704SOL     OW21010   4.000   2.213   3.316
 6704SOL    HW121011   4.044   2.217   3.227
 6704SOL    HW221012   4.068   2.218   3.389
 6705SOL     OW21013   5.879   2.594   0.564
 6705SOL    HW121014   5.865   2.557   0.656
 6705SOL    HW221015   5.790   2.609   0.521
 6706SOL     OW21016   0.822   5.782   0.866
 6706SOL    HW121017   0.755   5.855   0.854
 6706SOL    HW221018   0.868   5.793   0.954
 6707SOL     OW21019   5.631   6.279   3.402
 6707SOL    HW121020   5.645   6.196   3.457
 6707SOL    HW221021   5.608   6.355   3.463
 6708SOL     OW21022   5.661   5.308   1.673
 6708SOL    HW121023   5.567   5.293   1.643
 6708SOL    HW221024   5.689   5.401   1.652
 6709SOL     OW21025   1.287   5.490   2.771
 6709SOL    HW121026   1.282   5.572   2.829
 6709SOL    HW221027   1.322   5.515   2.681
 6710SOL     OW21028   3.944   0.649   6.303
 6710SOL    HW121029   3.845   0.657   6.318
 6710SOL    HW221030   3.987   0.609   6.384
 6711SOL     OW21031   4.983   6.126   5.971
 6711SOL    HW121032   4.894   6.118   6.015
 6711SOL    HW221033   5.006   6.222   5.958
 6712SOL     OW21034   5.678   3.585   1.082
 6712SOL    HW121035   5.634   3.518   1.142
 6712SOL    HW221036   5.764   3.615   1.123
 6713SOL     OW21037   0.835   0.749   3.337
 6713SOL    HW121038   0.758   0.746   3.274
 6713SOL    HW221039   0.878   0.839   3.333
 6714SOL     OW21040   6.796   1.606   6.218
 6714SOL    HW121041   6.847   1.591   6.302
 6714SOL    HW221042   6.715   1.547   6.217
 6715SOL     OW21043   1.683   0.433   1.111
 6715SOL    HW121044   1.735   0.449   1.195
 6715SOL    HW221045   1.744   0.444   1.033
 6716SOL     OW21046   0.096   5.541   1.692
 6716SOL    HW121047   0.150   5.484   1.630
 6716SOL    HW221048   0.147   5.623   1.717
 6717SOL     OW21049   3.269   3.032   6.232
 6717SOL    HW121050   3.343   3.062   6.292
 6717SOL    HW221051   3.224   2.952   6.272
 6718SOL     OW21052   4.600   0.043   0.938
 6718SOL    HW121053   4.544   0.126   0.930
 6718SOL    HW221054   4.553   6.983   0.893
 6719SOL     OW21055   2.326   6.766   0.329
 6719SOL    HW121056   2.325   6.866   0.325
 6719SOL    HW221057   2.335   6.729   0.237
 6720SOL     OW21058   2.052   0.797   3.641
 6720SOL    HW121059   2.009   0.707   3.625
 6720SOL    HW221060   2.024   0.859   3.568
 6721SOL     OW21061   7.006   6.500   0.792
 6721SOL    HW121062   0.036   6.420   0.753
 6721SOL    HW221063   6.998   6.571   0.722
 6722SOL     OW21064   6.763   2.250   0.514
 6722SOL    HW121065   6.741   2.216   0.423
 6722SOL    HW221066   6.727   2.188   0.583
 6723SOL     OW21067   1.381   6.950   5.089
 6723SOL    HW121068   1.401   6.904   5.003
 6723SOL    HW221069   1.460   7.006   5.116
 6724SOL     OW21070   2.240   3.058   6.192
 6724SOL    HW121071   2.216   2.981   6.133
 6724SOL    HW221072   2.336   3.051   6.217
 6725SOL     OW21073   6.825   2.469   1.842
 6725SOL    HW121074   6.855   2.489   1.749
 6725SOL    HW221075   6.729   2.493   1.853
 6726SOL     OW21076   0.356   2.860   3.802
 6726SOL    HW121077   0.345   2.868   3.901
 6726SOL    HW221078   0.285   2.800   3.765
 6727SOL     OW21079   0.087   4.873   5.728
 6727SOL    HW121080   0.176   4.895   5.768
 6727SOL    HW221081   0.023   4.848   5.800
 6728SOL     OW21082   3.858   2.027   3.050
 6728SOL    HW121083   3.911   2.009   2.967
 6728SOL    HW221084   3.921   2.042   3.126
 6729SOL     OW21085   0.299   1.501   0.453
 6729SOL    HW121086   0.392   1.469   0.436
 6729SOL    HW221087   0.242   1.482   0.373
 6730SOL     OW21088   2.164   6.633   1.049
 6730SOL    HW121089   2.212   6.569   1.109
 6730SOL    HW221090   2.129   6.710   1.103
 6731SOL     OW21091   1.455   6.839   0.874
 6731SOL    HW121092   1.438   6.818   0.970
 6731SOL    HW221093   1.552   6.859   0.861
 6732SOL     OW21094   6.073   4.061   4.749
 6732SOL    HW121095   6.077   4.160   4.734
 6732SOL    HW221096   6.046   4.016   4.664
 6733SOL     OW21097   3.910   5.436   6.387
 6733SOL    HW121098   3.961   5.521   6.374
 6733SOL    HW221099   3.886   5.397   6.298
 6734SOL     OW21100   6.023   2.602   5.447
 6734SOL    HW121101   6.099   2.544   5.418
 6734SOL    HW221102   5.977   2.638   5.365
 6735SOL     OW21103   6.063   3.655   4.776
 6735SOL    HW121104   5.971   3.665   4.739
 6735SOL    HW221105   6.131   3.675   4.705
 6736SOL     OW21106   2.815   3.407   6.555
 6736SOL    HW121107   2.800   3.506   6.557
 6736SOL    HW221108   2.839   3.375   6.647
 6737SOL     OW21109   1.677   3.297   0.914
 6737SOL    HW121110   1.596   3.311   0.970
 6737SOL    HW221111   1.735   3.227   0.956
 6738SOL     OW21112   1.856   5.934   3.879
 6738SOL    HW121113   1.815   5.844   3.894
 6738SOL    HW221114   1.784   6.001   3.860
 6739SOL     OW21115   5.703   6.345   3.998
 6739SOL    HW121116   5.698   6.429   3.944
 6739SOL    HW221117   5.628   6.285   3.973
 6740SOL     OW21118   6.828   0.065   5.694
 6740SOL    HW121119   6.920   0.038   5.666
 6740SOL    HW221120   6.761   0.028   5.630
 6741SOL     OW21121   3.594   3.025   5.381
 6741SOL    HW121122   3.530   3.055   5.309
 6741SOL    HW221123   3.624   2.932   5.361
 6742SOL     OW21124   6.101   5.684   3.081
 6742SOL    HW121125   6.124   5.729   3.167
 6742SOL    HW221126   6.011   5.714   3.050
 6743SOL     OW21127   3.850   4.639   6.062
 6743SOL    HW121128   3.909   4.718   6.046
 6743SOL    HW221129   3.761   4.670   6.095
 6744SOL     OW21130   6.899   5.657   5.737
 6744SOL    HW121131   6.902   5.596   5.816
 6744SOL    HW221132   6.889   5.604   5.653
 6745SOL     OW21133   6.911   6.540   3.445
 6745SOL    HW121134   7.003   6.540   3.406
 6745SOL    HW221135   6.903   6.468   3.514
 6746SOL     OW21136   0.474   0.273   3.844
 6746SOL    HW121137   0.422   0.290   3.761
 6746SOL    HW221138   0.534   0.194   3.830
 6747SOL     OW21139   6.006   1.126   6.385
 6747SOL    HW121140   5.953   1.117   6.301
 6747SOL    HW221141   6.098   1.090   6.371
 6748SOL     OW21142   4.038   1.462   2.597
 6748SOL    HW121143   4.020   1.505   2.685
 6748SOL    HW221144   3.974   1.498   2.529
 6749SOL     OW21145   3.634   4.299   0.849
 6749SOL    HW121146   3.538   4.319   0.834
 6749SOL    HW221147   3.658   4.315   0.944
 6750SOL     OW21148   3.537   2.090   4.025
 6750SOL    HW121149   3.555   2.009   3.969
 6750SOL    HW221150   3.537   2.172   3.966
 6751SOL     OW21151   5.020   0.205   3.316
 6751SOL    HW121152   5.075   0.158   3.385
 6751SOL    HW221153   5.044   0.302   3.315
 6752SOL     OW21154   2.300   6.818   2.821
 6752SOL    HW121155   2.328   6.747   2.885
 6752SOL    HW221156   2.268   6.898   2.871
 6753SOL     OW21157   2.905   1.533   6.197
 6753SOL    HW121158   2.894   1.603   6.127
 6753SOL    HW221159   2.997   1.494   6.191
 6754SOL     OW21160   6.838   0.974   0.592
 6754SOL    HW121161   6.873   1.030   0.517
 6754SOL    HW221162   6.744   0.948   0.573
 6755SOL     OW21163   4.068   2.494   1.624
 6755SOL    HW121164   4.079   2.451   1.534
 6755SOL    HW221165   4.073   2.425   1.695
 6756SOL     OW21166   3.671   6.683   4.874
 6756SOL    HW121167   3.659   6.584   4.862
 6756SOL    HW221168   3.747   6.714   4.816
 6757SOL     OW21169   2.953   2.032   0.112
 6757SOL    HW121170   2.973   2.082   0.196
 6757SOL    HW221171   3.032   1.977   0.086
 6758SOL     OW21172   6.003   2.272   1.869
 6758SOL    HW121173   6.070   2.344   1.884
 6758SOL    HW221174   6.029   2.218   1.789
 6759SOL     OW21175   0.598   3.891   2.874
 6759SOL    HW121176   0.566   3.900   2.968
 6759SOL    HW221177   0.599   3.795   2.847
 6760SOL     OW21178   0.004   3.278   2.095
 6760SOL    HW121179   6.928   3.309   2.114
 6760SOL    HW221180   0.014   3.183   2.125
 6761SOL     OW21181   6.336   2.546   4.987
 6761SOL    HW121182   6.309   2.619   4.925
 6761SOL    HW221183   6.384   2.475   4.935
 6762SOL     OW21184   0.891   3.985   4.520
 6762SOL    HW121185   0.796   3.966   4.494
 6762SOL    HW221186   0.904   3.963   4.616
 6763SOL     OW21187   6.427   5.719   3.734
 6763SOL    HW121188   6.455   5.665   3.814
 6763SOL    HW221189   6.476   5.688   3.654
 6764SOL     OW21190   2.081   5.715   1.463
 6764SOL    HW121191   2.116   5.681   1.550
 6764SOL    HW221192   2.154   5.766   1.416
 6765SOL     OW21193   5.885   5.005   4.136
 6765SOL    HW121194   5.816   5.013   4.064
 6765SOL    HW221195   5.876   4.916   4.181
 6766SOL     OW21196   5.022   6.099   5.686
 6766SOL    HW121197   5.002   6.110   5.783
 6766SOL    HW221198   5.120   6.083   5.673
 6767SOL     OW21199   2.485   0.962   1.435
 6767SOL    HW121200   2.481   1.016   1.520
 6767SOL    HW221201   2.572   0.915   1.429
 6768SOL     OW21202   1.807   0.349   5.298
 6768SOL    HW121203   1.718   0.304   5.297
 6768SOL    HW221204   1.810   0.417   5.371
 6769SOL     OW21205   3.174   0.779   6.543
 6769SOL    HW121206   3.171   0.878   6.556
 6769SOL    HW221207   3.132   0.734   6.622
 6770SOL     OW21208   0.135   1.055   1.963
 6770SOL    HW121209   0.178   0.994   1.895
 6770SOL    HW221210   0.048   1.089   1.926
 6771SOL     OW21211   5.012   2.053   3.330
 6771SOL    HW121212   5.045   1.962   3.354
 6771SOL    HW221213   4.991   2.104   3.414
 6772SOL     OW21214   4.047   2.133   2.593
 6772SOL    HW121215   3.957   2.147   2.551
 6772SOL    HW221216   4.101   2.070   2.537
 6773SOL     OW21217   6.238   5.059   2.607
 6773SOL    HW121218   6.267   5.020   2.519
 6773SOL    HW221219   6.254   5.158   2.606
 6774SOL     OW21220   1.181   3.232   5.395
 6774SOL    HW121221   1.256   3.287   5.356
 6774SOL    HW221222   1.120   3.202   5.322
 6775SOL     OW21223   2.490   2.538   1.717
 6775SOL    HW121224   2.444   2.450   1.720
 6775SOL    HW221225   2.575   2.533   1.769
 6776SOL     OW21226   4.914   4.282   0.149
 6776SOL    HW121227   4.902   4.364   0.205
 6776SOL    HW221228   4.874   4.297   0.059
 6777SOL     OW21229   4.369   4.564   0.592
 6777SOL    HW121230   4.321   4.498   0.649
 6777SOL    HW221231   4.458   4.527   0.566
 6778SOL     OW21232   6.413   5.559   1.880
 6778SOL    HW121233   6.427   5.467   1.916
 6778SOL    HW221234   6.328   5.597   1.917
 6779SOL     OW21235   5.768   5.317   6.718
 6779SOL    HW121236   5.689   5.370   6.685
 6779SOL    HW221237   5.759   5.301   6.816
 6780SOL     OW21238   1.055   2.573   2.262
 6780SOL    HW121239   1.065   2.552   2.164
 6780SOL    HW221240   1.068   2.671   2.276
 6781SOL     OW21241   6.612   1.650   3.877
 6781SOL    HW121242   6.663   1.605   3.804
 6781SOL    HW221243   6.651   1.741   3.893
 6782SOL     OW21244   6.940   0.892   2.958
 6782SOL    HW121245   6.863   0.956   2.962
 6782SOL    HW221246   7.001   0.907   3.036
 6783SOL     OW21247   6.050   1.943   5.503
 6783SOL    HW121248   6.088   1.855   5.532
 6783SOL    HW221249   6.114   1.988   5.441
 6784SOL     OW21250   2.101   3.201   0.224
 6784SOL    HW121251   2.200   3.192   0.230
 6784SOL    HW221252   2.063   3.212   0.316
 6785SOL     OW21253   6.183   5.351   3.913
 6785SOL    HW121254   6.274   5.311   3.900
 6785SOL    HW221255   6.175   5.385   4.007
 6786SOL     OW21256   1.852   2.590   0.149
 6786SOL    HW121257   1.798   2.644   0.085
 6786SOL    HW221258   1.816   2.603   0.242
 6787SOL     OW21259   2.289   2.631   0.713
 6787SOL    HW121260   2.268   2.534   0.716
 6787SOL    HW221261   2.283   2.669   0.805
 6788SOL     OW21262   1.388   3.902   1.254
 6788SOL    HW121263   1.301   3.945   1.276
 6788SOL    HW221264   1.443   3.892   1.337
 6789SOL     OW21265   0.395   5.328   2.926
 6789SOL    HW121266   0.441   5.249   2.967
 6789SOL    HW221267   0.299   5.305   2.908
 6790SOL     OW21268   0.317   3.598   0.741
 6790SOL    HW121269   0.333   3.503   0.715
 6790SOL    HW221270   0.330   3.609   0.839
 6791SOL     OW21271   4.078   2.285   1.779
 6791SOL    HW121272   4.113   2.191   1.775
 6791SOL    HW221273   3.981   2.283   1.801
 6792SOL     OW21274   6.490   6.149   5.091
 6792SOL    HW121275   6.547   6.078   5.050
 6792SOL    HW221276   6.467   6.123   5.185
 6793SOL     OW21277   1.891   1.919   0.743
 6793SOL    HW121278   1.898   1.820   0.759
 6793SOL    HW221279   1.922   1.968   0.824
 6794SOL     OW21280   4.591   1.229   6.190
 6794SOL    HW121281   4.500   1.255   6.158
 6794SOL    HW221282   4.582   1.159   6.261
 6795SOL     OW21283   2.466   6.629   1.240
 6795SOL    HW121284   2.560   6.596   1.235
 6795SOL    HW221285   2.464   6.716   1.289
 6796SOL     OW21286   6.911   6.868   2.356
 6796SOL    HW121287   6.907   6.887   2.454
 6796SOL    HW221288   6.859   6.938   2.307
 6797SOL     OW21289   6.477   2.320   1.469
 6797SOL    HW121290   6.441   2.273   1.389
 6797SOL    HW221291   6.524   2.403   1.441
 6798SOL     OW21292   5.004   0.278   2.284
 6798SOL    HW121293   4.983   0.295   2.187
 6798SOL    HW221294   5.030   0.364   2.327
 6799SOL     OW21295   6.715   6.475   1.792
 6799SOL    HW121296   6.796   6.503   1.844
 6799SOL    HW221297   6.654   6.554   1.780
 6800SOL     OW21298   2.180   3.736   1.795
 6800SOL    HW121299   2.210   3.667   1.862
 6800SOL    HW221300   2.239   3.817   1.802
 6801SOL     OW21301   1.178   6.674   3.175
 6801SOL    HW121302   1.127   6.737   3.117
 6801SOL    HW221303   1.264   6.717   3.203
 6802SOL     OW21304   3.104   5.938   1.263
 6802SOL    HW121305   3.011   5.935   1.301
 6802SOL    HW221306   3.099   5.956   1.165
 6803SOL     OW21307   4.620   2.916   5.678
 6803SOL    HW121308   4.609   2.827   5.723
 6803SOL    HW221309   4.557   2.982   5.719
 6804SOL     OW21310   3.378   5.378   3.763
 6804SOL    HW121311   3.385   5.324   3.680
 6804SOL    HW221312   3.455   5.441   3.769
 6805SOL     OW21313   6.904   4.655   6.371
 6805SOL    HW121314   6.908   4.574   6.313
 6805SOL    HW221315   6.995   4.676   6.406
 6806SOL     OW21316   5.711   0.709   3.484
 6806SOL    HW121317   5.622   0.718   3.439
 6806SOL    HW221318   5.760   0.631   3.446
 6807SOL     OW21319   3.196   3.295   0.699
 6807SOL    HW121320   3.243   3.306   0.612
 6807SOL    HW221321   3.263   3.280   0.772
 6808SOL     OW21322   6.661   2.253   5.094
 6808SOL    HW121323   6.726   2.283   5.025
 6808SOL    HW221324   6.651   2.324   5.164
 6809SOL     OW21325   0.811   2.872   1.448
 6809SOL    HW121326   0.805   2.794   1.511
 6809SOL    HW221327   0.873   2.941   1.486
 6810SOL     OW21328   1.469   0.936   2.581
 6810SOL    HW121329   1.418   1.015   2.547
 6810SOL    HW221330   1.408   0.879   2.636
 6811SOL     OW21331   6.064   4.007   1.215
 6811SOL    HW121332   5.990   3.998   1.282
 6811SOL    HW221333   6.027   4.035   1.127
 6812SOL     OW21334   2.901   3.554   3.845
 6812SOL    HW121335   2.999   3.574   3.841
 6812SOL    HW221336   2.881   3.503   3.929
 6813SOL     OW21337   5.162   2.574   2.425
 6813SOL    HW121338   5.258   2.601   2.434
 6813SOL    HW221339   5.106   2.655   2.409
 6814SOL     OW21340   3.448   1.844   6.288
 6814SOL    HW121341   3.474   1.927   6.239
 6814SOL    HW221342   3.357   1.815   6.258
 6815SOL     OW21343   3.338   6.849   1.330
 6815SOL    HW121344   3.333   6.754   1.360
 6815SOL    HW221345   3.381   6.905   1.402
 6816SOL     OW21346   6.555   0.070   6.583
 6816SOL    HW121347   6.541   7.014   6.516
 6816SOL    HW221348   6.625   0.133   6.550
 6817SOL     OW21349   2.141   2.489   2.935
 6817SOL    HW121350   2.117   2.392   2.938
 6817SOL    HW221351   2.195   2.508   2.853
 6818SOL     OW21352   2.728   6.323   2.203
 6818SOL    HW121353   2.634   6.319   2.169
 6818SOL    HW221354   2.731   6.286   2.296
 6819SOL     OW21355   5.376   1.701   3.634
 6819SOL    HW121356   5.430   1.640   3.691
 6819SOL    HW221357   5.350   1.654   3.550
 6820SOL     OW21358   2.360   5.448   2.163
 6820SOL    HW121359   2.445   5.400   2.184
 6820SOL    HW221360   2.282   5.393   2.192
 6821SOL     OW21361   3.685   1.966   4.909
 6821SOL    HW121362   3.740   1.949   4.991
 6821SOL    HW221363   3.606   2.022   4.932
 6822SOL     OW21364   5.424   2.551   6.210
 6822SOL    HW121365   5.431   2.571   6.113
 6822SOL    HW221366   5.421   2.452   6.224
 6823SOL     OW21367   4.390   3.216   5.434
 6823SOL    HW121368   4.402   3.225   5.533
 6823SOL    HW221369   4.350   3.300   5.398
 6824SOL     OW21370   0.860   2.167   6.292
 6824SOL    HW121371   0.778   2.216   6.263
 6824SOL    HW221372   0.852   2.141   6.388
 6825SOL     OW21373   5.132   6.355   1.530
 6825SOL    HW121374   5.038   6.366   1.497
 6825SOL    HW221375   5.157   6.434   1.587
 6826SOL     OW21376   1.705   3.531   3.026
 6826SOL    HW121377   1.701   3.433   3.007
 6826SOL    HW221378   1.621   3.560   3.073
 6827SOL     OW21379   4.421   5.568   5.700
 6827SOL    HW121380   4.460   5.477   5.717
 6827SOL    HW221381   4.349   5.587   5.767
 6828SOL     OW21382   3.108   1.887   1.711
 6828SOL    HW121383   3.194   1.898   1.762
 6828SOL    HW221384   3.093   1.790   1.692
 6829SOL     OW21385   4.290   6.695   4.552
 6829SOL    HW121386   4.302   6.613   4.497
 6829SOL    HW221387   4.361   6.762   4.529
 6830SOL     OW21388   5.175   1.316   3.517
 6830SOL    HW121389   5.152   1.224   3.484
 6830SOL    HW221390   5.102   1.348   3.578
 6831SOL     OW21391   1.430   0.583   6.680
 6831SOL    HW121392   1.418   0.506   6.617
 6831SOL    HW221393   1.451   0.666   6.628
 6832SOL     OW21394   2.882   4.277   1.029
 6832SOL    HW121395   2.877   4.198   0.968
 6832SOL    HW221396   2.950   4.260   1.101
 6833SOL     OW21397   3.127   4.561   6.414
 6833SOL    HW121398   3.188   4.484   6.393
 6833SOL    HW221399   3.070   4.580   6.334
 6834SOL     OW21400   4.792   6.445   1.012
 6834SOL    HW121401   4.885   6.473   0.990
 6834SOL    HW221402   4.743   6.520   1.056
 6835SOL     OW21403   3.967   0.345   4.489
 6835SOL    HW121404   3.961   0.438   4.526
 6835SOL    HW221405   4.061   0.328   4.458
 6836SOL     OW21406   2.474   5.320   0.562
 6836SOL    HW121407   2.553   5.323   0.624
 6836SOL    HW221408   2.490   5.252   0.491
 6837SOL     OW21409   0.294   1.846   2.163
 6837SOL    HW121410   0.376   1.892   2.126
 6837SOL    HW221411   0.322   1.765   2.214
 6838SOL     OW21412   3.466   6.436   0.410
 6838SOL    HW121413   3.533   6.364   0.432
 6838SOL    HW221414   3.402   6.444   0.486
 6839SOL     OW21415   5.399   0.946   6.681
 6839SOL    HW121416   5.414   1.011   6.755
 6839SOL    HW221417   5.312   0.899   6.695
 6840SOL     OW21418   3.665   0.850   4.577
 6840SOL    HW121419   3.582   0.902   4.560
 6840SOL    HW221420   3.656   0.759   4.537
 6841SOL     OW21421   4.093   4.351   6.853
 6841SOL    HW121422   4.029   4.367   6.928
 6841SOL    HW221423   4.132   4.438   6.823
 6842SOL     OW21424   2.239   4.462   1.045
 6842SOL    HW121425   2.310   4.392   1.048
 6842SOL    HW221426   2.247   4.514   0.960
 6843SOL     OW21427   5.862   6.547   1.226
 6843SOL    HW121428   5.879   6.630   1.279
 6843SOL    HW221429   5.913   6.550   1.141
 6844SOL     OW21430   5.375   0.656   4.052
 6844SOL    HW121431   5.287   0.650   4.005
 6844SOL    HW221432   5.399   0.566   4.089
 6845SOL     OW21433   6.673   3.496   2.792
 6845SOL    HW121434   6.604   3.551   2.744
 6845SOL    HW221435   6.637   3.466   2.880
 6846SOL     OW21436   3.647   2.934   6.882
 6846SOL    HW121437   3.725   2.989   6.852
 6846SOL    HW221438   3.680   2.858   6.937
 6847SOL     OW21439   0.033   3.037   4.315
 6847SOL    HW121440   0.124   3.018   4.279
 6847SOL    HW221441   0.041   3.088   4.401
 6848SOL     OW21442   4.844   5.023   3.899
 6848SOL    HW121443   4.788   5.001   3.819
 6848SOL    HW221444   4.919   5.084   3.871
 6849SOL     OW21445   4.624   4.856   5.442
 6849SOL    HW121446   4.544   4.900   5.484
 6849SOL    HW221447   4.705   4.874   5.497
 6850SOL     OW21448   5.418   3.306   2.805
 6850SOL    HW121449   5.369   3.222   2.780
 6850SOL    HW221450   5.495   3.283   2.864
 6851SOL     OW21451   0.060   1.234   3.263
 6851SOL    HW121452   0.098   1.144   3.284
 6851SOL    HW221453   0.064   1.251   3.165
 6852SOL     OW21454   2.597   4.392   1.327
 6852SOL    HW121455   2.602   4.343   1.414
 6852SOL    HW221456   2.634   4.484   1.338
 6853SOL     OW21457   5.725   4.657   7.004
 6853SOL    HW121458   5.691   4.582   0.044
 6853SOL    HW221459   5.755   4.622   6.916
 6854SOL     OW21460   5.204   0.984   5.593
 6854SOL    HW121461   5.210   1.076   5.631
 6854SOL    HW221462   5.114   0.971   5.551
 6855SOL     OW21463   4.300   6.554   4.298
 6855SOL    HW121464   4.308   6.456   4.281
 6855SOL    HW221465   4.228   6.592   4.240
 6856SOL     OW21466   6.693   2.673   5.099
 6856SOL    HW121467   6.784   2.711   5.111
 6856SOL    HW221468   6.664   2.686   5.004
 6857SOL     OW21469   2.125   2.112   6.573
 6857SOL    HW121470   2.204   2.172   6.558
 6857SOL    HW221471   2.151   2.036   6.632
 6858SOL     OW21472   4.049   3.415   2.232
 6858SOL    HW121473   4.033   3.353   2.308
 6858SOL    HW221474   4.059   3.362   2.147
 6859SOL     OW21475   1.136   1.402   0.903
 6859SOL    HW121476   1.102   1.495   0.917
 6859SOL    HW221477   1.084   1.339   0.961
 6860SOL     OW21478   6.984   5.248   1.409
 6860SOL    HW121479   0.015   5.269   1.323
 6860SOL    HW221480   6.920   5.173   1.394
 6861SOL     OW21481   3.925   4.550   0.096
 6861SOL    HW121482   3.896   4.613   0.024
 6861SOL    HW221483   3.855   4.480   0.109
 6862SOL     OW21484   1.064   5.404   5.948
 6862SOL    HW121485   1.147   5.361   5.982
 6862SOL    HW221486   1.031   5.471   6.014
 6863SOL     OW21487   5.635   6.806   5.940
 6863SOL    HW121488   5.609   6.840   5.849
 6863SOL    HW221489   5.560   6.822   6.004
 6864SOL     OW21490   2.096   4.682   4.543
 6864SOL    HW121491   2.118   4.588   4.570
 6864SOL    HW221492   2.003   4.684   4.504
 6865SOL     OW21493   0.960   6.064   4.769
 6865SOL    HW121494   0.882   6.118   4.737
 6865SOL    HW221495   0.993   6.102   4.855
 6866SOL     OW21496   5.648   5.561   3.120
 6866SOL    HW121497   5.699   5.631   3.170
 6866SOL    HW221498   5.573   5.527   3.177
 6867SOL     OW21499   2.187   3.978   2.160
 6867SOL    HW121500   2.224   3.889   2.184
 6867SOL    HW221501   2.093   3.968   2.128
 6868SOL     OW21502   1.722   6.139   6.472
 6868SOL    HW121503   1.662   6.114   6.547
 6868SOL    HW221504   1.684   6.217   6.423
 6869SOL     OW21505   4.814   1.170   6.449
 6869SOL    HW121506   4.903   1.170   6.495
 6869SOL    HW221507   4.816   1.235   6.373
 6870SOL     OW21508   6.879   4.111   1.269
 6870SOL    HW121509   6.904   4.133   1.174
 6870SOL    HW221510   6.834   4.190   1.310
 6871SOL     OW21511   6.530   4.278   3.342
 6871SOL    HW121512   6.610   4.221   3.327
 6871SOL    HW221513   6.500   4.318   3.254
 6872SOL     OW21514   0.724   2.297   1.235
 6872SOL    HW121515   0.731   2.225   1.166
 6872SOL    HW221516   0.816   2.328   1.260
 6873SOL     OW21517   6.675   3.530   3.983
 6873SOL    HW121518   6.659   3.519   3.885
 6873SOL    HW221519   6.593   3.501   4.033
 6874SOL     OW21520   0.002   5.531   2.910
 6874SOL    HW121521   0.043   5.605   2.856
 6874SOL    HW221522   0.047   5.445   2.887
 6875SOL     OW21523   2.229   3.013   2.468
 6875SOL    HW121524   2.239   2.983   2.563
 6875SOL    HW221525   2.243   2.936   2.407
 6876SOL     OW21526   4.040   0.347   4.120
 6876SOL    HW121527   3.960   0.405   4.104
 6876SOL    HW221528   4.009   0.256   4.147
 6877SOL     OW21529   2.883   4.050   0.888
 6877SOL    HW121530   2.799   3.997   0.887
 6877SOL    HW221531   2.928   4.043   0.798
 6878SOL     OW21532   4.120   1.211   4.057
 6878SOL    HW121533   4.085   1.125   4.019
 6878SOL    HW221534   4.046   1.260   4.103
 6879SOL     OW21535   1.420   2.788   1.008
 6879SOL    HW121536   1.371   2.756   0.928
 6879SOL    HW221537   1.497   2.845   0.980
 6880SOL     OW21538   2.005   5.535   5.850
 6880SOL    HW121539   2.097   5.564   5.879
 6880SOL    HW221540   1.975   5.592   5.773
 6881SOL     OW21541   2.102   3.667   1.147
 6881SOL    HW121542   2.148   3.710   1.225
 6881SOL    HW221543   2.050   3.736   1.096
 6882SOL     OW21544   3.135   0.610   0.108
 6882SOL    HW121545   3.099   0.537   0.050
 6882SOL    HW221546   3.139   0.579   0.203
 6883SOL     OW21547   5.011   1.763   6.930
 6883SOL    HW121548   5.030   1.787   0.009
 6883SOL    HW221549   4.972   1.842   6.883
 6884SOL     OW21550   0.891   4.384   3.618
 6884SOL    HW121551   0.906   4.383   3.519
 6884SOL    HW221552   0.954   4.448   3.661
 6885SOL     OW21553   4.454   5.000   4.040
 6885SOL    HW121554   4.476   4.969   3.947
 6885SOL    HW221555   4.538   5.018   4.090
 6886SOL     OW21556   6.626   1.355   4.089
 6886SOL    HW121557   6.546   1.306   4.123
 6886SOL    HW221558   6.638   1.439   4.141
 6887SOL     OW21559   5.033   5.315   6.057
 6887SOL    HW121560   4.982   5.306   5.972
 6887SOL    HW221561   5.122   5.271   6.048
 6888SOL     OW21562   5.573   5.644   6.439
 6888SOL    HW121563   5.514   5.719   6.408
 6888SOL    HW221564   5.619   5.603   6.361
 6889SOL     OW21565   1.074   3.186   6.125
 6889SOL    HW121566   1.045   3.102   6.078
 6889SOL    HW221567   1.157   3.221   6.082
 6890SOL     OW21568   3.745   6.314   2.097
 6890SOL    HW121569   3.686   6.393   2.115
 6890SOL    HW221570   3.804   6.333   2.019
 6891SOL     OW21571   2.031   3.897   2.642
 6891SOL    HW121572   1.952   3.841   2.666
 6891SOL    HW221573   2.083   3.917   2.725
 6892SOL     OW21574   3.293   2.006   3.745
 6892SOL    HW121575   3.326   2.032   3.654
 6892SOL    HW221576   3.255   1.914   3.742
 6893SOL     OW21577   4.376   3.938   6.730
 6893SOL    HW121578   4.395   4.022   6.678
 6893SOL    HW221579   4.403   3.952   6.826
 6894SOL     OW21580   5.682   4.626   0.485
 6894SOL    HW121581   5.618   4.600   0.413
 6894SOL    HW221582   5.750   4.554   0.497
 6895SOL     OW21583   2.273   4.575   0.790
 6895SOL    HW121584   2.193   4.634   0.800
 6895SOL    HW221585   2.245   4.488   0.749
 6896SOL     OW21586   3.052   1.437   3.831
 6896SOL    HW121587   3.000   1.381   3.766
 6896SOL    HW221588   3.124   1.486   3.783
 6897SOL     OW21589   4.930   3.853   4.992
 6897SOL    HW121590   4.874   3.773   4.970
 6897SOL    HW221591   4.870   3.930   5.015
 6898SOL     OW21592   4.015   1.646   1.339
 6898SOL    HW121593   3.946   1.694   1.393
 6898SOL    HW221594   4.083   1.712   1.307
 6899SOL     OW21595   4.593   6.230   1.871
 6899SOL    HW121596   4.653   6.242   1.791
 6899SOL    HW221597   4.639   6.266   1.952
 6900SOL     OW21598   6.013   5.730   5.092
 6900SOL    HW121599   5.967   5.809   5.051
 6900SOL    HW221600   6.073   5.761   5.165
 6901SOL     OW21601   6.159   6.009   6.608
 6901SOL    HW121602   6.105   5.927   6.628
 6901SOL    HW221603   6.210   5.996   6.523
 6902SOL     OW21604   6.643   5.648   0.392
 6902SOL    HW121605   6.712   5.583   0.423
 6902SOL    HW221606   6.685   5.738   0.380
 6903SOL     OW21607   3.184   5.290   5.448
 6903SOL    HW121608   3.204   5.193   5.438
 6903SOL    HW221609   3.131   5.322   5.369
 6904SOL     OW21610   6.218   0.293   5.395
 6904SOL    HW121611   6.119   0.297   5.403
 6904SOL    HW221612   6.260   0.344   5.470
 6905SOL     OW21613   5.507   6.158   0.345
 6905SOL    HW121614   5.539   6.070   0.309
 6905SOL    HW221615   5.486   6.220   0.270
 6906SOL     OW21616   3.691   1.427   4.178
 6906SOL    HW121617   3.789   1.410   4.170
 6906SOL    HW221618   3.668   1.515   4.135
 6907SOL     OW21619   5.571   2.248   1.504
 6907SOL    HW121620   5.526   2.205   1.582
 6907SOL    HW221621   5.665   2.272   1.529
 6908SOL     OW21622   1.397   5.409   6.819
 6908SOL    HW121623   1.344   5.330   6.852
 6908SOL    HW221624   1.338   5.490   6.818
 6909SOL     OW21625   4.858   4.120   1.296
 6909SOL    HW121626   4.946   4.165   1.307
 6909SOL    HW221627   4.813   4.111   1.385
 6910SOL     OW21628   1.284   3.020   3.795
 6910SOL    HW121629   1.215   2.965   3.749
 6910SOL    HW221630   1.247   3.111   3.814
 6911SOL     OW21631   4.313   6.847   4.175
 6911SOL    HW121632   4.379   6.861   4.101
 6911SOL    HW221633   4.241   6.784   4.146
 6912SOL     OW21634   2.721   3.780   6.413
 6912SOL    HW121635   2.807   3.825   6.391
 6912SOL    HW221636   2.676   3.751   6.329
 6913SOL     OW21637   5.593   6.082   4.041
 6913SOL    HW121638   5.612   6.023   3.963
 6913SOL    HW221639   5.633   6.044   4.124
 6914SOL     OW21640   5.961   4.458   3.651
 6914SOL    HW121641   5.898   4.492   3.721
 6914SOL    HW221642   5.962   4.358   3.653
 6915SOL     OW21643   6.167   2.680   1.640
 6915SOL    HW121644   6.179   2.650   1.545
 6915SOL    HW221645   6.214   2.767   1.654
 6916SOL     OW21646   5.352   1.849   6.709
 6916SOL    HW121647   5.329   1.943   6.735
 6916SOL    HW221648   5.268   1.798   6.693
 6917SOL     OW21649   3.491   6.556   1.336
 6917SOL    HW121650   3.419   6.500   1.376
 6917SOL    HW221651   3.495   6.540   1.237
 6918SOL     OW21652   0.728   2.308   4.024
 6918SOL    HW121653   0.693   2.402   4.023
 6918SOL    HW221654   0.823   2.308   4.057
 6919SOL     OW21655   5.602   6.090   4.554
 6919SOL    HW121656   5.661   6.164   4.520
 6919SOL    HW221657   5.512   6.127   4.576
 6920SOL     OW21658   4.284   6.897   5.630
 6920SOL    HW121659   4.287   6.951   5.714
 6920SOL    HW221660   4.194   6.856   5.619
 6921SOL     OW21661   4.681   6.337   4.362
 6921SOL    HW121662   4.778   6.349   4.343
 6921SOL    HW221663   4.632   6.313   4.278
 6922SOL     OW21664   1.739   6.183   4.764
 6922SOL    HW121665   1.744   6.122   4.686
 6922SOL    HW221666   1.774   6.273   4.739
 6923SOL     OW21667   5.368   5.812   2.818
 6923SOL    HW121668   5.379   5.886   2.884
 6923SOL    HW221669   5.271   5.786   2.813
 6924SOL     OW21670   1.963   4.378   0.201
 6924SOL    HW121671   1.993   4.383   0.296
 6924SOL    HW221672   1.924   4.466   0.173
 6925SOL     OW21673   4.917   6.008   4.258
 6925SOL    HW121674   4.952   5.952   4.333
 6925SOL    HW221675   4.913   6.104   4.287
 6926SOL     OW21676   2.627   2.685   0.775
 6926SOL    HW121677   2.651   2.782   0.783
 6926SOL    HW221678   2.604   2.648   0.865
 6927SOL     OW21679   3.883   2.990   5.808
 6927SOL    HW121680   3.867   2.893   5.792
 6927SOL    HW221681   3.933   3.028   5.730
 6928SOL     OW21682   5.535   5.606   0.962
 6928SOL    HW121683   5.494   5.697   0.972
 6928SOL    HW221684   5.600   5.608   0.886
 6929SOL     OW21685   4.933   5.579   1.766
 6929SOL    HW121686   4.938   5.521   1.847
 6929SOL    HW221687   5.018   5.571   1.713
 6930SOL     OW21688   1.421   0.482   1.492
 6930SOL    HW121689   1.505   0.534   1.506
 6930SOL    HW221690   1.439   0.385   1.505
 6931SOL     OW21691   1.913   1.366   2.412
 6931SOL    HW121692   1.886   1.269   2.412
 6931SOL    HW221693   1.912   1.400   2.318
 6932SOL     OW21694   4.199   6.944   0.023
 6932SOL    HW121695   4.142   7.012   0.070
 6932SOL    HW221696   4.157   6.853   0.032
 6933SOL     OW21697   3.672   6.347   5.476
 6933SOL    HW121698   3.742   6.277   5.489
 6933SOL    HW221699   3.606   6.316   5.407
 6934SOL     OW21700   4.772   3.103   6.106
 6934SOL    HW121701   4.731   3.185   6.066
 6934SOL    HW221702   4.830   3.058   6.038
 6935SOL     OW21703   4.566   5.563   2.856
 6935SOL    HW121704   4.637   5.504   2.894
 6935SOL    HW221705   4.608   5.646   2.819
 6936SOL     OW21706   6.145   3.149   3.696
 6936SOL    HW121707   6.071   3.085   3.719
 6936SOL    HW221708   6.150   3.159   3.596
 6937SOL     OW21709   5.772   6.079   0.500
 6937SOL    HW121710   5.824   6.164   0.498
 6937SOL    HW221711   5.678   6.097   0.470
 6938SOL     OW21712   6.603   2.715   4.861
 6938SOL    HW121713   6.505   2.723   4.842
 6938SOL    HW221714   6.651   2.687   4.778
 6939SOL     OW21715   0.765   5.269   2.051
 6939SOL    HW121716   0.687   5.286   1.991
 6939SOL    HW221717   0.733   5.243   2.142
 6940SOL     OW21718   3.381   0.150   6.117
 6940SOL    HW121719   3.291   0.192   6.111
 6940SOL    HW221720   3.391   0.105   6.206
 6941SOL     OW21721   3.033   4.010   1.882
 6941SOL    HW121722   3.019   3.966   1.971
 6941SOL    HW221723   3.112   3.968   1.837
 6942SOL     OW21724   5.891   6.665   2.296
 6942SOL    HW121725   5.872   6.566   2.290
 6942SOL    HW221726   5.898   6.692   2.392
 6943SOL     OW21727   3.676   5.825   1.083
 6943SOL    HW121728   3.681   5.911   1.031
 6943SOL    HW221729   3.645   5.751   1.023
 6944SOL     OW21730   0.835   4.806   6.574
 6944SOL    HW121731   0.892   4.888   6.580
 6944SOL    HW221732   0.762   4.819   6.507
 6945SOL     OW21733   6.714   1.583   0.469
 6945SOL    HW121734   6.734   1.500   0.521
 6945SOL    HW221735   6.736   1.568   0.372
 6946SOL     OW21736   4.258   6.761   1.105
 6946SOL    HW121737   4.224   6.697   1.037
 6946SOL    HW221738   4.283   6.847   1.061
 6947SOL     OW21739   3.061   5.436   6.900
 6947SOL    HW121740   3.023   5.513   6.848
 6947SOL    HW221741   3.079   5.360   6.837
 6948SOL     OW21742   0.559   6.743   1.248
 6948SOL    HW121743   0.503   6.724   1.167
 6948SOL    HW221744   0.517   6.816   1.302
 6949SOL     OW21745   4.248   0.007   3.486
 6949SOL    HW121746   4.274   6.937   3.528
 6949SOL    HW221747   4.215   0.070   3.557
 6950SOL     OW21748   1.443   1.199   4.666
 6950SOL    HW121749   1.509   1.175   4.595
 6950SOL    HW221750   1.462   1.291   4.700
 6951SOL     OW21751   6.441   5.880   6.094
 6951SOL    HW121752   6.423   5.822   6.174
 6951SOL    HW221753   6.423   5.975   6.118
 6952SOL     OW21754   0.894   5.879   3.341
 6952SOL    HW121755   0.986   5.899   3.306
 6952SOL    HW221756   0.858   5.959   3.388
 6953SOL     OW21757   4.238   6.579   1.873
 6953SOL    HW121758   4.210   6.672   1.849
 6953SOL    HW221759   4.172   6.539   1.937
 6954SOL     OW21760   0.404   4.009   1.939
 6954SOL    HW121761   0.352   3.960   1.869
 6954SOL    HW221762   0.423   4.102   1.907
 6955SOL     OW21763   5.577   0.700   1.855
 6955SOL    HW121764   5.581   0.687   1.954
 6955SOL    HW221765   5.567   0.612   1.810
 6956SOL     OW21766   5.350   5.759   3.530
 6956SOL    HW121767   5.251   5.770   3.543
 6956SOL    HW221768   5.373   5.777   3.435
 6957SOL     OW21769   5.849   5.674   0.935
 6957SOL    HW121770   5.879   5.758   0.888
 6957SOL    HW221771   5.848   5.598   0.870
 6958SOL     OW21772   3.847   3.247   4.790
 6958SOL    HW121773   3.795   3.242   4.875
 6958SOL    HW221774   3.912   3.322   4.795
 6959SOL     OW21775   2.253   2.969   3.314
 6959SOL    HW121776   2.230   3.039   3.246
 6959SOL    HW221777   2.217   2.996   3.403
 6960SOL     OW21778   1.451   3.702   1.650
 6960SOL    HW121779   1.456   3.615   1.600
 6960SOL    HW221780   1.505   3.771   1.601
 6961SOL     OW21781   6.082   0.546   4.387
 6961SOL    HW121782   6.111   0.553   4.483
 6961SOL    HW221783   6.044   0.634   4.358
 6962SOL     OW21784   4.377   6.106   1.981
 6962SOL    HW121785   4.288   6.151   1.973
 6962SOL    HW221786   4.443   6.152   1.921
 6963SOL     OW21787   5.280   5.786   1.629
 6963SOL    HW121788   5.364   5.800   1.576
 6963SOL    HW221789   5.202   5.817   1.575
 6964SOL     OW21790   3.836   1.213   5.510
 6964SOL    HW121791   3.901   1.288   5.519
 6964SOL    HW221792   3.786   1.222   5.423
 6965SOL     OW21793   1.518   1.053   0.126
 6965SOL    HW121794   1.523   1.007   0.037
 6965SOL    HW221795   1.465   1.138   0.117
 6966SOL     OW21796   0.615   1.757   2.300
 6966SOL    HW121797   0.556   1.803   2.233
 6966SOL    HW221798   0.649   1.672   2.262
 6967SOL     OW21799   3.195   0.789   6.227
 6967SOL    HW121800   3.120   0.724   6.240
 6967SOL    HW221801   3.228   0.820   6.316
 6968SOL     OW21802   4.079   0.596   3.602
 6968SOL    HW121803   3.984   0.566   3.601
 6968SOL    HW221804   4.089   0.678   3.545
 6969SOL     OW21805   2.939   2.195   1.533
 6969SOL    HW121806   2.911   2.271   1.591
 6969SOL    HW221807   3.036   2.203   1.512
 6970SOL     OW21808   3.907   3.602   5.798
 6970SOL    HW121809   3.960   3.589   5.881
 6970SOL    HW221810   3.892   3.514   5.753
 6971SOL     OW21811   6.092   4.537   0.756
 6971SOL    HW121812   6.071   4.559   0.661
 6971SOL    HW221813   6.028   4.468   0.790
 6972SOL     OW21814   5.802   4.579   3.263
 6972SOL    HW121815   5.758   4.511   3.322
 6972SOL    HW221816   5.844   4.650   3.318
 6973SOL     OW21817   0.552   3.301   3.277
 6973SOL    HW121818   0.465   3.272   3.238
 6973SOL    HW221819   0.607   3.221   3.300
 6974SOL     OW21820   2.975   3.734   2.638
 6974SOL    HW121821   3.043   3.786   2.688
 6974SOL    HW221822   3.020   3.675   2.571
 6975SOL     OW21823   1.246   6.618   5.514
 6975SOL    HW121824   1.222   6.540   5.572
 6975SOL    HW221825   1.345   6.628   5.511
 6976SOL     OW21826   6.522   5.531   6.193
 6976SOL    HW121827   6.537   5.533   6.094
 6976SOL    HW221828   6.536   5.438   6.226
 6977SOL     OW21829   3.368   2.913   0.920
 6977SOL    HW121830   3.388   2.965   1.003
 6977SOL    HW221831   3.412   2.823   0.925
 6978SOL     OW21832   5.474   2.252   2.277
 6978SOL    HW121833   5.540   2.282   2.346
 6978SOL    HW221834   5.381   2.271   2.309
 6979SOL     OW21835   1.168   4.002   1.431
 6979SOL    HW121836   1.082   3.966   1.393
 6979SOL    HW221837   1.201   3.940   1.503
 6980SOL     OW21838   1.658   0.723   3.500
 6980SOL    HW121839   1.582   0.659   3.489
 6980SOL    HW221840   1.626   0.816   3.486
 6981SOL     OW21841   3.603   3.803   5.564
 6981SOL    HW121842   3.514   3.797   5.518
 6981SOL    HW221843   3.605   3.740   5.641
 6982SOL     OW21844   0.806   0.879   4.616
 6982SOL    HW121845   0.902   0.908   4.626
 6982SOL    HW221846   0.780   0.883   4.520
 6983SOL     OW21847   4.461   2.001   4.247
 6983SOL    HW121848   4.369   1.976   4.279
 6983SOL    HW221849   4.529   1.952   4.301
 6984SOL     OW21850   1.648   1.724   3.207
 6984SOL    HW121851   1.688   1.719   3.115
 6984SOL    HW221852   1.586   1.802   3.212
 6985SOL     OW21853   5.794   5.033   1.280
 6985SOL    HW121854   5.833   4.956   1.229
 6985SOL    HW221855   5.831   5.119   1.246
 6986SOL     OW21856   2.773   6.924   6.301
 6986SOL    HW121857   2.746   6.870   6.381
 6986SOL    HW221858   2.738   0.001   6.311
 6987SOL     OW21859   6.253   1.307   5.956
 6987SOL    HW121860   6.255   1.390   5.900
 6987SOL    HW221861   6.346   1.283   5.983
 6988SOL     OW21862   0.893   6.807   6.739
 6988SOL    HW121863   0.832   6.881   6.710
 6988SOL    HW221864   0.860   6.769   6.826
 6989SOL     OW21865   0.710   4.437   3.027
 6989SOL    HW121866   0.657   4.353   3.041
 6989SOL    HW221867   0.796   4.415   2.981
 6990SOL     OW21868   4.306   2.847   1.131
 6990SOL    HW121869   4.399   2.832   1.162
 6990SOL    HW221870   4.245   2.857   1.209
 6991SOL     OW21871   4.602   4.360   3.914
 6991SOL    HW121872   4.583   4.333   4.008
 6991SOL    HW221873   4.647   4.285   3.866
 6992SOL     OW21874   5.598   0.391   6.459
 6992SOL    HW121875   5.598   0.327   6.382
 6992SOL    HW221876   5.680   0.377   6.514
 6993SOL     OW21877   5.880   6.712   2.555
 6993SOL    HW121878   5.899   6.793   2.611
 6993SOL    HW221879   5.897   6.629   2.608
 6994SOL     OW21880   0.324   2.068   3.912
 6994SOL    HW121881   0.423   2.062   3.919
 6994SOL    HW221882   0.288   1.985   3.869
 6995SOL     OW21883   0.765   4.090   6.367
 6995SOL    HW121884   0.715   4.164   6.412
 6995SOL    HW221885   0.768   4.107   6.269
 6996SOL     OW21886   1.695   0.143   6.928
 6996SOL    HW121887   1.694   0.228   6.876
 6996SOL    HW221888   1.665   0.160   0.005
 6997SOL     OW21889   0.438   5.233   5.794
 6997SOL    HW121890   0.401   5.304   5.854
 6997SOL    HW221891   0.449   5.270   5.701
 6998SOL     OW21892   1.259   1.308   1.353
 6998SOL    HW121893   1.290   1.219   1.386
 6998SOL    HW221894   1.206   1.354   1.425
 6999SOL     OW21895   1.979   2.665   6.404
 6999SOL    HW121896   1.923   2.742   6.375
 6999SOL    HW221897   2.058   2.656   6.344
 7000SOL     OW21898   5.754   6.231   1.910
 7000SOL    HW121899   5.741   6.134   1.888
 7000SOL    HW221900   5.677   6.262   1.965
 7001SOL     OW21901   1.506   3.702   5.484
 7001SOL    HW121902   1.574   3.658   5.425
 7001SOL    HW221903   1.470   3.783   5.439
 7002SOL     OW21904   1.615   5.605   4.500
 7002SOL    HW121905   1.578   5.690   4.538
 7002SOL    HW221906   1.705   5.622   4.461
 7003SOL     OW21907   4.519   5.643   0.988
 7003SOL    HW121908   4.550   5.628   0.895
 7003SOL    HW221909   4.437   5.588   1.005
 7004SOL     OW21910   0.732   5.559   1.379
 7004SOL    HW121911   0.788   5.573   1.297
 7004SOL    HW221912   0.648   5.612   1.371
 7005SOL     OW21913   1.109   0.299   0.825
 7005SOL    HW121914   1.186   0.271   0.767
 7005SOL    HW221915   1.037   0.230   0.820
 7006SOL     OW21916   5.154   5.222   3.882
 7006SOL    HW121917   5.106   5.255   3.801
 7006SOL    HW221918   5.239   5.275   3.893
 7007SOL     OW21919   4.378   0.820   4.567
 7007SOL    HW121920   4.423   0.870   4.493
 7007SOL    HW221921   4.303   0.875   4.603
 7008SOL     OW21922   0.415   4.474   4.404
 7008SOL    HW121923   0.385   4.565   4.433
 7008SOL    HW221924   0.338   4.425   4.363
 7009SOL     OW21925   4.065   6.555   2.640
 7009SOL    HW121926   4.036   6.528   2.548
 7009SOL    HW221927   4.088   6.473   2.693
 7010SOL     OW21928   5.607   4.388   3.695
 7010SOL    HW121929   5.644   4.479   3.717
 7010SOL    HW221930   5.674   4.318   3.719
 7011SOL     OW21931   3.330   6.367   6.339
 7011SOL    HW121932   3.316   6.299   6.267
 7011SOL    HW221933   3.302   6.457   6.306
 7012SOL     OW21934   1.171   2.036   0.997
 7012SOL    HW121935   1.269   2.044   1.017
 7012SOL    HW221936   1.152   2.075   0.907
 7013SOL     OW21937   0.871   6.410   6.950
 7013SOL    HW121938   0.931   6.412   0.014
 7013SOL    HW221939   0.866   6.317   6.915
 7014SOL     OW21940   4.719   3.306   0.916
 7014SOL    HW121941   4.682   3.215   0.903
 7014SOL    HW221942   4.809   3.313   0.873
 7015SOL     OW21943   5.651   4.194   1.419
 7015SOL    HW121944   5.671   4.159   1.328
 7015SOL    HW221945   5.736   4.214   1.467
 7016SOL     OW21946   3.611   5.328   1.153
 7016SOL    HW121947   3.569   5.360   1.238
 7016SOL    HW221948   3.633   5.231   1.161
 7017SOL     OW21949   2.885   5.067   3.276
 7017SOL    HW121950   2.958   5.032   3.335
 7017SOL    HW221951   2.796   5.046   3.318
 7018SOL     OW21952   5.323   3.600   3.860
 7018SOL    HW121953   5.247   3.577   3.921
 7018SOL    HW221954   5.377   3.518   3.842
 7019SOL     OW21955   3.951   5.055   0.519
 7019SOL    HW121956   3.887   5.102   0.459
 7019SOL    HW221957   3.928   4.957   0.521
 7020SOL     OW21958   6.508   4.324   5.826
 7020SOL    HW121959   6.417   4.334   5.785
 7020SOL    HW221960   6.566   4.400   5.798
 7021SOL     OW21961   1.783   2.257   4.866
 7021SOL    HW121962   1.864   2.208   4.900
 7021SOL    HW221963   1.768   2.339   4.921
 7022SOL     OW21964   4.399   0.427   6.627
 7022SOL    HW121965   4.335   0.489   6.581
 7022SOL    HW221966   4.492   0.460   6.613
 7023SOL     OW21967   1.697   2.939   2.832
 7023SOL    HW121968   1.740   3.010   2.775
 7023SOL    HW221969   1.767   2.885   2.877
 7024SOL     OW21970   3.287   3.630   4.260
 7024SOL    HW121971   3.244   3.667   4.177
 7024SOL    HW221972   3.385   3.650   4.258
 7025SOL     OW21973   3.790   0.814   0.857
 7025SOL    HW121974   3.733   0.773   0.928
 7025SOL    HW221975   3.746   0.897   0.822
 7026SOL     OW21976   3.580   1.971   1.988
 7026SOL    HW121977   3.602   2.062   2.023
 7026SOL    HW221978   3.652   1.941   1.926
 7027SOL     OW21979   2.688   5.640   4.504
 7027SOL    HW121980   2.593   5.654   4.530
 7027SOL    HW221981   2.744   5.628   4.586
 7028SOL     OW21982   3.980   1.237   2.781
 7028SOL    HW121983   4.012   1.290   2.703
 7028SOL    HW221984   3.941   1.150   2.750
 7029SOL     OW21985   4.175   4.376   5.342
 7029SOL    HW121986   4.212   4.443   5.277
 7029SOL    HW221987   4.139   4.424   5.422
 7030SOL     OW21988   0.401   0.825   5.191
 7030SOL    HW121989   0.428   0.918   5.167
 7030SOL    HW221990   0.370   0.777   5.108
 7031SOL     OW21991   3.824   5.932   0.091
 7031SOL    HW121992   3.736   5.979   0.105
 7031SOL    HW221993   3.851   5.888   0.177
 7032SOL     OW21994   4.598   1.327   3.773
 7032SOL    HW121995   4.503   1.312   3.800
 7032SOL    HW221996   4.659   1.290   3.844
 7033SOL     OW21997   1.474   2.295   3.544
 7033SOL    HW121998   1.472   2.389   3.512
 7033SOL    HW221999   1.497   2.292   3.641
 7034SOL     OW22000   6.900   1.530   2.812
 7034SOL    HW122001   6.969   1.457   2.808
 7034SOL    HW222002   6.856   1.539   2.722
 7035SOL     OW22003   1.250   0.378   0.540
 7035SOL    HW122004   1.319   0.385   0.612
 7035SOL    HW222005   1.263   0.293   0.489
 7036SOL     OW22006   6.903   1.190   1.948
 7036SOL    HW122007   6.881   1.273   1.896
 7036SOL    HW222008   6.823   1.129   1.947
 7037SOL     OW22009   0.892   1.401   6.596
 7037SOL    HW122010   0.878   1.343   6.516
 7037SOL    HW222011   0.950   1.479   6.571
 7038SOL     OW22012   2.173   4.271   4.976
 7038SOL    HW122013   2.232   4.351   4.983
 7038SOL    HW222014   2.228   4.188   4.982
 7039SOL     OW22015   0.582   6.047   2.759
 7039SOL    HW122016   0.556   5.996   2.677
 7039SOL    HW222017   0.578   6.145   2.740
 7040SOL     OW22018   5.694   2.865   5.385
 7040SOL    HW122019   5.628   2.827   5.321
 7040SOL    HW222020   5.700   2.807   5.466
 7041SOL     OW22021   6.564   1.748   1.965
 7041SOL    HW122022   6.605   1.770   2.054
 7041SOL    HW222023   6.466   1.767   1.968
 7042SOL     OW22024   4.269   5.829   4.563
 7042SOL    HW122025   4.277   5.911   4.506
 7042SOL    HW222026   4.173   5.815   4.587
 7043SOL     OW22027   2.430   4.578   3.429
 7043SOL    HW122028   2.410   4.501   3.368
 7043SOL    HW222029   2.396   4.557   3.521
 7044SOL     OW22030   5.746   5.219   5.412
 7044SOL    HW122031   5.831   5.249   5.368
 7044SOL    HW222032   5.725   5.281   5.487
 7045SOL     OW22033   5.206   4.968   2.661
 7045SOL    HW122034   5.169   4.964   2.754
 7045SOL    HW222035   5.306   4.974   2.665
 7046SOL     OW22036   3.108   1.622   3.416
 7046SOL    HW122037   3.194   1.594   3.372
 7046SOL    HW222038   3.034   1.622   3.348
 7047SOL     OW22039   6.900   0.713   1.921
 7047SOL    HW122040   6.964   0.663   1.979
 7047SOL    HW222041   6.853   0.650   1.860
 7048SOL     OW22042   5.770   6.473   4.249
 7048SOL    HW122043   5.721   6.558   4.269
 7048SOL    HW222044   5.730   6.430   4.168
 7049SOL     OW22045   3.999   2.063   0.931
 7049SOL    HW122046   3.910   2.102   0.908
 7049SOL    HW222047   3.988   1.995   1.003
 7050SOL     OW22048   4.348   3.421   1.276
 7050SOL    HW122049   4.372   3.510   1.238
 7050SOL    HW222050   4.408   3.401   1.354
 7051SOL     OW22051   0.151   6.155   1.381
 7051SOL    HW122052   0.079   6.133   1.447
 7051SOL    HW222053   0.151   6.088   1.308
 7052SOL     OW22054   6.593   0.994   3.600
 7052SOL    HW122055   6.548   0.912   3.636
 7052SOL    HW222056   6.688   0.996   3.631
 7053SOL     OW22057   1.672   3.447   4.508
 7053SOL    HW122058   1.701   3.419   4.417
 7053SOL    HW222059   1.616   3.530   4.502
 7054SOL     OW22060   6.944   6.578   1.048
 7054SOL    HW122061   6.846   6.580   1.070
 7054SOL    HW222062   6.956   6.542   0.956
 7055SOL     OW22063   3.229   0.157   6.993
 7055SOL    HW122064   3.267   0.207   0.054
 7055SOL    HW222065   3.141   0.118   0.001
 7056SOL     OW22066   6.437   5.085   1.488
 7056SOL    HW122067   6.476   5.133   1.411
 7056SOL    HW222068   6.425   5.148   1.565
 7057SOL     OW22069   2.981   5.159   3.653
 7057SOL    HW122070   3.002   5.062   3.647
 7057SOL    HW222071   3.007   5.194   3.744
 7058SOL     OW22072   5.588   2.747   5.792
 7058SOL    HW122073   5.514   2.697   5.837
 7058SOL    HW222074   5.675   2.724   5.836
 7059SOL     OW22075   0.870   0.919   3.764
 7059SOL    HW122076   0.862   0.823   3.790
 7059SOL    HW222077   0.967   0.944   3.758
 7060SOL     OW22078   3.426   0.297   0.808
 7060SOL    HW122079   3.472   0.209   0.797
 7060SOL    HW222080   3.373   0.297   0.893
 7061SOL     OW22081   0.323   3.070   3.639
 7061SOL    HW122082   0.305   3.150   3.697
 7061SOL    HW222083   0.364   2.998   3.695
 7062SOL     OW22084   3.468   2.115   5.010
 7062SOL    HW122085   3.472   2.128   5.109
 7062SOL    HW222086   3.406   2.182   4.970
 7063SOL     OW22087   1.486   6.740   1.904
 7063SOL    HW122088   1.392   6.764   1.929
 7063SOL    HW222089   1.546   6.819   1.917
 7064SOL     OW22090   4.133   2.178   6.750
 7064SOL    HW122091   4.063   2.120   6.793
 7064SOL    HW222092   4.110   2.190   6.653
 7065SOL     OW22093   3.389   3.847   5.386
 7065SOL    HW122094   3.295   3.852   5.352
 7065SOL    HW222095   3.444   3.918   5.341
 7066SOL     OW22096   3.644   0.134   6.051
 7066SOL    HW122097   3.547   0.128   6.075
 7066SOL    HW222098   3.683   0.219   6.086
 7067SOL     OW22099   1.095   3.268   5.637
 7067SOL    HW122100   1.146   3.249   5.553
 7067SOL    HW222101   1.121   3.358   5.672
 7068SOL     OW22102   5.921   3.963   4.956
 7068SOL    HW122103   5.969   4.004   4.879
 7068SOL    HW222104   5.987   3.928   5.022
 7069SOL     OW22105   5.972   1.257   5.083
 7069SOL    HW122106   5.991   1.162   5.056
 7069SOL    HW222107   5.946   1.310   5.003
 7070SOL     OW22108   1.040   6.856   4.256
 7070SOL    HW122109   1.076   6.934   4.306
 7070SOL    HW222110   1.081   6.852   4.165
 7071SOL     OW22111   3.543   6.005   0.028
 7071SOL    HW122112   3.505   6.002   6.952
 7071SOL    HW222113   3.499   5.936   0.085
 7072SOL     OW22114   1.788   5.605   0.093
 7072SOL    HW122115   1.752   5.583   0.002
 7072SOL    HW222116   1.887   5.612   0.089
 7073SOL     OW22117   4.601   0.106   3.642
 7073SOL    HW122118   4.598   0.206   3.643
 7073SOL    HW222119   4.599   0.073   3.548
 7074SOL     OW22120   5.939   3.359   2.240
 7074SOL    HW122121   6.029   3.359   2.285
 7074SOL    HW222122   5.924   3.272   2.194
 7075SOL     OW22123   1.733   4.381   4.545
 7075SOL    HW122124   1.666   4.453   4.527
 7075SOL    HW222125   1.763   4.340   4.459
 7076SOL     OW22126   5.504   3.304   0.223
 7076SOL    HW122127   5.548   3.385   0.185
 7076SOL    HW222128   5.459   3.253   0.150
 7077SOL     OW22129   2.186   4.022   3.615
 7077SOL    HW122130   2.268   4.069   3.582
 7077SOL    HW222131   2.170   3.940   3.561
 7078SOL     OW22132   6.455   6.069   1.339
 7078SOL    HW122133   6.446   6.169   1.338
 7078SOL    HW222134   6.480   6.039   1.431
 7079SOL     OW22135   0.821   6.605   3.733
 7079SOL    HW122136   0.810   6.521   3.679
 7079SOL    HW222137   0.743   6.615   3.794
 7080SOL     OW22138   3.512   1.276   4.347
 7080SOL    HW122139   3.460   1.313   4.424
 7080SOL    HW222140   3.565   1.349   4.305
 7081SOL     OW22141   1.360   5.628   0.430
 7081SOL    HW122142   1.348   5.621   0.331
 7081SOL    HW222143   1.316   5.551   0.475
 7082SOL     OW22144   6.872   4.132   0.418
 7082SOL    HW122145   6.923   4.191   0.480
 7082SOL    HW222146   6.922   4.124   0.332
 7083SOL     OW22147   0.403   1.529   1.972
 7083SOL    HW122148   0.406   1.463   1.897
 7083SOL    HW222149   0.446   1.615   1.943
 7084SOL     OW22150   1.095   5.282   5.713
 7084SOL    HW122151   1.079   5.332   5.798
 7084SOL    HW222152   1.115   5.346   5.639
 7085SOL     OW22153   0.253   2.067   2.284
 7085SOL    HW122154   0.246   1.986   2.225
 7085SOL    HW222155   0.332   2.057   2.345
 7086SOL     OW22156   5.363   1.117   5.954
 7086SOL    HW122157   5.454   1.103   5.913
 7086SOL    HW222158   5.309   1.176   5.894
 7087SOL     OW22159   5.695   4.611   2.623
 7087SOL    HW122160   5.781   4.614   2.673
 7087SOL    HW222161   5.664   4.516   2.617
 7088SOL     OW22162   5.033   2.500   5.278
 7088SOL    HW122163   4.997   2.418   5.324
 7088SOL    HW222164   5.131   2.490   5.263
 7089SOL     OW22165   2.225   3.112   3.612
 7089SOL    HW122166   2.128   3.102   3.633
 7089SOL    HW222167   2.264   3.186   3.666
 7090SOL     OW22168   2.604   1.431   0.418
 7090SOL    HW122169   2.688   1.483   0.407
 7090SOL    HW222170   2.527   1.483   0.380
 7091SOL     OW22171   0.494   1.146   0.998
 7091SOL    HW122172   0.554   1.167   0.920
 7091SOL    HW222173   0.547   1.154   1.082
 7092SOL     OW22174   4.168   2.901   5.730
 7092SOL    HW122175   4.243   2.959   5.764
 7092SOL    HW222176   4.166   2.904   5.631
 7093SOL     OW22177   3.497   4.135   1.930
 7093SOL    HW122178   3.540   4.053   1.894
 7093SOL    HW222179   3.515   4.142   2.028
 7094SOL     OW22180   0.237   6.387   5.965
 7094SOL    HW122181   0.171   6.457   5.995
 7094SOL    HW222182   0.255   6.399   5.868
 7095SOL     OW22183   2.742   4.875   5.912
 7095SOL    HW122184   2.704   4.928   5.988
 7095SOL    HW222185   2.797   4.800   5.948
 7096SOL     OW22186   6.240   6.683   1.726
 7096SOL    HW122187   6.320   6.662   1.782
 7096SOL    HW222188   6.157   6.675   1.782
 7097SOL     OW22189   5.036   0.731   2.100
 7097SOL    HW122190   5.026   0.829   2.120
 7097SOL    HW222191   4.957   0.682   2.138
 7098SOL     OW22192   1.568   5.351   5.760
 7098SOL    HW122193   1.578   5.374   5.857
 7098SOL    HW222194   1.507   5.272   5.750
 7099SOL     OW22195   3.927   2.074   4.523
 7099SOL    HW122196   3.953   1.982   4.492
 7099SOL    HW222197   4.002   2.114   4.576
 7100SOL     OW22198   5.879   3.062   0.289
 7100SOL    HW122199   5.816   3.038   0.363
 7100SOL    HW222200   5.969   3.023   0.307
 7101SOL     OW22201   2.429   1.056   4.917
 7101SOL    HW122202   2.398   1.146   4.947
 7101SOL    HW222203   2.467   1.006   4.994
 7102SOL     OW22204   5.803   6.855   0.511
 7102SOL    HW122205   5.812   6.872   0.609
 7102SOL    HW222206   5.762   6.765   0.497
 7103SOL     OW22207   5.580   5.070   1.853
 7103SOL    HW122208   5.627   5.118   1.779
 7103SOL    HW222209   5.641   5.000   1.891
 7104SOL     OW22210   6.675   3.855   2.751
 7104SOL    HW122211   6.620   3.789   2.700
 7104SOL    HW222212   6.760   3.874   2.701
 7105SOL     OW22213   3.264   3.385   4.612
 7105SOL    HW122214   3.293   3.480   4.604
 7105SOL    HW222215   3.332   3.326   4.570
 7106SOL     OW22216   3.443   3.167   1.665
 7106SOL    HW122217   3.421   3.156   1.762
 7106SOL    HW222218   3.366   3.209   1.618
 7107SOL     OW22219   4.763   0.213   0.638
 7107SOL    HW122220   4.749   0.114   0.636
 7107SOL    HW222221   4.789   0.242   0.730
 7108SOL     OW22222   2.589   5.759   2.981
 7108SOL    HW122223   2.639   5.680   3.017
 7108SOL    HW222224   2.612   5.772   2.885
 7109SOL     OW22225   2.197   0.563   6.897
 7109SOL    HW122226   2.243   0.571   6.808
 7109SOL    HW222227   2.241   0.623   6.963
 7110SOL     OW22228   3.270   5.831   4.032
 7110SOL    HW122229   3.205   5.763   4.065
 7110SOL    HW222230   3.254   5.846   3.934
 7111SOL     OW22231   2.047   2.379   4.307
 7111SOL    HW122232   1.969   2.413   4.358
 7111SOL    HW222233   2.028   2.285   4.276
 7112SOL     OW22234   2.477   4.987   4.714
 7112SOL    HW122235   2.387   4.945   4.726
 7112SOL    HW222236   2.533   4.972   4.796
 7113SOL     OW22237   3.429   3.949   4.693
 7113SOL    HW122238   3.480   3.870   4.660
 7113SOL    HW222239   3.447   3.962   4.791
 7114SOL     OW22240   4.969   5.550   1.090
 7114SOL    HW122241   4.899   5.586   1.152
 7114SOL    HW222242   5.016   5.473   1.134
 7115SOL     OW22243   4.987   3.296   6.880
 7115SOL    HW122244   4.952   3.364   6.815
 7115SOL    HW222245   4.947   3.207   6.860
 7116SOL     OW22246   5.368   4.340   3.294
 7116SOL    HW122247   5.288   4.369   3.347
 7116SOL    HW222248   5.390   4.245   3.315
 7117SOL     OW22249   0.255   0.221   4.870
 7117SOL    HW122250   0.323   0.225   4.944
 7117SOL    HW222251   0.303   0.217   4.782
 7118SOL     OW22252   3.796   4.292   5.937
 7118SOL    HW122253   3.729   4.298   6.011
 7118SOL    HW222254   3.880   4.337   5.965
 7119SOL     OW22255   5.184   0.944   4.983
 7119SOL    HW122256   5.120   1.019   4.995
 7119SOL    HW222257   5.160   0.893   4.900
 7120SOL     OW22258   3.973   1.831   1.077
 7120SOL    HW122259   3.886   1.790   1.102
 7120SOL    HW222260   4.035   1.828   1.156
 7121SOL     OW22261   0.566   6.735   3.055
 7121SOL    HW122262   0.545   6.821   3.102
 7121SOL    HW222263   0.545   6.658   3.116
 7122SOL     OW22264   1.685   0.442   5.716
 7122SOL    HW122265   1.705   0.482   5.626
 7122SOL    HW222266   1.646   0.511   5.776
 7123SOL     OW22267   0.872   4.963   3.951
 7123SOL    HW122268   0.789   4.964   4.008
 7123SOL    HW222269   0.888   5.055   3.915
 7124SOL     OW22270   0.991   2.631   1.565
 7124SOL    HW122271   1.066   2.696   1.548
 7124SOL    HW222272   0.957   2.644   1.658
 7125SOL     OW22273   0.644   1.200   0.791
 7125SOL    HW122274   0.711   1.126   0.792
 7125SOL    HW222275   0.685   1.282   0.751
 7126SOL     OW22276   4.164   5.740   0.448
 7126SOL    HW122277   4.250   5.715   0.402
 7126SOL    HW222278   4.095   5.670   0.430
 7127SOL     OW22279   2.961   5.662   6.801
 7127SOL    HW122280   2.875   5.619   6.772
 7127SOL    HW222281   3.026   5.662   6.725
 7128SOL     OW22282   3.596   4.331   6.827
 7128SOL    HW122283   3.626   4.365   6.737
 7128SOL    HW222284   3.501   4.358   6.842
 7129SOL     OW22285   1.884   1.276   1.171
 7129SOL    HW122286   1.838   1.365   1.173
 7129SOL    HW222287   1.957   1.275   1.239
 7130SOL     OW22288   3.385   6.313   4.296
 7130SOL    HW122289   3.346   6.405   4.293
 7130SOL    HW222290   3.344   6.262   4.371
 7131SOL     OW22291   3.383   1.208   1.602
 7131SOL    HW122292   3.448   1.180   1.532
 7131SOL    HW222293   3.300   1.153   1.594
 7132SOL     OW22294   4.256   4.084   0.462
 7132SOL    HW122295   4.219   4.145   0.393
 7132SOL    HW222296   4.352   4.064   0.442
 7133SOL     OW22297   3.944   4.911   5.147
 7133SOL    HW122298   3.941   4.821   5.190
 7133SOL    HW222299   4.019   4.964   5.188
 7134SOL     OW22300   5.433   7.010   2.074
 7134SOL    HW122301   5.521   0.025   2.109
 7134SOL    HW222302   5.367   0.068   2.075
 7135SOL     OW22303   2.554   2.476   3.371
 7135SOL    HW122304   2.626   2.410   3.391
 7135SOL    HW222305   2.544   2.540   3.448
 7136SOL     OW22306   3.267   1.562   0.595
 7136SOL    HW122307   3.322   1.487   0.560
 7136SOL    HW222308   3.258   1.553   0.695
 7137SOL     OW22309   2.736   1.951   0.262
 7137SOL    HW122310   2.809   1.994   0.208
 7137SOL    HW222311   2.695   2.019   0.322
 7138SOL     OW22312   2.020   1.345   0.594
 7138SOL    HW122313   1.934   1.330   0.643
 7138SOL    HW222314   2.089   1.378   0.658
 7139SOL     OW22315   4.981   4.738   2.643
 7139SOL    HW122316   5.052   4.705   2.582
 7139SOL    HW222317   5.007   4.719   2.738
 7140SOL     OW22318   6.215   4.117   0.630
 7140SOL    HW122319   6.265   4.032   0.645
 7140SOL    HW222320   6.211   4.137   0.532
 7141SOL     OW22321   3.943   0.055   1.102
 7141SOL    HW122322   4.027   0.034   1.052
 7141SOL    HW222323   3.892   0.125   1.053
 7142SOL     OW22324   3.946   0.094   4.194
 7142SOL    HW122325   4.023   0.069   4.253
 7142SOL    HW222326   3.948   0.039   4.111
 7143SOL     OW22327   2.238   3.696   6.857
 7143SOL    HW122328   2.143   3.675   6.832
 7143SOL    HW222329   2.239   3.737   6.948
 7144SOL     OW22330   0.896   1.221   2.818
 7144SOL    HW122331   0.875   1.196   2.723
 7144SOL    HW222332   0.941   1.143   2.863
 7145SOL     OW22333   4.284   0.675   6.497
 7145SOL    HW122334   4.380   0.675   6.467
 7145SOL    HW222335   4.255   0.769   6.514
 7146SOL     OW22336   1.618   0.990   6.417
 7146SOL    HW122337   1.574   0.900   6.420
 7146SOL    HW222338   1.692   0.993   6.484
 7147SOL     OW22339   6.951   6.022   3.426
 7147SOL    HW122340   6.974   6.091   3.495
 7147SOL    HW222341   0.001   5.948   3.430
 7148SOL     OW22342   5.990   6.090   1.879
 7148SOL    HW122343   5.917   6.153   1.853
 7148SOL    HW222344   5.950   6.010   1.925
 7149SOL     OW22345   0.488   5.071   3.830
 7149SOL    HW122346   0.499   4.975   3.804
 7149SOL    HW222347   0.498   5.129   3.749
 7150SOL     OW22348   3.468   3.369   0.053
 7150SOL    HW122349   3.552   3.422   0.044
 7150SOL    HW222350   3.475   3.287   7.012
 7151SOL     OW22351   2.593   0.016   0.763
 7151SOL    HW122352   2.526   6.965   0.733
 7151SOL    HW222353   2.605   0.010   0.862
 7152SOL     OW22354   6.550   0.333   6.034
 7152SOL    HW122355   6.597   0.352   5.948
 7152SOL    HW222356   6.554   0.235   6.053
 7153SOL     OW22357   3.486   5.010   1.977
 7153SOL    HW122358   3.560   5.077   1.975
 7153SOL    HW222359   3.521   4.922   1.946
 7154SOL     OW22360   4.359   6.711   2.920
 7154SOL    HW122361   4.295   6.644   2.957
 7154SOL    HW222362   4.314   6.766   2.849
 7155SOL     OW22363   3.582   3.402   1.678
 7155SOL    HW122364   3.610   3.411   1.582
 7155SOL    HW222365   3.538   3.313   1.692
 7156SOL     OW22366   5.133   3.709   2.761
 7156SOL    HW122367   5.143   3.713   2.661
 7156SOL    HW222368   5.063   3.643   2.785
 7157SOL     OW22369   6.752   5.183   2.035
 7157SOL    HW122370   6.820   5.137   2.092
 7157SOL    HW222371   6.709   5.117   1.974
 7158SOL     OW22372   1.095   6.929   3.021
 7158SOL    HW122373   1.005   6.915   3.064
 7158SOL    HW222374   1.128   0.004   3.043
 7159SOL     OW22375   1.387   4.860   4.308
 7159SOL    HW122376   1.367   4.768   4.342
 7159SOL    HW222377   1.345   4.928   4.369
 7160SOL     OW22378   6.357   6.297   2.338
 7160SOL    HW122379   6.427   6.355   2.297
 7160SOL    HW222380   6.330   6.334   2.427
 7161SOL     OW22381   3.293   3.910   2.547
 7161SOL    HW122382   3.264   3.924   2.641
 7161SOL    HW222383   3.214   3.913   2.486
 7162SOL     OW22384   0.731   5.119   6.206
 7162SOL    HW122385   0.795   5.195   6.221
 7162SOL    HW222386   0.736   5.090   6.110
 7163SOL     OW22387   3.132   0.654   2.351
 7163SOL    HW122388   3.199   0.630   2.421
 7163SOL    HW222389   3.088   0.740   2.375
 7164SOL     OW22390   2.323   0.481   4.925
 7164SOL    HW122391   2.304   0.418   5.000
 7164SOL    HW222392   2.258   0.465   4.851
 7165SOL     OW22393   5.674   5.964   1.852
 7165SOL    HW122394   5.737   5.902   1.899
 7165SOL    HW222395   5.589   5.916   1.832
 7166SOL     OW22396   5.561   1.779   0.248
 7166SOL    HW122397   5.623   1.727   0.189
 7166SOL    HW222398   5.525   1.858   0.198
 7167SOL     OW22399   4.891   3.080   4.942
 7167SOL    HW122400   4.926   3.073   4.848
 7167SOL    HW222401   4.872   3.176   4.963
 7168SOL     OW22402   2.901   2.206   3.175
 7168SOL    HW122403   2.944   2.160   3.098
 7168SOL    HW222404   2.827   2.149   3.210
 7169SOL     OW22405   0.048   4.243   4.813
 7169SOL    HW122406   0.025   4.233   4.716
 7169SOL    HW222407   6.984   4.273   4.864
 7170SOL     OW22408   4.593   0.002   2.470
 7170SOL    HW122409   4.536   0.025   2.548
 7170SOL    HW222410   4.637   0.085   2.435
 7171SOL     OW22411   5.960   3.516   0.675
 7171SOL    HW122412   5.920   3.473   0.755
 7171SOL    HW222413   5.893   3.518   0.601
 7172SOL     OW22414   2.280   1.112   5.381
 7172SOL    HW122415   2.322   1.067   5.460
 7172SOL    HW222416   2.342   1.107   5.303
 7173SOL     OW22417   6.100   4.810   6.172
 7173SOL    HW122418   6.081   4.846   6.080
 7173SOL    HW222419   6.167   4.869   6.217
 7174SOL     OW22420   0.170   4.751   0.909
 7174SOL    HW122421   0.155   4.849   0.894
 7174SOL    HW222422   0.259   4.725   0.871
 7175SOL     OW22423   0.025   3.265   5.232
 7175SOL    HW122424   0.117   3.270   5.269
 7175SOL    HW222425   7.004   3.173   5.246
 7176SOL     OW22426   6.915   1.724   4.121
 7176SOL    HW122427   6.907   1.799   4.056
 7176SOL    HW222428   7.003   1.679   4.110
 7177SOL     OW22429   1.322   4.604   5.877
 7177SOL    HW122430   1.334   4.604   5.976
 7177SOL    HW222431   1.292   4.695   5.847
 7178SOL     OW22432   0.527   1.570   6.208
 7178SOL    HW122433   0.540   1.640   6.278
 7178SOL    HW222434   0.495   1.485   6.252
 7179SOL     OW22435   1.310   3.878   4.721
 7179SOL    HW122436   1.212   3.872   4.741
 7179SOL    HW222437   1.362   3.833   4.793
 7180SOL     OW22438   2.242   4.231   0.496
 7180SOL    HW122439   2.267   4.286   0.416
 7180SOL    HW222440   2.199   4.146   0.465
 7181SOL     OW22441   2.381   0.400   0.193
 7181SOL    HW122442   2.412   0.490   0.224
 7181SOL    HW222443   2.281   0.395   0.201
 7182SOL     OW22444   0.872   3.727   3.564
 7182SOL    HW122445   0.805   3.760   3.630
 7182SOL    HW222446   0.858   3.630   3.547
 7183SOL     OW22447   1.767   5.885   2.021
 7183SOL    HW122448   1.750   5.787   2.010
 7183SOL    HW222449   1.698   5.924   2.082
 7184SOL     OW22450   6.919   0.805   3.411
 7184SOL    HW122451   6.902   0.790   3.509
 7184SOL    HW222452   6.832   0.825   3.365
 7185SOL     OW22453   5.609   1.098   5.521
 7185SOL    HW122454   5.629   1.178   5.465
 7185SOL    HW222455   5.530   1.050   5.484
 7186SOL     OW22456   6.785   1.740   1.739
 7186SOL    HW122457   6.793   1.749   1.838
 7186SOL    HW222458   6.815   1.824   1.694
 7187SOL     OW22459   3.052   4.094   5.436
 7187SOL    HW122460   3.110   4.074   5.514
 7187SOL    HW222461   2.956   4.083   5.462
 7188SOL     OW22462   4.988   5.739   6.987
 7188SOL    HW122463   5.086   5.744   6.972
 7188SOL    HW222464   4.965   5.656   0.020
 7189SOL     OW22465   6.559   3.078   5.819
 7189SOL    HW122466   6.573   3.174   5.844
 7189SOL    HW222467   6.565   3.069   5.720
 7190SOL     OW22468   6.082   5.991   1.473
 7190SOL    HW122469   5.984   6.013   1.478
 7190SOL    HW222470   6.124   6.007   1.562
 7191SOL     OW22471   0.770   4.386   2.663
 7191SOL    HW122472   0.778   4.374   2.564
 7191SOL    HW222473   0.697   4.327   2.698
 7192SOL     OW22474   1.802   4.306   6.722
 7192SOL    HW122475   1.829   4.216   6.754
 7192SOL    HW222476   1.789   4.304   6.623
 7193SOL     OW22477   2.154   2.366   2.271
 7193SOL    HW122478   2.086   2.312   2.322
 7193SOL    HW222479   2.245   2.331   2.291
 7194SOL     OW22480   1.910   2.728   6.736
 7194SOL    HW122481   1.992   2.785   6.723
 7194SOL    HW222482   1.883   2.732   6.832
 7195SOL     OW22483   6.350   4.144   6.851
 7195SOL    HW122484   6.449   4.149   6.864
 7195SOL    HW222485   6.314   4.236   6.831
 7196SOL     OW22486   2.603   3.759   1.578
 7196SOL    HW122487   2.586   3.858   1.574
 7196SOL    HW222488   2.515   3.711   1.585
 7197SOL     OW22489   1.377   3.434   5.761
 7197SOL    HW122490   1.457   3.417   5.704
 7197SOL    HW222491   1.373   3.531   5.785
 7198SOL     OW22492   0.818   0.984   0.194
 7198SOL    HW122493   0.811   1.030   0.282
 7198SOL    HW222494   0.734   0.933   0.175
 7199SOL     OW22495   1.173   0.174   3.039
 7199SOL    HW122496   1.173   0.247   2.971
 7199SOL    HW222497   1.247   0.189   3.105
 7200SOL     OW22498   2.129   2.929   6.711
 7200SOL    HW122499   2.199   2.911   6.780
 7200SOL    HW222500   2.172   2.957   6.625
 7201SOL     OW22501   0.901   5.801   4.179
 7201SOL    HW122502   0.858   5.736   4.240
 7201SOL    HW222503   0.974   5.849   4.228
 7202SOL     OW22504   4.338   6.534   6.535
 7202SOL    HW122505   4.358   6.495   6.625
 7202SOL    HW222506   4.268   6.478   6.490
 7203SOL     OW22507   6.870   1.474   1.737
 7203SOL    HW122508   6.866   1.538   1.660
 7203SOL    HW222509   6.814   1.508   1.812
 7204SOL     OW22510   0.214   1.316   6.455
 7204SOL    HW122511   0.236   1.384   6.524
 7204SOL    HW222512   0.177   1.363   6.374
 7205SOL     OW22513   1.432   4.370   5.303
 7205SOL    HW122514   1.405   4.274   5.314
 7205SOL    HW222515   1.517   4.387   5.353
 7206SOL     OW22516   1.647   1.025   1.908
 7206SOL    HW122517   1.665   1.113   1.865
 7206SOL    HW222518   1.562   0.986   1.871
 7207SOL     OW22519   3.556   0.588   4.493
 7207SOL    HW122520   3.553   0.504   4.439
 7207SOL    HW222521   3.496   0.579   4.573
 7208SOL     OW22522   4.755   0.182   3.225
 7208SOL    HW122523   4.699   0.253   3.268
 7208SOL    HW222524   4.848   0.189   3.260
 7209SOL     OW22525   2.043   3.048   2.012
 7209SOL    HW122526   2.075   2.954   1.999
 7209SOL    HW222527   2.059   3.076   2.107
 7210SOL     OW22528   3.904   2.083   3.749
 7210SOL    HW122529   3.886   2.127   3.837
 7210SOL    HW222530   3.819   2.080   3.696
 7211SOL     OW22531   2.517   6.154   5.079
 7211SOL    HW122532   2.502   6.242   5.123
 7211SOL    HW222533   2.525   6.083   5.148
 7212SOL     OW22534   0.340   6.241   5.674
 7212SOL    HW122535   0.283   6.291   5.608
 7212SOL    HW222536   0.285   6.172   5.721
 7213SOL     OW22537   3.642   6.068   6.616
 7213SOL    HW122538   3.659   6.149   6.561
 7213SOL    HW222539   3.685   6.078   6.705
 7214SOL     OW22540   6.188   0.359   5.801
 7214SOL    HW122541   6.166   0.327   5.893
 7214SOL    HW222542   6.178   0.458   5.797
 7215SOL     OW22543   5.866   2.850   4.183
 7215SOL    HW122544   5.793   2.816   4.242
 7215SOL    HW222545   5.853   2.814   4.090
 7216SOL     OW22546   2.673   0.331   2.347
 7216SOL    HW122547   2.748   0.396   2.337
 7216SOL    HW222548   2.650   0.321   2.444
 7217SOL     OW22549   1.885   3.687   3.265
 7217SOL    HW122550   1.857   3.642   3.181
 7217SOL    HW222551   1.957   3.753   3.245
 7218SOL     OW22552   6.796   2.682   4.135
 7218SOL    HW122553   6.832   2.659   4.044
 7218SOL    HW222554   6.704   2.721   4.126
 7219SOL     OW22555   3.278   0.673   2.125
 7219SOL    HW122556   3.219   0.678   2.044
 7219SOL    HW222557   3.221   0.658   2.206
 7220SOL     OW22558   6.656   4.600   4.001
 7220SOL    HW122559   6.661   4.577   4.098
 7220SOL    HW222560   6.737   4.652   3.975
 7221SOL     OW22561   3.685   6.275   4.515
 7221SOL    HW122562   3.770   6.318   4.484
 7221SOL    HW222563   3.617   6.346   4.536
 7222SOL     OW22564   6.270   6.507   3.649
 7222SOL    HW122565   6.268   6.526   3.551
 7222SOL    HW222566   6.268   6.408   3.664
 7223SOL     OW22567   3.171   1.218   0.566
 7223SOL    HW122568   3.263   1.259   0.562
 7223SOL    HW222569   3.119   1.249   0.486
 7224SOL     OW22570   4.961   2.740   4.399
 7224SOL    HW122571   4.962   2.827   4.348
 7224SOL    HW222572   4.979   2.758   4.495
 7225SOL     OW22573   1.576   6.432   0.688
 7225SOL    HW122574   1.485   6.451   0.724
 7225SOL    HW222575   1.591   6.485   0.605
 7226SOL     OW22576   5.669   6.925   1.073
 7226SOL    HW122577   5.769   6.915   1.072
 7226SOL    HW222578   5.638   6.955   0.983
 7227SOL     OW22579   2.585   1.829   1.568
 7227SOL    HW122580   2.652   1.898   1.596
 7227SOL    HW222581   2.512   1.824   1.636
 7228SOL     OW22582   1.430   1.331   2.765
 7228SOL    HW122583   1.452   1.245   2.812
 7228SOL    HW222584   1.506   1.395   2.775
 7229SOL     OW22585   0.861   6.592   5.488
 7229SOL    HW122586   0.880   6.514   5.428
 7229SOL    HW222587   0.806   6.659   5.439
 7230SOL     OW22588   3.377   5.797   3.763
 7230SOL    HW122589   3.405   5.882   3.718
 7230SOL    HW222590   3.331   5.738   3.698
 7231SOL     OW22591   4.057   0.503   6.540
 7231SOL    HW122592   4.134   0.562   6.515
 7231SOL    HW222593   4.023   0.529   6.631
 7232SOL     OW22594   4.595   5.825   2.798
 7232SOL    HW122595   4.670   5.891   2.792
 7232SOL    HW222596   4.572   5.792   2.707
 7233SOL     OW22597   1.283   1.305   4.458
 7233SOL    HW122598   1.232   1.330   4.541
 7233SOL    HW222599   1.377   1.282   4.483
 7234SOL     OW22600   5.878   3.324   3.022
 7234SOL    HW122601   5.971   3.352   2.996
 7234SOL    HW222602   5.829   3.292   2.941
 7235SOL     OW22603   6.855   4.203   1.844
 7235SOL    HW122604   6.888   4.198   1.938
 7235SOL    HW222605   6.768   4.252   1.842
 7236SOL     OW22606   2.692   2.379   2.758
 7236SOL    HW122607   2.679   2.284   2.785
 7236SOL    HW222608   2.660   2.439   2.831
 7237SOL     OW22609   3.991   0.186   5.233
 7237SOL    HW122610   3.941   0.221   5.312
 7237SOL    HW222611   3.930   0.131   5.176
 7238SOL     OW22612   4.604   2.418   6.112
 7238SOL    HW122613   4.585   2.332   6.063
 7238SOL    HW222614   4.600   2.401   6.210
 7239SOL     OW22615   0.687   2.331   1.542
 7239SOL    HW122616   0.643   2.252   1.499
 7239SOL    HW222617   0.668   2.413   1.488
 7240SOL     OW22618   6.941   1.354   5.691
 7240SOL    HW122619   6.952   1.336   5.788
 7240SOL    HW222620   6.995   1.435   5.666
 7241SOL     OW22621   2.634   0.226   1.143
 7241SOL    HW122622   2.546   0.237   1.097
 7241SOL    HW222623   2.626   0.256   1.238
 7242SOL     OW22624   6.190   5.683   6.881
 7242SOL    HW122625   6.116   5.739   6.918
 7242SOL    HW222626   6.161   5.587   6.880
 7243SOL     OW22627   6.625   4.674   6.389
 7243SOL    HW122628   6.652   4.666   6.293
 7243SOL    HW222629   6.706   4.665   6.447
 7244SOL     OW22630   0.355   0.777   1.300
 7244SOL    HW122631   0.410   0.835   1.241
 7244SOL    HW222632   0.368   0.681   1.275
 7245SOL     OW22633   1.428   3.353   5.264
 7245SOL    HW122634   1.402   3.392   5.352
 7245SOL    HW222635   1.518   3.389   5.237
 7246SOL     OW22636   1.332   0.141   3.593
 7246SOL    HW122637   1.414   0.198   3.591
 7246SOL    HW222638   1.327   0.094   3.681
 7247SOL     OW22639   2.347   1.303   5.018
 7247SOL    HW122640   2.414   1.357   4.967
 7247SOL    HW222641   2.261   1.353   5.024
 7248SOL     OW22642   3.455   1.156   2.512
 7248SOL    HW122643   3.480   1.245   2.473
 7248SOL    HW222644   3.355   1.150   2.517
 7249SOL     OW22645   5.087   4.866   2.326
 7249SOL    HW122646   5.093   4.958   2.366
 7249SOL    HW222647   5.100   4.797   2.397
 7250SOL     OW22648   5.279   6.309   5.750
 7250SOL    HW122649   5.231   6.355   5.824
 7250SOL    HW222650   5.276   6.366   5.668
 7251SOL     OW22651   0.399   6.730   5.953
 7251SOL    HW122652   0.427   6.673   6.030
 7251SOL    HW222653   0.429   6.688   5.867
 7252SOL     OW22654   3.454   3.501   2.144
 7252SOL    HW122655   3.484   3.406   2.157
 7252SOL    HW222656   3.354   3.505   2.154
 7253SOL     OW22657   1.789   5.917   6.693
 7253SOL    HW122658   1.869   5.973   6.671
 7253SOL    HW222659   1.819   5.825   6.718
 7254SOL     OW22660   5.356   5.252   4.638
 7254SOL    HW122661   5.428   5.286   4.698
 7254SOL    HW222662   5.314   5.171   4.678
 7255SOL     OW22663   4.159   3.367   0.243
 7255SOL    HW122664   4.101   3.293   0.211
 7255SOL    HW222665   4.114   3.413   0.320
 7256SOL     OW22666   3.472   5.851   4.998
 7256SOL    HW122667   3.476   5.757   4.964
 7256SOL    HW222668   3.536   5.908   4.947
 7257SOL     OW22669   6.971   1.817   3.661
 7257SOL    HW122670   0.050   1.819   3.688
 7257SOL    HW222671   6.950   1.730   3.616
 7258SOL     OW22672   4.792   2.367   2.924
 7258SOL    HW122673   4.791   2.304   3.002
 7258SOL    HW222674   4.885   2.397   2.906
 7259SOL     OW22675   1.795   3.890   1.734
 7259SOL    HW122676   1.892   3.910   1.750
 7259SOL    HW222677   1.773   3.799   1.771
 7260SOL     OW22678   5.336   1.733   1.588
 7260SOL    HW122679   5.383   1.691   1.665
 7260SOL    HW222680   5.395   1.802   1.546
 7261SOL     OW22681   1.642   4.494   1.753
 7261SOL    HW122682   1.654   4.468   1.849
 7261SOL    HW222683   1.556   4.457   1.718
 7262SOL     OW22684   5.605   2.313   6.140
 7262SOL    HW122685   5.536   2.241   6.133
 7262SOL    HW222686   5.620   2.336   6.236
 7263SOL     OW22687   0.605   6.662   0.172
 7263SOL    HW122688   0.569   6.734   0.112
 7263SOL    HW222689   0.545   6.582   0.167
 7264SOL     OW22690   5.477   1.597   6.730
 7264SOL    HW122691   5.465   1.696   6.727
 7264SOL    HW222692   5.565   1.573   6.688
 7265SOL     OW22693   5.383   5.119   6.426
 7265SOL    HW122694   5.459   5.153   6.482
 7265SOL    HW222695   5.297   5.130   6.477
 7266SOL     OW22696   5.857   0.256   2.674
 7266SOL    HW122697   5.810   0.276   2.588
 7266SOL    HW222698   5.846   0.159   2.697
 7267SOL     OW22699   6.162   6.336   5.019
 7267SOL    HW122700   6.130   6.333   4.925
 7267SOL    HW222701   6.201   6.426   5.038
 7268SOL     OW22702   6.966   5.782   4.144
 7268SOL    HW122703   6.868   5.765   4.156
 7268SOL    HW222704   6.979   5.874   4.108
 7269SOL     OW22705   1.295   6.050   5.878
 7269SOL    HW122706   1.279   5.972   5.817
 7269SOL    HW222707   1.393   6.073   5.877
 7270SOL     OW22708   0.965   3.089   4.982
 7270SOL    HW122709   1.006   3.090   5.073
 7270SOL    HW222710   0.974   2.998   4.942
 7271SOL     OW22711   1.346   5.141   4.405
 7271SOL    HW122712   1.415   5.171   4.471
 7271SOL    HW222713   1.309   5.221   4.357
 7272SOL     OW22714   6.168   5.072   2.908
 7272SOL    HW122715   6.084   5.058   2.855
 7272SOL    HW222716   6.208   5.160   2.884
 7273SOL     OW22717   6.454   4.106   1.323
 7273SOL    HW122718   6.395   4.025   1.325
 7273SOL    HW222719   6.399   4.186   1.299
 7274SOL     OW22720   0.788   5.337   5.913
 7274SOL    HW122721   0.744   5.397   5.847
 7274SOL    HW222722   0.883   5.365   5.927
 7275SOL     OW22723   0.738   5.581   2.856
 7275SOL    HW122724   0.714   5.653   2.920
 7275SOL    HW222725   0.772   5.621   2.771
 7276SOL     OW22726   5.049   0.535   2.865
 7276SOL    HW122727   5.105   0.545   2.947
 7276SOL    HW222728   5.063   0.445   2.826
 7277SOL     OW22729   5.324   0.895   4.177
 7277SOL    HW122730   5.308   0.896   4.276
 7277SOL    HW222731   5.351   0.803   4.149
 7278SOL     OW22732   3.847   2.412   1.260
 7278SOL    HW122733   3.852   2.442   1.165
 7278SOL    HW222734   3.926   2.354   1.280
 7279SOL     OW22735   4.041   4.445   6.018
 7279SOL    HW122736   3.986   4.527   6.035
 7279SOL    HW222737   4.137   4.464   6.036
 7280SOL     OW22738   0.136   1.727   3.916
 7280SOL    HW122739   0.175   1.764   4.000
 7280SOL    HW222740   0.210   1.708   3.851
 7281SOL     OW22741   2.959   1.539   6.837
 7281SOL    HW122742   2.891   1.468   6.851
 7281SOL    HW222743   2.989   1.576   6.925
 7282SOL     OW22744   6.406   5.062   3.100
 7282SOL    HW122745   6.337   5.132   3.122
 7282SOL    HW222746   6.374   5.005   3.025
 7283SOL     OW22747   4.648   1.209   2.703
 7283SOL    HW122748   4.734   1.246   2.739
 7283SOL    HW222749   4.617   1.135   2.762
 7284SOL     OW22750   0.364   2.719   5.886
 7284SOL    HW122751   0.290   2.678   5.833
 7284SOL    HW222752   0.405   2.651   5.946
 7285SOL     OW22753   5.254   2.940   2.468
 7285SOL    HW122754   5.208   3.019   2.427
 7285SOL    HW222755   5.280   2.875   2.396
 7286SOL     OW22756   2.441   1.211   0.432
 7286SOL    HW122757   2.490   1.294   0.458
 7286SOL    HW222758   2.499   1.132   0.447
 7287SOL     OW22759   0.539   2.449   5.625
 7287SOL    HW122760   0.591   2.532   5.645
 7287SOL    HW222761   0.601   2.370   5.621
 7288SOL     OW22762   2.084   0.899   0.603
 7288SOL    HW122763   2.123   0.985   0.637
 7288SOL    HW222764   2.065   0.838   0.681
 7289SOL     OW22765   4.982   2.450   4.515
 7289SOL    HW122766   5.053   2.425   4.581
 7289SOL    HW222767   5.000   2.542   4.480
 7290SOL     OW22768   3.701   0.573   5.157
 7290SOL    HW122769   3.666   0.655   5.112
 7290SOL    HW222770   3.708   0.498   5.091
 7291SOL     OW22771   2.023   6.427   0.703
 7291SOL    HW122772   2.090   6.379   0.645
 7291SOL    HW222773   1.995   6.511   0.657
 7292SOL     OW22774   3.571   1.011   3.837
 7292SOL    HW122775   3.482   0.966   3.828
 7292SOL    HW222776   3.625   0.995   3.755
 7293SOL     OW22777   1.454   1.756   4.883
 7293SOL    HW122778   1.491   1.786   4.971
 7293SOL    HW222779   1.356   1.775   4.880
 7294SOL     OW22780   2.748   5.178   6.801
 7294SOL    HW122781   2.667   5.233   6.821
 7294SOL    HW222782   2.812   5.231   6.746
 7295SOL     OW22783   6.258   2.668   1.370
 7295SOL    HW122784   6.334   2.720   1.332
 7295SOL    HW222785   6.223   2.604   1.302
 7296SOL     OW22786   3.164   5.938   2.067
 7296SOL    HW122787   3.223   6.014   2.038
 7296SOL    HW222788   3.081   5.975   2.108
 7297SOL     OW22789   3.979   0.145   1.356
 7297SOL    HW122790   3.972   0.110   1.262
 7297SOL    HW222791   3.972   0.068   1.420
 7298SOL     OW22792   5.332   5.147   5.935
 7298SOL    HW122793   5.253   5.092   5.906
 7298SOL    HW222794   5.321   5.172   6.031
 7299SOL     OW22795   1.139   2.098   0.737
 7299SOL    HW122796   1.105   2.190   0.716
 7299SOL    HW222797   1.115   2.036   0.663
 7300SOL     OW22798   0.810   6.382   3.512
 7300SOL    HW122799   0.749   6.461   3.506
 7300SOL    HW222800   0.803   6.341   3.603
 7301SOL     OW22801   5.373   1.570   4.642
 7301SOL    HW122802   5.395   1.542   4.549
 7301SOL    HW222803   5.287   1.620   4.643
 7302SOL     OW22804   0.783   2.315   5.042
 7302SOL    HW122805   0.801   2.360   4.955
 7302SOL    HW222806   0.700   2.352   5.083
 7303SOL     OW22807   3.729   0.290   0.262
 7303SOL    HW122808   3.758   0.368   0.318
 7303SOL    HW222809   3.763   0.301   0.169
 7304SOL     OW22810   3.376   5.734   1.524
 7304SOL    HW122811   3.306   5.801   1.551
 7304SOL    HW222812   3.392   5.741   1.426
 7305SOL     OW22813   4.256   0.824   0.325
 7305SOL    HW122814   4.255   0.725   0.335
 7305SOL    HW222815   4.313   0.849   0.246
 7306SOL     OW22816   4.939   1.528   0.709
 7306SOL    HW122817   4.893   1.593   0.770
 7306SOL    HW222818   4.947   1.568   0.617
 7307SOL     OW22819   2.742   6.615   2.174
 7307SOL    HW122820   2.767   6.529   2.130
 7307SOL    HW222821   2.645   6.613   2.200
 7308SOL     OW22822   0.013   2.916   5.770
 7308SOL    HW122823   6.961   2.848   5.798
 7308SOL    HW222824   0.037   2.973   5.849
 7309SOL     OW22825   4.464   5.358   1.272
 7309SOL    HW122826   4.461   5.448   1.229
 7309SOL    HW222827   4.445   5.288   1.204
 7310SOL     OW22828   2.601   3.883   1.288
 7310SOL    HW122829   2.551   3.907   1.371
 7310SOL    HW222830   2.554   3.809   1.241
 7311SOL     OW22831   2.274   1.563   1.446
 7311SOL    HW122832   2.346   1.623   1.413
 7311SOL    HW222833   2.193   1.617   1.470
 7312SOL     OW22834   0.923   3.685   4.680
 7312SOL    HW122835   0.870   3.666   4.597
 7312SOL    HW222836   1.000   3.621   4.685
 7313SOL     OW22837   2.390   0.648   0.347
 7313SOL    HW122838   2.326   0.723   0.364
 7313SOL    HW222839   2.416   0.606   0.434
 7314SOL     OW22840   0.126   5.413   5.868
 7314SOL    HW122841   0.094   5.487   5.929
 7314SOL    HW222842   0.158   5.453   5.782
 7315SOL     OW22843   6.007   0.109   2.193
 7315SOL    HW122844   5.980   0.014   2.207
 7315SOL    HW222845   6.051   0.118   2.104
 7316SOL     OW22846   2.847   4.149   6.902
 7316SOL    HW122847   2.947   4.156   6.904
 7316SOL    HW222848   2.820   4.070   6.846
 7317SOL     OW22849   5.171   1.131   2.847
 7317SOL    HW122850   5.167   1.062   2.920
 7317SOL    HW222851   5.252   1.188   2.859
 7318SOL     OW22852   1.946   0.412   1.753
 7318SOL    HW122853   1.874   0.451   1.811
 7318SOL    HW222854   1.958   0.470   1.672
 7319SOL     OW22855   0.375   3.580   6.327
 7319SOL    HW122856   0.284   3.586   6.287
 7319SOL    HW222857   0.440   3.546   6.259
 7320SOL     OW22858   0.221   3.633   2.619
 7320SOL    HW122859   0.204   3.722   2.577
 7320SOL    HW222860   0.291   3.643   2.690
 7321SOL     OW22861   1.843   0.488   6.069
 7321SOL    HW122862   1.802   0.563   6.017
 7321SOL    HW222863   1.933   0.516   6.103
 7322SOL     OW22864   6.700   2.802   3.248
 7322SOL    HW122865   6.721   2.775   3.154
 7322SOL    HW222866   6.779   2.783   3.307
 7323SOL     OW22867   1.108   2.504   2.005
 7323SOL    HW122868   1.204   2.531   1.992
 7323SOL    HW222869   1.073   2.465   1.920
 7324SOL     OW22870   4.351   5.740   2.279
 7324SOL    HW122871   4.267   5.759   2.228
 7324SOL    HW222872   4.430   5.765   2.223
 7325SOL     OW22873   3.379   6.937   0.103
 7325SOL    HW122874   3.333   6.927   0.192
 7325SOL    HW222875   3.341   7.015   0.054
 7326SOL     OW22876   2.787   6.016   6.322
 7326SOL    HW122877   2.726   6.003   6.401
 7326SOL    HW222878   2.829   6.106   6.327
 7327SOL     OW22879   6.346   1.726   6.032
 7327SOL    HW122880   6.259   1.707   6.078
 7327SOL    HW222881   6.418   1.737   6.100
 7328SOL     OW22882   3.009   0.809   5.837
 7328SOL    HW122883   3.011   0.723   5.887
 7328SOL    HW222884   3.052   0.796   5.747
 7329SOL     OW22885   6.455   4.186   1.624
 7329SOL    HW122886   6.438   4.112   1.688
 7329SOL    HW222887   6.473   4.149   1.533
 7330SOL     OW22888   2.712   2.290   6.823
 7330SOL    HW122889   2.698   2.233   6.742
 7330SOL    HW222890   2.800   2.268   6.864
 7331SOL     OW22891   5.349   6.538   1.685
 7331SOL    HW122892   5.293   6.620   1.680
 7331SOL    HW222893   5.367   6.516   1.781
 7332SOL     OW22894   2.893   6.114   0.186
 7332SOL    HW122895   2.946   6.127   0.270
 7332SOL    HW222896   2.850   6.023   0.188
 7333SOL     OW22897   0.083   2.761   2.358
 7333SOL    HW122898   0.055   2.689   2.422
 7333SOL    HW222899   0.161   2.730   2.305
 7334SOL     OW22900   2.652   5.681   6.495
 7334SOL    HW122901   2.707   5.660   6.576
 7334SOL    HW222902   2.711   5.681   6.414
 7335SOL     OW22903   2.094   2.439   3.305
 7335SOL    HW122904   2.128   2.474   3.392
 7335SOL    HW222905   2.166   2.446   3.236
 7336SOL     OW22906   1.595   6.331   2.904
 7336SOL    HW122907   1.545   6.388   2.969
 7336SOL    HW222908   1.593   6.236   2.935
 7337SOL     OW22909   0.517   3.147   1.652
 7337SOL    HW122910   0.573   3.230   1.650
 7337SOL    HW222911   0.422   3.171   1.632
 7338SOL     OW22912   5.516   1.764   2.005
 7338SOL    HW122913   5.572   1.842   2.033
 7338SOL    HW222914   5.549   1.729   1.917
 7339SOL     OW22915   5.876   6.753   3.962
 7339SOL    HW122916   5.909   6.843   3.991
 7339SOL    HW222917   5.954   6.694   3.941
 7340SOL     OW22918   2.997   1.303   0.384
 7340SOL    HW122919   2.931   1.248   0.435
 7340SOL    HW222920   2.969   1.310   0.289
 7341SOL     OW22921   0.899   3.885   6.109
 7341SOL    HW122922   0.972   3.939   6.150
 7341SOL    HW222923   0.872   3.812   6.171
 7342SOL     OW22924   0.479   1.955   0.708
 7342SOL    HW122925   0.423   1.898   0.768
 7342SOL    HW222926   0.438   2.046   0.700
 7343SOL     OW22927   6.523   3.543   1.123
 7343SOL    HW122928   6.473   3.472   1.173
 7343SOL    HW222929   6.477   3.562   1.036
 7344SOL     OW22930   1.012   0.875   6.227
 7344SOL    HW122931   0.940   0.924   6.177
 7344SOL    HW222932   1.083   0.846   6.163
 7345SOL     OW22933   3.930   4.864   5.569
 7345SOL    HW122934   3.996   4.939   5.571
 7345SOL    HW222935   3.842   4.898   5.535
 7346SOL     OW22936   3.784   4.860   2.118
 7346SOL    HW122937   3.755   4.899   2.206
 7346SOL    HW222938   3.725   4.782   2.095
 7347SOL     OW22939   0.800   2.052   0.531
 7347SOL    HW122940   0.807   2.081   0.435
 7347SOL    HW222941   0.732   1.979   0.539
 7348SOL     OW22942   1.622   3.656   4.194
 7348SOL    HW122943   1.524   3.667   4.178
 7348SOL    HW222944   1.647   3.560   4.178
 7349SOL     OW22945   4.888   1.688   1.391
 7349SOL    HW122946   4.961   1.659   1.329
 7349SOL    HW222947   4.822   1.613   1.402
 7350SOL     OW22948   2.610   2.766   5.612
 7350SOL    HW122949   2.597   2.667   5.610
 7350SOL    HW222950   2.618   2.800   5.519
 7351SOL     OW22951   5.287   5.857   4.663
 7351SOL    HW122952   5.319   5.896   4.576
 7351SOL    HW222953   5.219   5.786   4.644
 7352SOL     OW22954   1.701   1.348   2.983
 7352SOL    HW122955   1.764   1.347   2.905
 7352SOL    HW222956   1.753   1.362   3.067
 7353SOL     OW22957   0.647   6.900   6.244
 7353SOL    HW122958   0.634   6.862   6.336
 7353SOL    HW222959   0.558   6.921   6.204
 7354SOL     OW22960   0.863   2.298   4.565
 7354SOL    HW122961   0.893   2.318   4.472
 7354SOL    HW222962   0.806   2.215   4.564
 7355SOL     OW22963   1.429   0.403   0.739
 7355SOL    HW122964   1.488   0.327   0.764
 7355SOL    HW222965   1.405   0.456   0.821
 7356SOL     OW22966   3.715   3.678   6.267
 7356SOL    HW122967   3.677   3.603   6.213
 7356SOL    HW222968   3.793   3.717   6.218
 7357SOL     OW22969   3.190   7.011   1.888
 7357SOL    HW122970   3.273   6.959   1.905
 7357SOL    HW222971   3.188   0.024   1.792
 7358SOL     OW22972   6.391   3.408   2.531
 7358SOL    HW122973   6.375   3.361   2.444
 7358SOL    HW222974   6.401   3.506   2.514
 7359SOL     OW22975   3.973   2.141   5.646
 7359SOL    HW122976   4.004   2.105   5.558
 7359SOL    HW222977   3.927   2.229   5.633
 7360SOL     OW22978   2.888   3.362   5.678
 7360SOL    HW122979   2.821   3.288   5.689
 7360SOL    HW222980   2.944   3.344   5.598
 7361SOL     OW22981   4.709   0.724   1.885
 7361SOL    HW122982   4.777   0.653   1.867
 7361SOL    HW222983   4.629   0.683   1.929
 7362SOL     OW22984   1.293   5.348   6.088
 7362SOL    HW122985   1.383   5.381   6.060
 7362SOL    HW222986   1.302   5.288   6.167
 7363SOL     OW22987   4.804   1.874   1.207
 7363SOL    HW122988   4.823   1.814   1.284
 7363SOL    HW222989   4.734   1.833   1.149
 7364SOL     OW22990   4.709   0.812   1.382
 7364SOL    HW122991   4.676   0.825   1.475
 7364SOL    HW222992   4.759   0.893   1.353
 7365SOL     OW22993   0.483   5.762   1.778
 7365SOL    HW122994   0.460   5.677   1.731
 7365SOL    HW222995   0.541   5.742   1.857
 7366SOL     OW22996   2.145   6.037   6.804
 7366SOL    HW122997   2.155   5.972   6.878
 7366SOL    HW222998   2.157   6.130   6.839
 7367SOL     OW22999   5.360   2.286   1.330
 7367SOL    HW123000   5.348   2.382   1.305
 7367SOL    HW223001   5.430   2.278   1.400
 7368SOL     OW23002   3.759   2.957   2.876
 7368SOL    HW123003   3.782   2.955   2.973
 7368SOL    HW223004   3.807   3.032   2.831
 7369SOL     OW23005   3.457   2.234   0.384
 7369SOL    HW123006   3.437   2.283   0.299
 7369SOL    HW223007   3.422   2.286   0.461
 7370SOL     OW23008   2.834   0.747   4.782
 7370SOL    HW123009   2.802   0.828   4.832
 7370SOL    HW223010   2.857   0.675   4.847
 7371SOL     OW23011   2.531   6.772   3.608
 7371SOL    HW123012   2.448   6.821   3.581
 7371SOL    HW223013   2.602   6.785   3.538
 7372SOL     OW23014   4.941   0.766   4.164
 7372SOL    HW123015   4.851   0.729   4.189
 7372SOL    HW223016   4.948   0.772   4.065
 7373SOL     OW23017   6.165   1.815   3.544
 7373SOL    HW123018   6.106   1.760   3.603
 7373SOL    HW223019   6.254   1.827   3.587
 7374SOL     OW23020   2.860   1.874   5.168
 7374SOL    HW123021   2.901   1.955   5.126
 7374SOL    HW223022   2.928   1.828   5.226
 7375SOL     OW23023   2.265   2.535   2.681
 7375SOL    HW123024   2.355   2.501   2.654
 7375SOL    HW223025   2.208   2.546   2.600
 7376SOL     OW23026   2.031   2.158   0.637
 7376SOL    HW123027   2.004   2.129   0.546
 7376SOL    HW223028   2.017   2.082   0.702
 7377SOL     OW23029   5.359   4.500   0.649
 7377SOL    HW123030   5.384   4.596   0.657
 7377SOL    HW223031   5.441   4.446   0.628
 7378SOL     OW23032   0.200   0.809   5.491
 7378SOL    HW123033   0.256   0.759   5.424
 7378SOL    HW223034   0.105   0.777   5.485
 7379SOL     OW23035   3.008   1.991   2.541
 7379SOL    HW123036   2.996   2.031   2.451
 7379SOL    HW223037   2.923   1.944   2.568
 7380SOL     OW23038   0.023   4.325   3.765
 7380SOL    HW123039   0.029   4.229   3.793
 7380SOL    HW223040   0.102   4.348   3.708
 7381SOL     OW23041   4.249   3.124   0.622
 7381SOL    HW123042   4.277   3.032   0.649
 7381SOL    HW223043   4.234   3.179   0.704
 7382SOL     OW23044   0.429   0.558   5.277
 7382SOL    HW123045   0.454   0.556   5.374
 7382SOL    HW223046   0.411   0.652   5.250
 7383SOL     OW23047   2.893   6.583   0.771
 7383SOL    HW123048   2.849   6.611   0.685
 7383SOL    HW223049   2.844   6.506   0.810
 7384SOL     OW23050   6.212   6.185   2.589
 7384SOL    HW123051   6.124   6.152   2.623
 7384SOL    HW223052   6.259   6.111   2.541
 7385SOL     OW23053   3.291   5.624   2.688
 7385SOL    HW123054   3.359   5.667   2.629
 7385SOL    HW223055   3.259   5.539   2.646
 7386SOL     OW23056   6.994   2.608   0.056
 7386SOL    HW123057   0.028   2.693   0.041
 7386SOL    HW223058   6.997   2.584   0.153
 7387SOL     OW23059   6.095   5.719   6.040
 7387SOL    HW123060   6.086   5.790   5.970
 7387SOL    HW223061   6.091   5.760   6.131
 7388SOL     OW23062   1.220   5.444   1.941
 7388SOL    HW123063   1.197   5.512   1.872
 7388SOL    HW223064   1.281   5.484   2.008
 7389SOL     OW23065   5.738   4.147   5.991
 7389SOL    HW123066   5.768   4.054   6.014
 7389SOL    HW223067   5.722   4.153   5.892
 7390SOL     OW23068   2.050   2.740   1.701
 7390SOL    HW123069   1.958   2.728   1.664
 7390SOL    HW223070   2.087   2.828   1.670
 7391SOL     OW23071   4.140   3.381   3.590
 7391SOL    HW123072   4.081   3.446   3.638
 7391SOL    HW223073   4.208   3.345   3.654
 7392SOL     OW23074   3.024   5.719   6.438
 7392SOL    HW123075   3.076   5.670   6.508
 7392SOL    HW223076   3.048   5.816   6.440
 7393SOL     OW23077   6.215   4.430   2.324
 7393SOL    HW123078   6.285   4.384   2.380
 7393SOL    HW223079   6.124   4.405   2.357
 7394SOL     OW23080   2.059   2.727   5.250
 7394SOL    HW123081   2.149   2.743   5.291
 7394SOL    HW223082   1.988   2.751   5.316
 7395SOL     OW23083   1.962   3.469   1.390
 7395SOL    HW123084   2.017   3.414   1.453
 7395SOL    HW223085   2.021   3.533   1.341
 7396SOL     OW23086   1.763   6.562   1.432
 7396SOL    HW123087   1.818   6.483   1.458
 7396SOL    HW223088   1.730   6.608   1.514
 7397SOL     OW23089   4.815   5.910   4.518
 7397SOL    HW123090   4.872   5.855   4.458
 7397SOL    HW223091   4.738   5.855   4.551
 7398SOL     OW23092   1.379   4.456   3.708
 7398SOL    HW123093   1.395   4.485   3.802
 7398SOL    HW223094   1.333   4.367   3.708
 7399SOL     OW23095   0.707   2.785   4.561
 7399SOL    HW123096   0.626   2.845   4.561
 7399SOL    HW223097   0.696   2.716   4.489
 7400SOL     OW23098   4.437   3.078   5.814
 7400SOL    HW123099   4.385   3.162   5.803
 7400SOL    HW223100   4.411   3.034   5.900
 7401SOL     OW23101   1.231   2.591   3.862
 7401SOL    HW123102   1.295   2.618   3.790
 7401SOL    HW223103   1.144   2.565   3.820
 7402SOL     OW23104   2.949   5.167   6.229
 7402SOL    HW123105   2.961   5.103   6.305
 7402SOL    HW223106   3.038   5.187   6.188
 7403SOL     OW23107   1.883   4.036   2.040
 7403SOL    HW123108   1.927   3.958   1.996
 7403SOL    HW223109   1.813   4.073   1.979
 7404SOL     OW23110   2.577   4.366   1.766
 7404SOL    HW123111   2.676   4.370   1.775
 7404SOL    HW223112   2.535   4.420   1.839
 7405SOL     OW23113   3.571   4.931   4.538
 7405SOL    HW123114   3.664   4.937   4.573
 7405SOL    HW223115   3.565   4.856   4.472
 7406SOL     OW23116   0.353   2.459   3.321
 7406SOL    HW123117   0.356   2.402   3.239
 7406SOL    HW223118   0.387   2.407   3.399
 7407SOL     OW23119   0.712   6.769   5.355
 7407SOL    HW123120   0.802   6.807   5.336
 7407SOL    HW223121   0.644   6.842   5.356
 7408SOL     OW23122   3.417   4.090   6.830
 7408SOL    HW123123   3.444   4.061   6.922
 7408SOL    HW223124   3.473   4.169   6.803
 7409SOL     OW23125   5.149   3.020   0.400
 7409SOL    HW123126   5.067   3.072   0.377
 7409SOL    HW223127   5.181   2.971   0.318
 7410SOL     OW23128   0.405   0.543   0.420
 7410SOL    HW123129   0.369   0.517   0.330
 7410SOL    HW223130   0.499   0.576   0.410
 7411SOL     OW23131   1.973   0.584   6.675
 7411SOL    HW123132   1.878   0.594   6.706
 7411SOL    HW223133   2.034   0.587   6.755
 7412SOL     OW23134   5.007   0.659   1.450
 7412SOL    HW123135   5.022   0.570   1.493
 7412SOL    HW223136   4.958   0.719   1.513
 7413SOL     OW23137   4.474   5.229   3.800
 7413SOL    HW123138   4.404   5.205   3.733
 7413SOL    HW223139   4.432   5.240   3.890
 7414SOL     OW23140   0.879   1.043   3.241
 7414SOL    HW123141   0.971   1.044   3.200
 7414SOL    HW223142   0.865   1.127   3.292
 7415SOL     OW23143   1.547   4.608   4.560
 7415SOL    HW123144   1.470   4.624   4.499
 7415SOL    HW223145   1.561   4.689   4.618
 7416SOL     OW23146   1.961   0.995   2.176
 7416SOL    HW123147   1.903   1.051   2.235
 7416SOL    HW223148   2.008   0.926   2.230
 7417SOL     OW23149   2.093   2.100   1.422
 7417SOL    HW123150   2.177   2.109   1.475
 7417SOL    HW223151   2.022   2.158   1.461
 7418SOL     OW23152   1.541   5.818   0.453
 7418SOL    HW123153   1.472   5.750   0.427
 7418SOL    HW223154   1.582   5.793   0.540
 7419SOL     OW23155   6.979   3.504   4.404
 7419SOL    HW123156   6.989   3.424   4.464
 7419SOL    HW223157   6.926   3.477   4.323
 7420SOL     OW23158   0.620   5.915   1.572
 7420SOL    HW123159   0.626   6.013   1.591
 7420SOL    HW223160   0.572   5.869   1.647
 7421SOL     OW23161   4.170   3.890   1.290
 7421SOL    HW123162   4.211   3.981   1.294
 7421SOL    HW223163   4.183   3.852   1.198
 7422SOL     OW23164   0.394   4.301   1.879
 7422SOL    HW123165   0.299   4.289   1.847
 7422SOL    HW223166   0.394   4.321   1.977
 7423SOL     OW23167   6.174   2.899   5.514
 7423SOL    HW123168   6.163   2.893   5.415
 7423SOL    HW223169   6.271   2.896   5.537
 7424SOL     OW23170   6.616   0.538   5.692
 7424SOL    HW123171   6.662   0.615   5.736
 7424SOL    HW223172   6.609   0.554   5.594
 7425SOL     OW23173   4.497   6.689   0.211
 7425SOL    HW123174   4.583   6.703   0.161
 7425SOL    HW223175   4.500   6.601   0.259
 7426SOL     OW23176   3.077   1.771   5.325
 7426SOL    HW123177   3.153   1.733   5.272
 7426SOL    HW223178   3.028   1.696   5.370
 7427SOL     OW23179   5.031   0.458   3.525
 7427SOL    HW123180   5.042   0.498   3.434
 7427SOL    HW223181   5.081   0.513   3.591
 7428SOL     OW23182   4.310   1.581   5.322
 7428SOL    HW123183   4.343   1.655   5.264
 7428SOL    HW223184   4.224   1.610   5.366
 7429SOL     OW23185   0.156   6.328   4.403
 7429SOL    HW123186   0.224   6.399   4.385
 7429SOL    HW223187   0.167   6.294   4.497
 7430SOL     OW23188   1.473   3.599   0.705
 7430SOL    HW123189   1.442   3.509   0.675
 7430SOL    HW223190   1.415   3.669   0.665
 7431SOL     OW23191   0.824   2.761   2.991
 7431SOL    HW123192   0.767   2.789   2.913
 7431SOL    HW223193   0.918   2.749   2.960
 7432SOL     OW23194   1.426   0.600   3.451
 7432SOL    HW123195   1.365   0.555   3.516
 7432SOL    HW223196   1.391   0.588   3.359
 7433SOL     OW23197   4.243   5.592   5.894
 7433SOL    HW123198   4.192   5.677   5.882
 7433SOL    HW223199   4.193   5.531   5.956
 7434SOL     OW23200   4.939   5.104   5.093
 7434SOL    HW123201   4.982   5.129   5.006
 7434SOL    HW223202   4.869   5.172   5.116
 7435SOL     OW23203   4.023   5.980   1.473
 7435SOL    HW123204   4.112   6.016   1.500
 7435SOL    HW223205   3.979   6.042   1.408
 7436SOL     OW23206   3.928   4.054   6.681
 7436SOL    HW123207   3.838   4.031   6.718
 7436SOL    HW223208   3.942   4.153   6.684
 7437SOL     OW23209   2.184   5.732   6.837
 7437SOL    HW123210   2.142   5.697   6.921
 7437SOL    HW223211   2.283   5.738   6.849
 7438SOL     OW23212   0.918   6.342   0.401
 7438SOL    HW123213   0.886   6.272   0.465
 7438SOL    HW223214   0.918   6.431   0.446
 7439SOL     OW23215   1.932   6.512   6.004
 7439SOL    HW123216   1.848   6.518   5.949
 7439SOL    HW223217   1.908   6.481   6.096
 7440SOL     OW23218   0.331   3.339   3.723
 7440SOL    HW123219   0.251   3.397   3.737
 7440SOL    HW223220   0.387   3.339   3.806
 7441SOL     OW23221   5.467   6.714   4.542
 7441SOL    HW123222   5.410   6.642   4.581
 7441SOL    HW223223   5.534   6.743   4.610
 7442SOL     OW23224   6.315   1.333   6.306
 7442SOL    HW123225   6.244   1.402   6.291
 7442SOL    HW223226   6.350   1.339   6.399
 7443SOL     OW23227   6.347   6.301   1.710
 7443SOL    HW123228   6.366   6.384   1.657
 7443SOL    HW223229   6.434   6.259   1.738
 7444SOL     OW23230   5.270   2.482   6.850
 7444SOL    HW123231   5.322   2.561   6.883
 7444SOL    HW223232   5.182   2.513   6.815
 7445SOL     OW23233   3.589   0.496   0.826
 7445SOL    HW123234   3.529   0.419   0.805
 7445SOL    HW223235   3.544   0.582   0.800
 7446SOL     OW23236   5.410   2.732   0.504
 7446SOL    HW123237   5.380   2.679   0.583
 7446SOL    HW223238   5.379   2.827   0.514
 7447SOL     OW23239   6.771   3.840   0.016
 7447SOL    HW123240   6.693   3.777   0.025
 7447SOL    HW223241   6.810   3.832   6.941
 7448SOL     OW23242   6.366   6.812   4.913
 7448SOL    HW123243   6.406   6.777   4.828
 7448SOL    HW223244   6.270   6.834   4.898
 7449SOL     OW23245   0.713   4.449   1.534
 7449SOL    HW123246   0.672   4.539   1.549
 7449SOL    HW223247   0.690   4.389   1.610
 7450SOL     OW23248   5.713   2.621   4.780
 7450SOL    HW123249   5.672   2.554   4.718
 7450SOL    HW223250   5.761   2.573   4.853
 7451SOL     OW23251   6.789   5.821   2.677
 7451SOL    HW123252   6.858   5.881   2.717
 7451SOL    HW223253   6.716   5.805   2.744
 7452SOL     OW23254   5.878   5.858   4.087
 7452SOL    HW123255   5.934   5.938   4.063
 7452SOL    HW223256   5.796   5.888   4.135
 7453SOL     OW23257   5.741   5.244   4.779
 7453SOL    HW123258   5.761   5.164   4.836
 7453SOL    HW223259   5.654   5.284   4.806
 7454SOL     OW23260   1.691   2.251   0.976
 7454SOL    HW123261   1.789   2.230   0.976
 7454SOL    HW223262   1.639   2.168   0.957
 7455SOL     OW23263   0.005   2.812   1.445
 7455SOL    HW123264   6.960   2.783   1.371
 7455SOL    HW223265   0.063   2.887   1.413
 7456SOL     OW23266   1.134   0.966   4.614
 7456SOL    HW123267   1.106   1.032   4.683
 7456SOL    HW223268   1.189   0.893   4.657
 7457SOL     OW23269   3.341   1.108   4.919
 7457SOL    HW123270   3.343   1.008   4.923
 7457SOL    HW223271   3.254   1.138   4.881
 7458SOL     OW23272   1.937   6.931   6.285
 7458SOL    HW123273   1.886   6.970   6.361
 7458SOL    HW223274   2.032   6.962   6.289
 7459SOL     OW23275   5.273   0.567   1.796
 7459SOL    HW123276   5.355   0.528   1.754
 7459SOL    HW223277   5.295   0.602   1.887
 7460SOL     OW23278   0.783   5.260   0.762
 7460SOL    HW123279   0.804   5.182   0.703
 7460SOL    HW223280   0.723   5.324   0.712
 7461SOL     OW23281   6.311   0.167   6.577
 7461SOL    HW123282   6.396   0.125   6.608
 7461SOL    HW223283   6.300   0.256   6.621
 7462SOL     OW23284   1.567   4.700   2.029
 7462SOL    HW123285   1.616   4.614   2.042
 7462SOL    HW223286   1.520   4.700   1.941
 7463SOL     OW23287   2.728   4.473   0.385
 7463SOL    HW123288   2.712   4.402   0.454
 7463SOL    HW223289   2.759   4.557   0.431
 7464SOL     OW23290   5.277   6.857   6.726
 7464SOL    HW123291   5.200   6.919   6.744
 7464SOL    HW223292   5.349   6.905   6.677
 7465SOL     OW23293   2.430   5.501   6.403
 7465SOL    HW123294   2.392   5.590   6.379
 7465SOL    HW223295   2.521   5.512   6.442
 7466SOL     OW23296   0.019   0.370   4.928
 7466SOL    HW123297   0.025   0.439   4.856
 7466SOL    HW223298   0.094   0.304   4.917
 7467SOL     OW23299   6.981   1.584   6.455
 7467SOL    HW123300   0.009   1.604   6.368
 7467SOL    HW223301   6.972   1.669   6.508
 7468SOL     OW23302   6.034   3.500   3.817
 7468SOL    HW123303   5.955   3.470   3.871
 7468SOL    HW223304   6.007   3.506   3.720
 7469SOL     OW23305   7.005   0.223   0.314
 7469SOL    HW123306   6.983   0.287   0.240
 7469SOL    HW223307   0.046   0.269   0.381
 7470SOL     OW23308   6.162   3.516   3.062
 7470SOL    HW123309   6.119   3.503   2.973
 7470SOL    HW223310   6.124   3.598   3.106
 7471SOL     OW23311   4.878   6.463   5.863
 7471SOL    HW123312   4.897   6.460   5.765
 7471SOL    HW223313   4.961   6.441   5.915
 7472SOL     OW23314   5.962   0.809   6.003
 7472SOL    HW123315   6.015   0.727   6.025
 7472SOL    HW223316   5.879   0.783   5.954
 7473SOL     OW23317   5.053   5.506   3.562
 7473SOL    HW123318   5.055   5.587   3.504
 7473SOL    HW223319   5.055   5.534   3.658
 7474SOL     OW23320   0.129   1.701   5.836
 7474SOL    HW123321   0.047   1.706   5.780
 7474SOL    HW223322   0.136   1.611   5.879
 7475SOL     OW23323   5.143   2.327   2.180
 7475SOL    HW123324   5.207   2.402   2.164
 7475SOL    HW223325   5.051   2.364   2.194
 7476SOL     OW23326   3.500   1.247   3.316
 7476SOL    HW123327   3.574   1.245   3.383
 7476SOL    HW223328   3.537   1.227   3.226
 7477SOL     OW23329   6.535   1.877   4.950
 7477SOL    HW123330   6.474   1.873   4.872
 7477SOL    HW223331   6.516   1.959   5.004
 7478SOL     OW23332   6.299   3.695   5.390
 7478SOL    HW123333   6.397   3.684   5.408
 7478SOL    HW223334   6.261   3.609   5.357
 7479SOL     OW23335   4.370   2.300   2.155
 7479SOL    HW123336   4.362   2.318   2.253
 7479SOL    HW223337   4.421   2.215   2.141
 7480SOL     OW23338   1.384   5.074   2.260
 7480SOL    HW123339   1.407   5.048   2.353
 7480SOL    HW223340   1.387   4.994   2.201
 7481SOL     OW23341   5.825   5.254   1.054
 7481SOL    HW123342   5.869   5.294   1.135
 7481SOL    HW223343   5.739   5.302   1.036
 7482SOL     OW23344   4.402   2.413   2.675
 7482SOL    HW123345   4.484   2.466   2.650
 7482SOL    HW223346   4.418   2.367   2.762
 7483SOL     OW23347   4.976   3.428   4.234
 7483SOL    HW123348   4.952   3.346   4.182
 7483SOL    HW223349   5.039   3.404   4.308
 7484SOL     OW23350   1.415   6.180   4.069
 7484SOL    HW123351   1.345   6.177   4.139
 7484SOL    HW223352   1.497   6.224   4.105
 7485SOL     OW23353   2.566   0.261   4.687
 7485SOL    HW123354   2.599   0.170   4.660
 7485SOL    HW223355   2.545   0.315   4.605
 7486SOL     OW23356   1.320   6.289   0.366
 7486SOL    HW123357   1.340   6.385   0.384
 7486SOL    HW223358   1.403   6.235   0.376
 7487SOL     OW23359   2.078   0.722   2.914
 7487SOL    HW123360   2.093   0.625   2.930
 7487SOL    HW223361   1.981   0.740   2.902
 7488SOL     OW23362   2.490   5.655   5.410
 7488SOL    HW123363   2.549   5.574   5.421
 7488SOL    HW223364   2.399   5.634   5.446
 7489SOL     OW23365   6.460   2.809   6.210
 7489SOL    HW123366   6.514   2.834   6.290
 7489SOL    HW223367   6.363   2.812   6.232
 7490SOL     OW23368   1.110   0.119   3.419
 7490SOL    HW123369   1.184   0.108   3.485
 7490SOL    HW223370   1.061   0.032   3.410
 7491SOL     OW23371   4.461   3.416   6.215
 7491SOL    HW123372   4.408   3.442   6.296
 7491SOL    HW223373   4.558   3.433   6.233
 7492SOL     OW23374   1.739   0.408   3.774
 7492SOL    HW123375   1.784   0.464   3.705
 7492SOL    HW223376   1.751   0.450   3.864
 7493SOL     OW23377   0.632   2.756   6.225
 7493SOL    HW123378   0.717   2.780   6.273
 7493SOL    HW223379   0.633   2.794   6.133
 7494SOL     OW23380   5.831   1.304   3.000
 7494SOL    HW123381   5.800   1.298   2.905
 7494SOL    HW223382   5.855   1.399   3.021
 7495SOL     OW23383   1.567   2.341   6.652
 7495SOL    HW123384   1.567   2.241   6.656
 7495SOL    HW223385   1.609   2.378   6.735
 7496SOL     OW23386   6.347   3.985   4.045
 7496SOL    HW123387   6.431   4.019   4.002
 7496SOL    HW223388   6.354   3.994   4.144
 7497SOL     OW23389   1.947   4.540   1.312
 7497SOL    HW123390   1.866   4.508   1.263
 7497SOL    HW223391   1.924   4.552   1.409
 7498SOL     OW23392   2.931   1.360   4.912
 7498SOL    HW123393   2.893   1.407   4.992
 7498SOL    HW223394   2.867   1.291   4.879
 7499SOL     OW23395   4.288   1.978   3.138
 7499SOL    HW123396   4.328   1.972   3.046
 7499SOL    HW223397   4.262   1.887   3.168
 7500SOL     OW23398   3.671   6.042   3.440
 7500SOL    HW123399   3.681   6.021   3.343
 7500SOL    HW223400   3.675   6.141   3.453
 7501SOL     OW23401   5.123   4.085   4.615
 7501SOL    HW123402   5.073   4.037   4.542
 7501SOL    HW223403   5.065   4.092   4.696
 7502SOL     OW23404   2.949   1.102   4.620
 7502SOL    HW123405   2.957   1.151   4.533
 7502SOL    HW223406   2.995   1.014   4.613
 7503SOL     OW23407   2.078   6.573   1.429
 7503SOL    HW123408   1.997   6.624   1.397
 7503SOL    HW223409   2.128   6.538   1.350
 7504SOL     OW23410   0.770   6.308   3.770
 7504SOL    HW123411   0.801   6.216   3.796
 7504SOL    HW223412   0.674   6.319   3.797
 7505SOL     OW23413   1.212   3.058   5.767
 7505SOL    HW123414   1.142   3.025   5.830
 7505SOL    HW223415   1.173   3.131   5.711
 7506SOL     OW23416   5.497   2.113   3.576
 7506SOL    HW123417   5.458   2.200   3.546
 7506SOL    HW223418   5.442   2.038   3.540
 7507SOL     OW23419   5.959   1.662   2.777
 7507SOL    HW123420   5.969   1.715   2.692
 7507SOL    HW223421   5.862   1.643   2.793
 7508SOL     OW23422   1.944   5.873   1.171
 7508SOL    HW123423   1.911   5.912   1.085
 7508SOL    HW223424   1.888   5.907   1.247
 7509SOL     OW23425   6.096   3.686   0.966
 7509SOL    HW123426   6.164   3.760   0.966
 7509SOL    HW223427   6.009   3.721   0.931
 7510SOL     OW23428   3.394   3.389   5.053
 7510SOL    HW123429   3.316   3.391   4.990
 7510SOL    HW223430   3.440   3.478   5.053
 7511SOL     OW23431   2.729   6.118   3.426
 7511SOL    HW123432   2.713   6.207   3.468
 7511SOL    HW223433   2.655   6.056   3.449
 7512SOL     OW23434   2.944   0.644   6.302
 7512SOL    HW123435   2.862   0.670   6.251
 7512SOL    HW223436   2.926   0.647   6.400
 7513SOL     OW23437   1.052   1.416   1.857
 7513SOL    HW123438   1.139   1.419   1.906
 7513SOL    HW223439   0.986   1.474   1.904
 7514SOL     OW23440   2.398   4.771   2.592
 7514SOL    HW123441   2.391   4.820   2.505
 7514SOL    HW223442   2.441   4.831   2.660
 7515SOL     OW23443   6.966   5.171   4.343
 7515SOL    HW123444   0.009   5.251   4.330
 7515SOL    HW223445   6.995   5.098   4.282
 7516SOL     OW23446   6.867   5.364   6.131
 7516SOL    HW123447   6.958   5.382   6.169
 7516SOL    HW223448   6.808   5.327   6.202
 7517SOL     OW23449   0.323   2.180   0.150
 7517SOL    HW123450   0.313   2.129   0.065
 7517SOL    HW223451   0.233   2.204   0.185
 7518SOL     OW23452   4.895   3.666   4.392
 7518SOL    HW123453   4.887   3.572   4.357
 7518SOL    HW223454   4.890   3.665   4.492
 7519SOL     OW23455   6.611   6.520   4.890
 7519SOL    HW123456   6.533   6.458   4.895
 7519SOL    HW223457   6.682   6.479   4.833
 7520SOL     OW23458   2.122   0.458   2.925
 7520SOL    HW123459   2.053   0.389   2.947
 7520SOL    HW223460   2.194   0.416   2.869
 7521SOL     OW23461   4.867   2.693   5.479
 7521SOL    HW123462   4.824   2.720   5.565
 7521SOL    HW223463   4.817   2.615   5.440
 7522SOL     OW23464   1.385   1.222   5.831
 7522SOL    HW123465   1.396   1.228   5.930
 7522SOL    HW223466   1.473   1.237   5.786
 7523SOL     OW23467   4.779   0.527   6.401
 7523SOL    HW123468   4.876   0.516   6.427
 7523SOL    HW223469   4.770   0.517   6.302
 7524SOL     OW23470   0.855   2.787   4.992
 7524SOL    HW123471   0.919   2.742   5.055
 7524SOL    HW223472   0.870   2.753   4.899
 7525SOL     OW23473   3.796   0.506   0.003
 7525SOL    HW123474   3.714   0.517   6.965
 7525SOL    HW223475   3.817   0.409   0.013
 7526SOL     OW23476   2.844   3.050   1.343
 7526SOL    HW123477   2.868   3.104   1.262
 7526SOL    HW223478   2.818   3.111   1.418
 7527SOL     OW23479   3.457   6.359   3.753
 7527SOL    HW123480   3.369   6.314   3.737
 7527SOL    HW223481   3.530   6.291   3.757
 7528SOL     OW23482   6.503   2.188   6.478
 7528SOL    HW123483   6.472   2.127   6.551
 7528SOL    HW223484   6.459   2.161   6.392
 7529SOL     OW23485   5.674   1.507   4.707
 7529SOL    HW123486   5.683   1.587   4.647
 7529SOL    HW223487   5.592   1.456   4.682
 7530SOL     OW23488   6.596   2.237   2.060
 7530SOL    HW123489   6.679   2.188   2.035
 7530SOL    HW223490   6.604   2.271   2.153
 7531SOL     OW23491   5.568   3.577   4.191
 7531SOL    HW123492   5.542   3.508   4.123
 7531SOL    HW223493   5.487   3.630   4.216
 7532SOL     OW23494   4.622   6.287   0.851
 7532SOL    HW123495   4.678   6.252   0.777
 7532SOL    HW223496   4.678   6.341   0.913
 7533SOL     OW23497   3.480   2.199   1.444
 7533SOL    HW123498   3.513   2.148   1.523
 7533SOL    HW223499   3.385   2.227   1.460
 7534SOL     OW23500   4.671   5.938   4.774
 7534SOL    HW123501   4.754   5.883   4.783
 7534SOL    HW223502   4.591   5.880   4.790
 7535SOL     OW23503   1.734   6.889   4.865
 7535SOL    HW123504   1.700   6.971   4.818
 7535SOL    HW223505   1.774   6.916   4.953
 7536SOL     OW23506   5.126   4.265   4.177
 7536SOL    HW123507   5.205   4.266   4.117
 7536SOL    HW223508   5.155   4.275   4.272
 7537SOL     OW23509   1.685   4.996   2.369
 7537SOL    HW123510   1.655   5.071   2.427
 7537SOL    HW223511   1.677   5.023   2.273
 7538SOL     OW23512   1.936   2.285   1.552
 7538SOL    HW123513   1.844   2.257   1.578
 7538SOL    HW223514   1.936   2.317   1.457
 7539SOL     OW23515   1.307   3.480   4.395
 7539SOL    HW123516   1.269   3.391   4.418
 7539SOL    HW223517   1.309   3.538   4.477
 7540SOL     OW23518   4.678   0.800   4.976
 7540SOL    HW123519   4.596   0.813   4.920
 7540SOL    HW223520   4.653   0.757   5.062
 7541SOL     OW23521   0.622   3.953   4.767
 7541SOL    HW123522   0.628   4.046   4.805
 7541SOL    HW223523   0.545   3.948   4.703
 7542SOL     OW23524   0.587   5.540   0.200
 7542SOL    HW123525   0.576   5.451   0.155
 7542SOL    HW223526   0.589   5.527   0.299
 7543SOL     OW23527   3.660   1.234   5.260
 7543SOL    HW123528   3.601   1.296   5.207
 7543SOL    HW223529   3.689   1.158   5.202
 7544SOL     OW23530   6.309   2.596   4.313
 7544SOL    HW123531   6.404   2.566   4.307
 7544SOL    HW223532   6.280   2.635   4.226
 7545SOL     OW23533   0.686   6.128   6.365
 7545SOL    HW123534   0.643   6.196   6.424
 7545SOL    HW223535   0.754   6.172   6.307
 7546SOL     OW23536   4.662   2.149   1.469
 7546SOL    HW123537   4.751   2.107   1.487
 7546SOL    HW223538   4.600   2.130   1.546
 7547SOL     OW23539   5.186   1.789   0.690
 7547SOL    HW123540   5.268   1.802   0.744
 7547SOL    HW223541   5.207   1.733   0.610
 7548SOL     OW23542   4.452   2.470   6.453
 7548SOL    HW123543   4.393   2.524   6.392
 7548SOL    HW223544   4.545   2.505   6.448
 7549SOL     OW23545   3.371   3.230   6.670
 7549SOL    HW123546   3.274   3.207   6.667
 7549SOL    HW223547   3.383   3.321   6.710
 7550SOL     OW23548   1.813   4.519   4.004
 7550SOL    HW123549   1.812   4.419   4.005
 7550SOL    HW223550   1.765   4.552   3.922
 7551SOL     OW23551   6.222   2.860   5.224
 7551SOL    HW123552   6.123   2.846   5.226
 7551SOL    HW223553   6.244   2.942   5.172
 7552SOL     OW23554   1.354   5.904   3.876
 7552SOL    HW123555   1.315   5.913   3.784
 7552SOL    HW223556   1.281   5.912   3.944
 7553SOL     OW23557   4.293   0.043   5.896
 7553SOL    HW123558   4.202   0.047   5.935
 7553SOL    HW223559   4.346   0.123   5.924
 7554SOL     OW23560   5.142   0.866   6.736
 7554SOL    HW123561   5.096   0.795   6.790
 7554SOL    HW223562   5.117   0.956   6.770
 7555SOL     OW23563   3.278   5.402   6.116
 7555SOL    HW123564   3.207   5.417   6.185
 7555SOL    HW223565   3.236   5.397   6.025
 7556SOL     OW23566   2.777   2.427   0.348
 7556SOL    HW123567   2.809   2.463   0.260
 7556SOL    HW223568   2.713   2.492   0.388
 7557SOL     OW23569   5.084   0.897   6.254
 7557SOL    HW123570   5.105   0.913   6.350
 7557SOL    HW223571   5.107   0.979   6.201
 7558SOL     OW23572   1.965   2.425   4.684
 7558SOL    HW123573   2.053   2.386   4.711
 7558SOL    HW223574   1.906   2.432   4.764
 7559SOL     OW23575   4.057   3.147   5.921
 7559SOL    HW123576   4.054   3.181   6.016
 7559SOL    HW223577   3.992   3.072   5.911
 7560SOL     OW23578   4.868   6.561   0.508
 7560SOL    HW123579   4.836   6.483   0.455
 7560SOL    HW223580   4.801   6.583   0.579
 7561SOL     OW23581   6.603   3.543   6.047
 7561SOL    HW123582   6.560   3.630   6.069
 7561SOL    HW223583   6.702   3.551   6.060
 7562SOL     OW23584   0.745   5.140   5.485
 7562SOL    HW123585   0.652   5.115   5.458
 7562SOL    HW223586   0.764   5.105   5.576
 7563SOL     OW23587   3.166   0.151   1.658
 7563SOL    HW123588   3.126   0.177   1.570
 7563SOL    HW223589   3.248   0.205   1.674
 7564SOL     OW23590   4.135   0.822   4.080
 7564SOL    HW123591   4.081   0.876   4.016
 7564SOL    HW223592   4.075   0.776   4.145
 7565SOL     OW23593   5.459   3.727   6.754
 7565SOL    HW123594   5.536   3.715   6.692
 7565SOL    HW223595   5.480   3.685   6.842
 7566SOL     OW23596   5.541   4.954   2.652
 7566SOL    HW123597   5.616   4.981   2.592
 7566SOL    HW223598   5.575   4.950   2.746
 7567SOL     OW23599   1.773   1.509   6.066
 7567SOL    HW123600   1.868   1.512   6.035
 7567SOL    HW223601   1.755   1.589   6.124
 7568SOL     OW23602   5.500   4.627   3.119
 7568SOL    HW123603   5.462   4.535   3.111
 7568SOL    HW223604   5.595   4.626   3.086
 7569SOL     OW23605   2.914   4.397   5.913
 7569SOL    HW123606   2.852   4.332   5.869
 7569SOL    HW223607   3.002   4.398   5.865
 7570SOL     OW23608   5.271   3.949   4.091
 7570SOL    HW123609   5.254   4.043   4.121
 7570SOL    HW223610   5.228   3.885   4.155
 7571SOL     OW23611   4.734   4.276   3.534
 7571SOL    HW123612   4.732   4.185   3.576
 7571SOL    HW223613   4.724   4.266   3.435
 7572SOL     OW23614   4.955   0.938   2.302
 7572SOL    HW123615   4.920   1.024   2.264
 7572SOL    HW223616   4.908   0.918   2.388
 7573SOL     OW23617   0.025   6.957   5.573
 7573SOL    HW123618   0.005   6.869   5.530
 7573SOL    HW223619   0.120   6.981   5.557
 7574SOL     OW23620   5.486   0.807   5.167
 7574SOL    HW123621   5.425   0.729   5.151
 7574SOL    HW223622   5.502   0.855   5.080
 7575SOL     OW23623   5.367   0.055   7.006
 7575SOL    HW123624   5.357   0.154   7.004
 7575SOL    HW223625   5.285   0.013   6.966
 7576SOL     OW23626   4.937   3.099   0.684
 7576SOL    HW123627   4.959   3.057   0.771
 7576SOL    HW223628   4.928   3.198   0.696
 7577SOL     OW23629   0.415   6.612   6.706
 7577SOL    HW123630   0.363   6.678   6.759
 7577SOL    HW223631   0.485   6.570   6.765
 7578SOL     OW23632   3.154   5.316   2.942
 7578SOL    HW123633   3.084   5.249   2.967
 7578SOL    HW223634   3.210   5.280   2.867
 7579SOL     OW23635   0.186   1.815   1.745
 7579SOL    HW123636   0.274   1.862   1.743
 7579SOL    HW223637   0.173   1.773   1.835
 7580SOL     OW23638   1.021   4.008   3.648
 7580SOL    HW123639   0.930   4.040   3.621
 7580SOL    HW223640   1.090   4.074   3.616
 7581SOL     OW23641   0.897   1.908   1.032
 7581SOL    HW123642   0.986   1.953   1.032
 7581SOL    HW223643   0.826   1.974   1.007
 7582SOL     OW23644   3.898   1.364   3.402
 7582SOL    HW123645   3.838   1.444   3.400
 7582SOL    HW223646   3.985   1.388   3.445
 7583SOL     OW23647   4.919   2.529   2.133
 7583SOL    HW123648   4.824   2.557   2.149
 7583SOL    HW223649   4.958   2.586   2.061
 7584SOL     OW23650   1.803   0.716   2.863
 7584SOL    HW123651   1.748   0.793   2.895
 7584SOL    HW223652   1.743   0.646   2.824
 7585SOL     OW23653   2.205   2.911   5.972
 7585SOL    HW123654   2.184   2.844   5.901
 7585SOL    HW223655   2.264   2.982   5.934
 7586SOL     OW23656   1.845   6.717   3.750
 7586SOL    HW123657   1.792   6.670   3.679
 7586SOL    HW223658   1.933   6.672   3.762
 7587SOL     OW23659   2.128   0.995   6.623
 7587SOL    HW123660   2.225   0.983   6.602
 7587SOL    HW223661   2.104   0.939   6.702
 7588SOL     OW23662   2.146   2.538   3.573
 7588SOL    HW123663   2.227   2.524   3.631
 7588SOL    HW223664   2.072   2.578   3.627
 7589SOL     OW23665   0.460   0.488   2.727
 7589SOL    HW123666   0.480   0.409   2.785
 7589SOL    HW223667   0.479   0.465   2.632
 7590SOL     OW23668   4.390   1.757   0.038
 7590SOL    HW123669   4.369   1.848   0.003
 7590SOL    HW223670   4.488   1.749   0.054
 7591SOL     OW23671   5.165   4.343   0.504
 7591SOL    HW123672   5.249   4.315   0.456
 7591SOL    HW223673   5.165   4.303   0.596
 7592SOL     OW23674   6.181   5.648   4.614
 7592SOL    HW123675   6.262   5.592   4.597
 7592SOL    HW223676   6.157   5.644   4.711
 7593SOL     OW23677   6.467   3.407   6.961
 7593SOL    HW123678   6.391   3.403   6.896
 7593SOL    HW223679   6.523   3.326   6.951
 7594SOL     OW23680   1.877   5.006   1.711
 7594SOL    HW123681   1.794   5.030   1.661
 7594SOL    HW223682   1.860   4.928   1.771
 7595SOL     OW23683   5.768   3.174   6.180
 7595SOL    HW123684   5.807   3.218   6.098
 7595SOL    HW223685   5.801   3.222   6.261
 7596SOL     OW23686   3.372   6.673   4.671
 7596SOL    HW123687   3.358   6.653   4.768
 7596SOL    HW223688   3.283   6.679   4.625
 7597SOL     OW23689   1.991   6.324   3.183
 7597SOL    HW123690   2.034   6.402   3.228
 7597SOL    HW223691   2.015   6.324   3.086
 7598SOL     OW23692   6.698   0.774   3.218
 7598SOL    HW123693   6.685   0.769   3.119
 7598SOL    HW223694   6.667   0.863   3.251
 7599SOL     OW23695   5.359   2.345   1.779
 7599SOL    HW123696   5.276   2.400   1.775
 7599SOL    HW223697   5.414   2.375   1.858
 7600SOL     OW23698   0.756   1.138   3.668
 7600SOL    HW123699   0.791   1.053   3.708
 7600SOL    HW223700   0.831   1.186   3.621
 7601SOL     OW23701   2.531   4.647   2.181
 7601SOL    HW123702   2.596   4.606   2.117
 7601SOL    HW223703   2.560   4.630   2.275
 7602SOL     OW23704   1.510   3.283   6.823
 7602SOL    HW123705   1.584   3.220   6.846
 7602SOL    HW223706   1.446   3.239   6.760
 7603SOL     OW23707   2.236   6.137   6.450
 7603SOL    HW123708   2.212   6.040   6.440
 7603SOL    HW223709   2.163   6.193   6.410
 7604SOL     OW23710   1.103   2.844   4.709
 7604SOL    HW123711   1.135   2.899   4.786
 7604SOL    HW223712   1.030   2.783   4.739
 7605SOL     OW23713   1.033   0.570   0.686
 7605SOL    HW123714   0.964   0.525   0.630
 7605SOL    HW223715   1.055   0.512   0.765
 7606SOL     OW23716   5.620   3.100   4.132
 7606SOL    HW123717   5.549   3.058   4.188
 7606SOL    HW223718   5.627   3.051   4.045
 7607SOL     OW23719   4.108   4.888   0.828
 7607SOL    HW123720   4.094   4.987   0.820
 7607SOL    HW223721   4.204   4.866   0.807
 7608SOL     OW23722   4.856   3.330   1.151
 7608SOL    HW123723   4.795   3.297   1.079
 7608SOL    HW223724   4.809   3.399   1.206
 7609SOL     OW23725   1.540   3.231   4.574
 7609SOL    HW123726   1.579   3.160   4.514
 7609SOL    HW223727   1.579   3.320   4.551
 7610SOL     OW23728   4.197   4.217   5.846
 7610SOL    HW123729   4.170   4.189   5.754
 7610SOL    HW223730   4.141   4.296   5.874
 7611SOL     OW23731   5.253   4.471   1.141
 7611SOL    HW123732   5.220   4.563   1.159
 7611SOL    HW223733   5.261   4.420   1.227
 7612SOL     OW23734   4.847   2.923   2.747
 7612SOL    HW123735   4.832   2.951   2.653
 7612SOL    HW223736   4.933   2.963   2.780
 7613SOL     OW23737   0.504   1.690   1.040
 7613SOL    HW123738   0.579   1.646   0.990
 7613SOL    HW223739   0.459   1.623   1.099
 7614SOL     OW23740   5.248   2.937   1.370
 7614SOL    HW123741   5.155   2.903   1.362
 7614SOL    HW223742   5.298   2.921   1.285
 7615SOL     OW23743   4.295   4.223   6.643
 7615SOL    HW123744   4.209   4.176   6.661
 7615SOL    HW223745   4.311   4.292   6.713
 7616SOL     OW23746   6.731   6.329   4.680
 7616SOL    HW123747   6.825   6.295   4.682
 7616SOL    HW223748   6.669   6.257   4.710
 7617SOL     OW23749   3.875   6.404   3.164
 7617SOL    HW123750   3.874   6.483   3.103
 7617SOL    HW223751   3.782   6.368   3.174
 7618SOL     OW23752   0.881   2.742   6.341
 7618SOL    HW123753   0.886   2.645   6.320
 7618SOL    HW223754   0.972   2.777   6.362
 7619SOL     OW23755   0.036   2.978   4.834
 7619SOL    HW123756   0.109   2.913   4.810
 7619SOL    HW223757   6.975   2.965   4.774
 7620SOL     OW23758   4.193   5.652   1.988
 7620SOL    HW123759   4.172   5.655   1.890
 7620SOL    HW223760   4.252   5.574   2.007
 7621SOL     OW23761   6.674   1.109   0.908
 7621SOL    HW123762   6.724   1.036   0.955
 7621SOL    HW223763   6.712   1.197   0.934
 7622SOL     OW23764   5.113   4.513   6.401
 7622SOL    HW123765   5.107   4.467   6.489
 7622SOL    HW223766   5.074   4.455   6.329
 7623SOL     OW23767   4.372   4.342   0.091
 7623SOL    HW123768   4.367   4.337   7.008
 7623SOL    HW223769   4.293   4.393   0.126
 7624SOL     OW23770   6.684   3.693   4.308
 7624SOL    HW123771   6.720   3.600   4.309
 7624SOL    HW223772   6.646   3.713   4.217
 7625SOL     OW23773   5.333   1.372   7.007
 7625SOL    HW123774   5.316   1.461   6.963
 7625SOL    HW223775   5.395   1.385   0.068
 7626SOL     OW23776   5.807   0.272   5.863
 7626SOL    HW123777   5.870   0.196   5.847
 7626SOL    HW223778   5.722   0.256   5.814
 7627SOL     OW23779   3.381   2.644   0.563
 7627SOL    HW123780   3.463   2.642   0.619
 7627SOL    HW223781   3.407   2.655   0.467
 7628SOL     OW23782   3.433   2.893   1.749
 7628SOL    HW123783   3.423   2.985   1.709
 7628SOL    HW223784   3.529   2.878   1.774
 7629SOL     OW23785   0.302   4.093   3.626
 7629SOL    HW123786   0.266   4.182   3.598
 7629SOL    HW223787   0.250   4.020   3.582
 7630SOL     OW23788   1.053   0.873   0.306
 7630SOL    HW123789   0.974   0.896   0.249
 7630SOL    HW223790   1.042   0.780   0.341
 7631SOL     OW23791   0.906   1.683   5.352
 7631SOL    HW123792   0.992   1.633   5.365
 7631SOL    HW223793   0.919   1.779   5.376
 7632SOL     OW23794   4.610   4.758   0.828
 7632SOL    HW123795   4.622   4.787   0.923
 7632SOL    HW223796   4.524   4.794   0.793
 7633SOL     OW23797   5.353   1.110   1.771
 7633SOL    HW123798   5.441   1.063   1.783
 7633SOL    HW223799   5.286   1.071   1.833
 7634SOL     OW23800   2.138   1.093   1.477
 7634SOL    HW123801   2.227   1.054   1.457
 7634SOL    HW223802   2.144   1.148   1.561
 7635SOL     OW23803   3.341   4.940   4.966
 7635SOL    HW123804   3.342   4.919   4.869
 7635SOL    HW223805   3.250   4.922   5.003
 7636SOL     OW23806   1.466   3.299   4.196
 7636SOL    HW123807   1.497   3.382   4.242
 7636SOL    HW223808   1.498   3.219   4.247
 7637SOL     OW23809   2.493   5.850   2.705
 7637SOL    HW123810   2.406   5.896   2.723
 7637SOL    HW223811   2.517   5.858   2.609
 7638SOL     OW23812   1.887   5.336   2.376
 7638SOL    HW123813   1.846   5.422   2.408
 7638SOL    HW223814   1.863   5.263   2.440
 7639SOL     OW23815   0.226   1.187   0.695
 7639SOL    HW123816   0.133   1.155   0.716
 7639SOL    HW223817   0.230   1.286   0.706
 7640SOL     OW23818   2.561   2.273   6.235
 7640SOL    HW123819   2.647   2.259   6.283
 7640SOL    HW223820   2.496   2.318   6.296
 7641SOL     OW23821   0.267   3.111   2.645
 7641SOL    HW123822   0.192   3.176   2.637
 7641SOL    HW223823   0.352   3.154   2.618
 7642SOL     OW23824   4.314   1.007   2.127
 7642SOL    HW123825   4.301   0.969   2.035
 7642SOL    HW223826   4.396   0.967   2.168
 7643SOL     OW23827   5.152   1.658   3.181
 7643SOL    HW123828   5.129   1.748   3.143
 7643SOL    HW223829   5.172   1.594   3.107
 7644SOL     OW23830   4.767   2.750   1.859
 7644SOL    HW123831   4.687   2.692   1.849
 7644SOL    HW223832   4.739   2.840   1.895
 7645SOL     OW23833   4.775   3.822   6.236
 7645SOL    HW123834   4.851   3.852   6.179
 7645SOL    HW223835   4.691   3.822   6.183
 7646SOL     OW23836   0.562   3.042   3.999
 7646SOL    HW123837   0.521   2.954   4.022
 7646SOL    HW223838   0.650   3.028   3.954
 7647SOL     OW23839   0.012   2.407   4.230
 7647SOL    HW123840   0.058   2.341   4.171
 7647SOL    HW223841   0.079   2.474   4.263
 7648SOL     OW23842   2.173   1.908   2.346
 7648SOL    HW123843   2.157   1.810   2.343
 7648SOL    HW223844   2.213   1.938   2.259
 7649SOL     OW23845   1.515   0.291   3.880
 7649SOL    HW123846   1.585   0.355   3.849
 7649SOL    HW223847   1.530   0.202   3.838
 7650SOL     OW23848   5.682   0.674   0.468
 7650SOL    HW123849   5.653   0.595   0.415
 7650SOL    HW223850   5.606   0.703   0.527
 7651SOL     OW23851   2.104   0.224   4.671
 7651SOL    HW123852   2.189   0.203   4.624
 7651SOL    HW223853   2.033   0.160   4.643
 7652SOL     OW23854   5.450   2.183   5.065
 7652SOL    HW123855   5.458   2.258   5.131
 7652SOL    HW223856   5.529   2.122   5.075
 7653SOL     OW23857   1.041   1.604   0.461
 7653SOL    HW123858   1.048   1.703   0.456
 7653SOL    HW223859   1.102   1.563   0.393
 7654SOL     OW23860   4.857   3.163   4.158
 7654SOL    HW123861   4.834   3.127   4.068
 7654SOL    HW223862   4.925   3.104   4.202
 7655SOL     OW23863   4.002   6.969   3.963
 7655SOL    HW123864   3.966   6.880   3.936
 7655SOL    HW223865   4.102   6.967   3.960
 7656SOL     OW23866   3.953   3.920   6.454
 7656SOL    HW123867   3.870   3.942   6.403
 7656SOL    HW223868   3.954   3.970   6.540
 7657SOL     OW23869   1.944   1.888   3.154
 7657SOL    HW123870   1.862   1.838   3.125
 7657SOL    HW223871   1.999   1.829   3.213
 7658SOL     OW23872   2.367   0.305   1.015
 7658SOL    HW123873   2.401   0.344   0.929
 7658SOL    HW223874   2.270   0.281   1.005
 7659SOL     OW23875   4.725   4.355   6.916
 7659SOL    HW123876   4.768   4.269   6.888
 7659SOL    HW223877   4.779   4.432   6.881
 7660SOL     OW23878   7.001   6.031   4.033
 7660SOL    HW123879   6.976   6.060   3.941
 7660SOL    HW223880   0.024   6.108   4.083
 7661SOL     OW23881   5.689   2.538   5.176
 7661SOL    HW123882   5.731   2.477   5.110
 7661SOL    HW223883   5.755   2.608   5.204
 7662SOL     OW23884   1.222   2.301   3.956
 7662SOL    HW123885   1.308   2.284   4.004
 7662SOL    HW223886   1.235   2.376   3.891
 7663SOL     OW23887   5.706   4.873   6.290
 7663SOL    HW123888   5.606   4.873   6.287
 7663SOL    HW223889   5.741   4.854   6.198
 7664SOL     OW23890   4.312   1.230   1.966
 7664SOL    HW123891   4.296   1.192   1.875
 7664SOL    HW223892   4.302   1.158   2.034
 7665SOL     OW23893   5.866   0.902   5.409
 7665SOL    HW123894   5.951   0.885   5.359
 7665SOL    HW223895   5.885   0.901   5.507
 7666SOL     OW23896   0.684   4.594   3.248
 7666SOL    HW123897   0.702   4.539   3.167
 7666SOL    HW223898   0.693   4.538   3.330
 7667SOL     OW23899   4.164   0.488   2.068
 7667SOL    HW123900   4.168   0.399   2.114
 7667SOL    HW223901   4.074   0.528   2.080
 7668SOL     OW23902   2.578   4.910   0.851
 7668SOL    HW123903   2.609   4.863   0.934
 7668SOL    HW223904   2.601   5.007   0.858
 7669SOL     OW23905   4.857   1.257   5.663
 7669SOL    HW123906   4.947   1.248   5.621
 7669SOL    HW223907   4.861   1.323   5.738
 7670SOL     OW23908   1.039   5.312   0.561
 7670SOL    HW123909   0.982   5.377   0.612
 7670SOL    HW223910   0.986   5.230   0.539
 7671SOL     OW23911   3.613   0.841   2.286
 7671SOL    HW123912   3.685   0.896   2.328
 7671SOL    HW223913   3.543   0.902   2.248
 7672SOL     OW23914   0.195   6.088   3.096
 7672SOL    HW123915   0.173   6.058   3.189
 7672SOL    HW223916   0.293   6.078   3.081
 7673SOL     OW23917   1.928   5.143   2.585
 7673SOL    HW123918   1.837   5.153   2.625
 7673SOL    HW223919   1.995   5.129   2.658
 7674SOL     OW23920   5.087   1.048   4.139
 7674SOL    HW123921   5.178   1.008   4.143
 7674SOL    HW223922   5.021   0.985   4.180
 7675SOL     OW23923   5.693   6.286   2.928
 7675SOL    HW123924   5.727   6.210   2.873
 7675SOL    HW223925   5.695   6.370   2.874
 7676SOL     OW23926   3.251   2.366   6.221
 7676SOL    HW123927   3.200   2.313   6.153
 7676SOL    HW223928   3.238   2.464   6.204
 7677SOL     OW23929   0.475   3.984   1.315
 7677SOL    HW123930   0.401   3.928   1.354
 7677SOL    HW223931   0.508   4.048   1.384
 7678SOL     OW23932   2.575   2.579   5.141
 7678SOL    HW123933   2.544   2.489   5.111
 7678SOL    HW223934   2.536   2.649   5.083
 7679SOL     OW23935   2.418   6.206   5.503
 7679SOL    HW123936   2.412   6.275   5.575
 7679SOL    HW223937   2.438   6.117   5.544
 7680SOL     OW23938   1.584   0.189   0.788
 7680SOL    HW123939   1.659   0.163   0.727
 7680SOL    HW223940   1.613   0.179   0.883
 7681SOL     OW23941   2.584   0.981   0.467
 7681SOL    HW123942   2.673   0.945   0.496
 7681SOL    HW223943   2.576   0.977   0.368
 7682SOL     OW23944   4.328   0.075   2.124
 7682SOL    HW123945   4.349   0.052   2.219
 7682SOL    HW223946   4.230   0.086   2.113
 7683SOL     OW23947   0.253   1.641   4.441
 7683SOL    HW123948   0.327   1.686   4.389
 7683SOL    HW223949   0.210   1.708   4.501
 7684SOL     OW23950   4.295   1.616   1.148
 7684SOL    HW123951   4.280   1.691   1.212
 7684SOL    HW223952   4.290   1.528   1.196
 7685SOL     OW23953   2.820   1.784   5.770
 7685SOL    HW123954   2.761   1.704   5.777
 7685SOL    HW223955   2.805   1.829   5.682
 7686SOL     OW23956   6.360   6.896   3.444
 7686SOL    HW123957   6.334   6.909   3.539
 7686SOL    HW223958   6.395   6.983   3.407
 7687SOL     OW23959   5.760   5.095   4.548
 7687SOL    HW123960   5.848   5.054   4.527
 7687SOL    HW223961   5.773   5.177   4.604
 7688SOL     OW23962   0.172   6.033   5.710
 7688SOL    HW123963   0.169   6.030   5.810
 7688SOL    HW223964   0.081   6.053   5.675
 7689SOL     OW23965   5.383   6.489   2.567
 7689SOL    HW123966   5.352   6.521   2.656
 7689SOL    HW223967   5.424   6.399   2.576
 7690SOL     OW23968   5.223   5.233   0.853
 7690SOL    HW123969   5.299   5.298   0.866
 7690SOL    HW223970   5.183   5.211   0.942
 7691SOL     OW23971   6.124   4.339   2.946
 7691SOL    HW123972   6.115   4.407   2.873
 7691SOL    HW223973   6.082   4.374   3.030
 7692SOL     OW23974   0.859   5.483   1.830
 7692SOL    HW123975   0.908   5.523   1.908
 7692SOL    HW223976   0.761   5.500   1.839
 7693SOL     OW23977   2.767   0.445   1.016
 7693SOL    HW123978   2.692   0.495   0.972
 7693SOL    HW223979   2.731   0.364   1.063
 7694SOL     OW23980   5.622   3.005   3.423
 7694SOL    HW123981   5.675   3.086   3.446
 7694SOL    HW223982   5.663   2.960   3.343
 7695SOL     OW23983   5.381   1.013   1.514
 7695SOL    HW123984   5.370   0.914   1.509
 7695SOL    HW223985   5.335   1.048   1.596
 7696SOL     OW23986   6.852   1.903   6.075
 7696SOL    HW123987   6.805   1.884   5.989
 7696SOL    HW223988   6.897   1.820   6.108
 7697SOL     OW23989   2.370   0.500   3.658
 7697SOL    HW123990   2.359   0.599   3.651
 7697SOL    HW223991   2.300   0.463   3.719
 7698SOL     OW23992   5.958   0.791   4.366
 7698SOL    HW123993   5.951   0.769   4.463
 7698SOL    HW223994   5.912   0.879   4.349
 7699SOL     OW23995   2.553   5.331   6.152
 7699SOL    HW123996   2.573   5.425   6.178
 7699SOL    HW223997   2.468   5.302   6.194
 7700SOL     OW23998   4.522   6.011   3.786
 7700SOL    HW123999   4.517   5.939   3.855
 7700SOL    HW224000   4.528   5.970   3.695
 7701SOL     OW24001   7.001   2.827   6.660
 7701SOL    HW124002   6.984   2.898   6.592
 7701SOL    HW224003   6.956   2.743   6.632
 7702SOL     OW24004   4.488   5.664   5.203
 7702SOL    HW124005   4.456   5.674   5.297
 7702SOL    HW224006   4.578   5.707   5.194
 7703SOL     OW24007   5.826   6.324   6.587
 7703SOL    HW124008   5.894   6.312   6.660
 7703SOL    HW224009   5.759   6.251   6.591
 7704SOL     OW24010   6.016   0.485   2.824
 7704SOL    HW124011   5.927   0.468   2.781
 7704SOL    HW224012   6.075   0.405   2.810
 7705SOL     OW24013   2.188   6.016   1.116
 7705SOL    HW124014   2.146   6.076   1.048
 7705SOL    HW224015   2.129   5.937   1.132
 7706SOL     OW24016   3.538   3.166   3.754
 7706SOL    HW124017   3.542   3.213   3.666
 7706SOL    HW224018   3.502   3.074   3.741
 7707SOL     OW24019   0.328   4.841   6.183
 7707SOL    HW124020   0.320   4.794   6.095
 7707SOL    HW224021   0.418   4.823   6.222
 7708SOL     OW24022   1.313   6.200   4.544
 7708SOL    HW124023   1.275   6.123   4.595
 7708SOL    HW224024   1.372   6.253   4.604
 7709SOL     OW24025   6.641   4.880   1.530
 7709SOL    HW124026   6.577   4.804   1.529
 7709SOL    HW224027   6.592   4.965   1.513
 7710SOL     OW24028   2.359   2.102   0.775
 7710SOL    HW124029   2.415   2.148   0.845
 7710SOL    HW224030   2.270   2.080   0.814
 7711SOL     OW24031   5.334   5.966   5.392
 7711SOL    HW124032   5.319   6.063   5.376
 7711SOL    HW224033   5.343   5.949   5.490
 7712SOL     OW24034   6.394   5.217   0.881
 7712SOL    HW124035   6.470   5.167   0.924
 7712SOL    HW224036   6.425   5.256   0.794
 7713SOL     OW24037   1.771   3.596   0.129
 7713SOL    HW124038   1.854   3.558   0.171
 7713SOL    HW224039   1.766   3.694   0.149
 7714SOL     OW24040   0.092   5.360   5.450
 7714SOL    HW124041   0.094   5.420   5.530
 7714SOL    HW224042   0.107   5.265   5.478
 7715SOL     OW24043   3.042   2.368   6.620
 7715SOL    HW124044   3.076   2.356   6.527
 7715SOL    HW224045   2.974   2.297   6.639
 7716SOL     OW24046   6.685   4.275   0.249
 7716SOL    HW124047   6.760   4.230   0.297
 7716SOL    HW224048   6.602   4.270   0.305
 7717SOL     OW24049   1.587   1.849   5.444
 7717SOL    HW124050   1.560   1.761   5.406
 7717SOL    HW224051   1.538   1.922   5.396
 7718SOL     OW24052   6.404   3.787   3.288
 7718SOL    HW124053   6.444   3.713   3.343
 7718SOL    HW224054   6.308   3.799   3.315
 7719SOL     OW24055   0.655   3.947   4.430
 7719SOL    HW124056   0.605   4.003   4.364
 7719SOL    HW224057   0.590   3.891   4.481
 7720SOL     OW24058   0.011   2.444   6.274
 7720SOL    HW124059   7.013   2.362   6.330
 7720SOL    HW224060   6.944   2.464   6.223
 7721SOL     OW24061   0.851   5.685   2.027
 7721SOL    HW124062   0.800   5.670   2.111
 7721SOL    HW224063   0.796   5.737   1.962
 7722SOL     OW24064   1.784   4.375   3.555
 7722SOL    HW124065   1.818   4.280   3.555
 7722SOL    HW224066   1.695   4.378   3.510
 7723SOL     OW24067   3.839   3.692   6.530
 7723SOL    HW124068   3.779   3.672   6.451
 7723SOL    HW224069   3.908   3.759   6.503
 7724SOL     OW24070   3.396   4.752   0.777
 7724SOL    HW124071   3.331   4.689   0.735
 7724SOL    HW224072   3.346   4.830   0.816
 7725SOL     OW24073   6.259   1.470   3.124
 7725SOL    HW124074   6.211   1.553   3.097
 7725SOL    HW224075   6.283   1.416   3.043
 7726SOL     OW24076   1.761   4.261   6.473
 7726SOL    HW124077   1.813   4.223   6.397
 7726SOL    HW224078   1.665   4.233   6.464
 7727SOL     OW24079   6.489   2.472   2.150
 7727SOL    HW124080   6.558   2.526   2.198
 7727SOL    HW224081   6.472   2.386   2.200
 7728SOL     OW24082   2.142   3.134   5.083
 7728SOL    HW124083   2.127   3.174   5.173
 7728SOL    HW224084   2.222   3.073   5.087
 7729SOL     OW24085   5.572   0.958   1.832
 7729SOL    HW124086   5.551   0.861   1.843
 7729SOL    HW224087   5.637   0.986   1.903
 7730SOL     OW24088   0.161   5.061   6.262
 7730SOL    HW124089   0.215   5.107   6.192
 7730SOL    HW224090   0.145   4.966   6.234
 7731SOL     OW24091   6.215   0.022   0.218
 7731SOL    HW124092   6.293   6.977   0.206
 7731SOL    HW224093   6.147   6.996   0.277
 7732SOL     OW24094   4.031   0.115   0.139
 7732SOL    HW124095   4.050   0.131   0.236
 7732SOL    HW224096   3.964   0.181   0.106
 7733SOL     OW24097   5.887   5.832   1.977
 7733SOL    HW124098   5.861   5.828   2.074
 7733SOL    HW224099   5.911   5.741   1.945
 7734SOL     OW24100   1.351   4.951   5.125
 7734SOL    HW124101   1.283   4.961   5.052
 7734SOL    HW224102   1.403   4.867   5.111
 7735SOL     OW24103   5.761   5.653   6.232
 7735SOL    HW124104   5.808   5.583   6.179
 7735SOL    HW224105   5.769   5.741   6.185
 7736SOL     OW24106   2.439   3.090   6.721
 7736SOL    HW124107   2.520   3.123   6.768
 7736SOL    HW224108   2.383   3.167   6.691
 7737SOL     OW24109   3.632   0.100   1.710
 7737SOL    HW124110   3.671   0.100   1.802
 7737SOL    HW224111   3.648   0.189   1.667
 7738SOL     OW24112   2.741   5.521   0.943
 7738SOL    HW124113   2.700   5.493   1.030
 7738SOL    HW224114   2.705   5.464   0.869
 7739SOL     OW24115   1.332   1.914   2.189
 7739SOL    HW124116   1.393   1.913   2.268
 7739SOL    HW224117   1.280   2.000   2.188
 7740SOL     OW24118   2.285   1.262   3.138
 7740SOL    HW124119   2.308   1.259   3.041
 7740SOL    HW224120   2.310   1.175   3.181
 7741SOL     OW24121   0.586   4.196   4.923
 7741SOL    HW124122   0.538   4.253   4.856
 7741SOL    HW224123   0.574   4.235   5.014
 7742SOL     OW24124   4.417   2.247   4.102
 7742SOL    HW124125   4.457   2.161   4.133
 7742SOL    HW224126   4.331   2.229   4.053
 7743SOL     OW24127   4.666   1.541   6.855
 7743SOL    HW124128   4.629   1.576   6.768
 7743SOL    HW224129   4.704   1.450   6.840
 7744SOL     OW24130   0.984   6.757   3.904
 7744SOL    HW124131   0.930   6.830   3.945
 7744SOL    HW224132   0.927   6.676   3.891
 7745SOL     OW24133   3.053   0.016   0.303
 7745SOL    HW124134   3.117   6.969   0.346
 7745SOL    HW224135   2.979   0.038   0.367
 7746SOL     OW24136   0.572   0.193   0.475
 7746SOL    HW124137   0.586   0.282   0.520
 7746SOL    HW224138   0.526   0.131   0.539
 7747SOL     OW24139   6.662   6.336   1.440
 7747SOL    HW124140   6.682   6.374   1.349
 7747SOL    HW224141   6.570   6.366   1.468
 7748SOL     OW24142   3.799   4.092   4.073
 7748SOL    HW124143   3.731   4.024   4.047
 7748SOL    HW224144   3.758   4.183   4.075
 7749SOL     OW24145   3.404   3.438   3.805
 7749SOL    HW124146   3.460   3.462   3.725
 7749SOL    HW224147   3.417   3.341   3.826
 7750SOL     OW24148   6.142   5.468   0.157
 7750SOL    HW124149   6.169   5.539   0.092
 7750SOL    HW224150   6.127   5.510   0.247
 7751SOL     OW24151   0.972   2.488   2.993
 7751SOL    HW124152   0.980   2.523   3.086
 7751SOL    HW224153   0.955   2.390   2.996
 7752SOL     OW24154   5.416   5.793   5.199
 7752SOL    HW124155   5.380   5.839   5.280
 7752SOL    HW224156   5.416   5.694   5.214
 7753SOL     OW24157   2.198   0.387   3.850
 7753SOL    HW124158   2.204   0.300   3.898
 7753SOL    HW224159   2.143   0.451   3.904
 7754SOL     OW24160   5.394   6.528   1.961
 7754SOL    HW124161   5.462   6.599   1.981
 7754SOL    HW224162   5.429   6.439   1.988
 7755SOL     OW24163   1.370   1.490   5.777
 7755SOL    HW124164   1.372   1.392   5.795
 7755SOL    HW224165   1.420   1.539   5.849
 7756SOL     OW24166   3.390   4.878   3.007
 7756SOL    HW124167   3.475   4.883   3.060
 7756SOL    HW224168   3.405   4.917   2.916
 7757SOL     OW24169   5.044   5.805   4.409
 7757SOL    HW124170   5.139   5.822   4.382
 7757SOL    HW224171   5.042   5.735   4.480
 7758SOL     OW24172   1.350   2.147   0.263
 7758SOL    HW124173   1.366   2.133   0.361
 7758SOL    HW224174   1.284   2.221   0.251
 7759SOL     OW24175   1.187   1.800   4.850
 7759SOL    HW124176   1.129   1.795   4.768
 7759SOL    HW224177   1.165   1.883   4.901
 7760SOL     OW24178   6.228   3.230   2.628
 7760SOL    HW124179   6.289   3.303   2.598
 7760SOL    HW224180   6.134   3.251   2.600
 7761SOL     OW24181   1.283   0.138   6.635
 7761SOL    HW124182   1.253   0.177   6.722
 7761SOL    HW224183   1.322   0.210   6.578
 7762SOL     OW24184   4.335   0.999   4.111
 7762SOL    HW124185   4.281   1.071   4.067
 7762SOL    HW224186   4.286   0.912   4.106
 7763SOL     OW24187   0.917   1.340   0.688
 7763SOL    HW124188   0.990   1.364   0.751
 7763SOL    HW224189   0.893   1.420   0.633
 7764SOL     OW24190   3.196   2.990   3.230
 7764SOL    HW124191   3.221   3.087   3.224
 7764SOL    HW224192   3.165   2.958   3.141
 7765SOL     OW24193   5.598   2.648   4.030
 7765SOL    HW124194   5.573   2.652   4.127
 7765SOL    HW224195   5.573   2.559   3.992
 7766SOL     OW24196   5.698   2.271   0.109
 7766SOL    HW124197   5.760   2.262   0.031
 7766SOL    HW224198   5.608   2.301   0.077
 7767SOL     OW24199   4.622   6.669   3.559
 7767SOL    HW124200   4.624   6.575   3.525
 7767SOL    HW224201   4.705   6.687   3.612
 7768SOL     OW24202   3.939   5.172   2.470
 7768SOL    HW124203   3.939   5.272   2.463
 7768SOL    HW224204   3.995   5.145   2.548
 7769SOL     OW24205   4.913   2.432   2.679
 7769SOL    HW124206   4.820   2.428   2.644
 7769SOL    HW224207   4.936   2.527   2.702
 7770SOL     OW24208   0.895   3.652   2.434
 7770SOL    HW124209   0.819   3.692   2.384
 7770SOL    HW224210   0.951   3.597   2.372
 7771SOL     OW24211   2.630   2.126   5.134
 7771SOL    HW124212   2.679   2.094   5.053
 7771SOL    HW224213   2.561   2.193   5.107
 7772SOL     OW24214   5.554   1.005   2.937
 7772SOL    HW124215   5.625   1.053   2.990
 7772SOL    HW224216   5.587   0.914   2.914
 7773SOL     OW24217   3.364   5.522   5.164
 7773SOL    HW124218   3.386   5.521   5.066
 7773SOL    HW224219   3.390   5.434   5.205
 7774SOL     OW24220   6.186   2.762   6.292
 7774SOL    HW124221   6.100   2.810   6.314
 7774SOL    HW224222   6.165   2.674   6.250
 7775SOL     OW24223   4.079   6.791   2.758
 7775SOL    HW124224   4.155   6.843   2.719
 7775SOL    HW224225   4.089   6.694   2.736
 7776SOL     OW24226   3.355   4.427   6.875
 7776SOL    HW124227   3.360   4.513   6.925
 7776SOL    HW224228   3.262   4.392   6.877
 7777SOL     OW24229   1.060   0.626   5.124
 7777SOL    HW124230   1.000   0.705   5.138
 7777SOL    HW224231   1.051   0.594   5.030
 7778SOL     OW24232   4.925   5.447   0.215
 7778SOL    HW124233   4.914   5.536   0.259
 7778SOL    HW224234   4.990   5.392   0.268
 7779SOL     OW24235   2.946   2.823   1.017
 7779SOL    HW124236   2.988   2.840   0.927
 7779SOL    HW224237   3.001   2.756   1.067
 7780SOL     OW24238   0.942   5.612   5.664
 7780SOL    HW124239   0.906   5.520   5.675
 7780SOL    HW224240   0.919   5.647   5.573
 7781SOL     OW24241   1.441   4.749   0.014
 7781SOL    HW124242   1.431   4.837   6.984
 7781SOL    HW224243   1.514   4.756   0.081
 7782SOL     OW24244   0.836   4.779   5.421
 7782SOL    HW124245   0.839   4.866   5.371
 7782SOL    HW224246   0.812   4.796   5.517
 7783SOL     OW24247   1.647   5.877   4.902
 7783SOL    HW124248   1.591   5.834   4.831
 7783SOL    HW224249   1.613   5.969   4.920
 7784SOL     OW24250   2.964   3.027   0.578
 7784SOL    HW124251   2.961   3.122   0.547
 7784SOL    HW224252   3.037   3.016   0.646
 7785SOL     OW24253   1.428   6.719   4.161
 7785SOL    HW124254   1.451   6.809   4.123
 7785SOL    HW224255   1.337   6.691   4.130
 7786SOL     OW24256   3.109   5.954   6.960
 7786SOL    HW124257   3.021   5.954   6.913
 7786SOL    HW224258   3.141   6.049   6.970
 7787SOL     OW24259   2.682   2.919   5.974
 7787SOL    HW124260   2.602   2.860   5.972
 7787SOL    HW224261   2.753   2.882   5.914
 7788SOL     OW24262   1.910   6.110   2.055
 7788SOL    HW124263   1.863   6.025   2.032
 7788SOL    HW224264   1.860   6.188   2.017
 7789SOL     OW24265   3.114   6.754   6.844
 7789SOL    HW124266   3.200   6.766   6.893
 7789SOL    HW224267   3.097   6.834   6.787
 7790SOL     OW24268   5.327   5.301   2.889
 7790SOL    HW124269   5.254   5.366   2.912
 7790SOL    HW224270   5.328   5.227   2.955
 7791SOL     OW24271   2.540   5.995   3.590
 7791SOL    HW124272   2.566   6.088   3.615
 7791SOL    HW224273   2.557   5.934   3.667
 7792SOL     OW24274   1.908   5.524   5.324
 7792SOL    HW124275   1.872   5.617   5.331
 7792SOL    HW224276   1.869   5.467   5.397
 7793SOL     OW24277   3.071   0.693   6.767
 7793SOL    HW124278   3.098   0.757   6.839
 7793SOL    HW224279   3.043   0.607   6.809
 7794SOL     OW24280   5.996   5.137   3.340
 7794SOL    HW124281   6.095   5.141   3.324
 7794SOL    HW224282   5.961   5.050   3.304
 7795SOL     OW24283   2.176   4.100   5.543
 7795SOL    HW124284   2.105   4.029   5.537
 7795SOL    HW224285   2.134   4.185   5.573
 7796SOL     OW24286   3.267   3.635   3.146
 7796SOL    HW124287   3.289   3.613   3.051
 7796SOL    HW224288   3.173   3.607   3.166
 7797SOL     OW24289   1.441   6.757   3.226
 7797SOL    HW124290   1.479   6.838   3.270
 7797SOL    HW224291   1.474   6.675   3.272
 7798SOL     OW24292   1.886   4.701   6.058
 7798SOL    HW124293   1.930   4.612   6.044
 7798SOL    HW224294   1.799   4.703   6.010
 7799SOL     OW24295   0.972   6.062   2.175
 7799SOL    HW124296   1.020   6.114   2.246
 7799SOL    HW224297   0.873   6.070   2.190
 7800SOL     OW24298   1.304   5.394   0.561
 7800SOL    HW124299   1.207   5.371   0.571
 7800SOL    HW224300   1.342   5.342   0.484
 7801SOL     OW24301   2.052   2.392   1.780
 7801SOL    HW124302   2.030   2.367   1.686
 7801SOL    HW224303   2.151   2.403   1.790
 7802SOL     OW24304   5.787   2.296   0.987
 7802SOL    HW124305   5.740   2.224   1.039
 7802SOL    HW224306   5.769   2.283   0.889
 7803SOL     OW24307   4.053   2.242   6.129
 7803SOL    HW124308   3.993   2.320   6.145
 7803SOL    HW224309   4.121   2.266   6.059
 7804SOL     OW24310   4.874   1.399   4.482
 7804SOL    HW124311   4.794   1.435   4.433
 7804SOL    HW224312   4.944   1.374   4.416
 7805SOL     OW24313   5.428   1.818   0.484
 7805SOL    HW124314   5.487   1.799   0.406
 7805SOL    HW224315   5.351   1.875   0.455
 7806SOL     OW24316   6.104   1.890   6.655
 7806SOL    HW124317   6.131   1.945   6.576
 7806SOL    HW224318   6.116   1.944   6.738
 7807SOL     OW24319   0.618   4.461   5.388
 7807SOL    HW124320   0.520   4.467   5.373
 7807SOL    HW224321   0.666   4.512   5.316
 7808SOL     OW24322   6.549   2.813   4.058
 7808SOL    HW124323   6.459   2.769   4.068
 7808SOL    HW224324   6.545   2.905   4.097
 7809SOL     OW24325   2.433   5.722   4.472
 7809SOL    HW124326   2.380   5.719   4.387
 7809SOL    HW224327   2.397   5.793   4.532
 7810SOL     OW24328   3.828   0.607   4.786
 7810SOL    HW124329   3.881   0.529   4.819
 7810SOL    HW224330   3.735   0.577   4.766
 7811SOL     OW24331   0.957   5.110   2.988
 7811SOL    HW124332   1.052   5.106   2.958
 7811SOL    HW224333   0.901   5.050   2.931
 7812SOL     OW24334   1.325   2.169   3.355
 7812SOL    HW124335   1.403   2.209   3.404
 7812SOL    HW224336   1.314   2.215   3.267
 7813SOL     OW24337   3.788   2.494   6.536
 7813SOL    HW124338   3.750   2.586   6.538
 7813SOL    HW224339   3.842   2.478   6.618
 7814SOL     OW24340   6.590   3.035   3.376
 7814SOL    HW124341   6.649   3.049   3.456
 7814SOL    HW224342   6.638   2.979   3.308
 7815SOL     OW24343   4.992   0.258   6.221
 7815SOL    HW124344   4.933   0.187   6.260
 7815SOL    HW224345   4.935   0.322   6.169
 7816SOL     OW24346   1.458   1.991   6.585
 7816SOL    HW124347   1.473   2.045   6.502
 7816SOL    HW224348   1.539   1.997   6.644
 7817SOL     OW24349   5.653   4.416   3.416
 7817SOL    HW124350   5.571   4.375   3.374
 7817SOL    HW224351   5.640   4.420   3.515
 7818SOL     OW24352   4.755   0.642   2.909
 7818SOL    HW124353   4.851   0.615   2.897
 7818SOL    HW224354   4.735   0.721   2.851
 7819SOL     OW24355   6.574   3.177   1.821
 7819SOL    HW124356   6.595   3.195   1.725
 7819SOL    HW224357   6.579   3.262   1.873
 7820SOL     OW24358   1.271   2.172   4.562
 7820SOL    HW124359   1.220   2.215   4.636
 7820SOL    HW224360   1.313   2.243   4.505
 7821SOL     OW24361   5.496   6.251   1.128
 7821SOL    HW124362   5.397   6.242   1.115
 7821SOL    HW224363   5.514   6.304   1.211
 7822SOL     OW24364   0.741   1.283   6.065
 7822SOL    HW124365   0.770   1.377   6.082
 7822SOL    HW224366   0.641   1.277   6.068
 7823SOL     OW24367   2.632   3.935   5.336
 7823SOL    HW124368   2.653   3.837   5.344
 7823SOL    HW224369   2.556   3.948   5.272
 7824SOL     OW24370   5.615   1.105   3.930
 7824SOL    HW124371   5.692   1.101   3.867
 7824SOL    HW224372   5.639   1.057   4.015
 7825SOL     OW24373   1.253   3.081   1.168
 7825SOL    HW124374   1.168   3.132   1.184
 7825SOL    HW224375   1.236   2.983   1.183
 7826SOL     OW24376   6.378   1.261   1.400
 7826SOL    HW124377   6.364   1.170   1.438
 7826SOL    HW224378   6.289   1.304   1.385
 7827SOL     OW24379   1.756   5.225   1.354
 7827SOL    HW124380   1.658   5.208   1.342
 7827SOL    HW224381   1.798   5.244   1.265
 7828SOL     OW24382   0.427   4.676   6.936
 7828SOL    HW124383   0.367   4.662   6.857
 7828SOL    HW224384   0.474   4.590   6.958
 7829SOL     OW24385   2.136   3.692   1.520
 7829SOL    HW124386   2.050   3.741   1.506
 7829SOL    HW224387   2.130   3.638   1.604
 7830SOL     OW24388   2.527   4.631   5.181
 7830SOL    HW124389   2.626   4.625   5.191
 7830SOL    HW224390   2.492   4.703   5.241
 7831SOL     OW24391   1.876   6.632   2.143
 7831SOL    HW124392   1.877   6.618   2.044
 7831SOL    HW224393   1.960   6.594   2.183
 7832SOL     OW24394   5.838   0.972   3.488
 7832SOL    HW124395   5.859   0.999   3.582
 7832SOL    HW224396   5.798   0.880   3.488
 7833SOL     OW24397   0.743   1.190   5.804
 7833SOL    HW124398   0.761   1.218   5.899
 7833SOL    HW224399   0.712   1.095   5.803
 7834SOL     OW24400   6.730   1.319   3.556
 7834SOL    HW124401   6.695   1.352   3.644
 7834SOL    HW224402   6.806   1.256   3.571
 7835SOL     OW24403   3.369   2.199   5.267
 7835SOL    HW124404   3.334   2.157   5.350
 7835SOL    HW224405   3.294   2.239   5.215
 7836SOL     OW24406   3.246   2.896   4.942
 7836SOL    HW124407   3.240   2.798   4.923
 7836SOL    HW224408   3.216   2.913   5.036
 7837SOL     OW24409   5.130   4.850   0.021
 7837SOL    HW124410   5.144   4.751   0.017
 7837SOL    HW224411   5.129   4.879   0.117
 7838SOL     OW24412   4.177   7.003   0.962
 7838SOL    HW124413   4.221   0.070   0.929
 7838SOL    HW224414   4.166   6.940   0.885
 7839SOL     OW24415   5.946   4.509   5.286
 7839SOL    HW124416   6.003   4.432   5.258
 7839SOL    HW224417   5.855   4.476   5.310
 7840SOL     OW24418   6.323   2.947   3.788
 7840SOL    HW124419   6.260   3.024   3.784
 7840SOL    HW224420   6.287   2.871   3.734
 7841SOL     OW24421   3.780   1.781   5.920
 7841SOL    HW124422   3.751   1.873   5.893
 7841SOL    HW224423   3.783   1.775   6.020
 7842SOL     OW24424   3.004   2.191   2.731
 7842SOL    HW124425   2.958   2.279   2.716
 7842SOL    HW224426   2.978   2.127   2.659
 7843SOL     OW24427   1.273   6.029   3.473
 7843SOL    HW124428   1.246   6.097   3.541
 7843SOL    HW224429   1.192   5.999   3.422
 7844SOL     OW24430   3.430   0.618   3.045
 7844SOL    HW124431   3.415   0.584   3.138
 7844SOL    HW224432   3.489   0.699   3.049
 7845SOL     OW24433   5.601   1.688   3.039
 7845SOL    HW124434   5.621   1.720   2.947
 7845SOL    HW224435   5.558   1.762   3.091
 7846SOL     OW24436   0.532   2.525   1.141
 7846SOL    HW124437   0.600   2.452   1.147
 7846SOL    HW224438   0.507   2.539   1.045
 7847SOL     OW24439   6.708   1.019   2.890
 7847SOL    HW124440   6.680   1.112   2.866
 7847SOL    HW224441   6.631   0.971   2.933
 7848SOL     OW24442   3.027   4.723   0.606
 7848SOL    HW124443   2.965   4.649   0.630
 7848SOL    HW224444   2.979   4.810   0.610
 7849SOL     OW24445   6.316   4.440   4.684
 7849SOL    HW124446   6.366   4.359   4.716
 7849SOL    HW224447   6.309   4.437   4.584
 7850SOL     OW24448   0.243   1.293   4.276
 7850SOL    HW124449   0.334   1.266   4.244
 7850SOL    HW224450   0.213   1.376   4.229
 7851SOL     OW24451   6.617   1.368   1.484
 7851SOL    HW124452   6.528   1.333   1.456
 7851SOL    HW224453   6.612   1.468   1.495
 7852SOL     OW24454   3.464   1.806   6.639
 7852SOL    HW124455   3.491   1.836   6.547
 7852SOL    HW224456   3.529   1.739   6.673
 7853SOL     OW24457   4.985   2.367   1.675
 7853SOL    HW124458   5.034   2.316   1.603
 7853SOL    HW224459   5.042   2.443   1.706
 7854SOL     OW24460   3.551   3.512   6.511
 7854SOL    HW124461   3.517   3.479   6.599
 7854SOL    HW224462   3.536   3.611   6.505
 7855SOL     OW24463   4.531   6.840   4.554
 7855SOL    HW124464   4.534   6.802   4.646
 7855SOL    HW224465   4.566   6.772   4.489
 7856SOL     OW24466   6.341   5.937   4.904
 7856SOL    HW124467   6.383   5.876   4.971
 7856SOL    HW224468   6.280   6.001   4.951
 7857SOL     OW24469   4.778   2.859   0.293
 7857SOL    HW124470   4.808   2.767   0.268
 7857SOL    HW224471   4.812   2.881   0.385
 7858SOL     OW24472   6.421   6.623   3.874
 7858SOL    HW124473   6.499   6.565   3.848
 7858SOL    HW224474   6.356   6.628   3.798
 7859SOL     OW24475   4.236   2.958   6.279
 7859SOL    HW124476   4.282   2.929   6.195
 7859SOL    HW224477   4.249   3.056   6.292
 7860SOL     OW24478   4.248   0.952   3.737
 7860SOL    HW124479   4.327   0.981   3.684
 7860SOL    HW224480   4.170   1.012   3.715
 7861SOL     OW24481   3.502   4.655   1.558
 7861SOL    HW124482   3.512   4.641   1.657
 7861SOL    HW224483   3.492   4.566   1.513
 7862SOL     OW24484   2.034   4.722   1.773
 7862SOL    HW124485   2.099   4.662   1.727
 7862SOL    HW224486   2.081   4.806   1.801
 7863SOL     OW24487   6.963   3.988   4.646
 7863SOL    HW124488   6.936   3.932   4.567
 7863SOL    HW224489   6.969   4.084   4.619
 7864SOL     OW24490   0.704   5.779   5.691
 7864SOL    HW124491   0.769   5.842   5.733
 7864SOL    HW224492   0.735   5.685   5.705
 7865SOL     OW24493   6.568   5.971   4.010
 7865SOL    HW124494   6.622   5.976   4.095
 7865SOL    HW224495   6.471   5.964   4.032
 7866SOL     OW24496   0.700   1.389   5.641
 7866SOL    HW124497   0.600   1.391   5.646
 7866SOL    HW224498   0.734   1.308   5.689
 7867SOL     OW24499   6.140   6.244   3.402
 7867SOL    HW124500   6.213   6.280   3.344
 7867SOL    HW224501   6.051   6.263   3.361
 7868SOL     OW24502   4.867   6.235   2.024
 7868SOL    HW124503   4.816   6.183   2.093
 7868SOL    HW224504   4.847   6.333   2.034
 7869SOL     OW24505   5.342   4.051   6.985
 7869SOL    HW124506   5.298   4.124   0.021
 7869SOL    HW224507   5.440   4.052   7.002
 7870SOL     OW24508   5.061   5.918   3.843
 7870SOL    HW124509   5.068   5.971   3.927
 7870SOL    HW224510   5.023   5.827   3.863
 7871SOL     OW24511   4.415   2.148   1.651
 7871SOL    HW124512   4.330   2.094   1.652
 7871SOL    HW224513   4.406   2.226   1.713
 7872SOL     OW24514   2.042   3.367   3.232
 7872SOL    HW124515   2.116   3.300   3.229
 7872SOL    HW224516   2.057   3.430   3.308
 7873SOL     OW24517   5.808   6.844   6.572
 7873SOL    HW124518   5.708   6.845   6.574
 7873SOL    HW224519   5.839   6.858   6.479
 7874SOL     OW24520   4.824   2.603   0.709
 7874SOL    HW124521   4.839   2.521   0.653
 7874SOL    HW224522   4.910   2.653   0.719
 7875SOL     OW24523   4.575   2.973   6.721
 7875SOL    HW124524   4.593   3.068   6.745
 7875SOL    HW224525   4.483   2.947   6.750
 7876SOL     OW24526   1.441   6.586   3.715
 7876SOL    HW124527   1.384   6.527   3.773
 7876SOL    HW224528   1.521   6.616   3.767
 7877SOL     OW24529   0.740   1.583   2.540
 7877SOL    HW124530   0.761   1.665   2.485
 7877SOL    HW224531   0.764   1.600   2.635
 7878SOL     OW24532   4.783   4.319   4.423
 7878SOL    HW124533   4.804   4.292   4.517
 7878SOL    HW224534   4.734   4.406   4.424
 7879SOL     OW24535   3.677   5.395   3.477
 7879SOL    HW124536   3.638   5.319   3.424
 7879SOL    HW224537   3.715   5.463   3.414
 7880SOL     OW24538   1.995   3.809   1.983
 7880SOL    HW124539   2.044   3.756   1.914
 7880SOL    HW224540   2.043   3.805   2.070
 7881SOL     OW24541   5.913   5.042   5.197
 7881SOL    HW124542   5.881   4.992   5.117
 7881SOL    HW224543   5.988   5.103   5.170
 7882SOL     OW24544   1.543   3.618   2.372
 7882SOL    HW124545   1.476   3.563   2.423
 7882SOL    HW224546   1.505   3.709   2.356
 7883SOL     OW24547   0.985   0.562   0.271
 7883SOL    HW124548   1.083   0.571   0.288
 7883SOL    HW224549   0.968   0.481   0.214
 7884SOL     OW24550   1.846   3.807   4.108
 7884SOL    HW124551   1.806   3.899   4.103
 7884SOL    HW224552   1.776   3.742   4.136
 7885SOL     OW24553   6.600   5.662   1.282
 7885SOL    HW124554   6.525   5.705   1.334
 7885SOL    HW224555   6.661   5.614   1.345
 7886SOL     OW24556   3.786   5.419   0.263
 7886SOL    HW124557   3.751   5.346   0.204
 7886SOL    HW224558   3.857   5.470   0.214
 7887SOL     OW24559   3.423   2.674   5.586
 7887SOL    HW124560   3.438   2.662   5.488
 7887SOL    HW224561   3.377   2.762   5.601
 7888SOL     OW24562   6.392   0.363   5.606
 7888SOL    HW124563   6.330   0.329   5.677
 7888SOL    HW224564   6.450   0.434   5.644
 7889SOL     OW24565   1.532   3.981   1.581
 7889SOL    HW124566   1.557   4.063   1.529
 7889SOL    HW224567   1.609   3.953   1.638
 7890SOL     OW24568   1.890   3.018   3.122
 7890SOL    HW124569   1.978   2.999   3.165
 7890SOL    HW224570   1.892   2.989   3.026
 7891SOL     OW24571   1.634   3.313   3.519
 7891SOL    HW124572   1.722   3.288   3.479
 7891SOL    HW224573   1.600   3.236   3.573
 7892SOL     OW24574   2.396   1.546   4.044
 7892SOL    HW124575   2.438   1.486   3.976
 7892SOL    HW224576   2.467   1.598   4.091
 7893SOL     OW24577   0.150   6.357   2.434
 7893SOL    HW124578   0.050   6.367   2.436
 7893SOL    HW224579   0.187   6.386   2.523
 7894SOL     OW24580   3.212   0.517   0.997
 7894SOL    HW124581   3.157   0.437   1.021
 7894SOL    HW224582   3.172   0.562   0.917
 7895SOL     OW24583   6.151   0.634   5.450
 7895SOL    HW124584   6.177   0.701   5.519
 7895SOL    HW224585   6.071   0.582   5.482
 7896SOL     OW24586   4.694   3.783   0.111
 7896SOL    HW124587   4.703   3.686   0.137
 7896SOL    HW224588   4.782   3.815   0.075
 7897SOL     OW24589   2.747   4.145   0.141
 7897SOL    HW124590   2.761   4.183   0.050
 7897SOL    HW224591   2.652   4.161   0.170
 7898SOL     OW24592   4.623   1.933   3.373
 7898SOL    HW124593   4.530   1.948   3.407
 7898SOL    HW224594   4.650   1.838   3.386
 7899SOL     OW24595   5.919   0.939   0.816
 7899SOL    HW124596   5.873   0.999   0.882
 7899SOL    HW224597   5.851   0.885   0.767
 7900SOL     OW24598   1.496   5.522   1.165
 7900SOL    HW124599   1.480   5.505   1.263
 7900SOL    HW224600   1.594   5.520   1.146
 7901SOL     OW24601   5.021   1.178   6.599
 7901SOL    HW124602   4.989   1.097   6.648
 7901SOL    HW224603   5.096   1.220   6.650
 7902SOL     OW24604   5.529   5.837   1.512
 7902SOL    HW124605   5.523   5.934   1.489
 7902SOL    HW224606   5.567   5.827   1.604
 7903SOL     OW24607   5.728   1.458   0.324
 7903SOL    HW124608   5.649   1.445   0.264
 7903SOL    HW224609   5.811   1.427   0.277
 7904SOL     OW24610   5.760   6.340   3.176
 7904SOL    HW124611   5.689   6.318   3.244
 7904SOL    HW224612   5.725   6.320   3.084
 7905SOL     OW24613   4.528   2.581   0.628
 7905SOL    HW124614   4.470   2.544   0.701
 7905SOL    HW224615   4.622   2.590   0.662
 7906SOL     OW24616   7.005   5.244   0.282
 7906SOL    HW124617   6.945   5.184   0.336
 7906SOL    HW224618   6.952   5.319   0.245
 7907SOL     OW24619   5.736   2.404   3.561
 7907SOL    HW124620   5.693   2.322   3.600
 7907SOL    HW224621   5.816   2.429   3.615
 7908SOL     OW24622   0.555   1.984   5.201
 7908SOL    HW124623   0.608   1.918   5.148
 7908SOL    HW224624   0.460   1.984   5.170
 7909SOL     OW24625   5.657   3.452   5.188
 7909SOL    HW124626   5.646   3.550   5.171
 7909SOL    HW224627   5.568   3.411   5.206
 7910SOL     OW24628   2.804   3.526   5.889
 7910SOL    HW124629   2.841   3.453   5.832
 7910SOL    HW224630   2.854   3.611   5.872
 7911SOL     OW24631   1.640   3.013   6.492
 7911SOL    HW124632   1.576   2.952   6.538
 7911SOL    HW224633   1.722   3.024   6.549
 7912SOL     OW24634   6.940   4.958   0.288
 7912SOL    HW124635   6.862   4.896   0.285
 7912SOL    HW224636   6.973   4.975   0.195
 7913SOL     OW24637   1.108   5.035   1.021
 7913SOL    HW124638   1.207   5.028   1.009
 7913SOL    HW224639   1.083   4.998   1.111
 7914SOL     OW24640   0.057   4.544   6.097
 7914SOL    HW124641   0.127   4.614   6.080
 7914SOL    HW224642   0.089   4.483   6.170
 7915SOL     OW24643   4.790   2.803   2.206
 7915SOL    HW124644   4.715   2.737   2.199
 7915SOL    HW224645   4.773   2.880   2.146
 7916SOL     OW24646   6.976   3.892   5.501
 7916SOL    HW124647   0.013   3.919   5.421
 7916SOL    HW224648   6.995   3.955   5.576
 7917SOL     OW24649   3.396   3.618   3.594
 7917SOL    HW124650   3.310   3.596   3.548
 7917SOL    HW224651   3.462   3.652   3.527
 7918SOL     OW24652   0.300   1.771   0.179
 7918SOL    HW124653   0.361   1.692   0.189
 7918SOL    HW224654   0.350   1.855   0.199
 7919SOL     OW24655   1.847   4.700   3.009
 7919SOL    HW124656   1.767   4.699   3.068
 7919SOL    HW224657   1.891   4.610   3.010
 7920SOL     OW24658   0.357   5.328   1.230
 7920SOL    HW124659   0.437   5.333   1.290
 7920SOL    HW224660   0.373   5.385   1.149
 7921SOL     OW24661   4.441   6.598   0.745
 7921SOL    HW124662   4.427   6.609   0.647
 7921SOL    HW224663   4.378   6.528   0.780
 7922SOL     OW24664   6.728   5.917   0.356
 7922SOL    HW124665   6.803   5.934   0.292
 7922SOL    HW224666   6.641   5.938   0.312
 7923SOL     OW24667   3.133   0.675   1.907
 7923SOL    HW124668   3.088   0.711   1.826
 7923SOL    HW224669   3.099   0.582   1.926
 7924SOL     OW24670   4.155   6.327   2.801
 7924SOL    HW124671   4.088   6.253   2.798
 7924SOL    HW224672   4.166   6.357   2.896
 7925SOL     OW24673   0.811   1.859   6.301
 7925SOL    HW124674   0.795   1.760   6.307
 7925SOL    HW224675   0.825   1.895   6.393
 7926SOL     OW24676   5.188   1.454   5.272
 7926SOL    HW124677   5.266   1.441   5.334
 7926SOL    HW224678   5.163   1.551   5.270
 7927SOL     OW24679   3.967   5.467   4.557
 7927SOL    HW124680   4.025   5.464   4.476
 7927SOL    HW224681   3.875   5.435   4.534
 7928SOL     OW24682   1.641   2.350   4.667
 7928SOL    HW124683   1.635   2.447   4.690
 7928SOL    HW224684   1.689   2.301   4.740
 7929SOL     OW24685   3.994   3.841   5.678
 7929SOL    HW124686   3.925   3.902   5.717
 7929SOL    HW224687   3.982   3.749   5.718
 7930SOL     OW24688   4.275   5.739   4.250
 7930SOL    HW124689   4.239   5.669   4.311
 7930SOL    HW224690   4.217   5.744   4.168
 7931SOL     OW24691   1.713   1.734   6.230
 7931SOL    HW124692   1.792   1.772   6.278
 7931SOL    HW224693   1.668   1.805   6.177
 7932SOL     OW24694   2.961   6.301   6.563
 7932SOL    HW124695   2.964   6.293   6.463
 7932SOL    HW224696   3.040   6.254   6.602
 7933SOL     OW24697   0.374   6.346   6.888
 7933SOL    HW124698   0.362   6.247   6.903
 7933SOL    HW224699   0.305   6.379   6.824
 7934SOL     OW24700   2.530   5.180   0.356
 7934SOL    HW124701   2.615   5.187   0.303
 7934SOL    HW224702   2.510   5.084   0.375
 7935SOL     OW24703   5.677   6.383   0.323
 7935SOL    HW124704   5.595   6.330   0.347
 7935SOL    HW224705   5.758   6.329   0.343
 7936SOL     OW24706   3.646   5.101   3.053
 7936SOL    HW124707   3.640   5.134   2.959
 7936SOL    HW224708   3.719   5.149   3.101
 7937SOL     OW24709   6.308   0.055   4.123
 7937SOL    HW124710   6.254   6.995   4.087
 7937SOL    HW224711   6.375   0.021   4.188
 7938SOL     OW24712   6.234   5.375   5.308
 7938SOL    HW124713   6.282   5.356   5.394
 7938SOL    HW224714   6.140   5.403   5.328
 7939SOL     OW24715   0.849   2.638   5.797
 7939SOL    HW124716   0.883   2.726   5.763
 7939SOL    HW224717   0.757   2.650   5.834
 7940SOL     OW24718   1.740   3.772   2.610
 7940SOL    HW124719   1.712   3.859   2.571
 7940SOL    HW224720   1.689   3.698   2.565
 7941SOL     OW24721   6.771   6.570   0.486
 7941SOL    HW124722   6.738   6.549   0.578
 7941SOL    HW224723   6.851   6.630   0.493
 7942SOL     OW24724   6.695   5.686   3.047
 7942SOL    HW124725   6.754   5.612   3.014
 7942SOL    HW224726   6.751   5.760   3.085
 7943SOL     OW24727   5.900   2.551   0.137
 7943SOL    HW124728   5.976   2.614   0.123
 7943SOL    HW224729   5.901   2.519   0.231
 7944SOL     OW24730   0.691   3.364   1.628
 7944SOL    HW124731   0.623   3.433   1.652
 7944SOL    HW224732   0.721   3.378   1.534
 7945SOL     OW24733   5.265   6.116   2.175
 7945SOL    HW124734   5.215   6.067   2.246
 7945SOL    HW224735   5.209   6.121   2.092
 7946SOL     OW24736   2.203   2.196   5.833
 7946SOL    HW124737   2.272   2.267   5.849
 7946SOL    HW224738   2.235   2.135   5.760
 7947SOL     OW24739   3.922   2.527   6.142
 7947SOL    HW124740   3.983   2.526   6.221
 7947SOL    HW224741   3.922   2.618   6.101
 7948SOL     OW24742   0.659   6.057   1.116
 7948SOL    HW124743   0.564   6.050   1.088
 7948SOL    HW224744   0.689   5.970   1.156
 7949SOL     OW24745   4.439   4.498   4.241
 7949SOL    HW124746   4.417   4.479   4.337
 7949SOL    HW224747   4.369   4.557   4.201
 7950SOL     OW24748   5.456   5.146   4.392
 7950SOL    HW124749   5.547   5.173   4.359
 7950SOL    HW224750   5.429   5.206   4.467
 7951SOL     OW24751   1.727   3.800   1.087
 7951SOL    HW124752   1.759   3.741   1.161
 7951SOL    HW224753   1.655   3.753   1.036
 7952SOL     OW24754   0.775   3.368   6.797
 7952SOL    HW124755   0.763   3.279   6.839
 7952SOL    HW224756   0.692   3.393   6.747
 7953SOL     OW24757   1.902   2.872   3.358
 7953SOL    HW124758   1.907   2.775   3.381
 7953SOL    HW224759   1.907   2.883   3.259
 7954SOL     OW24760   4.681   4.608   5.318
 7954SOL    HW124761   4.665   4.698   5.358
 7954SOL    HW224762   4.769   4.572   5.349
 7955SOL     OW24763   1.484   6.956   6.492
 7955SOL    HW124764   1.481   0.008   6.565
 7955SOL    HW224765   1.414   6.887   6.509
 7956SOL     OW24766   2.917   5.950   2.948
 7956SOL    HW124767   2.918   5.865   2.896
 7956SOL    HW224768   2.984   5.946   3.022
 7957SOL     OW24769   2.190   1.093   0.186
 7957SOL    HW124770   2.205   1.174   0.244
 7957SOL    HW224771   2.168   1.123   0.093
 7958SOL     OW24772   3.081   5.337   4.137
 7958SOL    HW124773   3.075   5.404   4.211
 7958SOL    HW224774   3.009   5.269   4.147
 7959SOL     OW24775   4.321   5.898   1.344
 7959SOL    HW124776   4.332   5.802   1.318
 7959SOL    HW224777   4.310   5.953   1.262
 7960SOL     OW24778   3.692   1.516   0.736
 7960SOL    HW124779   3.690   1.520   0.636
 7960SOL    HW224780   3.678   1.608   0.773
 7961SOL     OW24781   0.811   6.189   0.593
 7961SOL    HW124782   0.784   6.266   0.651
 7961SOL    HW224783   0.854   6.118   0.649
 7962SOL     OW24784   2.314   0.022   0.245
 7962SOL    HW124785   2.241   0.085   0.270
 7962SOL    HW224786   2.325   0.022   0.146
 7963SOL     OW24787   0.104   0.621   3.234
 7963SOL    HW124788   0.044   0.656   3.306
 7963SOL    HW224789   0.049   0.570   3.168
 7964SOL     OW24790   6.898   5.236   3.377
 7964SOL    HW124791   6.986   5.208   3.340
 7964SOL    HW224792   6.846   5.285   3.305
 7965SOL     OW24793   3.450   3.134   6.897
 7965SOL    HW124794   3.524   3.066   6.892
 7965SOL    HW224795   3.434   3.173   6.806
 7966SOL     OW24796   0.113   2.945   5.520
 7966SOL    HW124797   0.085   2.937   5.616
 7966SOL    HW224798   0.137   2.855   5.485
 7967SOL     OW24799   2.666   5.938   4.178
 7967SOL    HW124800   2.734   6.005   4.151
 7967SOL    HW224801   2.582   5.985   4.208
 7968SOL     OW24802   2.156   2.182   3.729
 7968SOL    HW124803   2.249   2.217   3.714
 7968SOL    HW224804   2.109   2.239   3.797
 7969SOL     OW24805   4.711   0.059   2.074
 7969SOL    HW124806   4.752   0.086   1.987
 7969SOL    HW224807   4.686   6.978   2.070
 7970SOL     OW24808   0.419   3.576   3.196
 7970SOL    HW124809   0.380   3.529   3.116
 7970SOL    HW224810   0.462   3.661   3.166
 7971SOL     OW24811   4.170   1.242   0.395
 7971SOL    HW124812   4.202   1.278   0.308
 7971SOL    HW224813   4.247   1.204   0.446
 7972SOL     OW24814   1.232   3.875   1.665
 7972SOL    HW124815   1.327   3.848   1.676
 7972SOL    HW224816   1.183   3.806   1.611
 7973SOL     OW24817   4.676   4.220   3.263
 7973SOL    HW124818   4.606   4.230   3.192
 7973SOL    HW224819   4.742   4.151   3.234
 7974SOL     OW24820   5.745   0.536   4.867
 7974SOL    HW124821   5.803   0.610   4.899
 7974SOL    HW224822   5.656   0.572   4.838
 7975SOL     OW24823   6.233   0.356   2.476
 7975SOL    HW124824   6.217   0.449   2.443
 7975SOL    HW224825   6.221   0.353   2.576
 7976SOL     OW24826   0.493   0.708   6.291
 7976SOL    HW124827   0.474   0.627   6.346
 7976SOL    HW224828   0.588   0.705   6.259
 7977SOL     OW24829   4.604   5.225   1.896
 7977SOL    HW124830   4.669   5.230   1.972
 7977SOL    HW224831   4.512   5.214   1.931
 7978SOL     OW24832   5.773   3.616   6.272
 7978SOL    HW124833   5.763   3.592   6.176
 7978SOL    HW224834   5.754   3.537   6.329
 7979SOL     OW24835   3.932   0.533   5.503
 7979SOL    HW124836   3.868   0.587   5.449
 7979SOL    HW224837   3.927   0.437   5.475
 7980SOL     OW24838   2.588   5.670   0.265
 7980SOL    HW124839   2.499   5.702   0.232
 7980SOL    HW224840   2.659   5.737   0.241
 7981SOL     OW24841   0.621   5.922   2.285
 7981SOL    HW124842   0.535   5.918   2.335
 7981SOL    HW224843   0.604   5.935   2.188
 7982SOL     OW24844   0.173   1.538   6.924
 7982SOL    HW124845   0.270   1.518   6.910
 7982SOL    HW224846   0.146   1.616   6.867
 7983SOL     OW24847   5.681   1.792   2.785
 7983SOL    HW124848   5.621   1.766   2.710
 7983SOL    HW224849   5.724   1.881   2.765
 7984SOL     OW24850   1.470   1.744   1.899
 7984SOL    HW124851   1.453   1.762   1.802
 7984SOL    HW224852   1.460   1.828   1.951
 7985SOL     OW24853   2.368   6.332   3.768
 7985SOL    HW124854   2.351   6.268   3.843
 7985SOL    HW224855   2.294   6.400   3.765
 7986SOL     OW24856   2.841   0.697   6.564
 7986SOL    HW124857   2.772   0.763   6.534
 7986SOL    HW224858   2.890   0.735   6.643
 7987SOL     OW24859   1.260   3.260   6.639
 7987SOL    HW124860   1.163   3.266   6.660
 7987SOL    HW224861   1.273   3.265   6.540
 7988SOL     OW24862   1.637   1.884   4.134
 7988SOL    HW124863   1.712   1.911   4.195
 7988SOL    HW224864   1.665   1.807   4.078
 7989SOL     OW24865   3.204   2.627   5.317
 7989SOL    HW124866   3.303   2.614   5.323
 7989SOL    HW224867   3.161   2.542   5.283
 7990SOL     OW24868   6.268   4.251   3.689
 7990SOL    HW124869   6.275   4.314   3.766
 7990SOL    HW224870   6.180   4.263   3.644
 7991SOL     OW24871   6.466   0.844   4.612
 7991SOL    HW124872   6.507   0.762   4.651
 7991SOL    HW224873   6.454   0.913   4.683
 7992SOL     OW24874   1.538   6.542   1.070
 7992SOL    HW124875   1.614   6.572   1.013
 7992SOL    HW224876   1.482   6.621   1.095
 7993SOL     OW24877   1.640   6.141   6.794
 7993SOL    HW124878   1.699   6.064   6.770
 7993SOL    HW224879   1.566   6.109   6.853
 7994SOL     OW24880   5.148   0.025   2.944
 7994SOL    HW124881   5.144   6.968   2.876
 7994SOL    HW224882   5.116   7.008   3.032
 7995SOL     OW24883   4.203   5.452   3.900
 7995SOL    HW124884   4.146   5.379   3.939
 7995SOL    HW224885   4.150   5.501   3.830
 7996SOL     OW24886   3.153   0.083   4.792
 7996SOL    HW124887   3.174   7.009   4.828
 7996SOL    HW224888   3.216   0.150   4.831
 7997SOL     OW24889   6.893   1.232   1.071
 7997SOL    HW124890   6.968   1.298   1.068
 7997SOL    HW224891   6.887   1.193   1.163
 7998SOL     OW24892   3.513   5.462   1.371
 7998SOL    HW124893   3.583   5.428   1.433
 7998SOL    HW224894   3.525   5.560   1.356
 7999SOL     OW24895   1.271   0.088   6.248
 7999SOL    HW124896   1.332   0.018   6.212
 7999SOL    HW224897   1.216   0.051   6.323
 8000SOL     OW24898   5.261   0.583   0.483
 8000SOL    HW124899   5.175   0.596   0.531
 8000SOL    HW224900   5.332   0.638   0.525
 8001SOL     OW24901   3.388   5.821   1.024
 8001SOL    HW124902   3.462   5.764   0.988
 8001SOL    HW224903   3.322   5.764   1.072
 8002SOL     OW24904   0.632   2.489   5.234
 8002SOL    HW124905   0.565   2.524   5.300
 8002SOL    HW224906   0.718   2.469   5.281
 8003SOL     OW24907   2.585   4.620   2.450
 8003SOL    HW124908   2.500   4.642   2.496
 8003SOL    HW224909   2.662   4.635   2.512
 8004SOL     OW24910   1.595   3.599   3.628
 8004SOL    HW124911   1.677   3.587   3.684
 8004SOL    HW224912   1.577   3.515   3.577
 8005SOL     OW24913   2.880   1.296   2.342
 8005SOL    HW124914   2.919   1.361   2.277
 8005SOL    HW224915   2.922   1.311   2.432
 8006SOL     OW24916   2.543   6.862   6.975
 8006SOL    HW124917   2.569   6.857   6.879
 8006SOL    HW224918   2.450   6.898   6.983
 8007SOL     OW24919   0.764   0.374   4.413
 8007SOL    HW124920   0.771   0.391   4.314
 8007SOL    HW224921   0.819   0.441   4.462
 8008SOL     OW24922   4.219   6.447   6.007
 8008SOL    HW124923   4.205   6.537   5.964
 8008SOL    HW224924   4.232   6.458   6.105
 8009SOL     OW24925   6.239   0.295   2.756
 8009SOL    HW124926   6.216   0.234   2.832
 8009SOL    HW224927   6.338   0.306   2.750
 8010SOL     OW24928   1.292   1.285   0.484
 8010SOL    HW124929   1.354   1.213   0.515
 8010SOL    HW224930   1.204   1.245   0.456
 8011SOL     OW24931   3.200   2.579   0.894
 8011SOL    HW124932   3.189   2.480   0.887
 8011SOL    HW224933   3.178   2.621   0.805
 8012SOL     OW24934   2.283   5.846   1.745
 8012SOL    HW124935   2.210   5.899   1.790
 8012SOL    HW224936   2.307   5.768   1.802
 8013SOL     OW24937   0.972   5.121   4.344
 8013SOL    HW124938   1.034   5.066   4.400
 8013SOL    HW224939   0.929   5.191   4.401
 8014SOL     OW24940   0.576   6.281   5.249
 8014SOL    HW124941   0.513   6.295   5.173
 8014SOL    HW224942   0.529   6.304   5.335
 8015SOL     OW24943   3.118   1.274   0.063
 8015SOL    HW124944   3.135   1.175   0.073
 8015SOL    HW224945   3.022   1.289   0.042
 8016SOL     OW24946   4.453   0.400   6.877
 8016SOL    HW124947   4.456   0.411   6.777
 8016SOL    HW224948   4.371   0.445   6.912
 8017SOL     OW24949   6.929   5.527   0.218
 8017SOL    HW124950   6.910   5.525   0.316
 8017SOL    HW224951   6.883   5.606   0.177
 8018SOL     OW24952   3.339   2.556   5.929
 8018SOL    HW124953   3.320   2.476   5.871
 8018SOL    HW224954   3.307   2.638   5.883
 8019SOL     OW24955   2.305   3.964   6.772
 8019SOL    HW124956   2.291   3.871   6.805
 8019SOL    HW224957   2.280   3.969   6.675
 8020SOL     OW24958   6.362   5.907   0.818
 8020SOL    HW124959   6.307   5.825   0.803
 8020SOL    HW224960   6.346   5.941   0.911
 8021SOL     OW24961   1.270   2.025   1.453
 8021SOL    HW124962   1.301   2.097   1.391
 8021SOL    HW224963   1.236   1.948   1.399
 8022SOL     OW24964   4.179   0.336   2.651
 8022SOL    HW124965   4.176   0.310   2.748
 8022SOL    HW224966   4.272   0.361   2.626
 8023SOL     OW24967   5.750   5.263   3.148
 8023SOL    HW124968   5.783   5.253   3.242
 8023SOL    HW224969   5.686   5.340   3.143
 8024SOL     OW24970   3.727   4.968   0.127
 8024SOL    HW124971   3.826   4.975   0.135
 8024SOL    HW224972   3.693   4.894   0.185
 8025SOL     OW24973   2.411   5.984   6.754
 8025SOL    HW124974   2.433   5.891   6.783
 8025SOL    HW224975   2.312   5.997   6.756
 8026SOL     OW24976   0.775   4.748   6.877
 8026SOL    HW124977   0.711   4.786   6.943
 8026SOL    HW224978   0.729   4.736   6.789
 8027SOL     OW24979   3.992   1.939   5.149
 8027SOL    HW124980   3.907   1.886   5.147
 8027SOL    HW224981   3.995   1.999   5.070
 8028SOL     OW24982   2.858   5.603   5.526
 8028SOL    HW124983   2.884   5.651   5.442
 8028SOL    HW224984   2.904   5.646   5.604
 8029SOL     OW24985   5.241   3.575   0.246
 8029SOL    HW124986   5.219   3.484   0.280
 8029SOL    HW224987   5.166   3.608   0.189
 8030SOL     OW24988   4.582   4.167   0.162
 8030SOL    HW124989   4.522   4.244   0.142
 8030SOL    HW224990   4.650   4.158   0.088
 8031SOL     OW24991   4.650   6.139   2.722
 8031SOL    HW124992   4.699   6.226   2.722
 8031SOL    HW224993   4.716   6.063   2.721
 8032SOL     OW24994   5.778   4.537   5.679
 8032SOL    HW124995   5.752   4.448   5.641
 8032SOL    HW224996   5.797   4.601   5.605
 8033SOL     OW24997   5.183   3.640   6.767
 8033SOL    HW124998   5.282   3.653   6.764
 8033SOL    HW224999   5.156   3.612   6.859
 8034SOL     OW25000   6.478   1.014   5.046
 8034SOL    HW125001   6.417   0.938   5.024
 8034SOL    HW225002   6.544   0.986   5.116
 8035SOL     OW25003   4.794   0.790   5.422
 8035SOL    HW125004   4.870   0.854   5.411
 8035SOL    HW225005   4.729   0.803   5.347
 8036SOL     OW25006   0.565   4.104   2.359
 8036SOL    HW125007   0.660   4.129   2.374
 8036SOL    HW225008   0.534   4.044   2.433
 8037SOL     OW25009   1.838   3.580   1.743
 8037SOL    HW125010   1.856   3.606   1.648
 8037SOL    HW225011   1.918   3.534   1.781
 8038SOL     OW25012   4.648   0.826   2.758
 8038SOL    HW125013   4.592   0.788   2.685
 8038SOL    HW225014   4.604   0.907   2.797
 8039SOL     OW25015   0.943   0.353   3.928
 8039SOL    HW125016   0.922   0.281   3.995
 8039SOL    HW225017   0.950   0.312   3.837
 8040SOL     OW25018   1.132   6.007   0.913
 8040SOL    HW125019   1.112   6.078   0.982
 8040SOL    HW225020   1.188   6.046   0.841
 8041SOL     OW25021   3.091   1.975   2.128
 8041SOL    HW125022   3.060   1.995   2.035
 8041SOL    HW225023   3.191   1.976   2.131
 8042SOL     OW25024   3.876   3.227   3.664
 8042SOL    HW125025   3.863   3.128   3.675
 8042SOL    HW225026   3.876   3.271   3.754
 8043SOL     OW25027   3.432   7.009   1.541
 8043SOL    HW125028   3.354   6.963   1.585
 8043SOL    HW225029   3.496   0.022   1.612
 8044SOL     OW25030   3.660   3.402   0.311
 8044SOL    HW125031   3.715   3.469   0.261
 8044SOL    HW225032   3.668   3.419   0.409
 8045SOL     OW25033   5.530   0.427   1.418
 8045SOL    HW125034   5.441   0.441   1.375
 8045SOL    HW225035   5.557   0.331   1.410
 8046SOL     OW25036   6.603   5.025   0.016
 8046SOL    HW125037   6.622   4.955   0.085
 8046SOL    HW225038   6.587   5.113   0.060
 8047SOL     OW25039   3.608   4.934   4.932
 8047SOL    HW125040   3.634   4.875   4.855
 8047SOL    HW225041   3.511   4.920   4.953
 8048SOL     OW25042   5.394   0.553   6.050
 8048SOL    HW125043   5.299   0.536   6.025
 8048SOL    HW225044   5.399   0.580   6.146
 8049SOL     OW25045   1.885   0.194   0.948
 8049SOL    HW125046   1.928   0.125   0.890
 8049SOL    HW225047   1.803   0.155   0.990
 8050SOL     OW25048   1.169   4.128   2.344
 8050SOL    HW125049   1.198   4.125   2.249
 8050SOL    HW225050   1.143   4.036   2.374
 8051SOL     OW25051   4.725   5.859   3.401
 8051SOL    HW125052   4.709   5.931   3.333
 8051SOL    HW225053   4.806   5.881   3.455
 8052SOL     OW25054   4.383   1.679   1.824
 8052SOL    HW125055   4.390   1.754   1.890
 8052SOL    HW225056   4.336   1.711   1.742
 8053SOL     OW25057   3.803   3.915   3.331
 8053SOL    HW125058   3.740   3.974   3.282
 8053SOL    HW225059   3.884   3.898   3.275
 8054SOL     OW25060   5.338   6.886   4.394
 8054SOL    HW125061   5.307   6.817   4.329
 8054SOL    HW225062   5.383   6.842   4.471
 8055SOL     OW25063   0.093   0.672   6.216
 8055SOL    HW125064   0.100   0.709   6.308
 8055SOL    HW225065   0.039   0.734   6.159
 8056SOL     OW25066   4.384   1.731   4.158
 8056SOL    HW125067   4.377   1.725   4.257
 8056SOL    HW225068   4.292   1.738   4.118
 8057SOL     OW25069   2.775   2.310   3.413
 8057SOL    HW125070   2.825   2.286   3.330
 8057SOL    HW225071   2.838   2.308   3.491
 8058SOL     OW25072   4.449   0.310   3.003
 8058SOL    HW125073   4.548   0.311   2.989
 8058SOL    HW225074   4.429   0.316   3.101
 8059SOL     OW25075   4.371   2.478   4.591
 8059SOL    HW125076   4.277   2.492   4.559
 8059SOL    HW225077   4.428   2.447   4.515
 8060SOL     OW25078   0.420   2.002   4.250
 8060SOL    HW125079   0.459   2.079   4.200
 8060SOL    HW225080   0.493   1.948   4.291
 8061SOL     OW25081   6.462   6.637   1.361
 8061SOL    HW125082   6.387   6.698   1.335
 8061SOL    HW225083   6.425   6.561   1.415
 8062SOL     OW25084   2.870   4.800   4.313
 8062SOL    HW125085   2.820   4.808   4.399
 8062SOL    HW225086   2.945   4.866   4.312
 8063SOL     OW25087   1.554   2.577   0.787
 8063SOL    HW125088   1.594   2.547   0.874
 8063SOL    HW225089   1.485   2.647   0.804
 8064SOL     OW25090   6.819   5.045   1.327
 8064SOL    HW125091   6.730   5.001   1.336
 8064SOL    HW225092   6.838   5.062   1.230
 8065SOL     OW25093   4.671   6.436   3.906
 8065SOL    HW125094   4.594   6.410   3.848
 8065SOL    HW225095   4.696   6.359   3.965
 8066SOL     OW25096   0.976   1.778   6.010
 8066SOL    HW125097   1.009   1.768   5.916
 8066SOL    HW225098   0.896   1.719   6.024
 8067SOL     OW25099   4.779   3.207   1.712
 8067SOL    HW125100   4.743   3.142   1.780
 8067SOL    HW225101   4.762   3.171   1.620
 8068SOL     OW25102   5.982   4.417   0.008
 8068SOL    HW125103   5.984   4.456   6.932
 8068SOL    HW225104   5.888   4.391   0.030
 8069SOL     OW25105   1.904   6.140   1.423
 8069SOL    HW125106   1.890   6.047   1.459
 8069SOL    HW225107   1.909   6.205   1.499
 8070SOL     OW25108   2.774   3.404   0.180
 8070SOL    HW125109   2.855   3.369   0.132
 8070SOL    HW225110   2.751   3.342   0.255
 8071SOL     OW25111   3.146   6.285   4.969
 8071SOL    HW125112   3.115   6.215   4.904
 8071SOL    HW225113   3.145   6.247   5.061
 8072SOL     OW25114   3.317   0.592   6.723
 8072SOL    HW125115   3.360   0.636   6.643
 8072SOL    HW225116   3.219   0.609   6.721
 8073SOL     OW25117   3.931   6.188   5.908
 8073SOL    HW125118   3.870   6.262   5.880
 8073SOL    HW225119   3.994   6.167   5.833
 8074SOL     OW25120   3.047   2.797   6.889
 8074SOL    HW125121   3.042   2.707   6.847
 8074SOL    HW225122   2.963   2.848   6.868
 8075SOL     OW25123   6.534   1.173   1.183
 8075SOL    HW125124   6.468   1.128   1.124
 8075SOL    HW225125   6.485   1.221   1.256
 8076SOL     OW25126   5.054   2.610   5.760
 8076SOL    HW125127   5.043   2.552   5.680
 8076SOL    HW225128   4.990   2.687   5.755
 8077SOL     OW25129   1.541   5.719   1.641
 8077SOL    HW125130   1.595   5.661   1.580
 8077SOL    HW225131   1.600   5.790   1.680
 8078SOL     OW25132   6.080   1.269   6.783
 8078SOL    HW125133   6.048   1.192   6.727
 8078SOL    HW225134   6.180   1.264   6.793
 8079SOL     OW25135   5.633   1.394   3.350
 8079SOL    HW125136   5.566   1.386   3.424
 8079SOL    HW225137   5.718   1.348   3.378
 8080SOL     OW25138   0.536   4.139   6.999
 8080SOL    HW125139   0.578   4.158   0.071
 8080SOL    HW225140   0.600   4.164   6.926
 8081SOL     OW25141   4.747   0.141   4.805
 8081SOL    HW125142   4.720   0.196   4.726
 8081SOL    HW225143   4.672   0.140   4.872
 8082SOL     OW25144   6.021   0.935   1.807
 8082SOL    HW125145   6.027   0.842   1.843
 8082SOL    HW225146   5.946   0.941   1.742
 8083SOL     OW25147   5.296   3.324   2.480
 8083SOL    HW125148   5.325   3.392   2.547
 8083SOL    HW225149   5.204   3.291   2.504
 8084SOL     OW25150   5.465   7.003   0.812
 8084SOL    HW125151   5.419   6.914   0.805
 8084SOL    HW225152   5.447   0.039   0.729
 8085SOL     OW25153   6.359   0.114   2.390
 8085SOL    HW125154   6.299   0.185   2.426
 8085SOL    HW225155   6.454   0.147   2.392
 8086SOL     OW25156   4.953   1.093   3.912
 8086SOL    HW125157   5.014   1.083   3.990
 8086SOL    HW225158   4.911   1.005   3.890
 8087SOL     OW25159   2.878   1.750   1.251
 8087SOL    HW125160   2.781   1.727   1.237
 8087SOL    HW225161   2.888   1.850   1.256
 8088SOL     OW25162   5.499   1.944   1.511
 8088SOL    HW125163   5.494   2.006   1.590
 8088SOL    HW225164   5.534   1.993   1.432
 8089SOL     OW25165   5.427   2.878   0.844
 8089SOL    HW125166   5.384   2.954   0.795
 8089SOL    HW225167   5.380   2.793   0.823
 8090SOL     OW25168   4.174   2.464   6.584
 8090SOL    HW125169   4.178   2.555   6.624
 8090SOL    HW225170   4.267   2.429   6.572
 8091SOL     OW25171   2.622   3.807   6.945
 8091SOL    HW125172   2.653   3.836   6.855
 8091SOL    HW225173   2.522   3.798   6.945
 8092SOL     OW25174   0.953   2.002   4.793
 8092SOL    HW125175   0.877   1.983   4.732
 8092SOL    HW225176   0.919   2.024   4.884
 8093SOL     OW25177   4.821   5.866   1.593
 8093SOL    HW125178   4.775   5.955   1.597
 8093SOL    HW225179   4.755   5.796   1.562
 8094SOL     OW25180   2.095   3.876   4.310
 8094SOL    HW125181   2.106   3.792   4.258
 8094SOL    HW225182   1.998   3.897   4.321
 8095SOL     OW25183   5.589   4.426   4.556
 8095SOL    HW125184   5.535   4.494   4.606
 8095SOL    HW225185   5.658   4.386   4.617
 8096SOL     OW25186   2.914   5.514   3.840
 8096SOL    HW125187   2.985   5.488   3.775
 8096SOL    HW225188   2.824   5.491   3.803
 8097SOL     OW25189   5.002   6.971   3.174
 8097SOL    HW125190   4.918   6.970   3.120
 8097SOL    HW225191   5.013   0.044   3.217
 8098SOL     OW25192   1.928   6.751   4.143
 8098SOL    HW125193   1.881   6.821   4.197
 8098SOL    HW225194   1.986   6.696   4.202
 8099SOL     OW25195   5.456   0.668   3.800
 8099SOL    HW125196   5.539   0.718   3.774
 8099SOL    HW225197   5.438   0.682   3.897
 8100SOL     OW25198   0.564   6.811   6.965
 8100SOL    HW125199   0.503   6.874   6.918
 8100SOL    HW225200   0.589   6.736   6.904
 8101SOL     OW25201   2.182   0.169   4.205
 8101SOL    HW125202   2.172   0.169   4.105
 8101SOL    HW225203   2.239   0.091   4.232
 8102SOL     OW25204   1.038   4.842   5.046
 8102SOL    HW125205   1.090   4.758   5.061
 8102SOL    HW225206   0.963   4.847   5.111
 8103SOL     OW25207   4.335   0.535   0.625
 8103SOL    HW125208   4.247   0.548   0.671
 8103SOL    HW225209   4.351   0.437   0.613
 8104SOL     OW25210   2.833   6.241   5.877
 8104SOL    HW125211   2.869   6.245   5.783
 8104SOL    HW225212   2.823   6.333   5.913
 8105SOL     OW25213   1.665   2.314   2.924
 8105SOL    HW125214   1.620   2.225   2.929
 8105SOL    HW225215   1.742   2.316   2.988
 8106SOL     OW25216   2.537   5.825   3.846
 8106SOL    HW125217   2.551   5.775   3.931
 8106SOL    HW225218   2.479   5.771   3.785
 8107SOL     OW25219   1.328   5.901   5.065
 8107SOL    HW125220   1.375   5.978   5.021
 8107SOL    HW225221   1.311   5.829   4.998
 8108SOL     OW25222   5.659   3.197   5.044
 8108SOL    HW125223   5.672   3.284   5.092
 8108SOL    HW225224   5.687   3.122   5.104
 8109SOL     OW25225   1.024   3.844   3.857
 8109SOL    HW125226   1.044   3.877   3.765
 8109SOL    HW225227   0.979   3.917   3.909
 8110SOL     OW25228   3.514   6.541   1.032
 8110SOL    HW125229   3.493   6.633   1.064
 8110SOL    HW225230   3.612   6.534   1.012
 8111SOL     OW25231   4.325   0.479   5.774
 8111SOL    HW125232   4.267   0.476   5.693
 8111SOL    HW225233   4.416   0.512   5.749
 8112SOL     OW25234   1.602   1.445   4.547
 8112SOL    HW125235   1.641   1.536   4.532
 8112SOL    HW225236   1.591   1.399   4.459
 8113SOL     OW25237   3.082   3.705   0.046
 8113SOL    HW125238   3.128   3.791   0.066
 8113SOL    HW225239   3.039   3.670   0.129
 8114SOL     OW25240   1.999   3.054   1.628
 8114SOL    HW125241   2.052   3.013   1.702
 8114SOL    HW225242   1.930   3.116   1.666
 8115SOL     OW25243   4.257   1.473   1.636
 8115SOL    HW125244   4.281   1.527   1.555
 8115SOL    HW225245   4.315   1.500   1.713
 8116SOL     OW25246   4.939   0.505   4.654
 8116SOL    HW125247   4.913   0.546   4.742
 8116SOL    HW225248   4.883   0.544   4.581
 8117SOL     OW25249   2.045   1.363   4.714
 8117SOL    HW125250   1.972   1.358   4.646
 8117SOL    HW225251   2.123   1.413   4.676
 8118SOL     OW25252   6.366   3.303   5.613
 8118SOL    HW125253   6.390   3.341   5.703
 8118SOL    HW225254   6.313   3.219   5.625
 8119SOL     OW25255   6.436   5.477   5.139
 8119SOL    HW125256   6.362   5.425   5.182
 8119SOL    HW225257   6.524   5.433   5.159
 8120SOL     OW25258   3.542   4.587   6.562
 8120SOL    HW125259   3.481   4.524   6.513
 8120SOL    HW225260   3.488   4.650   6.617
 8121SOL     OW25261   0.299   5.229   2.503
 8121SOL    HW125262   0.346   5.140   2.509
 8121SOL    HW225263   0.365   5.300   2.479
 8122SOL     OW25264   0.883   5.675   2.622
 8122SOL    HW125265   0.877   5.663   2.523
 8122SOL    HW225266   0.976   5.698   2.648
 8123SOL     OW25267   0.027   6.977   0.045
 8123SOL    HW125268   0.112   7.007   0.003
 8123SOL    HW225269   6.972   0.029   0.027
 8124SOL     OW25270   0.399   6.039   0.994
 8124SOL    HW125271   0.354   6.119   0.956
 8124SOL    HW225272   0.356   5.956   0.958
 8125SOL     OW25273   0.953   6.448   2.858
 8125SOL    HW125274   0.908   6.537   2.861
 8125SOL    HW225275   0.917   6.395   2.781
 8126SOL     OW25276   6.475   3.713   2.159
 8126SOL    HW125277   6.546   3.648   2.134
 8126SOL    HW225278   6.474   3.789   2.093
 8127SOL     OW25279   2.093   6.238   0.957
 8127SOL    HW125280   2.162   6.310   0.945
 8127SOL    HW225281   2.068   6.201   0.867
 8128SOL     OW25282   2.707   2.994   0.683
 8128SOL    HW125283   2.644   2.943   0.625
 8128SOL    HW225284   2.798   2.995   0.642
 8129SOL     OW25285   4.324   1.608   6.112
 8129SOL    HW125286   4.344   1.545   6.037
 8129SOL    HW225287   4.281   1.558   6.187
 8130SOL     OW25288   0.367   4.595   6.665
 8130SOL    HW125289   0.374   4.552   6.575
 8130SOL    HW225290   0.327   4.531   6.730
 8131SOL     OW25291   2.720   0.717   0.700
 8131SOL    HW125292   2.757   0.808   0.720
 8131SOL    HW225293   2.671   0.683   0.781
 8132SOL     OW25294   5.515   6.232   6.401
 8132SOL    HW125295   5.482   6.322   6.373
 8132SOL    HW225296   5.459   6.199   6.478
 8133SOL     OW25297   3.284   4.786   1.866
 8133SOL    HW125298   3.368   4.755   1.911
 8133SOL    HW225299   3.283   4.755   1.771
 8134SOL     OW25300   0.896   1.262   4.503
 8134SOL    HW125301   0.963   1.268   4.577
 8134SOL    HW225302   0.882   1.166   4.479
 8135SOL     OW25303   2.373   5.574   1.454
 8135SOL    HW125304   2.332   5.658   1.418
 8135SOL    HW225305   2.304   5.502   1.457
 8136SOL     OW25306   4.515   4.619   2.722
 8136SOL    HW125307   4.590   4.562   2.687
 8136SOL    HW225308   4.544   4.663   2.807
 8137SOL     OW25309   2.131   1.425   4.038
 8137SOL    HW125310   2.208   1.477   4.074
 8137SOL    HW225311   2.118   1.343   4.093
 8138SOL     OW25312   5.469   2.421   0.538
 8138SOL    HW125313   5.494   2.443   0.444
 8138SOL    HW225314   5.467   2.322   0.550
 8139SOL     OW25315   1.928   2.661   3.728
 8139SOL    HW125316   1.942   2.562   3.724
 8139SOL    HW225317   1.830   2.680   3.735
 8140SOL     OW25318   3.538   6.667   0.627
 8140SOL    HW125319   3.466   6.607   0.662
 8140SOL    HW225320   3.496   6.753   0.596
 8141SOL     OW25321   4.853   6.644   5.529
 8141SOL    HW125322   4.766   6.597   5.519
 8141SOL    HW225323   4.916   6.586   5.582
 8142SOL     OW25324   1.937   5.061   0.415
 8142SOL    HW125325   2.008   5.009   0.368
 8142SOL    HW225326   1.951   5.055   0.514
 8143SOL     OW25327   5.213   5.116   0.608
 8143SOL    HW125328   5.124   5.069   0.606
 8143SOL    HW225329   5.227   5.158   0.697
 8144SOL     OW25330   0.747   6.047   5.396
 8144SOL    HW125331   0.711   5.962   5.434
 8144SOL    HW225332   0.721   6.123   5.455
 8145SOL     OW25333   5.194   4.865   0.874
 8145SOL    HW125334   5.195   4.920   0.958
 8145SOL    HW225335   5.279   4.882   0.823
 8146SOL     OW25336   5.545   7.009   5.754
 8146SOL    HW125337   5.549   6.930   5.692
 8146SOL    HW225338   5.563   0.076   5.703
 8147SOL     OW25339   6.548   0.668   0.864
 8147SOL    HW125340   6.498   0.746   0.903
 8147SOL    HW225341   6.582   0.692   0.773
 8148SOL     OW25342   4.524   4.568   6.558
 8148SOL    HW125343   4.432   4.550   6.593
 8148SOL    HW225344   4.573   4.629   6.621
 8149SOL     OW25345   1.867   6.654   3.064
 8149SOL    HW125346   1.885   6.747   3.029
 8149SOL    HW225347   1.848   6.593   2.987
 8150SOL     OW25348   0.902   3.985   1.057
 8150SOL    HW125349   0.858   4.071   1.030
 8150SOL    HW225350   1.001   3.996   1.051
 8151SOL     OW25351   5.735   5.139   3.794
 8151SOL    HW125352   5.709   5.206   3.864
 8151SOL    HW225353   5.675   5.149   3.714
 8152SOL     OW25354   5.917   3.216   3.262
 8152SOL    HW125355   5.933   3.120   3.239
 8152SOL    HW225356   5.906   3.269   3.178
 8153SOL     OW25357   1.035   1.449   2.814
 8153SOL    HW125358   1.100   1.461   2.889
 8153SOL    HW225359   0.998   1.356   2.817
 8154SOL     OW25360   3.787   6.579   2.469
 8154SOL    HW125361   3.823   6.658   2.519
 8154SOL    HW225362   3.757   6.607   2.378
 8155SOL     OW25363   1.574   4.265   2.165
 8155SOL    HW125364   1.558   4.284   2.262
 8155SOL    HW225365   1.538   4.175   2.142
 8156SOL     OW25366   4.728   6.252   1.203
 8156SOL    HW125367   4.767   6.326   1.148
 8156SOL    HW225368   4.783   6.169   1.191
 8157SOL     OW25369   6.587   4.367   6.271
 8157SOL    HW125370   6.517   4.438   6.256
 8157SOL    HW225371   6.602   4.318   6.185
 8158SOL     OW25372   5.096   4.584   0.021
 8158SOL    HW125373   5.016   4.533   0.054
 8158SOL    HW225374   5.116   4.556   6.944
 8159SOL     OW25375   3.456   5.589   4.912
 8159SOL    HW125376   3.387   5.572   4.841
 8159SOL    HW225377   3.540   5.541   4.889
 8160SOL     OW25378   4.713   0.483   3.904
 8160SOL    HW125379   4.756   0.550   3.843
 8160SOL    HW225380   4.624   0.517   3.933
 8161SOL     OW25381   5.779   3.875   6.576
 8161SOL    HW125382   5.872   3.887   6.542
 8161SOL    HW225383   5.757   3.777   6.579
 8162SOL     OW25384   6.613   4.982   6.613
 8162SOL    HW125385   6.550   4.980   6.690
 8162SOL    HW225386   6.662   5.069   6.612
 8163SOL     OW25387   2.397   4.824   5.368
 8163SOL    HW125388   2.326   4.880   5.410
 8163SOL    HW225389   2.420   4.749   5.430
 8164SOL     OW25390   4.365   1.329   0.165
 8164SOL    HW125391   4.400   1.245   0.122
 8164SOL    HW225392   4.441   1.380   0.204
 8165SOL     OW25393   6.882   3.961   6.511
 8165SOL    HW125394   6.973   3.955   6.468
 8165SOL    HW225395   6.827   4.030   6.464
 8166SOL     OW25396   1.861   0.575   3.581
 8166SOL    HW125397   1.796   0.642   3.546
 8166SOL    HW225398   1.920   0.544   3.506
 8167SOL     OW25399   0.178   0.887   2.776
 8167SOL    HW125400   0.095   0.943   2.772
 8167SOL    HW225401   0.248   0.935   2.830
 8168SOL     OW25402   2.527   0.155   1.644
 8168SOL    HW125403   2.598   0.155   1.715
 8168SOL    HW225404   2.552   0.089   1.573
 8169SOL     OW25405   3.985   2.120   0.140
 8169SOL    HW125406   3.980   2.032   0.092
 8169SOL    HW225407   4.068   2.123   0.196
 8170SOL     OW25408   6.494   4.639   1.517
 8170SOL    HW125409   6.579   4.597   1.547
 8170SOL    HW225410   6.464   4.597   1.431
 8171SOL     OW25411   1.961   1.348   6.731
 8171SOL    HW125412   2.037   1.374   6.672
 8171SOL    HW225413   1.875   1.362   6.683
 8172SOL     OW25414   6.985   1.956   1.648
 8172SOL    HW125415   6.949   2.028   1.707
 8172SOL    HW225416   0.049   1.916   1.690
 8173SOL     OW25417   5.302   1.430   2.113
 8173SOL    HW125418   5.394   1.466   2.097
 8173SOL    HW225419   5.248   1.498   2.162
 8174SOL     OW25420   0.721   6.861   2.657
 8174SOL    HW125421   0.676   6.945   2.686
 8174SOL    HW225422   0.816   6.862   2.685
 8175SOL     OW25423   0.277   2.822   4.735
 8175SOL    HW125424   0.260   2.799   4.639
 8175SOL    HW225425   0.376   2.821   4.753
 8176SOL     OW25426   2.349   4.655   1.899
 8176SOL    HW125427   2.324   4.599   1.978
 8176SOL    HW225428   2.286   4.733   1.891
 8177SOL     OW25429   4.878   0.810   3.899
 8177SOL    HW125430   4.791   0.830   3.944
 8177SOL    HW225431   4.862   0.747   3.823
 8178SOL     OW25432   3.029   6.877   0.871
 8178SOL    HW125433   3.049   6.949   0.938
 8178SOL    HW225434   3.112   6.825   0.853
 8179SOL     OW25435   5.606   0.877   4.650
 8179SOL    HW125436   5.558   0.956   4.689
 8179SOL    HW225437   5.577   0.794   4.697
 8180SOL     OW25438   5.796   0.645   6.602
 8180SOL    HW125439   5.809   0.729   6.549
 8180SOL    HW225440   5.879   0.590   6.598
 8181SOL     OW25441   1.774   0.977   0.551
 8181SOL    HW125442   1.858   1.003   0.599
 8181SOL    HW225443   1.778   1.010   0.457
 8182SOL     OW25444   2.939   3.113   5.161
 8182SOL    HW125445   3.019   3.054   5.160
 8182SOL    HW225446   2.937   3.169   5.078
 8183SOL     OW25447   6.403   2.006   4.432
 8183SOL    HW125448   6.392   2.080   4.365
 8183SOL    HW225449   6.469   1.939   4.398
 8184SOL     OW25450   0.349   6.628   0.567
 8184SOL    HW125451   0.355   6.543   0.514
 8184SOL    HW225452   0.286   6.691   0.522
 8185SOL     OW25453   2.048   0.166   0.437
 8185SOL    HW125454   2.054   0.073   0.473
 8185SOL    HW225455   2.044   0.164   0.337
 8186SOL     OW25456   2.736   4.721   5.688
 8186SOL    HW125457   2.744   4.638   5.744
 8186SOL    HW225458   2.752   4.802   5.744
 8187SOL     OW25459   2.027   1.139   4.880
 8187SOL    HW125460   2.090   1.061   4.879
 8187SOL    HW225461   2.071   1.218   4.839
 8188SOL     OW25462   4.742   2.888   3.772
 8188SOL    HW125463   4.691   2.841   3.844
 8188SOL    HW225464   4.709   2.857   3.682
 8189SOL     OW25465   5.120   4.989   2.920
 8189SOL    HW125466   5.144   4.900   2.957
 8189SOL    HW225467   5.120   5.057   2.994
 8190SOL     OW25468   4.954   4.065   4.110
 8190SOL    HW125469   4.940   4.012   4.193
 8190SOL    HW225470   5.019   4.139   4.128
 8191SOL     OW25471   3.670   5.192   2.784
 8191SOL    HW125472   3.669   5.266   2.717
 8191SOL    HW225473   3.656   5.105   2.737
 8192SOL     OW25474   1.964   5.570   2.195
 8192SOL    HW125475   2.032   5.501   2.220
 8192SOL    HW225476   1.967   5.646   2.260
 8193SOL     OW25477   6.219   5.718   5.639
 8193SOL    HW125478   6.306   5.671   5.625
 8193SOL    HW225479   6.236   5.815   5.655
 8194SOL     OW25480   4.868   0.656   1.232
 8194SOL    HW125481   4.791   0.713   1.260
 8194SOL    HW225482   4.935   0.651   1.306
 8195SOL     OW25483   6.486   0.286   3.310
 8195SOL    HW125484   6.494   0.247   3.218
 8195SOL    HW225485   6.576   0.315   3.342
 8196SOL     OW25486   4.192   6.004   0.259
 8196SOL    HW125487   4.230   5.940   0.326
 8196SOL    HW225488   4.208   6.098   0.291
 8197SOL     OW25489   3.689   1.063   0.374
 8197SOL    HW125490   3.591   1.048   0.359
 8197SOL    HW225491   3.741   1.023   0.298
 8198SOL     OW25492   3.299   6.561   2.435
 8198SOL    HW125493   3.233   6.582   2.363
 8198SOL    HW225494   3.352   6.480   2.409
 8199SOL     OW25495   6.002   3.538   5.615
 8199SOL    HW125496   5.993   3.548   5.516
 8199SOL    HW225497   5.916   3.505   5.654
 8200SOL     OW25498   5.913   4.271   1.476
 8200SOL    HW125499   5.962   4.305   1.556
 8200SOL    HW225500   5.946   4.180   1.452
 8201SOL     OW25501   6.118   0.860   5.258
 8201SOL    HW125502   6.182   0.784   5.265
 8201SOL    HW225503   6.145   0.932   5.323
 8202SOL     OW25504   0.725   5.409   3.707
 8202SOL    HW125505   0.728   5.473   3.631
 8202SOL    HW225506   0.672   5.448   3.783
 8203SOL     OW25507   2.987   2.196   6.909
 8203SOL    HW125508   2.978   2.099   6.932
 8203SOL    HW225509   3.082   2.225   6.923
 8204SOL     OW25510   3.792   4.650   6.891
 8204SOL    HW125511   3.801   4.745   6.862
 8204SOL    HW225512   3.711   4.640   6.949
 8205SOL     OW25513   0.340   4.629   0.234
 8205SOL    HW125514   0.380   4.657   0.147
 8205SOL    HW225515   0.284   4.704   0.270
 8206SOL     OW25516   4.631   2.113   0.348
 8206SOL    HW125517   4.721   2.147   0.321
 8206SOL    HW225518   4.632   2.013   0.347
 8207SOL     OW25519   2.961   3.801   4.492
 8207SOL    HW125520   2.944   3.756   4.404
 8207SOL    HW225521   2.962   3.900   4.478
 8208SOL     OW25522   0.976   0.694   1.381
 8208SOL    HW125523   0.979   0.721   1.477
 8208SOL    HW225524   0.893   0.732   1.339
 8209SOL     OW25525   0.087   1.408   4.574
 8209SOL    HW125526   0.133   1.482   4.525
 8209SOL    HW225527   0.147   1.328   4.577
 8210SOL     OW25528   2.631   1.816   0.702
 8210SOL    HW125529   2.572   1.866   0.639
 8210SOL    HW225530   2.687   1.751   0.651
 8211SOL     OW25531   3.855   4.414   1.407
 8211SOL    HW125532   3.755   4.421   1.404
 8211SOL    HW225533   3.895   4.504   1.391
 8212SOL     OW25534   1.713   2.603   2.824
 8212SOL    HW125535   1.692   2.565   2.733
 8212SOL    HW225536   1.669   2.547   2.894
 8213SOL     OW25537   6.708   4.503   1.637
 8213SOL    HW125538   6.797   4.531   1.672
 8213SOL    HW225539   6.668   4.434   1.698
 8214SOL     OW25540   6.023   5.166   3.796
 8214SOL    HW125541   6.072   5.247   3.829
 8214SOL    HW225542   5.925   5.186   3.792
 8215SOL     OW25543   3.469   5.932   5.605
 8215SOL    HW125544   3.483   5.982   5.690
 8215SOL    HW225545   3.482   5.834   5.621
 8216SOL     OW25546   5.656   5.356   4.021
 8216SOL    HW125547   5.688   5.362   4.116
 8216SOL    HW225548   5.727   5.391   3.960
 8217SOL     OW25549   1.543   4.774   0.288
 8217SOL    HW125550   1.598   4.842   0.337
 8217SOL    HW225551   1.549   4.686   0.335
 8218SOL     OW25552   0.101   6.756   6.391
 8218SOL    HW125553   0.170   6.809   6.342
 8218SOL    HW225554   0.010   6.785   6.362
 8219SOL     OW25555   4.355   2.470   0.808
 8219SOL    HW125556   4.344   2.506   0.901
 8219SOL    HW225557   4.266   2.443   0.772
 8220SOL     OW25558   3.715   2.991   3.367
 8220SOL    HW125559   3.758   2.964   3.281
 8220SOL    HW225560   3.616   2.995   3.355
 8221SOL     OW25561   5.365   6.218   4.124
 8221SOL    HW125562   5.369   6.314   4.151
 8221SOL    HW225563   5.453   6.191   4.084
 8222SOL     OW25564   5.788   1.273   1.812
 8222SOL    HW125565   5.798   1.271   1.911
 8222SOL    HW225566   5.765   1.182   1.778
 8223SOL     OW25567   1.166   4.810   6.008
 8223SOL    HW125568   1.138   4.750   6.083
 8223SOL    HW225569   1.150   4.905   6.034
 8224SOL     OW25570   6.570   0.771   2.705
 8224SOL    HW125571   6.662   0.782   2.743
 8224SOL    HW225572   6.515   0.852   2.724
 8225SOL     OW25573   3.444   1.028   0.094
 8225SOL    HW125574   3.508   0.950   0.094
 8225SOL    HW225575   3.353   0.996   0.068
 8226SOL     OW25576   4.307   0.219   1.196
 8226SOL    HW125577   4.291   0.121   1.184
 8226SOL    HW225578   4.237   0.257   1.256
 8227SOL     OW25579   6.401   1.760   3.071
 8227SOL    HW125580   6.451   1.694   3.128
 8227SOL    HW225581   6.340   1.814   3.129
 8228SOL     OW25582   6.549   2.344   5.527
 8228SOL    HW125583   6.613   2.367   5.454
 8228SOL    HW225584   6.586   2.376   5.614
 8229SOL     OW25585   3.943   3.298   0.766
 8229SOL    HW125586   3.960   3.274   0.671
 8229SOL    HW225587   3.972   3.393   0.783
 8230SOL     OW25588   4.636   0.188   5.429
 8230SOL    HW125589   4.682   0.102   5.450
 8230SOL    HW225590   4.573   0.211   5.503
 8231SOL     OW25591   3.943   5.197   0.742
 8231SOL    HW125592   3.947   5.143   0.657
 8231SOL    HW225593   3.860   5.251   0.744
 8232SOL     OW25594   4.986   1.300   1.778
 8232SOL    HW125595   5.052   1.366   1.812
 8232SOL    HW225596   4.941   1.254   1.854
 8233SOL     OW25597   1.336   6.253   6.589
 8233SOL    HW125598   1.293   6.163   6.592
 8233SOL    HW225599   1.289   6.314   6.652
 8234SOL     OW25600   3.040   4.630   6.818
 8234SOL    HW125601   2.975   4.632   6.742
 8234SOL    HW225602   3.057   4.536   6.845
 8235SOL     OW25603   0.875   3.629   6.967
 8235SOL    HW125604   0.827   3.551   6.928
 8235SOL    HW225605   0.971   3.627   6.941
 8236SOL     OW25606   0.443   4.946   0.411
 8236SOL    HW125607   0.372   4.988   0.467
 8236SOL    HW225608   0.401   4.900   0.333
 8237SOL     OW25609   4.078   6.882   4.583
 8237SOL    HW125610   4.148   6.810   4.586
 8237SOL    HW225611   4.100   6.946   4.509
 8238SOL     OW25612   0.978   5.285   6.671
 8238SOL    HW125613   0.965   5.327   6.760
 8238SOL    HW225614   0.919   5.331   6.604
 8239SOL     OW25615   5.916   1.251   5.758
 8239SOL    HW125616   5.853   1.323   5.731
 8239SOL    HW225617   5.944   1.265   5.853
 8240SOL     OW25618   3.624   4.106   2.481
 8240SOL    HW125619   3.643   4.008   2.477
 8240SOL    HW225620   3.698   4.152   2.530
 8241SOL     OW25621   3.990   0.282   6.401
 8241SOL    HW125622   3.914   0.314   6.344
 8241SOL    HW225623   4.022   0.358   6.458
 8242SOL     OW25624   0.267   4.716   5.955
 8242SOL    HW125625   0.300   4.794   5.903
 8242SOL    HW225626   0.238   4.644   5.892
 8243SOL     OW25627   0.936   2.530   0.459
 8243SOL    HW125628   0.910   2.627   0.464
 8243SOL    HW225629   0.938   2.502   0.363
 8244SOL     OW25630   0.264   0.534   4.828
 8244SOL    HW125631   0.230   0.600   4.895
 8244SOL    HW225632   0.234   0.561   4.737
 8245SOL     OW25633   4.440   2.020   2.561
 8245SOL    HW125634   4.515   2.068   2.607
 8245SOL    HW225635   4.471   1.929   2.532
 8246SOL     OW25636   1.113   2.558   5.762
 8246SOL    HW125637   1.013   2.568   5.768
 8246SOL    HW225638   1.152   2.638   5.717
 8247SOL     OW25639   1.074   6.737   2.631
 8247SOL    HW125640   1.124   6.667   2.682
 8247SOL    HW225641   1.140   6.794   2.581
 8248SOL     OW25642   6.091   4.905   4.812
 8248SOL    HW125643   6.131   4.986   4.855
 8248SOL    HW225644   6.152   4.827   4.823
 8249SOL     OW25645   1.861   2.845   5.028
 8249SOL    HW125646   1.826   2.761   4.987
 8249SOL    HW225647   1.947   2.826   5.075
 8250SOL     OW25648   3.267   3.868   1.807
 8250SOL    HW125649   3.310   3.793   1.756
 8250SOL    HW225650   3.287   3.858   1.904
 8251SOL     OW25651   5.658   3.703   3.732
 8251SOL    HW125652   5.703   3.651   3.805
 8251SOL    HW225653   5.564   3.724   3.759
 8252SOL     OW25654   2.697   1.679   5.475
 8252SOL    HW125655   2.653   1.733   5.403
 8252SOL    HW225656   2.628   1.646   5.539
 8253SOL     OW25657   4.215   4.815   5.453
 8253SOL    HW125658   4.116   4.807   5.453
 8253SOL    HW225659   4.248   4.824   5.359
 8254SOL     OW25660   4.664   4.720   5.010
 8254SOL    HW125661   4.685   4.810   5.048
 8254SOL    HW225662   4.733   4.696   4.941
 8255SOL     OW25663   2.146   0.232   4.946
 8255SOL    HW125664   2.154   0.242   4.847
 8255SOL    HW225665   2.050   0.224   4.972
 8256SOL     OW25666   6.881   6.752   2.104
 8256SOL    HW125667   6.918   6.757   2.197
 8256SOL    HW225668   6.805   6.816   2.095
 8257SOL     OW25669   6.004   3.693   3.262
 8257SOL    HW125670   6.044   3.770   3.311
 8257SOL    HW225671   5.905   3.704   3.256
 8258SOL     OW25672   5.817   2.190   0.338
 8258SOL    HW125673   5.765   2.207   0.254
 8258SOL    HW225674   5.865   2.273   0.366
 8259SOL     OW25675   3.568   1.946   3.367
 8259SOL    HW125676   3.618   2.026   3.335
 8259SOL    HW225677   3.624   1.864   3.352
 8260SOL     OW25678   2.324   6.810   1.651
 8260SOL    HW125679   2.243   6.817   1.593
 8260SOL    HW225680   2.375   6.728   1.627
 8261SOL     OW25681   5.643   0.689   2.115
 8261SOL    HW125682   5.721   0.642   2.074
 8261SOL    HW225683   5.633   0.661   2.210
 8262SOL     OW25684   0.408   3.255   0.099
 8262SOL    HW125685   0.386   3.342   0.142
 8262SOL    HW225686   0.342   3.236   0.026
 8263SOL     OW25687   0.908   2.373   6.488
 8263SOL    HW125688   0.920   2.419   6.400
 8263SOL    HW225689   0.976   2.300   6.497
 8264SOL     OW25690   2.912   6.554   2.673
 8264SOL    HW125691   2.973   6.557   2.752
 8264SOL    HW225692   2.817   6.548   2.705
 8265SOL     OW25693   0.089   0.093   1.048
 8265SOL    HW125694   0.085   7.012   1.027
 8265SOL    HW225695   0.182   0.126   1.033
 8266SOL     OW25696   2.266   0.950   3.488
 8266SOL    HW125697   2.364   0.972   3.497
 8266SOL    HW225698   2.214   1.036   3.481
 8267SOL     OW25699   1.438   2.926   1.827
 8267SOL    HW125700   1.404   2.838   1.862
 8267SOL    HW225701   1.538   2.923   1.824
 8268SOL     OW25702   1.942   6.274   5.783
 8268SOL    HW125703   1.938   6.323   5.869
 8268SOL    HW225704   2.012   6.202   5.789
 8269SOL     OW25705   4.401   1.893   1.971
 8269SOL    HW125706   4.459   1.969   1.943
 8269SOL    HW225707   4.436   1.855   2.057
 8270SOL     OW25708   2.888   6.774   5.576
 8270SOL    HW125709   2.818   6.704   5.593
 8270SOL    HW225710   2.847   6.853   5.531
 8271SOL     OW25711   0.282   0.356   3.023
 8271SOL    HW125712   0.264   0.442   2.975
 8271SOL    HW225713   0.209   0.339   3.089
 8272SOL     OW25714   5.523   1.923   2.314
 8272SOL    HW125715   5.449   1.883   2.259
 8272SOL    HW225716   5.493   2.011   2.350
 8273SOL     OW25717   3.226   1.004   6.910
 8273SOL    HW125718   3.293   1.069   6.874
 8273SOL    HW225719   3.271   0.916   6.926
 8274SOL     OW25720   5.458   4.946   4.192
 8274SOL    HW125721   5.378   4.981   4.143
 8274SOL    HW225722   5.471   5.000   4.276
 8275SOL     OW25723   5.295   1.419   5.513
 8275SOL    HW125724   5.294   1.512   5.551
 8275SOL    HW225725   5.204   1.378   5.523
 8276SOL     OW25726   0.442   2.304   3.533
 8276SOL    HW125727   0.430   2.214   3.490
 8276SOL    HW225728   0.475   2.292   3.627
 8277SOL     OW25729   0.002   6.380   6.921
 8277SOL    HW125730   0.054   6.349   6.841
 8277SOL    HW225731   0.054   6.452   6.968
 8278SOL     OW25732   2.791   2.298   5.472
 8278SOL    HW125733   2.840   2.292   5.385
 8278SOL    HW225734   2.818   2.381   5.520
 8279SOL     OW25735   1.314   6.591   4.844
 8279SOL    HW125736   1.234   6.587   4.904
 8279SOL    HW225737   1.286   6.575   4.750
 8280SOL     OW25738   2.469   3.695   1.135
 8280SOL    HW125739   2.382   3.714   1.090
 8280SOL    HW225740   2.534   3.659   1.067
 8281SOL     OW25741   3.133   4.429   1.680
 8281SOL    HW125742   3.194   4.360   1.719
 8281SOL    HW225743   3.053   4.440   1.739
 8282SOL     OW25744   4.297   3.682   6.930
 8282SOL    HW125745   4.365   3.756   6.924
 8282SOL    HW225746   4.242   3.681   6.846
 8283SOL     OW25747   1.559   5.465   6.022
 8283SOL    HW125748   1.496   5.541   6.008
 8283SOL    HW225749   1.649   5.501   6.047
 8284SOL     OW25750   1.057   3.623   0.946
 8284SOL    HW125751   1.144   3.664   0.972
 8284SOL    HW225752   0.989   3.643   1.017
 8285SOL     OW25753   3.141   4.016   4.630
 8285SOL    HW125754   3.232   3.982   4.656
 8285SOL    HW225755   3.081   4.013   4.710
 8286SOL     OW25756   6.027   2.042   6.394
 8286SOL    HW125757   5.981   2.128   6.413
 8286SOL    HW225758   6.122   2.059   6.369
 8287SOL     OW25759   2.255   5.185   4.602
 8287SOL    HW125760   2.320   5.174   4.527
 8287SOL    HW225761   2.224   5.094   4.632
 8288SOL     OW25762   3.154   1.982   1.462
 8288SOL    HW125763   3.193   2.075   1.461
 8288SOL    HW225764   3.118   1.963   1.554
 8289SOL     OW25765   0.419   5.482   1.022
 8289SOL    HW125766   0.420   5.573   0.981
 8289SOL    HW225767   0.508   5.438   1.010
 8290SOL     OW25768   5.791   1.273   1.413
 8290SOL    HW125769   5.693   1.253   1.409
 8290SOL    HW225770   5.823   1.304   1.324
 8291SOL     OW25771   5.098   6.517   5.289
 8291SOL    HW125772   5.019   6.577   5.277
 8291SOL    HW225773   5.151   6.514   5.205
 8292SOL     OW25774   2.713   6.631   6.749
 8292SOL    HW125775   2.644   6.641   6.677
 8292SOL    HW225776   2.804   6.641   6.709
 8293SOL     OW25777   3.345   6.132   0.383
 8293SOL    HW125778   3.425   6.145   0.442
 8293SOL    HW225779   3.269   6.096   0.437
 8294SOL     OW25780   5.398   3.787   5.406
 8294SOL    HW125781   5.321   3.847   5.384
 8294SOL    HW225782   5.427   3.805   5.500
 8295SOL     OW25783   5.230   5.185   2.006
 8295SOL    HW125784   5.198   5.141   1.922
 8295SOL    HW225785   5.306   5.247   1.985
 8296SOL     OW25786   1.199   4.913   6.703
 8296SOL    HW125787   1.127   4.961   6.653
 8296SOL    HW225788   1.157   4.848   6.766
 8297SOL     OW25789   6.484   2.866   2.343
 8297SOL    HW125790   6.539   2.784   2.332
 8297SOL    HW225791   6.387   2.840   2.352
 8298SOL     OW25792   6.661   1.282   1.723
 8298SOL    HW125793   6.736   1.329   1.770
 8298SOL    HW225794   6.646   1.325   1.633
 8299SOL     OW25795   6.484   2.789   1.258
 8299SOL    HW125796   6.477   2.842   1.343
 8299SOL    HW225797   6.553   2.831   1.199
 8300SOL     OW25798   0.337   6.182   4.915
 8300SOL    HW125799   0.336   6.262   4.976
 8300SOL    HW225800   0.281   6.109   4.954
 8301SOL     OW25801   3.724   1.773   1.184
 8301SOL    HW125802   3.646   1.835   1.182
 8301SOL    HW225803   3.740   1.743   1.279
 8302SOL     OW25804   5.971   6.780   6.794
 8302SOL    HW125805   5.932   6.825   6.713
 8302SOL    HW225806   5.905   6.716   6.831
 8303SOL     OW25807   6.459   0.788   3.689
 8303SOL    HW125808   6.439   0.700   3.646
 8303SOL    HW225809   6.473   0.776   3.787
 8304SOL     OW25810   0.165   3.155   0.506
 8304SOL    HW125811   0.174   3.253   0.489
 8304SOL    HW225812   0.086   3.138   0.565
 8305SOL     OW25813   4.823   4.923   4.358
 8305SOL    HW125814   4.877   4.840   4.343
 8305SOL    HW225815   4.832   4.952   4.453
 8306SOL     OW25816   6.604   2.651   5.980
 8306SOL    HW125817   6.586   2.702   6.064
 8306SOL    HW225818   6.518   2.625   5.937
 8307SOL     OW25819   3.391   5.469   1.677
 8307SOL    HW125820   3.324   5.421   1.620
 8307SOL    HW225821   3.410   5.559   1.638
 8308SOL     OW25822   3.528   5.792   1.316
 8308SOL    HW125823   3.563   5.857   1.384
 8308SOL    HW225824   3.564   5.816   1.226
 8309SOL     OW25825   0.003   4.939   4.186
 8309SOL    HW125826   0.004   4.941   4.086
 8309SOL    HW225827   6.955   4.869   4.217
 8310SOL     OW25828   6.939   4.844   0.730
 8310SOL    HW125829   6.988   4.932   0.733
 8310SOL    HW225830   6.895   4.834   0.641
 8311SOL     OW25831   0.703   1.436   4.373
 8311SOL    HW125832   0.779   1.388   4.416
 8311SOL    HW225833   0.617   1.387   4.393
 8312SOL     OW25834   5.116   0.519   0.072
 8312SOL    HW125835   5.033   0.526   0.127
 8312SOL    HW225836   5.147   0.610   0.045
 8313SOL     OW25837   5.159   0.249   1.151
 8313SOL    HW125838   5.236   0.190   1.130
 8313SOL    HW225839   5.095   0.202   1.211
 8314SOL     OW25840   4.631   0.643   0.589
 8314SOL    HW125841   4.566   0.568   0.598
 8314SOL    HW225842   4.657   0.676   0.680
 8315SOL     OW25843   4.250   2.787   1.405
 8315SOL    HW125844   4.329   2.845   1.386
 8315SOL    HW225845   4.259   2.747   1.496
 8316SOL     OW25846   0.740   2.177   1.988
 8316SOL    HW125847   0.681   2.187   2.068
 8316SOL    HW225848   0.836   2.179   2.017
 8317SOL     OW25849   1.953   2.927   2.602
 8317SOL    HW125850   2.015   2.964   2.533
 8317SOL    HW225851   1.945   2.828   2.590
 8318SOL     OW25852   4.208   1.406   4.870
 8318SOL    HW125853   4.234   1.409   4.773
 8318SOL    HW225854   4.209   1.311   4.902
 8319SOL     OW25855   1.823   1.985   0.149
 8319SOL    HW125856   1.835   1.889   0.123
 8319SOL    HW225857   1.834   2.043   0.068
 8320SOL     OW25858   3.115   3.576   1.731
 8320SOL    HW125859   3.082   3.570   1.636
 8320SOL    HW225860   3.037   3.585   1.793
 8321SOL     OW25861   6.710   0.503   6.235
 8321SOL    HW125862   6.654   0.483   6.155
 8321SOL    HW225863   6.800   0.462   6.224
 8322SOL     OW25864   6.520   6.803   0.713
 8322SOL    HW125865   6.427   6.836   0.727
 8322SOL    HW225866   6.530   6.714   0.759
 8323SOL     OW25867   5.609   5.311   2.535
 8323SOL    HW125868   5.608   5.232   2.474
 8323SOL    HW225869   5.529   5.307   2.596
 8324SOL     OW25870   5.462   6.848   1.208
 8324SOL    HW125871   5.392   6.900   1.159
 8324SOL    HW225872   5.553   6.871   1.171
 8325SOL     OW25873   2.703   3.693   5.432
 8325SOL    HW125874   2.669   3.603   5.404
 8325SOL    HW225875   2.803   3.690   5.436
 8326SOL     OW25876   5.037   3.640   5.544
 8326SOL    HW125877   5.026   3.545   5.516
 8326SOL    HW225878   4.974   3.698   5.492
 8327SOL     OW25879   6.592   1.449   6.383
 8327SOL    HW125880   6.564   1.361   6.343
 8327SOL    HW225881   6.650   1.432   6.462
 8328SOL     OW25882   2.763   5.899   5.853
 8328SOL    HW125883   2.708   5.823   5.817
 8328SOL    HW225884   2.722   5.986   5.826
 8329SOL     OW25885   0.759   2.888   6.005
 8329SOL    HW125886   0.719   2.974   6.038
 8329SOL    HW225887   0.859   2.895   6.008
 8330SOL     OW25888   2.657   1.072   6.866
 8330SOL    HW125889   2.701   0.987   6.835
 8330SOL    HW225890   2.565   1.051   6.899
 8331SOL     OW25891   3.627   1.313   1.329
 8331SOL    HW125892   3.601   1.346   1.419
 8331SOL    HW225893   3.592   1.376   1.259
 8332SOL     OW25894   4.912   5.234   2.605
 8332SOL    HW125895   4.920   5.265   2.700
 8332SOL    HW225896   4.894   5.136   2.603
 8333SOL     OW25897   6.987   6.208   6.394
 8333SOL    HW125898   0.025   6.140   6.347
 8333SOL    HW225899   6.939   6.265   6.328
 8334SOL     OW25900   3.860   1.327   3.788
 8334SOL    HW125901   3.779   1.289   3.833
 8334SOL    HW225902   3.850   1.426   3.780
 8335SOL     OW25903   6.021   6.294   6.796
 8335SOL    HW125904   6.070   6.324   6.714
 8335SOL    HW225905   6.087   6.266   6.865
 8336SOL     OW25906   7.013   5.679   3.143
 8336SOL    HW125907   6.984   5.606   3.081
 8336SOL    HW225908   6.992   5.767   3.102
 8337SOL     OW25909   1.966   6.267   2.523
 8337SOL    HW125910   2.023   6.319   2.588
 8337SOL    HW225911   2.025   6.210   2.467
 8338SOL     OW25912   2.946   5.357   1.770
 8338SOL    HW125913   3.010   5.432   1.785
 8338SOL    HW225914   2.860   5.376   1.817
 8339SOL     OW25915   5.806   0.641   1.148
 8339SOL    HW125916   5.849   0.576   1.211
 8339SOL    HW225917   5.873   0.671   1.080
 8340SOL     OW25918   4.998   2.905   1.612
 8340SOL    HW125919   4.934   2.858   1.551
 8340SOL    HW225920   4.948   2.949   1.686
 8341SOL     OW25921   2.656   6.494   0.166
 8341SOL    HW125922   2.646   6.475   0.068
 8341SOL    HW225923   2.744   6.459   0.198
 8342SOL     OW25924   4.698   6.459   2.008
 8342SOL    HW125925   4.765   6.534   2.009
 8342SOL    HW225926   4.614   6.488   2.054
 8343SOL     OW25927   1.410   5.664   5.499
 8343SOL    HW125928   1.416   5.724   5.420
 8343SOL    HW225929   1.481   5.594   5.494
 8344SOL     OW25930   4.659   6.446   4.824
 8344SOL    HW125931   4.587   6.397   4.874
 8344SOL    HW225932   4.701   6.385   4.757
 8345SOL     OW25933   4.284   1.683   2.986
 8345SOL    HW125934   4.375   1.691   2.946
 8345SOL    HW225935   4.243   1.596   2.957
 8346SOL     OW25936   3.237   4.950   0.881
 8346SOL    HW125937   3.324   4.979   0.921
 8346SOL    HW225938   3.187   5.030   0.848
 8347SOL     OW25939   3.584   5.345   4.830
 8347SOL    HW125940   3.520   5.289   4.882
 8347SOL    HW225941   3.560   5.340   4.733
 8348SOL     OW25942   2.373   0.436   2.420
 8348SOL    HW125943   2.401   0.412   2.327
 8348SOL    HW225944   2.400   0.531   2.439
 8349SOL     OW25945   5.817   6.289   1.623
 8349SOL    HW125946   5.799   6.292   1.721
 8349SOL    HW225947   5.753   6.350   1.576
 8350SOL     OW25948   4.743   6.936   5.503
 8350SOL    HW125949   4.762   6.839   5.485
 8350SOL    HW225950   4.747   6.952   5.602
 8351SOL     OW25951   5.291   4.538   4.495
 8351SOL    HW125952   5.232   4.569   4.570
 8351SOL    HW225953   5.265   4.445   4.469
 8352SOL     OW25954   0.739   0.001   3.184
 8352SOL    HW125955   0.770   0.096   3.178
 8352SOL    HW225956   0.676   6.998   3.108
 8353SOL     OW25957   0.107   3.063   1.407
 8353SOL    HW125958   0.067   3.065   1.499
 8353SOL    HW225959   0.112   3.156   1.370
 8354SOL     OW25960   3.718   6.832   6.280
 8354SOL    HW125961   3.798   6.784   6.317
 8354SOL    HW225962   3.639   6.770   6.279
 8355SOL     OW25963   2.895   0.966   6.639
 8355SOL    HW125964   2.979   1.016   6.618
 8355SOL    HW225965   2.819   1.003   6.584
 8356SOL     OW25966   1.080   6.176   1.116
 8356SOL    HW125967   1.153   6.213   1.175
 8356SOL    HW225968   0.991   6.203   1.152
 8357SOL     OW25969   4.047   0.366   4.800
 8357SOL    HW125970   4.053   0.419   4.716
 8357SOL    HW225971   4.108   0.287   4.794
 8358SOL     OW25972   0.836   4.409   5.699
 8358SOL    HW125973   0.803   4.344   5.630
 8358SOL    HW225974   0.888   4.481   5.655
 8359SOL     OW25975   3.023   1.114   5.175
 8359SOL    HW125976   3.033   1.019   5.144
 8359SOL    HW225977   2.982   1.169   5.103
 8360SOL     OW25978   3.169   5.910   1.608
 8360SOL    HW125979   3.217   5.987   1.565
 8360SOL    HW225980   3.079   5.899   1.566
 8361SOL     OW25981   3.324   0.174   2.378
 8361SOL    HW125982   3.399   0.163   2.312
 8361SOL    HW225983   3.361   0.175   2.471
 8362SOL     OW25984   3.654   2.117   0.683
 8362SOL    HW125985   3.565   2.073   0.678
 8362SOL    HW225986   3.714   2.080   0.611
 8363SOL     OW25987   0.291   2.843   6.556
 8363SOL    HW125988   0.309   2.765   6.496
 8363SOL    HW225989   0.201   2.832   6.599
 8364SOL     OW25990   0.892   3.334   2.529
 8364SOL    HW125991   0.977   3.386   2.533
 8364SOL    HW225992   0.827   3.372   2.594
 8365SOL     OW25993   2.170   4.209   1.759
 8365SOL    HW125994   2.227   4.199   1.840
 8365SOL    HW225995   2.086   4.258   1.784
 8366SOL     OW25996   2.163   6.017   1.982
 8366SOL    HW125997   2.069   6.045   2.004
 8366SOL    HW225998   2.176   5.921   2.005
 8367SOL     OW25999   4.194   6.543   3.841
 8367SOL    HW126000   4.108   6.580   3.876
 8367SOL    HW226001   4.268   6.608   3.856
 8368SOL     OW26002   2.275   6.305   6.657
 8368SOL    HW126003   2.188   6.338   6.694
 8368SOL    HW226004   2.259   6.255   6.572
 8369SOL     OW26005   2.349   6.779   6.700
 8369SOL    HW126006   2.348   6.701   6.637
 8369SOL    HW226007   2.443   6.809   6.714
 8370SOL     OW26008   2.526   1.831   5.347
 8370SOL    HW126009   2.566   1.923   5.354
 8370SOL    HW226010   2.428   1.836   5.368
 8371SOL     OW26011   2.070   4.129   0.906
 8371SOL    HW126012   2.144   4.124   0.973
 8371SOL    HW226013   2.016   4.212   0.922
 8372SOL     OW26014   0.658   5.313   2.297
 8372SOL    HW126015   0.671   5.401   2.251
 8372SOL    HW226016   0.595   5.325   2.374
 8373SOL     OW26017   1.456   6.846   3.601
 8373SOL    HW126018   1.359   6.869   3.614
 8373SOL    HW226019   1.467   6.747   3.603
 8374SOL     OW26020   6.752   0.854   5.501
 8374SOL    HW126021   6.827   0.812   5.450
 8374SOL    HW226022   6.757   0.827   5.597
 8375SOL     OW26023   4.008   6.535   5.027
 8375SOL    HW126024   3.944   6.575   4.961
 8375SOL    HW226025   4.045   6.450   4.991
 8376SOL     OW26026   1.759   0.549   4.397
 8376SOL    HW126027   1.790   0.605   4.320
 8376SOL    HW226028   1.659   0.553   4.403
 8377SOL     OW26029   5.246   6.116   1.401
 8377SOL    HW126030   5.213   6.196   1.450
 8377SOL    HW226031   5.174   6.046   1.399
 8378SOL     OW26032   4.256   4.697   2.666
 8378SOL    HW126033   4.336   4.637   2.671
 8378SOL    HW226034   4.234   4.733   2.757
 8379SOL     OW26035   5.951   2.331   1.239
 8379SOL    HW126036   5.984   2.248   1.283
 8379SOL    HW226037   5.914   2.309   1.148
 8380SOL     OW26038   7.015   0.175   2.256
 8380SOL    HW126039   0.025   0.153   2.350
 8380SOL    HW226040   6.921   0.146   2.240
 8381SOL     OW26041   6.953   2.781   5.053
 8381SOL    HW126042   6.985   2.823   5.138
 8381SOL    HW226043   6.938   2.851   4.984
 8382SOL     OW26044   2.776   0.884   2.563
 8382SOL    HW126045   2.747   0.980   2.564
 8382SOL    HW226046   2.722   0.833   2.630
 8383SOL     OW26047   2.208   0.029   5.696
 8383SOL    HW126048   2.233   0.093   5.623
 8383SOL    HW226049   2.228   6.952   5.666
 8384SOL     OW26050   0.243   0.914   0.697
 8384SOL    HW126051   0.266   1.010   0.713
 8384SOL    HW226052   0.191   0.878   0.775
 8385SOL     OW26053   6.609   1.644   1.464
 8385SOL    HW126054   6.641   1.710   1.396
 8385SOL    HW226055   6.598   1.689   1.552
 8386SOL     OW26056   1.332   4.918   1.823
 8386SOL    HW126057   1.253   4.878   1.777
 8386SOL    HW226058   1.387   4.968   1.756
 8387SOL     OW26059   1.784   1.130   2.362
 8387SOL    HW126060   1.777   1.108   2.460
 8387SOL    HW226061   1.714   1.078   2.312
 8388SOL     OW26062   2.528   6.344   0.365
 8388SOL    HW126063   2.567   6.408   0.299
 8388SOL    HW226064   2.504   6.393   0.449
 8389SOL     OW26065   6.868   2.980   2.915
 8389SOL    HW126066   6.797   3.007   2.980
 8389SOL    HW226067   6.826   2.935   2.836
 8390SOL     OW26068   4.018   1.308   6.087
 8390SOL    HW126069   4.089   1.276   6.025
 8390SOL    HW226070   3.985   1.232   6.143
 8391SOL     OW26071   6.494   4.809   0.862
 8391SOL    HW126072   6.511   4.848   0.952
 8391SOL    HW226073   6.454   4.717   0.872
 8392SOL     OW26074   6.366   3.499   4.354
 8392SOL    HW126075   6.388   3.507   4.257
 8392SOL    HW226076   6.383   3.586   4.400
 8393SOL     OW26077   0.117   0.038   3.093
 8393SOL    HW126078   0.172   6.976   3.123
 8393SOL    HW226079   0.039   0.049   3.154
 8394SOL     OW26080   6.201   2.616   0.893
 8394SOL    HW126081   6.250   2.660   0.818
 8394SOL    HW226082   6.165   2.528   0.861
 8395SOL     OW26083   3.066   0.147   5.533
 8395SOL    HW126084   3.080   0.144   5.632
 8395SOL    HW226085   2.978   0.106   5.510
 8396SOL     OW26086   4.625   5.642   3.706
 8396SOL    HW126087   4.670   5.556   3.731
 8396SOL    HW226088   4.695   5.709   3.680
 8397SOL     OW26089   1.533   0.597   2.287
 8397SOL    HW126090   1.589   0.679   2.301
 8397SOL    HW226091   1.440   0.625   2.263
 8398SOL     OW26092   3.854   2.482   5.855
 8398SOL    HW126093   3.930   2.517   5.800
 8398SOL    HW226094   3.871   2.503   5.952
 8399SOL     OW26095   5.629   0.023   6.805
 8399SOL    HW126096   5.586   0.014   6.894
 8399SOL    HW226097   5.707   0.085   6.811
 8400SOL     OW26098   1.810   0.897   4.012
 8400SOL    HW126099   1.773   0.977   4.060
 8400SOL    HW226100   1.747   0.869   3.941
 8401SOL     OW26101   2.521   1.297   5.266
 8401SOL    HW126102   2.473   1.313   5.180
 8401SOL    HW226103   2.560   1.205   5.267
 8402SOL     OW26104   4.981   1.952   6.485
 8402SOL    HW126105   5.009   1.960   6.389
 8402SOL    HW226106   4.997   1.859   6.517
 8403SOL     OW26107   6.855   3.453   4.167
 8403SOL    HW126108   6.830   3.358   4.186
 8403SOL    HW226109   6.803   3.485   4.088
 8404SOL     OW26110   3.888   6.586   5.679
 8404SOL    HW126111   3.947   6.662   5.704
 8404SOL    HW226112   3.875   6.583   5.580
 8405SOL     OW26113   2.167   1.339   5.514
 8405SOL    HW126114   2.209   1.268   5.457
 8405SOL    HW226115   2.162   1.307   5.609
 8406SOL     OW26116   4.244   0.533   6.990
 8406SOL    HW126117   4.270   0.534   0.069
 8406SOL    HW226118   4.194   0.616   6.968
 8407SOL     OW26119   3.567   6.475   3.243
 8407SOL    HW126120   3.589   6.379   3.229
 8407SOL    HW226121   3.566   6.495   3.341
 8408SOL     OW26122   5.347   4.126   1.420
 8408SOL    HW126123   5.279   4.174   1.475
 8408SOL    HW226124   5.425   4.186   1.403
 8409SOL     OW26125   4.798   1.400   3.372
 8409SOL    HW126126   4.881   1.379   3.321
 8409SOL    HW226127   4.730   1.441   3.310
 8410SOL     OW26128   5.778   0.875   1.656
 8410SOL    HW126129   5.751   0.783   1.625
 8410SOL    HW226130   5.705   0.914   1.711
 8411SOL     OW26131   0.794   5.078   0.165
 8411SOL    HW126132   0.715   5.136   0.146
 8411SOL    HW226133   0.771   5.011   0.235
 8412SOL     OW26134   3.459   2.669   0.968
 8412SOL    HW126135   3.510   2.673   1.054
 8412SOL    HW226136   3.363   2.648   0.987
 8413SOL     OW26137   4.919   5.560   6.735
 8413SOL    HW126138   4.836   5.532   6.783
 8413SOL    HW226139   4.957   5.642   6.779
 8414SOL     OW26140   3.382   6.889   3.702
 8414SOL    HW126141   3.427   6.827   3.766
 8414SOL    HW226142   3.411   6.869   3.609
 8415SOL     OW26143   0.725   5.961   4.048
 8415SOL    HW126144   0.732   6.057   4.077
 8415SOL    HW226145   0.800   5.909   4.088
 8416SOL     OW26146   6.128   2.474   3.015
 8416SOL    HW126147   6.059   2.442   3.080
 8416SOL    HW226148   6.170   2.558   3.050
 8417SOL     OW26149   0.875   3.134   5.701
 8417SOL    HW126150   0.780   3.162   5.682
 8417SOL    HW226151   0.937   3.200   5.659
 8418SOL     OW26152   6.052   5.658   1.406
 8418SOL    HW126153   6.000   5.612   1.334
 8418SOL    HW226154   6.090   5.743   1.371
 8419SOL     OW26155   5.817   0.241   1.941
 8419SOL    HW126156   5.788   0.276   1.852
 8419SOL    HW226157   5.917   0.246   1.948
 8420SOL     OW26158   4.197   0.321   0.802
 8420SOL    HW126159   4.257   0.254   0.758
 8420SOL    HW226160   4.103   0.305   0.772
 8421SOL     OW26161   3.040   5.718   0.084
 8421SOL    HW126162   3.095   5.799   0.063
 8421SOL    HW226163   3.065   5.643   0.023
 8422SOL     OW26164   4.072   1.359   1.903
 8422SOL    HW126165   4.166   1.337   1.929
 8422SOL    HW226166   4.065   1.456   1.880
 8423SOL     OW26167   3.332   5.067   5.789
 8423SOL    HW126168   3.340   5.166   5.799
 8423SOL    HW226169   3.257   5.033   5.846
 8424SOL     OW26170   1.808   2.357   2.680
 8424SOL    HW126171   1.886   2.299   2.657
 8424SOL    HW226172   1.792   2.354   2.778
 8425SOL     OW26173   4.314   4.548   6.093
 8425SOL    HW126174   4.391   4.505   6.046
 8425SOL    HW226175   4.299   4.502   6.180
 8426SOL     OW26176   3.858   3.316   3.018
 8426SOL    HW126177   3.774   3.303   3.069
 8426SOL    HW226178   3.933   3.267   3.063
 8427SOL     OW26179   3.933   3.956   3.804
 8427SOL    HW126180   3.879   3.992   3.881
 8427SOL    HW226181   3.871   3.912   3.739
 8428SOL     OW26182   0.521   5.731   1.365
 8428SOL    HW126183   0.547   5.745   1.269
 8428SOL    HW226184   0.553   5.808   1.420
 8429SOL     OW26185   1.691   6.088   5.195
 8429SOL    HW126186   1.592   6.099   5.202
 8429SOL    HW226187   1.733   6.102   5.285
 8430SOL     OW26188   3.599   5.163   3.938
 8430SOL    HW126189   3.639   5.170   3.846
 8430SOL    HW226190   3.573   5.255   3.969
 8431SOL     OW26191   3.650   3.603   0.782
 8431SOL    HW126192   3.732   3.574   0.731
 8431SOL    HW226193   3.629   3.535   0.852
 8432SOL     OW26194   5.835   6.103   5.327
 8432SOL    HW126195   5.931   6.079   5.344
 8432SOL    HW226196   5.792   6.031   5.273
 8433SOL     OW26197   4.286   2.807   0.638
 8433SOL    HW126198   4.194   2.783   0.668
 8433SOL    HW226199   4.341   2.724   0.628
 8434SOL     OW26200   2.656   0.559   4.522
 8434SOL    HW126201   2.561   0.572   4.550
 8434SOL    HW226202   2.715   0.558   4.602
 8435SOL     OW26203   6.055   0.677   1.902
 8435SOL    HW126204   6.136   0.622   1.922
 8435SOL    HW226205   5.981   0.652   1.964
 8436SOL     OW26206   3.142   6.411   3.238
 8436SOL    HW126207   3.080   6.333   3.244
 8436SOL    HW226208   3.091   6.496   3.255
 8437SOL     OW26209   2.242   1.104   3.888
 8437SOL    HW126210   2.272   1.114   3.983
 8437SOL    HW226211   2.170   1.035   3.884
 8438SOL     OW26212   1.924   4.199   2.615
 8438SOL    HW126213   2.018   4.214   2.646
 8438SOL    HW226214   1.925   4.142   2.532
 8439SOL     OW26215   5.884   5.043   2.799
 8439SOL    HW126216   5.860   5.134   2.765
 8439SOL    HW226217   5.908   4.984   2.722
 8440SOL     OW26218   2.460   1.533   3.631
 8440SOL    HW126219   2.431   1.620   3.670
 8440SOL    HW226220   2.538   1.548   3.570
 8441SOL     OW26221   5.346   6.955   0.241
 8441SOL    HW126222   5.426   6.902   0.270
 8441SOL    HW226223   5.361   6.989   0.148
 8442SOL     OW26224   3.564   2.387   5.397
 8442SOL    HW126225   3.514   2.329   5.333
 8442SOL    HW226226   3.578   2.337   5.483
 8443SOL     OW26227   2.478   4.526   3.739
 8443SOL    HW126228   2.541   4.566   3.805
 8443SOL    HW226229   2.402   4.589   3.723
 8444SOL     OW26230   3.129   6.528   4.547
 8444SOL    HW126231   3.165   6.549   4.456
 8444SOL    HW226232   3.036   6.491   4.538
 8445SOL     OW26233   2.711   0.589   1.492
 8445SOL    HW126234   2.760   0.529   1.429
 8445SOL    HW226235   2.754   0.585   1.582
 8446SOL     OW26236   5.513   5.723   5.932
 8446SOL    HW126237   5.523   5.630   5.965
 8446SOL    HW226238   5.455   5.775   5.995
 8447SOL     OW26239   4.507   1.756   2.197
 8447SOL    HW126240   4.568   1.684   2.165
 8447SOL    HW226241   4.559   1.824   2.248
 8448SOL     OW26242   3.902   6.298   4.135
 8448SOL    HW126243   3.871   6.207   4.107
 8448SOL    HW226244   3.853   6.368   4.083
 8449SOL     OW26245   0.102   3.494   3.674
 8449SOL    HW126246   0.040   3.425   3.712
 8449SOL    HW226247   0.114   3.476   3.576
 8450SOL     OW26248   0.718   0.260   1.402
 8450SOL    HW126249   0.803   0.308   1.381
 8450SOL    HW226250   0.645   0.294   1.341
 8451SOL     OW26251   3.409   1.714   0.334
 8451SOL    HW126252   3.367   1.699   0.423
 8451SOL    HW226253   3.362   1.789   0.287
 8452SOL     OW26254   6.197   2.352   3.703
 8452SOL    HW126255   6.208   2.253   3.716
 8452SOL    HW226256   6.211   2.375   3.606
 8453SOL     OW26257   0.244   4.895   0.193
 8453SOL    HW126258   0.249   4.994   0.209
 8453SOL    HW226259   0.215   4.879   0.099
 8454SOL     OW26260   0.094   5.627   1.266
 8454SOL    HW126261   0.005   5.666   1.241
 8454SOL    HW226262   0.146   5.694   1.318
 8455SOL     OW26263   6.910   1.760   1.999
 8455SOL    HW126264   7.010   1.757   1.995
 8455SOL    HW226265   6.877   1.681   2.052
 8456SOL     OW26266   4.293   6.071   3.341
 8456SOL    HW126267   4.342   6.142   3.290
 8456SOL    HW226268   4.195   6.075   3.319
 8457SOL     OW26269   0.176   6.938   4.662
 8457SOL    HW126270   0.168   6.851   4.613
 8457SOL    HW226271   0.085   6.978   4.674
 8458SOL     OW26272   3.003   0.607   0.369
 8458SOL    HW126273   2.904   0.621   0.371
 8458SOL    HW226274   3.049   0.684   0.413
 8459SOL     OW26275   2.836   5.715   2.355
 8459SOL    HW126276   2.858   5.621   2.382
 8459SOL    HW226277   2.838   5.723   2.255
 8460SOL     OW26278   4.638   4.386   5.088
 8460SOL    HW126279   4.624   4.322   5.012
 8460SOL    HW226280   4.594   4.351   5.170
 8461SOL     OW26281   0.624   3.381   4.793
 8461SOL    HW126282   0.658   3.383   4.699
 8461SOL    HW226283   0.624   3.473   4.832
 8462SOL     OW26284   2.249   2.482   6.779
 8462SOL    HW126285   2.180   2.465   6.849
 8462SOL    HW226286   2.214   2.550   6.714
 8463SOL     OW26287   0.168   0.134   1.321
 8463SOL    HW126288   0.109   0.099   1.247
 8463SOL    HW226289   0.152   0.080   1.404
 8464SOL     OW26290   5.662   4.515   4.312
 8464SOL    HW126291   5.628   4.468   4.393
 8464SOL    HW226292   5.746   4.565   4.335
 8465SOL     OW26293   0.949   3.286   0.540
 8465SOL    HW126294   0.998   3.302   0.455
 8465SOL    HW226295   0.896   3.201   0.532
 8466SOL     OW26296   0.621   6.938   4.367
 8466SOL    HW126297   0.639   6.841   4.382
 8466SOL    HW226298   0.534   6.949   4.319
 8467SOL     OW26299   3.307   6.516   0.667
 8467SOL    HW126300   3.218   6.476   0.643
 8467SOL    HW226301   3.297   6.574   0.748
 8468SOL     OW26302   3.794   1.815   0.216
 8468SOL    HW126303   3.743   1.901   0.220
 8468SOL    HW226304   3.772   1.760   0.296
 8469SOL     OW26305   3.847   2.004   6.531
 8469SOL    HW126306   3.793   2.080   6.493
 8469SOL    HW226307   3.944   2.026   6.524
 8470SOL     OW26308   1.195   3.472   0.143
 8470SOL    HW126309   1.144   3.553   0.173
 8470SOL    HW226310   1.292   3.494   0.139
 8471SOL     OW26311   3.120   1.367   3.026
 8471SOL    HW126312   3.194   1.411   2.975
 8471SOL    HW226313   3.156   1.331   3.113
 8472SOL     OW26314   0.478   0.614   4.394
 8472SOL    HW126315   0.499   0.541   4.460
 8472SOL    HW226316   0.564   0.654   4.361
 8473SOL     OW26317   5.974   5.004   6.383
 8473SOL    HW126318   5.930   4.914   6.391
 8473SOL    HW226319   6.049   4.999   6.317
 8474SOL     OW26320   3.217   3.209   2.281
 8474SOL    HW126321   3.162   3.139   2.235
 8474SOL    HW226322   3.194   3.299   2.244
 8475SOL     OW26323   0.510   1.889   3.210
 8475SOL    HW126324   0.585   1.943   3.172
 8475SOL    HW226325   0.478   1.823   3.142
 8476SOL     OW26326   6.352   0.857   1.311
 8476SOL    HW126327   6.349   0.921   1.387
 8476SOL    HW226328   6.341   0.763   1.346
 8477SOL     OW26329   4.363   6.692   2.512
 8477SOL    HW126330   4.351   6.764   2.580
 8477SOL    HW226331   4.360   6.602   2.557
 8478SOL     OW26332   1.304   0.684   6.179
 8478SOL    HW126333   1.234   0.702   6.247
 8478SOL    HW226334   1.394   0.682   6.223
 8479SOL     OW26335   6.174   2.494   1.140
 8479SOL    HW126336   6.100   2.440   1.178
 8479SOL    HW226337   6.138   2.554   1.068
 8480SOL     OW26338   4.018   1.065   6.939
 8480SOL    HW126339   3.940   1.073   6.877
 8480SOL    HW226340   4.046   1.156   6.969
 8481SOL     OW26341   4.779   1.795   3.792
 8481SOL    HW126342   4.694   1.746   3.777
 8481SOL    HW226343   4.791   1.812   3.890
 8482SOL     OW26344   3.866   6.727   3.315
 8482SOL    HW126345   3.788   6.693   3.367
 8482SOL    HW226346   3.893   6.817   3.350
 8483SOL     OW26347   4.210   5.415   2.344
 8483SOL    HW126348   4.275   5.481   2.305
 8483SOL    HW226349   4.255   5.365   2.418
 8484SOL     OW26350   0.571   5.467   3.130
 8484SOL    HW126351   0.665   5.446   3.104
 8484SOL    HW226352   0.508   5.425   3.065
 8485SOL     OW26353   2.870   3.737   6.805
 8485SOL    HW126354   2.954   3.747   6.751
 8485SOL    HW226355   2.893   3.745   6.903
 8486SOL     OW26356   4.910   1.319   2.810
 8486SOL    HW126357   4.992   1.262   2.822
 8486SOL    HW226358   4.912   1.361   2.720
 8487SOL     OW26359   5.745   0.745   6.872
 8487SOL    HW126360   5.755   0.705   6.781
 8487SOL    HW226361   5.682   0.689   6.926
 8488SOL     OW26362   5.923   4.747   5.146
 8488SOL    HW126363   6.007   4.800   5.162
 8488SOL    HW226364   5.924   4.666   5.206
 8489SOL     OW26365   6.084   0.954   1.188
 8489SOL    HW126366   6.056   0.878   1.130
 8489SOL    HW226367   6.048   0.940   1.281
 8490SOL     OW26368   4.180   0.011   4.337
 8490SOL    HW126369   4.222   0.100   4.326
 8490SOL    HW226370   4.227   6.960   4.280
 8491SOL     OW26371   1.863   0.149   1.280
 8491SOL    HW126372   1.825   0.236   1.246
 8491SOL    HW226373   1.821   0.073   1.230
 8492SOL     OW26374   4.169   4.118   6.988
 8492SOL    HW126375   4.194   4.157   0.060
 8492SOL    HW226376   4.145   4.191   6.924
 8493SOL     OW26377   2.801   2.024   6.178
 8493SOL    HW126378   2.897   2.025   6.206
 8493SOL    HW226379   2.790   2.078   6.094
 8494SOL     OW26380   2.943   4.970   0.703
 8494SOL    HW126381   2.924   4.921   0.788
 8494SOL    HW226382   2.996   5.052   0.724
 8495SOL     OW26383   6.458   4.112   0.825
 8495SOL    HW126384   6.514   4.118   0.908
 8495SOL    HW226385   6.517   4.104   0.745
 8496SOL     OW26386   0.439   1.941   1.709
 8496SOL    HW126387   0.433   1.938   1.610
 8496SOL    HW226388   0.484   2.026   1.738
 8497SOL     OW26389   6.409   0.796   3.958
 8497SOL    HW126390   6.345   0.727   3.992
 8497SOL    HW226391   6.370   0.887   3.970
 8498SOL     OW26392   0.482   5.923   2.539
 8498SOL    HW126393   0.425   5.859   2.591
 8498SOL    HW226394   0.424   5.995   2.501
 8499SOL     OW26395   2.572   5.372   6.882
 8499SOL    HW126396   2.478   5.348   6.857
 8499SOL    HW226397   2.580   5.377   6.982
 8500SOL     OW26398   2.133   0.391   5.525
 8500SOL    HW126399   2.193   0.320   5.561
 8500SOL    HW226400   2.051   0.398   5.583
 8501SOL     OW26401   0.760   2.734   0.348
 8501SOL    HW126402   0.839   2.736   0.287
 8501SOL    HW226403   0.676   2.741   0.294
 8502SOL     OW26404   1.551   4.989   1.184
 8502SOL    HW126405   1.650   4.971   1.190
 8502SOL    HW226406   1.528   5.065   1.244
 8503SOL     OW26407   1.364   6.321   3.428
 8503SOL    HW126408   1.344   6.224   3.419
 8503SOL    HW226409   1.286   6.367   3.472
 8504SOL     OW26410   2.414   5.621   3.686
 8504SOL    HW126411   2.316   5.616   3.665
 8504SOL    HW226412   2.449   5.529   3.706
 8505SOL     OW26413   4.951   3.875   3.795
 8505SOL    HW126414   4.952   3.897   3.892
 8505SOL    HW226415   4.957   3.775   3.784
 8506SOL     OW26416   6.550   1.149   0.308
 8506SOL    HW126417   6.583   1.144   0.214
 8506SOL    HW226418   6.626   1.170   0.369
 8507SOL     OW26419   3.093   1.011   5.604
 8507SOL    HW126420   3.097   1.095   5.549
 8507SOL    HW226421   3.053   1.032   5.694
 8508SOL     OW26422   6.949   2.543   4.865
 8508SOL    HW126423   6.948   2.622   4.926
 8508SOL    HW226424   7.005   2.470   4.904
 8509SOL     OW26425   5.065   1.811   3.406
 8509SOL    HW126426   5.093   1.734   3.349
 8509SOL    HW226427   5.051   1.780   3.500
 8510SOL     OW26428   5.129   4.363   3.050
 8510SOL    HW126429   5.135   4.385   3.147
 8510SOL    HW226430   5.219   4.375   3.008
 8511SOL     OW26431   5.885   3.867   2.016
 8511SOL    HW126432   5.833   3.929   1.956
 8511SOL    HW226433   5.871   3.773   1.987
 8512SOL     OW26434   3.155   2.295   0.915
 8512SOL    HW126435   3.067   2.279   0.872
 8512SOL    HW226436   3.148   2.276   1.013
 8513SOL     OW26437   4.832   4.128   1.663
 8513SOL    HW126438   4.747   4.082   1.689
 8513SOL    HW226439   4.847   4.207   1.723
 8514SOL     OW26440   2.872   1.843   4.021
 8514SOL    HW126441   2.888   1.836   3.922
 8514SOL    HW226442   2.948   1.891   4.063
 8515SOL     OW26443   6.011   1.502   6.664
 8515SOL    HW126444   5.956   1.466   6.588
 8515SOL    HW226445   6.035   1.427   6.725
 8516SOL     OW26446   6.707   1.521   1.122
 8516SOL    HW126447   6.630   1.576   1.153
 8516SOL    HW226448   6.702   1.430   1.163
 8517SOL     OW26449   1.626   3.311   6.392
 8517SOL    HW126450   1.639   3.212   6.384
 8517SOL    HW226451   1.584   3.346   6.309
 8518SOL     OW26452   4.803   4.531   6.208
 8518SOL    HW126453   4.867   4.491   6.144
 8518SOL    HW226454   4.807   4.631   6.202
 8519SOL     OW26455   1.614   4.759   1.382
 8519SOL    HW126456   1.618   4.660   1.369
 8519SOL    HW226457   1.612   4.805   1.293
 8520SOL     OW26458   3.435   3.475   6.774
 8520SOL    HW126459   3.510   3.488   6.839
 8520SOL    HW226460   3.350   3.512   6.813
 8521SOL     OW26461   2.194   4.803   5.734
 8521SOL    HW126462   2.137   4.843   5.806
 8521SOL    HW226463   2.290   4.821   5.753
 8522SOL     OW26464   1.508   6.456   1.430
 8522SOL    HW126465   1.575   6.494   1.366
 8522SOL    HW226466   1.518   6.500   1.519
 8523SOL     OW26467   1.883   6.410   6.642
 8523SOL    HW126468   1.791   6.440   6.618
 8523SOL    HW226469   1.878   6.325   6.693
 8524SOL     OW26470   0.347   2.507   5.425
 8524SOL    HW126471   0.305   2.441   5.362
 8524SOL    HW226472   0.405   2.459   5.490
 8525SOL     OW26473   6.162   3.913   1.788
 8525SOL    HW126474   6.258   3.893   1.767
 8525SOL    HW226475   6.139   3.874   1.877
 8526SOL     OW26476   4.063   6.368   6.831
 8526SOL    HW126477   4.026   6.335   6.918
 8526SOL    HW226478   4.116   6.452   6.847
 8527SOL     OW26479   3.170   1.063   6.567
 8527SOL    HW126480   3.144   1.145   6.516
 8527SOL    HW226481   3.205   1.090   6.657
 8528SOL     OW26482   4.211   0.969   6.691
 8528SOL    HW126483   4.303   0.938   6.714
 8528SOL    HW226484   4.196   1.060   6.729
 8529SOL     OW26485   1.149   6.898   0.780
 8529SOL    HW126486   1.232   6.953   0.769
 8529SOL    HW226487   1.135   6.878   0.877
 8530SOL     OW26488   4.175   4.132   5.600
 8530SOL    HW126489   4.218   4.215   5.565
 8530SOL    HW226490   4.095   4.110   5.544
 8531SOL     OW26491   6.275   4.992   2.342
 8531SOL    HW126492   6.246   5.065   2.280
 8531SOL    HW226493   6.318   4.918   2.289
 8532SOL     OW26494   4.362   5.408   4.524
 8532SOL    HW126495   4.455   5.438   4.543
 8532SOL    HW226496   4.347   5.404   4.425
 8533SOL     OW26497   1.754   6.117   0.176
 8533SOL    HW126498   1.733   6.020   0.164
 8533SOL    HW226499   1.852   6.132   0.162
 8534SOL     OW26500   6.112   2.455   4.389
 8534SOL    HW126501   6.204   2.486   4.367
 8534SOL    HW226502   6.057   2.455   4.305
 8535SOL     OW26503   6.387   0.844   3.088
 8535SOL    HW126504   6.402   0.749   3.062
 8535SOL    HW226505   6.418   0.858   3.182
 8536SOL     OW26506   0.067   2.239   4.469
 8536SOL    HW126507   0.131   2.187   4.525
 8536SOL    HW226508   0.062   2.333   4.502
 8537SOL     OW26509   5.566   0.656   3.154
 8537SOL    HW126510   5.603   0.568   3.124
 8537SOL    HW226511   5.625   0.730   3.121
 8538SOL     OW26512   1.210   0.985   0.506
 8538SOL    HW126513   1.142   0.925   0.462
 8538SOL    HW226514   1.302   0.950   0.488
 8539SOL     OW26515   6.490   0.564   2.562
 8539SOL    HW126516   6.401   0.581   2.520
 8539SOL    HW226517   6.518   0.645   2.614
 8540SOL     OW26518   5.146   0.638   6.296
 8540SOL    HW126519   5.132   0.734   6.269
 8540SOL    HW226520   5.126   0.578   6.218
 8541SOL     OW26521   2.681   1.588   3.813
 8541SOL    HW126522   2.689   1.571   3.911
 8541SOL    HW226523   2.601   1.539   3.777
 8542SOL     OW26524   4.246   4.515   6.541
 8542SOL    HW126525   4.235   4.422   6.507
 8542SOL    HW226526   4.194   4.578   6.485
 8543SOL     OW26527   2.634   1.473   1.307
 8543SOL    HW126528   2.725   1.452   1.272
 8543SOL    HW226529   2.637   1.479   1.407
 8544SOL     OW26530   5.432   3.368   3.796
 8544SOL    HW126531   5.498   3.379   3.722
 8544SOL    HW226532   5.357   3.310   3.766
 8545SOL     OW26533   4.515   0.133   4.942
 8545SOL    HW126534   4.432   0.093   4.903
 8545SOL    HW226535   4.490   0.203   5.010
 8546SOL     OW26536   5.683   1.974   4.222
 8546SOL    HW126537   5.670   2.068   4.254
 8546SOL    HW226538   5.780   1.959   4.202
 8547SOL     OW26539   1.373   6.739   6.165
 8547SOL    HW126540   1.395   6.686   6.084
 8547SOL    HW226541   1.297   6.697   6.214
 8548SOL     OW26542   6.026   2.296   6.142
 8548SOL    HW126543   6.086   2.216   6.138
 8548SOL    HW226544   5.978   2.296   6.230
 8549SOL     OW26545   1.314   2.937   4.061
 8549SOL    HW126546   1.232   2.926   4.117
 8549SOL    HW226547   1.289   2.976   3.972
 8550SOL     OW26548   1.862   4.640   0.200
 8550SOL    HW126549   1.918   4.631   0.282
 8550SOL    HW226550   1.881   4.727   0.156
 8551SOL     OW26551   3.597   3.945   5.963
 8551SOL    HW126552   3.622   3.848   5.952
 8551SOL    HW226553   3.578   3.964   6.059
 8552SOL     OW26554   1.915   6.969   3.785
 8552SOL    HW126555   1.878   6.877   3.793
 8552SOL    HW226556   1.931   6.990   3.688
 8553SOL     OW26557   5.064   4.806   6.313
 8553SOL    HW126558   5.083   4.716   6.351
 8553SOL    HW226559   5.147   4.862   6.316
 8554SOL     OW26560   0.740   4.913   0.417
 8554SOL    HW126561   0.642   4.922   0.435
 8554SOL    HW226562   0.758   4.824   0.375
 8555SOL     OW26563   1.547   0.544   1.844
 8555SOL    HW126564   1.542   0.598   1.760
 8555SOL    HW226565   1.633   0.561   1.890
 8556SOL     OW26566   0.679   6.757   5.004
 8556SOL    HW126567   0.678   6.675   5.060
 8556SOL    HW226568   0.670   6.838   5.063
 8557SOL     OW26569   6.083   0.061   2.598
 8557SOL    HW126570   6.094   0.009   2.513
 8557SOL    HW226571   6.030   0.143   2.579
 8558SOL     OW26572   2.721   5.674   3.458
 8558SOL    HW126573   2.720   5.691   3.557
 8558SOL    HW226574   2.814   5.648   3.430
 8559SOL     OW26575   6.850   0.293   1.902
 8559SOL    HW126576   6.895   0.316   1.989
 8559SOL    HW226577   6.914   0.310   1.827
 8560SOL     OW26578   0.316   5.952   2.071
 8560SOL    HW126579   0.243   5.942   2.004
 8560SOL    HW226580   0.334   6.049   2.087
 8561SOL     OW26581   3.692   0.334   2.215
 8561SOL    HW126582   3.705   0.241   2.249
 8561SOL    HW226583   3.602   0.367   2.242
 8562SOL     OW26584   4.061   6.249   5.001
 8562SOL    HW126585   4.062   6.230   5.099
 8562SOL    HW226586   4.146   6.215   4.959
 8563SOL     OW26587   2.908   4.720   0.232
 8563SOL    HW126588   2.943   4.710   0.325
 8563SOL    HW226589   2.896   4.630   0.191
 8564SOL     OW26590   3.091   1.197   3.999
 8564SOL    HW126591   3.081   1.293   3.974
 8564SOL    HW226592   3.100   1.142   3.916
 8565SOL     OW26593   4.353   5.643   1.225
 8565SOL    HW126594   4.255   5.635   1.246
 8565SOL    HW226595   4.365   5.663   1.128
 8566SOL     OW26596   1.304   0.512   1.230
 8566SOL    HW126597   1.211   0.488   1.258
 8566SOL    HW226598   1.360   0.528   1.312
 8567SOL     OW26599   6.719   1.501   2.583
 8567SOL    HW126600   6.649   1.484   2.653
 8567SOL    HW226601   6.733   1.418   2.530
 8568SOL     OW26602   5.651   1.400   5.891
 8568SOL    HW126603   5.587   1.398   5.968
 8568SOL    HW226604   5.668   1.306   5.861
 8569SOL     OW26605   4.712   1.643   5.621
 8569SOL    HW126606   4.727   1.662   5.717
 8569SOL    HW226607   4.798   1.649   5.571
 8570SOL     OW26608   1.028   2.373   5.138
 8570SOL    HW126609   0.940   2.330   5.116
 8570SOL    HW226610   1.094   2.354   5.065
 8571SOL     OW26611   1.373   5.126   5.761
 8571SOL    HW126612   1.282   5.164   5.744
 8571SOL    HW226613   1.381   5.099   5.857
 8572SOL     OW26614   3.474   5.061   6.580
 8572SOL    HW126615   3.563   5.047   6.536
 8572SOL    HW226616   3.482   5.134   6.648
 8573SOL     OW26617   3.250   6.389   5.697
 8573SOL    HW126618   3.230   6.433   5.784
 8573SOL    HW226619   3.349   6.388   5.682
 8574SOL     OW26620   6.974   5.624   6.005
 8574SOL    HW126621   6.901   5.692   6.000
 8574SOL    HW226622   6.969   5.576   6.093
 8575SOL     OW26623   2.866   2.528   5.586
 8575SOL    HW126624   2.843   2.579   5.669
 8575SOL    HW226625   2.851   2.585   5.506
 8576SOL     OW26626   1.628   5.800   6.937
 8576SOL    HW126627   1.716   5.833   6.904
 8576SOL    HW226628   1.614   5.706   6.906
 8577SOL     OW26629   0.646   6.045   4.415
 8577SOL    HW126630   0.554   6.084   4.412
 8577SOL    HW226631   0.671   6.012   4.324
 8578SOL     OW26632   5.566   0.664   4.429
 8578SOL    HW126633   5.647   0.708   4.467
 8578SOL    HW226634   5.572   0.565   4.443
 8579SOL     OW26635   1.385   0.234   3.269
 8579SOL    HW126636   1.327   0.176   3.327
 8579SOL    HW226637   1.460   0.271   3.323
 8580SOL     OW26638   2.289   6.805   2.541
 8580SOL    HW126639   2.287   6.803   2.641
 8580SOL    HW226640   2.195   6.804   2.506
 8581SOL     OW26641   3.214   3.396   1.917
 8581SOL    HW126642   3.203   3.467   1.847
 8581SOL    HW226643   3.130   3.343   1.925
 8582SOL     OW26644   4.096   4.835   2.481
 8582SOL    HW126645   4.045   4.892   2.545
 8582SOL    HW226646   4.147   4.765   2.532
 8583SOL     OW26647   5.767   0.396   5.124
 8583SOL    HW126648   5.776   0.467   5.054
 8583SOL    HW226649   5.779   0.306   5.082
 8584SOL     OW26650   0.129   3.656   5.831
 8584SOL    HW126651   0.140   3.571   5.883
 8584SOL    HW226652   0.129   3.635   5.733
 8585SOL     OW26653   0.714   6.169   5.914
 8585SOL    HW126654   0.655   6.107   5.966
 8585SOL    HW226655   0.684   6.171   5.819
 8586SOL     OW26656   3.086   0.317   3.673
 8586SOL    HW126657   2.996   0.344   3.638
 8586SOL    HW226658   3.080   0.228   3.718
 8587SOL     OW26659   1.944   6.895   2.945
 8587SOL    HW126660   1.978   6.936   2.859
 8587SOL    HW226661   2.020   6.885   3.009
 8588SOL     OW26662   2.728   0.515   0.078
 8588SOL    HW126663   2.693   0.430   0.118
 8588SOL    HW226664   2.721   0.588   0.146
 8589SOL     OW26665   5.146   2.700   4.771
 8589SOL    HW126666   5.062   2.740   4.734
 8589SOL    HW226667   5.219   2.707   4.702
 8590SOL     OW26668   6.903   6.739   4.044
 8590SOL    HW126669   6.836   6.754   4.117
 8590SOL    HW226670   6.856   6.702   3.963
 8591SOL     OW26671   0.785   4.588   6.410
 8591SOL    HW126672   0.815   4.663   6.470
 8591SOL    HW226673   0.753   4.512   6.465
 8592SOL     OW26674   0.211   3.438   6.938
 8592SOL    HW126675   0.209   3.537   6.955
 8592SOL    HW226676   0.119   3.401   6.945
 8593SOL     OW26677   1.800   0.567   1.969
 8593SOL    HW126678   1.806   0.667   1.979
 8593SOL    HW226679   1.771   0.527   2.055
 8594SOL     OW26680   3.947   3.197   5.123
 8594SOL    HW126681   3.880   3.262   5.089
 8594SOL    HW226682   4.039   3.229   5.101
 8595SOL     OW26683   1.725   2.096   3.083
 8595SOL    HW126684   1.630   2.069   3.099
 8595SOL    HW226685   1.786   2.028   3.124
 8596SOL     OW26686   6.265   5.297   3.561
 8596SOL    HW126687   6.283   5.215   3.615
 8596SOL    HW226688   6.346   5.322   3.510
 8597SOL     OW26689   4.575   1.351   1.178
 8597SOL    HW126690   4.583   1.259   1.217
 8597SOL    HW226691   4.478   1.373   1.165
 8598SOL     OW26692   6.933   5.897   0.866
 8598SOL    HW126693   6.865   5.941   0.923
 8598SOL    HW226694   6.985   5.831   0.921
 8599SOL     OW26695   0.937   2.599   3.818
 8599SOL    HW126696   0.901   2.669   3.879
 8599SOL    HW226697   0.864   2.567   3.757
 8600SOL     OW26698   5.522   5.058   5.541
 8600SOL    HW126699   5.519   5.002   5.624
 8600SOL    HW226700   5.567   5.145   5.561
 8601SOL     OW26701   0.882   0.817   5.156
 8601SOL    HW126702   0.846   0.854   5.241
 8601SOL    HW226703   0.959   0.873   5.125
 8602SOL     OW26704   3.262   5.618   3.573
 8602SOL    HW126705   3.330   5.585   3.507
 8602SOL    HW226706   3.208   5.540   3.605
 8603SOL     OW26707   3.945   5.584   0.427
 8603SOL    HW126708   3.880   5.550   0.359
 8603SOL    HW226709   3.911   5.564   0.519
 8604SOL     OW26710   0.627   3.265   3.713
 8604SOL    HW126711   0.578   3.229   3.633
 8604SOL    HW226712   0.561   3.294   3.782
 8605SOL     OW26713   3.148   4.997   4.502
 8605SOL    HW126714   3.140   4.962   4.408
 8605SOL    HW226715   3.058   5.000   4.544
 8606SOL     OW26716   1.979   4.464   6.274
 8606SOL    HW126717   1.908   4.521   6.314
 8606SOL    HW226718   2.019   4.510   6.194
 8607SOL     OW26719   3.937   5.575   0.773
 8607SOL    HW126720   3.841   5.565   0.748
 8607SOL    HW226721   3.959   5.512   0.848
 8608SOL     OW26722   4.654   4.863   3.226
 8608SOL    HW126723   4.605   4.902   3.305
 8608SOL    HW226724   4.733   4.811   3.259
 8609SOL     OW26725   5.394   1.100   3.232
 8609SOL    HW126726   5.449   1.159   3.291
 8609SOL    HW226727   5.454   1.044   3.176
 8610SOL     OW26728   1.594   1.721   2.363
 8610SOL    HW126729   1.530   1.773   2.418
 8610SOL    HW226730   1.644   1.656   2.421
 8611SOL     OW26731   1.929   1.915   4.075
 8611SOL    HW126732   2.001   1.847   4.060
 8611SOL    HW226733   1.873   1.923   3.992
 8612SOL     OW26734   3.383   3.182   0.312
 8612SOL    HW126735   3.414   3.100   0.360
 8612SOL    HW226736   3.303   3.158   0.255
 8613SOL     OW26737   2.360   2.067   1.459
 8613SOL    HW126738   2.334   1.977   1.494
 8613SOL    HW226739   2.455   2.064   1.427
 8614SOL     OW26740   0.690   3.385   2.704
 8614SOL    HW126741   0.636   3.410   2.785
 8614SOL    HW226742   0.632   3.336   2.639
 8615SOL     OW26743   4.981   1.644   5.540
 8615SOL    HW126744   5.042   1.700   5.595
 8615SOL    HW226745   5.027   1.620   5.454
 8616SOL     OW26746   2.568   5.176   1.236
 8616SOL    HW126747   2.478   5.205   1.267
 8616SOL    HW226748   2.624   5.149   1.314
 8617SOL     OW26749   6.876   1.159   6.679
 8617SOL    HW126750   6.855   1.095   6.606
 8617SOL    HW226751   6.832   1.247   6.659
 8618SOL     OW26752   6.154   6.446   1.179
 8618SOL    HW126753   6.111   6.460   1.090
 8618SOL    HW226754   6.118   6.362   1.221
 8619SOL     OW26755   3.383   4.883   2.190
 8619SOL    HW126756   3.406   4.946   2.115
 8619SOL    HW226757   3.394   4.789   2.158
 8620SOL     OW26758   0.989   0.250   3.688
 8620SOL    HW126759   1.085   0.244   3.659
 8620SOL    HW226760   0.930   0.245   3.607
 8621SOL     OW26761   6.187   1.087   3.188
 8621SOL    HW126762   6.179   1.004   3.244
 8621SOL    HW226763   6.117   1.085   3.116
 8622SOL     OW26764   4.902   3.671   0.498
 8622SOL    HW126765   4.960   3.591   0.482
 8622SOL    HW226766   4.956   3.755   0.485
 8623SOL     OW26767   1.051   4.138   3.319
 8623SOL    HW126768   1.026   4.167   3.227
 8623SOL    HW226769   1.037   4.039   3.328
 8624SOL     OW26770   1.192   3.634   3.926
 8624SOL    HW126771   1.125   3.705   3.906
 8624SOL    HW226772   1.273   3.647   3.870
 8625SOL     OW26773   4.870   6.940   4.710
 8625SOL    HW126774   4.842   6.856   4.755
 8625SOL    HW226775   4.824   0.001   4.753
 8626SOL     OW26776   3.757   2.972   5.056
 8626SOL    HW126777   3.816   3.047   5.085
 8626SOL    HW226778   3.757   2.965   4.956
 8627SOL     OW26779   0.269   0.999   3.590
 8627SOL    HW126780   0.271   1.098   3.605
 8627SOL    HW226781   0.253   0.980   3.493
 8628SOL     OW26782   5.870   0.215   1.098
 8628SOL    HW126783   5.904   0.242   1.008
 8628SOL    HW226784   5.902   0.122   1.120
 8629SOL     OW26785   1.578   5.123   5.523
 8629SOL    HW126786   1.532   5.126   5.611
 8629SOL    HW226787   1.512   5.143   5.450
 8630SOL     OW26788   5.591   4.434   4.004
 8630SOL    HW126789   5.603   4.400   4.097
 8630SOL    HW226790   5.617   4.362   3.939
 8631SOL     OW26791   3.111   5.915   6.141
 8631SOL    HW126792   3.127   5.947   6.235
 8631SOL    HW226793   3.159   5.828   6.128
 8632SOL     OW26794   3.065   6.892   4.025
 8632SOL    HW126795   3.091   6.988   4.036
 8632SOL    HW226796   3.146   6.834   4.027
 8633SOL     OW26797   5.497   1.515   4.377
 8633SOL    HW126798   5.572   1.578   4.392
 8633SOL    HW226799   5.465   1.521   4.283
 8634SOL     OW26800   5.318   3.032   0.619
 8634SOL    HW126801   5.397   3.083   0.585
 8634SOL    HW226802   5.240   3.047   0.558
 8635SOL     OW26803   6.075   4.563   6.301
 8635SOL    HW126804   5.990   4.525   6.265
 8635SOL    HW226805   6.092   4.652   6.259
 8636SOL     OW26806   5.122   5.841   0.507
 8636SOL    HW126807   5.199   5.889   0.464
 8636SOL    HW226808   5.147   5.745   0.521
 8637SOL     OW26809   2.130   1.254   6.980
 8637SOL    HW126810   2.207   1.233   6.920
 8637SOL    HW226811   2.051   1.281   6.924
 8638SOL     OW26812   2.845   2.982   6.832
 8638SOL    HW126813   2.805   2.998   6.741
 8638SOL    HW226814   2.814   3.054   6.894
 8639SOL     OW26815   5.701   1.990   1.799
 8639SOL    HW126816   5.615   2.042   1.798
 8639SOL    HW226817   5.776   2.050   1.824
 8640SOL     OW26818   4.385   3.921   0.911
 8640SOL    HW126819   4.312   3.890   0.972
 8640SOL    HW226820   4.351   3.996   0.854
 8641SOL     OW26821   6.119   5.096   4.161
 8641SOL    HW126822   6.130   5.167   4.092
 8641SOL    HW226823   6.029   5.054   4.152
 8642SOL     OW26824   3.590   0.978   2.698
 8642SOL    HW126825   3.530   0.968   2.777
 8642SOL    HW226826   3.549   1.043   2.634
 8643SOL     OW26827   3.549   0.428   6.456
 8643SOL    HW126828   3.598   0.406   6.541
 8643SOL    HW226829   3.451   0.439   6.476
 8644SOL     OW26830   4.611   2.431   5.742
 8644SOL    HW126831   4.678   2.370   5.701
 8644SOL    HW226832   4.576   2.391   5.827
 8645SOL     OW26833   4.509   4.535   1.257
 8645SOL    HW126834   4.543   4.604   1.321
 8645SOL    HW226835   4.548   4.551   1.166
 8646SOL     OW26836   6.501   1.157   1.898
 8646SOL    HW126837   6.563   1.195   1.830
 8646SOL    HW226838   6.409   1.151   1.860
 8647SOL     OW26839   2.642   5.411   5.860
 8647SOL    HW126840   2.652   5.399   5.958
 8647SOL    HW226841   2.552   5.378   5.831
 8648SOL     OW26842   6.172   0.672   3.739
 8648SOL    HW126843   6.199   0.609   3.812
 8648SOL    HW226844   6.243   0.741   3.726
 8649SOL     OW26845   5.407   4.378   6.822
 8649SOL    HW126846   5.351   4.296   6.814
 8649SOL    HW226847   5.462   4.390   6.739
 8650SOL     OW26848   2.189   4.094   6.152
 8650SOL    HW126849   2.289   4.086   6.160
 8650SOL    HW226850   2.161   4.067   6.060
 8651SOL     OW26851   3.387   1.086   0.784
 8651SOL    HW126852   3.304   1.116   0.738
 8651SOL    HW226853   3.461   1.077   0.717
 8652SOL     OW26854   1.355   3.662   3.728
 8652SOL    HW126855   1.309   3.726   3.667
 8652SOL    HW226856   1.445   3.639   3.691
 8653SOL     OW26857   5.663   1.315   6.688
 8653SOL    HW126858   5.640   1.218   6.695
 8653SOL    HW226859   5.750   1.326   6.639
 8654SOL     OW26860   1.191   5.582   1.159
 8654SOL    HW126861   1.266   5.515   1.157
 8654SOL    HW226862   1.128   5.559   1.233
 8655SOL     OW26863   5.904   1.461   3.618
 8655SOL    HW126864   5.887   1.391   3.550
 8655SOL    HW226865   5.881   1.426   3.709
 8656SOL     OW26866   6.117   0.970   0.325
 8656SOL    HW126867   6.033   0.993   0.374
 8656SOL    HW226868   6.181   1.046   0.331
 8657SOL     OW26869   4.924   4.743   0.386
 8657SOL    HW126870   5.021   4.753   0.407
 8657SOL    HW226871   4.877   4.703   0.465
 8658SOL     OW26872   4.159   6.620   0.077
 8658SOL    HW126873   4.087   6.661   0.022
 8658SOL    HW226874   4.247   6.630   0.031
 8659SOL     OW26875   4.238   1.697   3.286
 8659SOL    HW126876   4.202   1.669   3.197
 8659SOL    HW226877   4.249   1.616   3.344
 8660SOL     OW26878   5.890   3.753   0.817
 8660SOL    HW126879   5.813   3.806   0.782
 8660SOL    HW226880   5.915   3.682   0.751
 8661SOL     OW26881   5.690   4.017   1.192
 8661SOL    HW126882   5.610   4.064   1.155
 8661SOL    HW226883   5.748   3.986   1.117
 8662SOL     OW26884   4.638   5.935   1.276
 8662SOL    HW126885   4.613   6.011   1.215
 8662SOL    HW226886   4.587   5.944   1.361
 8663SOL     OW26887   2.815   5.734   1.171
 8663SOL    HW126888   2.903   5.734   1.124
 8663SOL    HW226889   2.768   5.647   1.156
 8664SOL     OW26890   3.213   6.334   1.107
 8664SOL    HW126891   3.143   6.392   1.065
 8664SOL    HW226892   3.260   6.281   1.036
 8665SOL     OW26893   5.407   5.993   5.003
 8665SOL    HW126894   5.462   5.965   4.924
 8665SOL    HW226895   5.419   5.928   5.077
 8666SOL     OW26896   4.882   1.811   4.062
 8666SOL    HW126897   4.947   1.736   4.045
 8666SOL    HW226898   4.805   1.776   4.115
 8667SOL     OW26899   4.929   2.586   3.207
 8667SOL    HW126900   4.842   2.584   3.157
 8667SOL    HW226901   5.004   2.565   3.145
 8668SOL     OW26902   5.950   3.593   2.862
 8668SOL    HW126903   5.893   3.534   2.805
 8668SOL    HW226904   5.891   3.657   2.913
 8669SOL     OW26905   2.303   6.231   0.042
 8669SOL    HW126906   2.240   6.297   0.001
 8669SOL    HW226907   2.386   6.224   7.003
 8670SOL     OW26908   3.782   4.568   5.570
 8670SOL    HW126909   3.823   4.649   5.529
 8670SOL    HW226910   3.682   4.576   5.570
 8671SOL     OW26911   5.398   1.957   3.214
 8671SOL    HW126912   5.324   1.978   3.150
 8671SOL    HW226913   5.362   1.959   3.308
 8672SOL     OW26914   1.775   4.905   3.677
 8672SOL    HW126915   1.689   4.949   3.652
 8672SOL    HW226916   1.819   4.958   3.750
 8673SOL     OW26917   6.915   2.021   0.004
 8673SOL    HW126918   6.948   1.984   0.091
 8673SOL    HW226919   6.988   2.014   6.952
 8674SOL     OW26920   5.781   5.302   2.765
 8674SOL    HW126921   5.748   5.267   2.677
 8674SOL    HW226922   5.709   5.357   2.807
 8675SOL     OW26923   3.111   2.044   4.509
 8675SOL    HW126924   3.089   1.978   4.581
 8675SOL    HW226925   3.089   2.136   4.542
 8676SOL     OW26926   3.980   0.372   2.455
 8676SOL    HW126927   4.051   0.375   2.525
 8676SOL    HW226928   3.896   0.332   2.493
 8677SOL     OW26929   2.800   6.367   5.552
 8677SOL    HW126930   2.891   6.326   5.547
 8677SOL    HW226931   2.744   6.336   5.475
 8678SOL     OW26932   6.865   0.073   1.235
 8678SOL    HW126933   6.878   0.161   1.189
 8678SOL    HW226934   6.942   0.012   1.214
 8679SOL     OW26935   6.315   2.345   3.974
 8679SOL    HW126936   6.324   2.307   3.882
 8679SOL    HW226937   6.222   2.380   3.987
 8680SOL     OW26938   1.053   4.265   1.820
 8680SOL    HW126939   1.152   4.281   1.822
 8680SOL    HW226940   1.005   4.352   1.829
 8681SOL     OW26941   4.871   5.119   6.820
 8681SOL    HW126942   4.822   5.152   6.900
 8681SOL    HW226943   4.807   5.107   6.744
 8682SOL     OW26944   5.040   6.661   1.514
 8682SOL    HW126945   5.051   6.711   1.600
 8682SOL    HW226946   4.944   6.664   1.486
 8683SOL     OW26947   1.974   2.653   2.615
 8683SOL    HW126948   1.909   2.580   2.636
 8683SOL    HW226949   2.031   2.626   2.537
 8684SOL     OW26950   0.886   2.679   4.743
 8684SOL    HW126951   0.868   2.582   4.756
 8684SOL    HW226952   0.824   2.716   4.673
 8685SOL     OW26953   0.406   2.178   5.353
 8685SOL    HW126954   0.384   2.151   5.447
 8685SOL    HW226955   0.496   2.142   5.328
 8686SOL     OW26956   7.012   0.740   1.549
 8686SOL    HW126957   6.964   0.816   1.507
 8686SOL    HW226958   6.966   0.654   1.526
 8687SOL     OW26959   3.702   5.655   2.821
 8687SOL    HW126960   3.635   5.654   2.894
 8687SOL    HW226961   3.788   5.693   2.855
 8688SOL     OW26962   2.837   6.084   6.832
 8688SOL    HW126963   2.898   6.148   6.879
 8688SOL    HW226964   2.785   6.133   6.762
 8689SOL     OW26965   3.293   4.171   1.716
 8689SOL    HW126966   3.347   4.186   1.799
 8689SOL    HW226967   3.247   4.082   1.723
 8690SOL     OW26968   1.551   2.910   3.251
 8690SOL    HW126969   1.515   2.944   3.164
 8690SOL    HW226970   1.637   2.957   3.272
 8691SOL     OW26971   3.415   2.009   6.845
 8691SOL    HW126972   3.451   1.942   6.779
 8691SOL    HW226973   3.484   2.077   6.864
 8692SOL     OW26974   2.125   1.141   3.362
 8692SOL    HW126975   2.136   1.240   3.353
 8692SOL    HW226976   2.030   1.117   3.338
 8693SOL     OW26977   6.604   1.345   7.015
 8693SOL    HW126978   6.600   1.245   0.000
 8693SOL    HW226979   6.511   1.381   7.015
 8694SOL     OW26980   3.899   1.200   5.036
 8694SOL    HW126981   3.947   1.286   5.056
 8694SOL    HW226982   3.877   1.195   4.939
 8695SOL     OW26983   4.103   2.707   5.918
 8695SOL    HW126984   4.110   2.772   5.842
 8695SOL    HW226985   4.018   2.725   5.969
 8696SOL     OW26986   2.257   5.967   0.580
 8696SOL    HW126987   2.189   5.899   0.553
 8696SOL    HW226988   2.288   6.018   0.500
 8697SOL     OW26989   6.908   2.992   0.364
 8697SOL    HW126990   6.933   3.069   0.422
 8697SOL    HW226991   6.966   2.913   0.385
 8698SOL     OW26992   5.811   5.848   4.708
 8698SOL    HW126993   5.715   5.868   4.727
 8698SOL    HW226994   5.823   5.749   4.696
 8699SOL     OW26995   2.028   2.495   5.144
 8699SOL    HW126996   2.032   2.578   5.200
 8699SOL    HW226997   2.110   2.490   5.086
 8700SOL     OW26998   1.078   0.694   4.339
 8700SOL    HW126999   1.040   0.734   4.255
 8700SOL    HW227000   1.162   0.741   4.364
 8701SOL     OW27001   1.627   0.701   0.419
 8701SOL    HW127002   1.604   0.763   0.344
 8701SOL    HW227003   1.724   0.710   0.441
 8702SOL     OW27004   5.463   4.321   0.339
 8702SOL    HW127005   5.425   4.333   0.247
 8702SOL    HW227006   5.562   4.310   0.333
 8703SOL     OW27007   3.255   5.691   0.788
 8703SOL    HW127008   3.289   5.736   0.870
 8703SOL    HW227009   3.155   5.689   0.790
 8704SOL     OW27010   0.343   3.438   2.493
 8704SOL    HW127011   0.289   3.506   2.541
 8704SOL    HW227012   0.325   3.444   2.395
 8705SOL     OW27013   5.071   0.739   0.263
 8705SOL    HW127014   5.147   0.702   0.316
 8705SOL    HW227015   5.075   0.839   0.265
 8706SOL     OW27016   4.563   2.205   5.945
 8706SOL    HW127017   4.488   2.144   5.970
 8706SOL    HW227018   4.645   2.151   5.928
 8707SOL     OW27019   6.747   2.785   0.037
 8707SOL    HW127020   6.815   2.712   0.043
 8707SOL    HW227021   6.693   2.775   6.970
 8708SOL     OW27022   4.229   1.652   2.337
 8708SOL    HW127023   4.258   1.582   2.402
 8708SOL    HW227024   4.299   1.662   2.266
 8709SOL     OW27025   6.814   5.848   0.629
 8709SOL    HW127026   6.861   5.853   0.717
 8709SOL    HW227027   6.876   5.876   0.556
 8710SOL     OW27028   2.176   2.960   4.259
 8710SOL    HW127029   2.162   2.921   4.168
 8710SOL    HW227030   2.205   2.888   4.322
 8711SOL     OW27031   1.137   5.939   3.230
 8711SOL    HW127032   1.120   5.977   3.139
 8711SOL    HW227033   1.223   5.888   3.229
 8712SOL     OW27034   4.270   2.217   4.961
 8712SOL    HW127035   4.233   2.308   4.979
 8712SOL    HW227036   4.362   2.211   5.001
 8713SOL     OW27037   0.623   3.747   3.675
 8713SOL    HW127038   0.641   3.801   3.757
 8713SOL    HW227039   0.531   3.709   3.680
 8714SOL     OW27040   1.304   1.261   6.119
 8714SOL    HW127041   1.339   1.196   6.187
 8714SOL    HW227042   1.226   1.221   6.072
 8715SOL     OW27043   4.841   0.983   0.993
 8715SOL    HW127044   4.880   1.039   1.066
 8715SOL    HW227045   4.757   0.939   1.026
 8716SOL     OW27046   0.384   0.198   1.087
 8716SOL    HW127047   0.353   0.122   1.144
 8716SOL    HW227048   0.417   0.163   0.999
 8717SOL     OW27049   3.500   3.336   3.543
 8717SOL    HW127050   3.438   3.383   3.481
 8717SOL    HW227051   3.591   3.377   3.537
 8718SOL     OW27052   0.602   4.407   4.579
 8718SOL    HW127053   0.548   4.428   4.498
 8718SOL    HW227054   0.684   4.356   4.552
 8719SOL     OW27055   2.453   0.045   6.518
 8719SOL    HW127056   2.482   7.004   6.594
 8719SOL    HW227057   2.531   0.069   6.461
 8720SOL     OW27058   6.407   5.332   5.895
 8720SOL    HW127059   6.370   5.424   5.901
 8720SOL    HW227060   6.399   5.287   5.984
 8721SOL     OW27061   6.865   2.429   2.922
 8721SOL    HW127062   6.959   2.399   2.937
 8721SOL    HW227063   6.830   2.386   2.839
 8722SOL     OW27064   3.793   1.349   6.411
 8722SOL    HW127065   3.747   1.265   6.439
 8722SOL    HW227066   3.851   1.382   6.485
 8723SOL     OW27067   4.714   5.651   1.171
 8723SOL    HW127068   4.701   5.741   1.213
 8723SOL    HW227069   4.654   5.643   1.091
 8724SOL     OW27070   5.520   0.059   6.008
 8724SOL    HW127071   5.478   0.149   6.023
 8724SOL    HW227072   5.520   0.038   5.910
 8725SOL     OW27073   2.207   0.162   6.833
 8725SOL    HW127074   2.201   0.098   6.756
 8725SOL    HW227075   2.125   0.218   6.836
 8726SOL     OW27076   6.343   0.235   2.104
 8726SOL    HW127077   6.345   0.255   2.202
 8726SOL    HW227078   6.361   0.137   2.089
 8727SOL     OW27079   0.569   5.868   2.023
 8727SOL    HW127080   0.605   5.938   1.960
 8727SOL    HW227081   0.471   5.881   2.036
 8728SOL     OW27082   4.347   0.586   4.364
 8728SOL    HW127083   4.303   0.502   4.395
 8728SOL    HW227084   4.361   0.648   4.441
 8729SOL     OW27085   4.926   6.251   3.955
 8729SOL    HW127086   4.862   6.175   3.945
 8729SOL    HW227087   5.010   6.231   3.904
 8730SOL     OW27088   6.535   4.096   2.710
 8730SOL    HW127089   6.607   4.031   2.686
 8730SOL    HW227090   6.466   4.049   2.766
 8731SOL     OW27091   2.224   2.835   2.686
 8731SOL    HW127092   2.134   2.823   2.727
 8731SOL    HW227093   2.263   2.745   2.664
 8732SOL     OW27094   5.773   4.279   1.843
 8732SOL    HW127095   5.711   4.356   1.831
 8732SOL    HW227096   5.794   4.239   1.753
 8733SOL     OW27097   2.190   5.360   1.394
 8733SOL    HW127098   2.121   5.360   1.322
 8733SOL    HW227099   2.245   5.276   1.387
 8734SOL     OW27100   1.580   4.652   2.429
 8734SOL    HW127101   1.489   4.636   2.467
 8734SOL    HW227102   1.623   4.729   2.475
 8735SOL     OW27103   1.073   1.922   0.543
 8735SOL    HW127104   0.996   1.985   0.535
 8735SOL    HW227105   1.114   1.908   0.453
 8736SOL     OW27106   0.537   6.024   6.049
 8736SOL    HW127107   0.471   6.092   6.080
 8736SOL    HW227108   0.553   5.957   6.122
 8737SOL     OW27109   2.496   6.676   6.165
 8737SOL    HW127110   2.552   6.694   6.083
 8737SOL    HW227111   2.401   6.659   6.137
 8738SOL     OW27112   2.158   5.255   4.325
 8738SOL    HW127113   2.149   5.156   4.342
 8738SOL    HW227114   2.071   5.300   4.344
 8739SOL     OW27115   5.718   5.308   6.030
 8739SOL    HW127116   5.774   5.391   6.041
 8739SOL    HW227117   5.770   5.228   6.060
 8740SOL     OW27118   5.201   1.049   5.240
 8740SOL    HW127119   5.225   1.097   5.156
 8740SOL    HW227120   5.263   1.079   5.314
 8741SOL     OW27121   2.886   1.381   1.241
 8741SOL    HW127122   2.956   1.381   1.170
 8741SOL    HW227123   2.832   1.297   1.235
 8742SOL     OW27124   5.530   6.360   1.586
 8742SOL    HW127125   5.461   6.421   1.626
 8742SOL    HW227126   5.581   6.409   1.516
 8743SOL     OW27127   1.784   0.468   2.229
 8743SOL    HW127128   1.697   0.505   2.260
 8743SOL    HW227129   1.852   0.479   2.301
 8744SOL     OW27130   3.882   2.789   6.051
 8744SOL    HW127131   3.893   2.875   6.100
 8744SOL    HW227132   3.786   2.776   6.027
 8745SOL     OW27133   6.114   3.150   5.945
 8745SOL    HW127134   6.208   3.118   5.958
 8745SOL    HW227135   6.084   3.128   5.852
 8746SOL     OW27136   5.110   3.651   4.897
 8746SOL    HW127137   5.087   3.726   4.959
 8746SOL    HW227138   5.033   3.588   4.891
 8747SOL     OW27139   0.172   2.199   2.557
 8747SOL    HW127140   0.208   2.292   2.553
 8747SOL    HW227141   0.202   2.148   2.476
 8748SOL     OW27142   6.948   1.982   5.097
 8748SOL    HW127143   7.013   1.998   5.023
 8748SOL    HW227144   6.891   1.903   5.075
 8749SOL     OW27145   2.378   0.798   6.759
 8749SOL    HW127146   2.392   0.850   6.675
 8749SOL    HW227147   2.410   0.704   6.745
 8750SOL     OW27148   3.065   3.336   5.460
 8750SOL    HW127149   2.996   3.373   5.397
 8750SOL    HW227150   3.105   3.254   5.421
 8751SOL     OW27151   6.480   0.222   3.057
 8751SOL    HW127152   6.561   0.255   3.008
 8751SOL    HW227153   6.405   0.209   2.992
 8752SOL     OW27154   2.481   4.599   0.318
 8752SOL    HW127155   2.497   4.641   0.229
 8752SOL    HW227156   2.566   4.559   0.352
 8753SOL     OW27157   4.705   1.555   5.009
 8753SOL    HW127158   4.726   1.622   5.080
 8753SOL    HW227159   4.615   1.574   4.972
 8754SOL     OW27160   1.312   2.648   4.814
 8754SOL    HW127161   1.246   2.712   4.775
 8754SOL    HW227162   1.329   2.671   4.910
 8755SOL     OW27163   2.684   0.623   0.443
 8755SOL    HW127164   2.681   0.656   0.537
 8755SOL    HW227165   2.692   0.701   0.381
 8756SOL     OW27166   1.986   2.991   3.609
 8756SOL    HW127167   1.942   2.970   3.522
 8756SOL    HW227168   1.929   3.056   3.659
 8757SOL     OW27169   4.591   6.222   5.718
 8757SOL    HW127170   4.543   6.282   5.782
 8757SOL    HW227171   4.563   6.127   5.734
 8758SOL     OW27172   4.692   6.808   2.015
 8758SOL    HW127173   4.619   6.787   1.950
 8758SOL    HW227174   4.656   6.806   2.108
 8759SOL     OW27175   3.704   2.352   0.433
 8759SOL    HW127176   3.711   2.427   0.367
 8759SOL    HW227177   3.609   2.321   0.438
 8760SOL     OW27178   1.436   1.062   4.962
 8760SOL    HW127179   1.504   1.135   4.968
 8760SOL    HW227180   1.410   1.049   4.867
 8761SOL     OW27181   5.038   1.899   2.492
 8761SOL    HW127182   5.014   1.838   2.416
 8761SOL    HW227183   4.967   1.968   2.503
 8762SOL     OW27184   0.698   4.309   1.777
 8762SOL    HW127185   0.640   4.293   1.857
 8762SOL    HW227186   0.747   4.224   1.754
 8763SOL     OW27187   6.030   6.206   5.974
 8763SOL    HW127188   6.097   6.248   6.036
 8763SOL    HW227189   5.940   6.245   5.990
 8764SOL     OW27190   4.926   1.126   4.671
 8764SOL    HW127191   4.845   1.177   4.640
 8764SOL    HW227192   5.008   1.164   4.627
 8765SOL     OW27193   6.189   6.319   5.321
 8765SOL    HW127194   6.149   6.405   5.287
 8765SOL    HW227195   6.265   6.340   5.382
 8766SOL     OW27196   4.410   4.564   3.919
 8766SOL    HW127197   4.447   4.480   3.960
 8766SOL    HW227198   4.377   4.624   3.991
 8767SOL     OW27199   3.868   6.925   3.076
 8767SOL    HW127200   3.881   6.848   3.138
 8767SOL    HW227201   3.956   6.952   3.037
 8768SOL     OW27202   1.339   2.886   0.547
 8768SOL    HW127203   1.414   2.915   0.608
 8768SOL    HW227204   1.252   2.915   0.587
 8769SOL     OW27205   1.406   6.717   4.447
 8769SOL    HW127206   1.329   6.653   4.454
 8769SOL    HW227207   1.412   6.752   4.353
 8770SOL     OW27208   5.545   3.631   2.231
 8770SOL    HW127209   5.542   3.579   2.146
 8770SOL    HW227210   5.637   3.629   2.268
 8771SOL     OW27211   1.137   0.422   6.367
 8771SOL    HW127212   1.120   0.521   6.370
 8771SOL    HW227213   1.166   0.396   6.275
 8772SOL     OW27214   4.927   6.291   6.579
 8772SOL    HW127215   4.957   6.205   6.621
 8772SOL    HW227216   4.861   6.271   6.506
 8773SOL     OW27217   4.373   2.329   3.723
 8773SOL    HW127218   4.301   2.321   3.792
 8773SOL    HW227219   4.456   2.285   3.757
 8774SOL     OW27220   1.837   1.368   6.975
 8774SOL    HW127221   1.894   1.377   6.893
 8774SOL    HW227222   1.816   1.459   7.010
 8775SOL     OW27223   6.697   0.315   4.994
 8775SOL    HW127224   6.679   0.408   5.026
 8775SOL    HW227225   6.795   0.299   4.992
 8776SOL     OW27226   3.964   3.576   5.449
 8776SOL    HW127227   3.951   3.674   5.465
 8776SOL    HW227228   3.913   3.524   5.517
 8777SOL     OW27229   0.123   4.151   1.399
 8777SOL    HW127230   0.033   4.164   1.358
 8777SOL    HW227231   0.193   4.157   1.327
 8778SOL     OW27232   6.073   2.040   4.419
 8778SOL    HW127233   6.151   2.026   4.480
 8778SOL    HW227234   6.101   2.095   4.340
 8779SOL     OW27235   3.111   5.160   2.249
 8779SOL    HW127236   3.141   5.252   2.226
 8779SOL    HW227237   3.090   5.110   2.165
 8780SOL     OW27238   0.975   5.504   3.280
 8780SOL    HW127239   0.892   5.553   3.306
 8780SOL    HW227240   0.982   5.502   3.181
 8781SOL     OW27241   6.215   1.893   3.281
 8781SOL    HW127242   6.187   1.872   3.374
 8781SOL    HW227243   6.150   1.852   3.216
 8782SOL     OW27244   5.097   0.112   1.983
 8782SOL    HW127245   5.031   0.186   1.997
 8782SOL    HW227246   5.081   0.040   2.051
 8783SOL     OW27247   6.716   4.058   3.720
 8783SOL    HW127248   6.732   4.137   3.661
 8783SOL    HW227249   6.689   3.980   3.665
 8784SOL     OW27250   5.635   4.279   6.510
 8784SOL    HW127251   5.611   4.242   6.421
 8784SOL    HW227252   5.733   4.265   6.526
 8785SOL     OW27253   6.759   3.730   6.512
 8785SOL    HW127254   6.801   3.821   6.509
 8785SOL    HW227255   6.830   3.660   6.508
 8786SOL     OW27256   2.064   6.893   0.505
 8786SOL    HW127257   2.075   6.793   0.500
 8786SOL    HW227258   2.144   6.933   0.549
 8787SOL     OW27259   2.420   2.844   1.775
 8787SOL    HW127260   2.420   2.764   1.835
 8787SOL    HW227261   2.331   2.890   1.781
 8788SOL     OW27262   0.139   2.132   5.840
 8788SOL    HW127263   0.110   2.099   5.929
 8788SOL    HW227264   0.102   2.224   5.825
 8789SOL     OW27265   6.117   6.992   5.581
 8789SOL    HW127266   6.026   6.974   5.545
 8789SOL    HW227267   6.110   0.011   5.674
 8790SOL     OW27268   0.075   0.859   6.729
 8790SOL    HW127269   0.060   0.952   6.762
 8790SOL    HW227270   7.007   0.806   6.739
 8791SOL     OW27271   6.107   6.889   4.828
 8791SOL    HW127272   6.119   6.901   4.729
 8791SOL    HW227273   6.029   6.944   4.859
 8792SOL     OW27274   3.297   6.336   3.507
 8792SOL    HW127275   3.253   6.387   3.432
 8792SOL    HW227276   3.323   6.245   3.474
 8793SOL     OW27277   1.168   5.170   3.556
 8793SOL    HW127278   1.096   5.108   3.588
 8793SOL    HW227279   1.181   5.157   3.458
 8794SOL     OW27280   4.145   6.825   1.841
 8794SOL    HW127281   4.117   6.913   1.878
 8794SOL    HW227282   4.180   6.837   1.748
 8795SOL     OW27283   1.081   6.605   5.023
 8795SOL    HW127284   0.982   6.596   5.013
 8795SOL    HW227285   1.102   6.674   5.091
 8796SOL     OW27286   4.336   1.738   4.433
 8796SOL    HW127287   4.392   1.691   4.501
 8796SOL    HW227288   4.257   1.681   4.410
 8797SOL     OW27289   0.563   0.178   5.229
 8797SOL    HW127290   0.656   0.183   5.191
 8797SOL    HW227291   0.503   0.241   5.180
 8798SOL     OW27292   5.188   5.239   5.533
 8798SOL    HW127293   5.202   5.234   5.434
 8798SOL    HW227294   5.091   5.233   5.554
 8799SOL     OW27295   2.041   4.362   3.816
 8799SOL    HW127296   2.130   4.325   3.844
 8799SOL    HW227297   1.969   4.323   3.873
 8800SOL     OW27298   6.125   4.604   5.501
 8800SOL    HW127299   6.070   4.681   5.534
 8800SOL    HW227300   6.070   4.549   5.439
 8801SOL     OW27301   0.613   1.526   4.874
 8801SOL    HW127302   0.641   1.530   4.970
 8801SOL    HW227303   0.649   1.605   4.825
 8802SOL     OW27304   1.646   0.128   1.052
 8802SOL    HW127305   1.632   0.037   1.090
 8802SOL    HW227306   1.584   0.193   1.096
 8803SOL     OW27307   0.438   5.456   6.006
 8803SOL    HW127308   0.347   5.477   6.043
 8803SOL    HW227309   0.492   5.409   6.076
 8804SOL     OW27310   3.411   0.922   2.120
 8804SOL    HW127311   3.401   0.985   2.043
 8804SOL    HW227312   3.367   0.835   2.097
 8805SOL     OW27313   2.646   6.973   4.250
 8805SOL    HW127314   2.691   0.042   4.273
 8805SOL    HW227315   2.704   6.920   4.187
 8806SOL     OW27316   2.362   5.146   1.898
 8806SOL    HW127317   2.379   5.171   1.803
 8806SOL    HW227318   2.287   5.203   1.934
 8807SOL     OW27319   5.230   0.198   6.505
 8807SOL    HW127320   5.176   0.127   6.551
 8807SOL    HW227321   5.249   0.169   6.412
 8808SOL     OW27322   5.416   2.302   6.992
 8808SOL    HW127323   5.412   2.229   6.924
 8808SOL    HW227324   5.356   2.377   6.963
 8809SOL     OW27325   4.681   5.352   3.709
 8809SOL    HW127326   4.749   5.279   3.723
 8809SOL    HW227327   4.595   5.324   3.752
 8810SOL     OW27328   5.416   0.629   6.311
 8810SOL    HW127329   5.318   0.635   6.330
 8810SOL    HW227330   5.463   0.591   6.391
 8811SOL     OW27331   2.483   1.364   3.880
 8811SOL    HW127332   2.466   1.307   3.800
 8811SOL    HW227333   2.537   1.313   3.947
 8812SOL     OW27334   2.099   6.889   1.506
 8812SOL    HW127335   2.111   6.974   1.455
 8812SOL    HW227336   2.061   6.909   1.596
 8813SOL     OW27337   1.269   4.561   1.554
 8813SOL    HW127338   1.319   4.643   1.524
 8813SOL    HW227339   1.176   4.587   1.580
 8814SOL     OW27340   5.628   0.397   0.363
 8814SOL    HW127341   5.551   0.380   0.425
 8814SOL    HW227342   5.602   0.370   0.270
 8815SOL     OW27343   6.674   6.187   0.851
 8815SOL    HW127344   6.751   6.239   0.889
 8815SOL    HW227345   6.692   6.168   0.754
 8816SOL     OW27346   1.411   0.799   0.541
 8816SOL    HW127347   1.500   0.796   0.496
 8816SOL    HW227348   1.420   0.764   0.634
 8817SOL     OW27349   1.076   6.168   5.006
 8817SOL    HW127350   1.025   6.134   5.085
 8817SOL    HW227351   1.172   6.140   5.014
 8818SOL     OW27352   0.467   3.460   4.490
 8818SOL    HW127353   0.555   3.419   4.516
 8818SOL    HW227354   0.393   3.405   4.528
 8819SOL     OW27355   5.263   5.010   4.731
 8819SOL    HW127356   5.359   4.984   4.718
 8819SOL    HW227357   5.216   4.938   4.782
 8820SOL     OW27358   1.965   1.019   5.324
 8820SOL    HW127359   1.911   1.066   5.395
 8820SOL    HW227360   2.062   1.032   5.342
 8821SOL     OW27361   3.141   6.297   0.293
 8821SOL    HW127362   3.128   6.255   0.203
 8821SOL    HW227363   3.220   6.257   0.338
 8822SOL     OW27364   0.538   0.339   4.815
 8822SOL    HW127365   0.471   0.373   4.881
 8822SOL    HW227366   0.609   0.288   4.863
 8823SOL     OW27367   2.228   1.037   0.883
 8823SOL    HW127368   2.149   1.097   0.899
 8823SOL    HW227369   2.312   1.086   0.906
 8824SOL     OW27370   0.837   3.242   1.110
 8824SOL    HW127371   0.850   3.239   1.011
 8824SOL    HW227372   0.752   3.194   1.134
 8825SOL     OW27373   1.260   0.531   3.200
 8825SOL    HW127374   1.334   0.525   3.133
 8825SOL    HW227375   1.210   0.445   3.203
 8826SOL     OW27376   6.413   2.998   0.818
 8826SOL    HW127377   6.385   3.009   0.723
 8826SOL    HW227378   6.479   3.070   0.842
 8827SOL     OW27379   3.829   0.940   3.176
 8827SOL    HW127380   3.895   0.909   3.244
 8827SOL    HW227381   3.848   1.035   3.151
 8828SOL     OW27382   4.369   5.331   5.369
 8828SOL    HW127383   4.291   5.356   5.311
 8828SOL    HW227384   4.437   5.283   5.314
 8829SOL     OW27385   6.418   2.279   0.594
 8829SOL    HW127386   6.456   2.367   0.623
 8829SOL    HW227387   6.460   2.205   0.647
 8830SOL     OW27388   0.764   1.564   2.183
 8830SOL    HW127389   0.768   1.606   2.093
 8830SOL    HW227390   0.848   1.511   2.199
 8831SOL     OW27391   5.045   1.297   4.311
 8831SOL    HW127392   5.049   1.213   4.256
 8831SOL    HW227393   5.078   1.374   4.256
 8832SOL     OW27394   0.047   6.018   2.849
 8832SOL    HW127395   6.984   6.063   2.889
 8832SOL    HW227396   0.125   6.026   2.912
 8833SOL     OW27397   2.355   6.299   5.764
 8833SOL    HW127398   2.296   6.342   5.833
 8833SOL    HW227399   2.397   6.217   5.803
 8834SOL     OW27400   5.455   3.507   4.615
 8834SOL    HW127401   5.396   3.490   4.694
 8834SOL    HW227402   5.538   3.452   4.623
 8835SOL     OW27403   5.528   1.109   6.215
 8835SOL    HW127404   5.481   1.133   6.300
 8835SOL    HW227405   5.467   1.124   6.138
 8836SOL     OW27406   4.499   2.362   7.003
 8836SOL    HW127407   4.495   2.394   6.908
 8836SOL    HW227408   4.483   2.263   7.005
 8837SOL     OW27409   0.256   6.283   3.359
 8837SOL    HW127410   0.269   6.187   3.383
 8837SOL    HW227411   0.188   6.290   3.285
 8838SOL     OW27412   2.454   4.563   2.771
 8838SOL    HW127413   2.461   4.656   2.733
 8838SOL    HW227414   2.435   4.498   2.698
 8839SOL     OW27415   4.995   5.158   3.130
 8839SOL    HW127416   5.064   5.189   3.196
 8839SOL    HW227417   4.904   5.181   3.164
 8840SOL     OW27418   6.707   2.096   1.756
 8840SOL    HW127419   6.707   2.034   1.835
 8840SOL    HW227420   6.784   2.160   1.763
 8841SOL     OW27421   0.424   0.573   5.618
 8841SOL    HW127422   0.498   0.621   5.666
 8841SOL    HW227423   0.337   0.613   5.645
 8842SOL     OW27424   3.115   2.979   2.148
 8842SOL    HW127425   3.154   2.907   2.205
 8842SOL    HW227426   3.129   2.957   2.052
 8843SOL     OW27427   2.071   3.423   5.497
 8843SOL    HW127428   2.034   3.337   5.461
 8843SOL    HW227429   2.022   3.500   5.455
 8844SOL     OW27430   6.014   2.482   6.605
 8844SOL    HW127431   6.050   2.505   6.696
 8844SOL    HW227432   6.089   2.450   6.547
 8845SOL     OW27433   3.807   3.585   0.193
 8845SOL    HW127434   3.825   3.616   0.100
 8845SOL    HW227435   3.890   3.593   0.248
 8846SOL     OW27436   3.470   6.019   3.638
 8846SOL    HW127437   3.519   6.051   3.719
 8846SOL    HW227438   3.530   6.026   3.558
 8847SOL     OW27439   2.893   1.914   3.119
 8847SOL    HW127440   2.973   1.960   3.158
 8847SOL    HW227441   2.812   1.937   3.173
 8848SOL     OW27442   2.657   0.779   1.874
 8848SOL    HW127443   2.599   0.759   1.795
 8848SOL    HW227444   2.749   0.805   1.842
 8849SOL     OW27445   3.624   6.224   3.167
 8849SOL    HW127446   3.693   6.153   3.179
 8849SOL    HW227447   3.561   6.198   3.095
 8850SOL     OW27448   1.553   2.609   6.844
 8850SOL    HW127449   1.571   2.617   6.746
 8850SOL    HW227450   1.495   2.686   6.873
 8851SOL     OW27451   1.313   3.857   3.168
 8851SOL    HW127452   1.259   3.789   3.118
 8851SOL    HW227453   1.292   3.850   3.266
 8852SOL     OW27454   0.386   2.141   4.986
 8852SOL    HW127455   0.387   2.049   5.025
 8852SOL    HW227456   0.292   2.167   4.964
 8853SOL     OW27457   2.961   0.746   1.697
 8853SOL    HW127458   2.937   0.827   1.751
 8853SOL    HW227459   2.911   0.667   1.732
 8854SOL     OW27460   2.068   2.591   5.534
 8854SOL    HW127461   2.121   2.667   5.496
 8854SOL    HW227462   1.973   2.620   5.548
 8855SOL     OW27463   6.558   4.825   1.180
 8855SOL    HW127464   6.466   4.812   1.144
 8855SOL    HW227465   6.606   4.737   1.182
 8856SOL     OW27466   0.984   6.582   6.650
 8856SOL    HW127467   0.930   6.662   6.674
 8856SOL    HW227468   0.986   6.571   6.551
 8857SOL     OW27469   6.380   1.671   4.077
 8857SOL    HW127470   6.362   1.764   4.111
 8857SOL    HW227471   6.463   1.672   4.021
 8858SOL     OW27472   6.900   3.760   4.471
 8858SOL    HW127473   6.807   3.741   4.438
 8858SOL    HW227474   6.955   3.677   4.465
 8859SOL     OW27475   1.406   1.469   3.853
 8859SOL    HW127476   1.415   1.477   3.754
 8859SOL    HW227477   1.381   1.558   3.891
 8860SOL     OW27478   6.824   2.327   1.292
 8860SOL    HW127479   6.923   2.321   1.306
 8860SOL    HW227480   6.778   2.263   1.354
 8861SOL     OW27481   3.802   1.292   5.821
 8861SOL    HW127482   3.857   1.291   5.905
 8861SOL    HW227483   3.770   1.385   5.803
 8862SOL     OW27484   5.780   6.852   3.646
 8862SOL    HW127485   5.873   6.886   3.664
 8862SOL    HW227486   5.786   6.758   3.612
 8863SOL     OW27487   2.869   4.853   3.777
 8863SOL    HW127488   2.864   4.864   3.877
 8863SOL    HW227489   2.809   4.778   3.749
 8864SOL     OW27490   3.289   4.898   6.432
 8864SOL    HW127491   3.253   4.835   6.500
 8864SOL    HW227492   3.361   4.954   6.473
 8865SOL     OW27493   2.976   0.842   4.558
 8865SOL    HW127494   3.059   0.789   4.549
 8865SOL    HW227495   2.921   0.807   4.634
 8866SOL     OW27496   5.598   6.760   2.810
 8866SOL    HW127497   5.506   6.724   2.827
 8866SOL    HW227498   5.608   6.781   2.712
 8867SOL     OW27499   5.729   4.630   3.730
 8867SOL    HW127500   5.793   4.685   3.784
 8867SOL    HW227501   5.687   4.687   3.659
 8868SOL     OW27502   6.963   2.954   2.132
 8868SOL    HW127503   0.024   2.966   2.070
 8868SOL    HW227504   6.992   2.900   2.211
 8869SOL     OW27505   3.888   5.955   5.064
 8869SOL    HW127506   3.827   6.033   5.050
 8869SOL    HW227507   3.972   5.968   5.012
 8870SOL     OW27508   2.236   6.792   2.198
 8870SOL    HW127509   2.256   6.805   2.101
 8870SOL    HW227510   2.322   6.785   2.249
 8871SOL     OW27511   1.938   0.079   3.489
 8871SOL    HW127512   1.870   0.129   3.436
 8871SOL    HW227513   2.005   0.143   3.526
 8872SOL     OW27514   1.367   5.045   6.003
 8872SOL    HW127515   1.382   4.947   6.013
 8872SOL    HW227516   1.367   5.088   6.093
 8873SOL     OW27517   2.070   6.868   2.397
 8873SOL    HW127518   2.113   6.844   2.310
 8873SOL    HW227519   1.994   6.930   2.381
 8874SOL     OW27520   2.158   5.725   2.031
 8874SOL    HW127521   2.098   5.672   2.091
 8874SOL    HW227522   2.243   5.747   2.079
 8875SOL     OW27523   6.389   3.411   4.709
 8875SOL    HW127524   6.369   3.418   4.611
 8875SOL    HW227525   6.472   3.463   4.730
 8876SOL     OW27526   2.443   0.731   5.787
 8876SOL    HW127527   2.539   0.703   5.782
 8876SOL    HW227528   2.405   0.736   5.695
 8877SOL     OW27529   2.560   2.540   4.120
 8877SOL    HW127530   2.469   2.572   4.095
 8877SOL    HW227531   2.552   2.454   4.170
 8878SOL     OW27532   3.812   4.823   1.339
 8878SOL    HW127533   3.908   4.797   1.347
 8878SOL    HW227534   3.763   4.755   1.285
 8879SOL     OW27535   4.655   4.976   2.381
 8879SOL    HW127536   4.645   5.071   2.349
 8879SOL    HW227537   4.568   4.945   2.420
 8880SOL     OW27538   3.906   6.695   4.732
 8880SOL    HW127539   3.950   6.778   4.697
 8880SOL    HW227540   3.961   6.616   4.706
 8881SOL     OW27541   5.293   5.782   4.292
 8881SOL    HW127542   5.288   5.882   4.294
 8881SOL    HW227543   5.388   5.753   4.281
 8882SOL     OW27544   4.912   1.124   1.201
 8882SOL    HW127545   4.864   1.165   1.279
 8882SOL    HW227546   4.988   1.068   1.234
 8883SOL     OW27547   2.126   6.390   6.318
 8883SOL    HW127548   2.073   6.471   6.340
 8883SOL    HW227549   2.223   6.414   6.311
 8884SOL     OW27550   5.922   3.350   5.990
 8884SOL    HW127551   5.964   3.439   5.970
 8884SOL    HW227552   5.993   3.280   5.992
 8885SOL     OW27553   5.017   4.664   0.888
 8885SOL    HW127554   5.041   4.578   0.933
 8885SOL    HW227555   5.100   4.715   0.868
 8886SOL     OW27556   3.214   5.909   5.386
 8886SOL    HW127557   3.289   5.961   5.343
 8886SOL    HW227558   3.179   5.961   5.463
 8887SOL     OW27559   4.014   0.874   0.745
 8887SOL    HW127560   4.092   0.869   0.806
 8887SOL    HW227561   3.934   0.833   0.788
 8888SOL     OW27562   2.339   2.002   5.127
 8888SOL    HW127563   2.417   2.015   5.066
 8888SOL    HW227564   2.255   2.030   5.080
 8889SOL     OW27565   6.366   6.894   6.954
 8889SOL    HW127566   6.370   6.876   0.036
 8889SOL    HW227567   6.303   6.830   6.911
 8890SOL     OW27568   0.315   5.772   5.667
 8890SOL    HW127569   0.391   5.753   5.729
 8890SOL    HW227570   0.274   5.860   5.691
 8891SOL     OW27571   3.833   4.093   0.298
 8891SOL    HW127572   3.805   4.025   0.230
 8891SOL    HW227573   3.838   4.050   0.388
 8892SOL     OW27574   3.378   4.875   3.497
 8892SOL    HW127575   3.418   4.934   3.567
 8892SOL    HW227576   3.437   4.796   3.481
 8893SOL     OW27577   1.140   5.040   4.868
 8893SOL    HW127578   1.083   4.975   4.918
 8893SOL    HW227579   1.085   5.117   4.837
 8894SOL     OW27580   3.213   2.125   6.424
 8894SOL    HW127581   3.264   2.046   6.458
 8894SOL    HW227582   3.274   2.186   6.375
 8895SOL     OW27583   6.677   2.117   1.394
 8895SOL    HW127584   6.581   2.113   1.364
 8895SOL    HW227585   6.681   2.111   1.494
 8896SOL     OW27586   2.181   3.030   4.818
 8896SOL    HW127587   2.157   2.946   4.867
 8896SOL    HW227588   2.211   3.099   4.884
 8897SOL     OW27589   2.299   2.584   3.835
 8897SOL    HW127590   2.263   2.677   3.841
 8897SOL    HW227591   2.252   2.525   3.901
 8898SOL     OW27592   5.116   3.130   2.278
 8898SOL    HW127593   5.181   3.150   2.204
 8898SOL    HW227594   5.023   3.144   2.245
 8899SOL     OW27595   1.697   4.492   0.476
 8899SOL    HW127596   1.761   4.563   0.446
 8899SOL    HW227597   1.611   4.500   0.425
 8900SOL     OW27598   5.227   3.200   3.127
 8900SOL    HW127599   5.314   3.249   3.138
 8900SOL    HW227600   5.180   3.196   3.215
 8901SOL     OW27601   0.544   1.174   4.417
 8901SOL    HW127602   0.626   1.116   4.419
 8901SOL    HW227603   0.521   1.196   4.322
 8902SOL     OW27604   1.108   5.679   0.104
 8902SOL    HW127605   1.203   5.662   0.128
 8902SOL    HW227606   1.100   5.770   0.062
 8903SOL     OW27607   0.772   1.889   4.109
 8903SOL    HW127608   0.821   1.803   4.121
 8903SOL    HW227609   0.833   1.965   4.132
 8904SOL     OW27610   0.576   1.116   4.782
 8904SOL    HW127611   0.541   1.024   4.767
 8904SOL    HW227612   0.516   1.182   4.738
 8905SOL     OW27613   2.001   3.083   2.854
 8905SOL    HW127614   1.977   3.036   2.769
 8905SOL    HW227615   2.089   3.130   2.843
 8906SOL     OW27616   0.849   6.242   1.234
 8906SOL    HW127617   0.787   6.166   1.218
 8906SOL    HW227618   0.798   6.321   1.267
 8907SOL     OW27619   3.223   3.087   5.694
 8907SOL    HW127620   3.200   3.078   5.791
 8907SOL    HW227621   3.311   3.043   5.676
 8908SOL     OW27622   1.894   6.174   0.494
 8908SOL    HW127623   1.802   6.180   0.531
 8908SOL    HW227624   1.928   6.266   0.472
 8909SOL     OW27625   3.036   1.183   5.873
 8909SOL    HW127626   3.131   1.195   5.845
 8909SOL    HW227627   3.033   1.151   5.968
 8910SOL     OW27628   0.863   2.798   5.343
 8910SOL    HW127629   0.908   2.726   5.290
 8910SOL    HW227630   0.799   2.757   5.408
 8911SOL     OW27631   4.926   3.349   4.915
 8911SOL    HW127632   4.875   3.432   4.938
 8911SOL    HW227633   4.956   3.353   4.820
 8912SOL     OW27634   2.378   3.477   6.309
 8912SOL    HW127635   2.451   3.424   6.352
 8912SOL    HW227636   2.289   3.439   6.335
 8913SOL     OW27637   4.048   5.188   6.547
 8913SOL    HW127638   3.997   5.127   6.607
 8913SOL    HW227639   4.035   5.282   6.577
 8914SOL     OW27640   4.887   0.629   4.906
 8914SOL    HW127641   4.842   0.712   4.941
 8914SOL    HW227642   4.817   0.559   4.889
 8915SOL     OW27643   1.893   2.125   4.240
 8915SOL    HW127644   1.855   2.071   4.314
 8915SOL    HW227645   1.900   2.070   4.157
 8916SOL     OW27646   6.618   3.185   6.970
 8916SOL    HW127647   6.645   3.134   0.035
 8916SOL    HW227648   6.678   3.160   6.893
 8917SOL     OW27649   5.581   2.541   0.836
 8917SOL    HW127650   5.494   2.571   0.875
 8917SOL    HW227651   5.564   2.478   0.760
 8918SOL     OW27652   1.038   4.680   0.437
 8918SOL    HW127653   1.035   4.767   0.388
 8918SOL    HW227654   1.095   4.691   0.519
 8919SOL     OW27655   5.180   4.219   0.127
 8919SOL    HW127656   5.083   4.244   0.135
 8919SOL    HW227657   5.201   4.147   0.193
 8920SOL     OW27658   0.105   2.070   6.867
 8920SOL    HW127659   0.179   2.034   6.924
 8920SOL    HW227660   0.079   2.161   6.900
 8921SOL     OW27661   1.858   3.104   2.344
 8921SOL    HW127662   1.956   3.112   2.325
 8921SOL    HW227663   1.819   3.195   2.355
 8922SOL     OW27664   4.056   5.305   2.141
 8922SOL    HW127665   4.077   5.392   2.186
 8922SOL    HW227666   4.083   5.230   2.201
 8923SOL     OW27667   1.509   1.673   6.819
 8923SOL    HW127668   1.519   1.724   6.733
 8923SOL    HW227669   1.542   1.580   6.806
 8924SOL     OW27670   4.258   5.409   5.131
 8924SOL    HW127671   4.230   5.505   5.125
 8924SOL    HW227672   4.234   5.362   5.047
 8925SOL     OW27673   0.745   0.812   2.725
 8925SOL    HW127674   0.661   0.866   2.724
 8925SOL    HW227675   0.810   0.849   2.659
 8926SOL     OW27676   6.774   3.053   5.999
 8926SOL    HW127677   6.848   3.074   5.936
 8926SOL    HW227678   6.693   3.106   5.975
 8927SOL     OW27679   6.118   1.162   4.215
 8927SOL    HW127680   6.216   1.180   4.216
 8927SOL    HW227681   6.102   1.063   4.218
 8928SOL     OW27682   1.292   0.329   6.131
 8928SOL    HW127683   1.391   0.339   6.140
 8928SOL    HW227684   1.264   0.240   6.166
 8929SOL     OW27685   5.939   2.068   5.075
 8929SOL    HW127686   5.931   2.091   5.172
 8929SOL    HW227687   6.001   1.991   5.064
 8930SOL     OW27688   1.014   2.828   3.598
 8930SOL    HW127689   1.035   2.757   3.665
 8930SOL    HW227690   1.020   2.790   3.505
 8931SOL     OW27691   3.108   3.724   1.227
 8931SOL    HW127692   3.087   3.740   1.131
 8931SOL    HW227693   3.044   3.657   1.265
 8932SOL     OW27694   6.009   1.963   2.304
 8932SOL    HW127695   5.991   1.882   2.249
 8932SOL    HW227696   5.934   1.979   2.367
 8933SOL     OW27697   2.581   2.494   6.051
 8933SOL    HW127698   2.673   2.527   6.031
 8933SOL    HW227699   2.586   2.420   6.118
 8934SOL     OW27700   2.659   5.329   4.880
 8934SOL    HW127701   2.734   5.346   4.945
 8934SOL    HW227702   2.695   5.285   4.798
 8935SOL     OW27703   0.552   4.568   0.392
 8935SOL    HW127704   0.470   4.592   0.341
 8935SOL    HW227705   0.569   4.470   0.383
 8936SOL     OW27706   1.201   4.519   1.871
 8936SOL    HW127707   1.101   4.513   1.881
 8936SOL    HW227708   1.228   4.615   1.871
 8937SOL     OW27709   0.501   0.289   5.993
 8937SOL    HW127710   0.520   0.262   6.088
 8937SOL    HW227711   0.428   0.357   5.992
 8938SOL     OW27712   0.277   5.878   0.809
 8938SOL    HW127713   0.236   5.819   0.740
 8938SOL    HW227714   0.317   5.959   0.765
 8939SOL     OW27715   4.984   2.770   3.996
 8939SOL    HW127716   4.892   2.756   4.032
 8939SOL    HW227717   4.982   2.762   3.896
 8940SOL     OW27718   0.332   1.144   2.303
 8940SOL    HW127719   0.321   1.075   2.231
 8940SOL    HW227720   0.429   1.159   2.321
 8941SOL     OW27721   6.641   2.463   5.272
 8941SOL    HW127722   6.557   2.488   5.321
 8941SOL    HW227723   6.656   2.527   5.197
 8942SOL     OW27724   6.836   4.666   5.113
 8942SOL    HW127725   6.881   4.584   5.149
 8942SOL    HW227726   6.890   4.703   5.037
 8943SOL     OW27727   3.555   4.400   6.061
 8943SOL    HW127728   3.546   4.384   5.963
 8943SOL    HW227729   3.547   4.498   6.081
 8944SOL     OW27730   5.478   4.606   5.079
 8944SOL    HW127731   5.552   4.671   5.068
 8944SOL    HW227732   5.438   4.586   4.989
 8945SOL     OW27733   0.611   0.754   3.162
 8945SOL    HW127734   0.514   0.757   3.141
 8945SOL    HW227735   0.659   0.821   3.105
 8946SOL     OW27736   3.303   1.219   5.164
 8946SOL    HW127737   3.348   1.164   5.093
 8946SOL    HW227738   3.214   1.179   5.186
 8947SOL     OW27739   1.986   3.642   5.346
 8947SOL    HW127740   1.917   3.714   5.350
 8947SOL    HW227741   2.033   3.647   5.258
 8948SOL     OW27742   6.740   6.659   4.341
 8948SOL    HW127743   6.795   6.576   4.344
 8948SOL    HW227744   6.643   6.635   4.348
 8949SOL     OW27745   2.466   6.759   0.976
 8949SOL    HW127746   2.536   6.824   1.006
 8949SOL    HW227747   2.424   6.716   1.055
 8950SOL     OW27748   4.552   4.346   6.309
 8950SOL    HW127749   4.532   4.428   6.362
 8950SOL    HW227750   4.649   4.325   6.314
 8951SOL     OW27751   0.966   1.958   5.360
 8951SOL    HW127752   0.873   1.978   5.392
 8951SOL    HW227753   0.971   1.972   5.261
 8952SOL     OW27754   1.285   6.854   2.261
 8952SOL    HW127755   1.282   6.830   2.358
 8952SOL    HW227756   1.209   6.915   2.239
 8953SOL     OW27757   1.262   4.293   6.819
 8953SOL    HW127758   1.305   4.381   6.837
 8953SOL    HW227759   1.333   4.223   6.806
 8954SOL     OW27760   0.908   0.299   6.071
 8954SOL    HW127761   0.946   0.244   5.997
 8954SOL    HW227762   0.843   0.245   6.123
 8955SOL     OW27763   0.324   5.361   2.211
 8955SOL    HW127764   0.326   5.261   2.206
 8955SOL    HW227765   0.389   5.392   2.280
 8956SOL     OW27766   0.863   1.992   6.540
 8956SOL    HW127767   0.953   2.024   6.567
 8956SOL    HW227768   0.828   1.929   6.610
 8957SOL     OW27769   2.884   4.181   1.743
 8957SOL    HW127770   2.923   4.125   1.817
 8957SOL    HW227771   2.903   4.277   1.761
 8958SOL     OW27772   0.026   0.499   4.676
 8958SOL    HW127773   6.984   0.421   4.657
 8958SOL    HW227774   7.000   0.583   4.641
 8959SOL     OW27775   1.631   4.973   1.596
 8959SOL    HW127776   1.658   4.908   1.525
 8959SOL    HW227777   1.532   4.986   1.592
 8960SOL     OW27778   4.645   4.760   2.946
 8960SOL    HW127779   4.713   4.814   2.897
 8960SOL    HW227780   4.650   4.780   3.044
 8961SOL     OW27781   2.784   1.526   4.714
 8961SOL    HW127782   2.855   1.477   4.763
 8961SOL    HW227783   2.788   1.502   4.617
 8962SOL     OW27784   7.013   6.147   1.901
 8962SOL    HW127785   0.011   6.216   1.973
 8962SOL    HW227786   7.015   6.192   1.811
 8963SOL     OW27787   4.956   6.436   4.146
 8963SOL    HW127788   4.936   6.368   4.075
 8963SOL    HW227789   4.921   6.525   4.117
 8964SOL     OW27790   5.013   3.540   3.358
 8964SOL    HW127791   5.004   3.456   3.304
 8964SOL    HW227792   5.058   3.518   3.445
 8965SOL     OW27793   2.469   4.727   0.680
 8965SOL    HW127794   2.400   4.668   0.724
 8965SOL    HW227795   2.508   4.789   0.748
 8966SOL     OW27796   6.788   4.035   6.229
 8966SOL    HW127797   6.848   4.010   6.152
 8966SOL    HW227798   6.718   3.964   6.240
 8967SOL     OW27799   3.578   0.135   1.996
 8967SOL    HW127800   3.480   0.153   1.987
 8967SOL    HW227801   3.617   0.197   2.064
 8968SOL     OW27802   5.192   5.185   3.350
 8968SOL    HW127803   5.112   5.126   3.363
 8968SOL    HW227804   5.264   5.157   3.414
 8969SOL     OW27805   6.670   1.174   4.635
 8969SOL    HW127806   6.642   1.181   4.731
 8969SOL    HW227807   6.620   1.100   4.590
 8970SOL     OW27808   2.972   3.580   0.258
 8970SOL    HW127809   2.986   3.569   0.356
 8970SOL    HW227810   2.888   3.532   0.231
 8971SOL     OW27811   4.885   5.405   1.984
 8971SOL    HW127812   4.844   5.315   1.970
 8971SOL    HW227813   4.953   5.399   2.057
 8972SOL     OW27814   5.257   4.163   6.695
 8972SOL    HW127815   5.192   4.230   6.658
 8972SOL    HW227816   5.212   4.110   6.767
 8973SOL     OW27817   1.379   3.475   2.119
 8973SOL    HW127818   1.429   3.537   2.058
 8973SOL    HW227819   1.342   3.527   2.196
 8974SOL     OW27820   1.901   4.537   5.788
 8974SOL    HW127821   1.961   4.616   5.779
 8974SOL    HW227822   1.811   4.558   5.751
 8975SOL     OW27823   2.183   7.004   6.634
 8975SOL    HW127824   2.204   6.907   6.650
 8975SOL    HW227825   2.240   0.022   6.561
 8976SOL     OW27826   0.294   5.157   5.086
 8976SOL    HW127827   0.204   5.170   5.128
 8976SOL    HW227828   0.327   5.065   5.105
 8977SOL     OW27829   6.080   2.260   0.173
 8977SOL    HW127830   6.117   2.330   0.113
 8977SOL    HW227831   6.039   2.303   0.253
 8978SOL     OW27832   5.632   0.307   5.390
 8978SOL    HW127833   5.617   0.240   5.317
 8978SOL    HW227834   5.592   0.395   5.363
 8979SOL     OW27835   1.167   3.532   4.700
 8979SOL    HW127836   1.149   3.437   4.676
 8979SOL    HW227837   1.258   3.558   4.667
 8980SOL     OW27838   2.429   2.893   5.771
 8980SOL    HW127839   2.504   2.846   5.724
 8980SOL    HW227840   2.394   2.967   5.714
 8981SOL     OW27841   4.216   2.013   5.300
 8981SOL    HW127842   4.213   1.964   5.387
 8981SOL    HW227843   4.133   1.993   5.248
 8982SOL     OW27844   1.448   2.477   1.213
 8982SOL    HW127845   1.511   2.483   1.136
 8982SOL    HW227846   1.356   2.503   1.185
 8983SOL     OW27847   1.510   6.826   6.976
 8983SOL    HW127848   1.466   6.915   6.991
 8983SOL    HW227849   1.453   6.769   6.917
 8984SOL     OW27850   0.190   0.394   4.435
 8984SOL    HW127851   0.249   0.388   4.354
 8984SOL    HW227852   0.206   0.314   4.493
 8985SOL     OW27853   2.192   3.774   0.420
 8985SOL    HW127854   2.251   3.694   0.412
 8985SOL    HW227855   2.118   3.754   0.484
 8986SOL     OW27856   5.131   5.138   2.465
 8986SOL    HW127857   5.156   5.061   2.523
 8986SOL    HW227858   5.036   5.163   2.480
 8987SOL     OW27859   4.479   6.716   1.871
 8987SOL    HW127860   4.403   6.655   1.891
 8987SOL    HW227861   4.444   6.808   1.855
 8988SOL     OW27862   1.434   3.927   4.975
 8988SOL    HW127863   1.344   3.931   5.017
 8988SOL    HW227864   1.453   4.013   4.928
 8989SOL     OW27865   4.984   3.998   0.788
 8989SOL    HW127866   4.885   4.007   0.785
 8989SOL    HW227867   5.009   3.903   0.801
 8990SOL     OW27868   1.602   6.058   3.828
 8990SOL    HW127869   1.503   6.040   3.827
 8990SOL    HW227870   1.624   6.116   3.907
 8991SOL     OW27871   1.834   2.173   6.141
 8991SOL    HW127872   1.812   2.225   6.223
 8991SOL    HW227873   1.933   2.155   6.139
 8992SOL     OW27874   5.303   1.650   6.972
 8992SOL    HW127875   5.356   1.707   6.909
 8992SOL    HW227876   5.208   1.679   6.970
 8993SOL     OW27877   5.250   2.609   2.096
 8993SOL    HW127878   5.256   2.684   2.162
 8993SOL    HW227879   5.175   2.626   2.032
 8994SOL     OW27880   1.388   4.299   4.514
 8994SOL    HW127881   1.457   4.325   4.581
 8994SOL    HW227882   1.335   4.222   4.548
 8995SOL     OW27883   1.490   3.004   0.055
 8995SOL    HW127884   1.512   2.962   0.142
 8995SOL    HW227885   1.549   3.083   0.040
 8996SOL     OW27886   6.134   5.297   0.433
 8996SOL    HW127887   6.167   5.237   0.506
 8996SOL    HW227888   6.174   5.388   0.445
 8997SOL     OW27889   5.099   1.572   6.304
 8997SOL    HW127890   5.074   1.565   6.208
 8997SOL    HW227891   5.176   1.635   6.313
 8998SOL     OW27892   6.007   3.816   3.988
 8998SOL    HW127893   5.913   3.789   4.009
 8998SOL    HW227894   6.070   3.749   4.028
 8999SOL     OW27895   4.723   5.923   6.526
 8999SOL    HW127896   4.653   5.991   6.501
 8999SOL    HW227897   4.733   5.922   6.625
 9000SOL     OW27898   1.698   4.081   1.019
 9000SOL    HW127899   1.609   4.112   1.050
 9000SOL    HW227900   1.705   3.982   1.031
 9001SOL     OW27901   1.489   5.599   2.180
 9001SOL    HW127902   1.578   5.605   2.226
 9001SOL    HW227903   1.502   5.612   2.081
 9002SOL     OW27904   0.483   5.078   5.418
 9002SOL    HW127905   0.436   5.033   5.494
 9002SOL    HW227906   0.500   5.012   5.346
 9003SOL     OW27907   5.589   3.257   1.669
 9003SOL    HW127908   5.504   3.213   1.638
 9003SOL    HW227909   5.651   3.268   1.592
 9004SOL     OW27910   4.098   6.297   1.267
 9004SOL    HW127911   4.072   6.348   1.349
 9004SOL    HW227912   4.182   6.337   1.228
 9005SOL     OW27913   5.653   2.776   4.326
 9005SOL    HW127914   5.556   2.775   4.350
 9005SOL    HW227915   5.701   2.706   4.380
 9006SOL     OW27916   2.637   5.579   1.438
 9006SOL    HW127917   2.656   5.673   1.412
 9006SOL    HW227918   2.538   5.563   1.437
 9007SOL     OW27919   3.316   1.196   3.570
 9007SOL    HW127920   3.332   1.111   3.520
 9007SOL    HW227921   3.241   1.247   3.526
 9008SOL     OW27922   1.480   5.551   3.610
 9008SOL    HW127923   1.477   5.635   3.556
 9008SOL    HW227924   1.390   5.507   3.607
 9009SOL     OW27925   2.808   6.737   0.998
 9009SOL    HW127926   2.764   6.682   0.928
 9009SOL    HW227927   2.876   6.797   0.955
 9010SOL     OW27928   1.567   6.398   4.178
 9010SOL    HW127929   1.480   6.421   4.135
 9010SOL    HW227930   1.594   6.471   4.241
 9011SOL     OW27931   4.876   1.723   2.295
 9011SOL    HW127932   4.803   1.676   2.245
 9011SOL    HW227933   4.963   1.711   2.247
 9012SOL     OW27934   2.084   4.033   0.382
 9012SOL    HW127935   1.991   4.026   0.346
 9012SOL    HW227936   2.136   3.952   0.356
 9013SOL     OW27937   0.267   6.753   5.254
 9013SOL    HW127938   0.213   6.824   5.208
 9013SOL    HW227939   0.363   6.779   5.251
 9014SOL     OW27940   6.558   1.851   0.084
 9014SOL    HW127941   6.615   1.885   0.159
 9014SOL    HW227942   6.616   1.823   0.007
 9015SOL     OW27943   4.574   1.491   1.755
 9015SOL    HW127944   4.513   1.568   1.769
 9015SOL    HW227945   4.669   1.523   1.756
 9016SOL     OW27946   0.229   6.778   6.758
 9016SOL    HW127947   0.172   6.709   6.714
 9016SOL    HW227948   0.184   6.867   6.751
 9017SOL     OW27949   4.397   1.962   3.550
 9017SOL    HW127950   4.302   1.992   3.559
 9017SOL    HW227951   4.442   1.963   3.640
 9018SOL     OW27952   3.903   2.750   6.864
 9018SOL    HW127953   3.877   2.735   6.959
 9018SOL    HW227954   3.889   2.665   6.812
 9019SOL     OW27955   1.491   5.697   1.938
 9019SOL    HW127956   1.433   5.779   1.939
 9019SOL    HW227957   1.512   5.673   1.843
 9020SOL     OW27958   6.877   3.543   0.651
 9020SOL    HW127959   6.785   3.563   0.685
 9020SOL    HW227960   6.893   3.444   0.655
 9021SOL     OW27961   6.614   6.874   3.333
 9021SOL    HW127962   6.576   6.782   3.339
 9021SOL    HW227963   6.588   6.914   3.245
 9022SOL     OW27964   3.374   1.449   6.751
 9022SOL    HW127965   3.368   1.357   6.788
 9022SOL    HW227966   3.467   1.484   6.765
 9023SOL     OW27967   3.503   2.845   2.509
 9023SOL    HW127968   3.481   2.751   2.484
 9023SOL    HW227969   3.423   2.904   2.493
 9024SOL     OW27970   0.789   4.407   4.878
 9024SOL    HW127971   0.851   4.390   4.801
 9024SOL    HW227972   0.727   4.329   4.888
 9025SOL     OW27973   0.629   5.341   1.019
 9025SOL    HW127974   0.627   5.286   1.103
 9025SOL    HW227975   0.659   5.285   0.942
 9026SOL     OW27976   3.814   2.984   0.584
 9026SOL    HW127977   3.737   2.987   0.648
 9026SOL    HW227978   3.816   2.895   0.539
 9027SOL     OW27979   1.754   2.631   3.112
 9027SOL    HW127980   1.783   2.711   3.060
 9027SOL    HW227981   1.818   2.555   3.094
 9028SOL     OW27982   3.003   3.669   5.368
 9028SOL    HW127983   3.026   3.724   5.288
 9028SOL    HW227984   2.977   3.577   5.340
 9029SOL     OW27985   4.311   6.527   4.810
 9029SOL    HW127986   4.242   6.541   4.739
 9029SOL    HW227987   4.380   6.599   4.804
 9030SOL     OW27988   2.738   1.612   3.522
 9030SOL    HW127989   2.747   1.710   3.502
 9030SOL    HW227990   2.745   1.598   3.620
 9031SOL     OW27991   3.917   6.356   4.423
 9031SOL    HW127992   3.907   6.339   4.325
 9031SOL    HW227993   3.957   6.276   4.467
 9032SOL     OW27994   3.855   3.927   0.533
 9032SOL    HW127995   3.816   3.852   0.480
 9032SOL    HW227996   3.947   3.901   0.564
 9033SOL     OW27997   0.239   3.871   2.947
 9033SOL    HW127998   0.197   3.850   3.035
 9033SOL    HW227999   0.174   3.922   2.890
 9034SOL     OW28000   3.149   6.974   5.242
 9034SOL    HW128001   3.168   7.007   5.335
 9034SOL    HW228002   3.232   6.933   5.204
 9035SOL     OW28003   2.110   5.100   6.398
 9035SOL    HW128004   2.177   5.145   6.340
 9035SOL    HW228005   2.152   5.020   6.442
 9036SOL     OW28006   1.531   1.623   5.317
 9036SOL    HW128007   1.491   1.553   5.376
 9036SOL    HW228008   1.623   1.596   5.289
 9037SOL     OW28009   1.035   3.917   4.772
 9037SOL    HW128010   0.997   3.829   4.743
 9037SOL    HW228011   0.996   3.943   4.860
 9038SOL     OW28012   4.321   0.929   5.952
 9038SOL    HW128013   4.310   0.999   5.881
 9038SOL    HW228014   4.371   0.851   5.913
 9039SOL     OW28015   2.142   5.563   5.166
 9039SOL    HW128016   2.219   5.515   5.208
 9039SOL    HW228017   2.059   5.545   5.218
 9040SOL     OW28018   3.684   1.939   2.613
 9040SOL    HW128019   3.623   1.896   2.546
 9040SOL    HW228020   3.729   2.018   2.570
 9041SOL     OW28021   0.972   2.047   1.626
 9041SOL    HW128022   0.949   2.120   1.690
 9041SOL    HW228023   1.058   2.004   1.655
 9042SOL     OW28024   3.692   0.098   5.170
 9042SOL    HW128025   3.678   0.037   5.249
 9042SOL    HW228026   3.711   0.043   5.089
 9043SOL     OW28027   1.124   0.627   6.916
 9043SOL    HW128028   1.199   0.589   6.971
 9043SOL    HW228029   1.162   0.676   6.837
 9044SOL     OW28030   6.243   0.546   0.329
 9044SOL    HW128031   6.198   0.457   0.332
 9044SOL    HW228032   6.271   0.566   0.235
 9045SOL     OW28033   2.576   2.066   2.685
 9045SOL    HW128034   2.486   2.049   2.646
 9045SOL    HW228035   2.565   2.108   2.775
 9046SOL     OW28036   3.308   3.591   2.879
 9046SOL    HW128037   3.278   3.503   2.916
 9046SOL    HW228038   3.408   3.593   2.875
 9047SOL     OW28039   1.814   4.176   5.011
 9047SOL    HW128040   1.891   4.163   5.072
 9047SOL    HW228041   1.841   4.235   4.935
 9048SOL     OW28042   5.633   3.596   6.000
 9048SOL    HW128043   5.534   3.608   5.998
 9048SOL    HW228044   5.677   3.674   5.954
 9049SOL     OW28045   3.762   6.913   5.977
 9049SOL    HW128046   3.758   6.913   5.877
 9049SOL    HW228047   3.726   6.999   6.012
 9050SOL     OW28048   0.386   3.014   0.464
 9050SOL    HW128049   0.315   3.073   0.503
 9050SOL    HW228050   0.461   3.071   0.430
 9051SOL     OW28051   3.782   0.181   0.917
 9051SOL    HW128052   3.724   0.214   0.991
 9051SOL    HW228053   3.783   0.248   0.843
 9052SOL     OW28054   2.864   2.307   4.342
 9052SOL    HW128055   2.891   2.213   4.363
 9052SOL    HW228056   2.796   2.307   4.269
 9053SOL     OW28057   2.072   0.609   2.660
 9053SOL    HW128058   2.095   0.670   2.737
 9053SOL    HW228059   2.092   0.515   2.685
 9054SOL     OW28060   3.164   6.098   3.660
 9054SOL    HW128061   3.076   6.052   3.647
 9054SOL    HW228062   3.231   6.058   3.596
 9055SOL     OW28063   6.256   2.739   4.080
 9055SOL    HW128064   6.186   2.809   4.097
 9055SOL    HW228065   6.240   2.697   3.991
 9056SOL     OW28066   0.450   2.368   1.925
 9056SOL    HW128067   0.373   2.412   1.880
 9056SOL    HW228068   0.498   2.310   1.859
 9057SOL     OW28069   5.037   3.710   6.359
 9057SOL    HW128070   4.965   3.760   6.310
 9057SOL    HW228071   5.116   3.770   6.370
 9058SOL     OW28072   2.474   1.111   1.672
 9058SOL    HW128073   2.466   1.121   1.771
 9058SOL    HW228074   2.552   1.165   1.640
 9059SOL     OW28075   1.162   1.771   3.729
 9059SOL    HW128076   1.232   1.750   3.798
 9059SOL    HW228077   1.179   1.860   3.689
 9060SOL     OW28078   6.000   2.930   3.846
 9060SOL    HW128079   6.036   2.852   3.794
 9060SOL    HW228080   5.907   2.908   3.877
 9061SOL     OW28081   2.054   5.194   1.834
 9061SOL    HW128082   2.032   5.279   1.787
 9061SOL    HW228083   2.002   5.119   1.793
 9062SOL     OW28084   2.093   6.579   2.332
 9062SOL    HW128085   2.013   6.611   2.384
 9062SOL    HW228086   2.142   6.657   2.295
 9063SOL     OW28087   3.508   0.360   3.605
 9063SOL    HW128088   3.461   0.387   3.689
 9063SOL    HW228089   3.584   0.299   3.628
 9064SOL     OW28090   6.271   2.285   5.550
 9064SOL    HW128091   6.371   2.286   5.543
 9064SOL    HW228092   6.233   2.363   5.499
 9065SOL     OW28093   3.736   0.335   6.276
 9065SOL    HW128094   3.755   0.387   6.193
 9065SOL    HW228095   3.665   0.382   6.329
 9066SOL     OW28096   4.684   6.676   0.678
 9066SOL    HW128097   4.588   6.676   0.703
 9066SOL    HW228098   4.740   6.650   0.757
 9067SOL     OW28099   0.991   0.309   4.874
 9067SOL    HW128100   0.957   0.366   4.798
 9067SOL    HW228101   0.914   0.268   4.921
 9068SOL     OW28102   2.324   6.808   4.878
 9068SOL    HW128103   2.278   6.740   4.821
 9068SOL    HW228104   2.256   6.851   4.939
 9069SOL     OW28105   1.404   3.495   1.488
 9069SOL    HW128106   1.313   3.455   1.482
 9069SOL    HW228107   1.453   3.478   1.403
 9070SOL     OW28108   1.275   2.972   4.943
 9070SOL    HW128109   1.321   2.993   5.029
 9070SOL    HW228110   1.269   3.055   4.887
 9071SOL     OW28111   5.930   6.460   1.899
 9071SOL    HW128112   5.865   6.385   1.893
 9071SOL    HW228113   6.008   6.432   1.954
 9072SOL     OW28114   6.915   1.728   1.120
 9072SOL    HW128115   6.828   1.682   1.100
 9072SOL    HW228116   6.929   1.731   1.219
 9073SOL     OW28117   2.912   6.896   2.832
 9073SOL    HW128118   2.913   6.996   2.826
 9073SOL    HW228119   2.921   6.869   2.928
 9074SOL     OW28120   1.310   1.458   1.936
 9074SOL    HW128121   1.381   1.451   1.866
 9074SOL    HW228122   1.337   1.527   2.004
 9075SOL     OW28123   6.980   1.502   2.133
 9075SOL    HW128124   6.911   1.524   2.202
 9075SOL    HW228125   0.018   1.424   2.165
 9076SOL     OW28126   0.167   2.639   5.735
 9076SOL    HW128127   0.191   2.626   5.639
 9076SOL    HW228128   0.100   2.713   5.743
 9077SOL     OW28129   4.830   0.415   0.469
 9077SOL    HW128130   4.836   0.484   0.541
 9077SOL    HW228131   4.802   0.327   0.510
 9078SOL     OW28132   4.255   3.741   5.596
 9078SOL    HW128133   4.171   3.780   5.634
 9078SOL    HW228134   4.322   3.815   5.584
 9079SOL     OW28135   2.747   0.200   4.307
 9079SOL    HW128136   2.776   0.259   4.382
 9079SOL    HW228137   2.807   0.215   4.228
 9080SOL     OW28138   4.731   2.639   6.065
 9080SOL    HW128139   4.716   2.715   6.128
 9080SOL    HW228140   4.675   2.561   6.092
 9081SOL     OW28141   4.076   0.264   2.163
 9081SOL    HW128142   3.999   0.266   2.099
 9081SOL    HW228143   4.041   0.243   2.255
 9082SOL     OW28144   2.079   0.549   5.275
 9082SOL    HW128145   2.132   0.521   5.355
 9082SOL    HW228146   2.002   0.486   5.263
 9083SOL     OW28147   3.493   5.247   6.232
 9083SOL    HW128148   3.485   5.167   6.172
 9083SOL    HW228149   3.415   5.307   6.218
 9084SOL     OW28150   3.464   3.697   3.328
 9084SOL    HW128151   3.454   3.792   3.356
 9084SOL    HW228152   3.396   3.676   3.258
 9085SOL     OW28153   2.501   0.748   1.652
 9085SOL    HW128154   2.550   0.678   1.599
 9085SOL    HW228155   2.407   0.718   1.667
 9086SOL     OW28156   0.854   4.472   6.886
 9086SOL    HW128157   0.844   4.571   6.896
 9086SOL    HW228158   0.890   4.433   6.970
 9087SOL     OW28159   4.818   2.480   1.349
 9087SOL    HW128160   4.789   2.441   1.262
 9087SOL    HW228161   4.884   2.419   1.393
 9088SOL     OW28162   6.874   6.883   1.502
 9088SOL    HW128163   6.864   6.790   1.538
 9088SOL    HW228164   6.789   6.934   1.517
 9089SOL     OW28165   5.418   5.507   5.270
 9089SOL    HW128166   5.442   5.410   5.262
 9089SOL    HW228167   5.470   5.548   5.345
 9090SOL     OW28168   6.632   1.453   4.957
 9090SOL    HW128169   6.728   1.469   4.978
 9090SOL    HW228170   6.575   1.509   5.018
 9091SOL     OW28171   2.771   4.073   0.407
 9091SOL    HW128172   2.712   4.135   0.459
 9091SOL    HW228173   2.734   4.062   0.314
 9092SOL     OW28174   6.612   0.701   6.742
 9092SOL    HW128175   6.618   0.696   6.643
 9092SOL    HW228176   6.516   0.700   6.770
 9093SOL     OW28177   1.281   6.030   5.505
 9093SOL    HW128178   1.276   5.955   5.571
 9093SOL    HW228179   1.344   6.099   5.539
 9094SOL     OW28180   6.824   5.165   2.946
 9094SOL    HW128181   6.742   5.117   2.914
 9094SOL    HW228182   6.813   5.263   2.931
 9095SOL     OW28183   5.125   4.758   6.033
 9095SOL    HW128184   5.062   4.735   5.959
 9095SOL    HW228185   5.074   4.793   6.112
 9096SOL     OW28186   6.563   4.951   2.609
 9096SOL    HW128187   6.471   4.965   2.573
 9096SOL    HW228188   6.614   5.037   2.605
 9097SOL     OW28189   1.999   2.011   0.400
 9097SOL    HW128190   1.909   2.012   0.357
 9097SOL    HW228191   2.059   1.948   0.351
 9098SOL     OW28192   3.110   1.836   4.763
 9098SOL    HW128193   3.139   1.922   4.805
 9098SOL    HW228194   3.089   1.769   4.834
 9099SOL     OW28195   2.723   3.137   5.603
 9099SOL    HW128196   2.628   3.170   5.602
 9099SOL    HW228197   2.762   3.145   5.511
 9100SOL     OW28198   0.345   3.727   3.442
 9100SOL    HW128199   0.312   3.724   3.536
 9100SOL    HW228200   0.408   3.650   3.426
 9101SOL     OW28201   2.617   2.412   1.929
 9101SOL    HW128202   2.711   2.392   1.956
 9101SOL    HW228203   2.557   2.337   1.959
 9102SOL     OW28204   3.094   6.899   2.125
 9102SOL    HW128205   3.160   6.910   2.199
 9102SOL    HW228206   3.123   6.954   2.046
 9103SOL     OW28207   5.842   1.778   6.744
 9103SOL    HW128208   5.937   1.766   6.715
 9103SOL    HW228209   5.826   1.729   6.830
 9104SOL     OW28210   6.713   6.724   1.330
 9104SOL    HW128211   6.781   6.664   1.373
 9104SOL    HW228212   6.622   6.696   1.358
 9105SOL     OW28213   0.590   0.344   5.734
 9105SOL    HW128214   0.576   0.440   5.712
 9105SOL    HW228215   0.556   0.325   5.826
 9106SOL     OW28216   6.012   2.971   1.183
 9106SOL    HW128217   6.095   2.951   1.131
 9106SOL    HW228218   5.960   2.887   1.196
 9107SOL     OW28219   2.001   0.352   6.425
 9107SOL    HW128220   1.979   0.444   6.457
 9107SOL    HW228221   1.921   0.292   6.438
 9108SOL     OW28222   4.886   4.384   4.942
 9108SOL    HW128223   4.929   4.294   4.938
 9108SOL    HW228224   4.809   4.382   5.006
 9109SOL     OW28225   4.904   3.229   2.932
 9109SOL    HW128226   4.974   3.162   2.907
 9109SOL    HW228227   4.829   3.225   2.866
 9110SOL     OW28228   1.826   5.271   4.215
 9110SOL    HW128229   1.798   5.176   4.216
 9110SOL    HW228230   1.842   5.303   4.308
 9111SOL     OW28231   4.690   2.711   6.799
 9111SOL    HW128232   4.658   2.790   6.851
 9111SOL    HW228233   4.707   2.738   6.704
 9112SOL     OW28234   1.479   5.088   2.836
 9112SOL    HW128235   1.410   5.025   2.871
 9112SOL    HW228236   1.453   5.120   2.746
 9113SOL     OW28237   4.871   2.029   2.763
 9113SOL    HW128238   4.819   1.955   2.806
 9113SOL    HW228239   4.807   2.093   2.719
 9114SOL     OW28240   0.370   5.735   3.566
 9114SOL    HW128241   0.399   5.830   3.571
 9114SOL    HW228242   0.411   5.692   3.486
 9115SOL     OW28243   5.951   5.402   5.364
 9115SOL    HW128244   5.900   5.446   5.289
 9115SOL    HW228245   5.955   5.464   5.442
 9116SOL     OW28246   0.047   0.081   2.839
 9116SOL    HW128247   0.083   0.009   2.780
 9116SOL    HW228248   0.088   0.074   2.930
 9117SOL     OW28249   4.003   2.482   6.389
 9117SOL    HW128250   3.918   2.479   6.442
 9117SOL    HW228251   4.081   2.466   6.450
 9118SOL     OW28252   6.731   3.328   0.343
 9118SOL    HW128253   6.664   3.402   0.333
 9118SOL    HW228254   6.688   3.240   0.322
 9119SOL     OW28255   4.047   1.379   1.335
 9119SOL    HW128256   3.972   1.321   1.303
 9119SOL    HW228257   4.019   1.475   1.328
 9120SOL     OW28258   6.390   2.634   5.253
 9120SOL    HW128259   6.398   2.613   5.155
 9120SOL    HW228260   6.317   2.701   5.266
 9121SOL     OW28261   3.773   6.610   5.440
 9121SOL    HW128262   3.761   6.638   5.345
 9121SOL    HW228263   3.714   6.532   5.459
 9122SOL     OW28264   2.316   4.160   1.978
 9122SOL    HW128265   2.331   4.231   2.046
 9122SOL    HW228266   2.306   4.071   2.023
 9123SOL     OW28267   1.768   0.273   4.411
 9123SOL    HW128268   1.760   0.372   4.408
 9123SOL    HW228269   1.820   0.241   4.332
 9124SOL     OW28270   3.496   5.464   1.949
 9124SOL    HW128271   3.523   5.375   1.987
 9124SOL    HW228272   3.456   5.450   1.858
 9125SOL     OW28273   4.199   4.540   1.232
 9125SOL    HW128274   4.298   4.526   1.227
 9125SOL    HW228275   4.169   4.594   1.153
 9126SOL     OW28276   4.742   4.150   1.045
 9126SOL    HW128277   4.793   4.145   1.131
 9126SOL    HW228278   4.743   4.244   1.012
 9127SOL     OW28279   6.898   2.551   5.418
 9127SOL    HW128280   6.831   2.548   5.344
 9127SOL    HW228281   6.895   2.465   5.469
 9128SOL     OW28282   6.137   2.498   4.737
 9128SOL    HW128283   6.121   2.484   4.835
 9128SOL    HW228284   6.093   2.582   4.707
 9129SOL     OW28285   0.174   2.017   0.538
 9129SOL    HW128286   0.248   2.066   0.584
 9129SOL    HW228287   0.209   1.930   0.502
 9130SOL     OW28288   0.652   4.487   5.879
 9130SOL    HW128289   0.652   4.550   5.956
 9130SOL    HW228290   0.745   4.479   5.842
 9131SOL     OW28291   5.213   3.263   6.691
 9131SOL    HW128292   5.178   3.263   6.784
 9131SOL    HW228293   5.147   3.310   6.631
 9132SOL     OW28294   0.610   4.331   4.163
 9132SOL    HW128295   0.669   4.408   4.188
 9132SOL    HW228296   0.522   4.339   4.211
 9133SOL     OW28297   3.188   0.702   0.799
 9133SOL    HW128298   3.188   0.701   0.699
 9133SOL    HW228299   3.272   0.743   0.832
 9134SOL     OW28300   4.401   5.855   1.869
 9134SOL    HW128301   4.371   5.862   1.774
 9134SOL    HW228302   4.399   5.946   1.911
 9135SOL     OW28303   1.641   6.148   1.595
 9135SOL    HW128304   1.725   6.151   1.650
 9135SOL    HW228305   1.661   6.176   1.501
 9136SOL     OW28306   4.216   5.868   5.447
 9136SOL    HW128307   4.279   5.945   5.431
 9136SOL    HW228308   4.267   5.782   5.440
 9137SOL     OW28309   4.433   0.188   6.066
 9137SOL    HW128310   4.528   0.168   6.091
 9137SOL    HW228311   4.381   0.214   6.148
 9138SOL     OW28312   1.659   3.234   0.138
 9138SOL    HW128313   1.585   3.286   0.180
 9138SOL    HW228314   1.698   3.171   0.206
 9139SOL     OW28315   0.921   1.222   1.504
 9139SOL    HW128316   0.870   1.256   1.583
 9139SOL    HW228317   0.927   1.294   1.435
 9140SOL     OW28318   0.651   4.950   2.353
 9140SOL    HW128319   0.632   5.017   2.425
 9140SOL    HW228320   0.576   4.883   2.350
 9141SOL     OW28321   6.902   6.065   6.849
 9141SOL    HW128322   6.926   6.153   6.890
 9141SOL    HW228323   6.850   6.080   6.765
 9142SOL     OW28324   0.397   2.883   2.746
 9142SOL    HW128325   0.343   2.963   2.720
 9142SOL    HW228326   0.396   2.816   2.672
 9143SOL     OW28327   0.698   3.846   1.173
 9143SOL    HW128328   0.764   3.895   1.115
 9143SOL    HW228329   0.624   3.908   1.199
 9144SOL     OW28330   2.630   4.681   4.828
 9144SOL    HW128331   2.698   4.628   4.878
 9144SOL    HW228332   2.630   4.776   4.861
 9145SOL     OW28333   1.437   6.590   6.814
 9145SOL    HW128334   1.365   6.578   6.745
 9145SOL    HW228335   1.526   6.573   6.773
 9146SOL     OW28336   5.275   2.697   3.178
 9146SOL    HW128337   5.234   2.615   3.137
 9146SOL    HW228338   5.307   2.758   3.105
 9147SOL     OW28339   6.366   1.030   4.790
 9147SOL    HW128340   6.309   1.101   4.748
 9147SOL    HW228341   6.411   1.068   4.871
 9148SOL     OW28342   5.678   0.111   2.199
 9148SOL    HW128343   5.733   0.029   2.215
 9148SOL    HW228344   5.728   0.174   2.140
 9149SOL     OW28345   5.407   3.349   2.226
 9149SOL    HW128346   5.356   3.362   2.311
 9149SOL    HW228347   5.441   3.255   2.222
 9150SOL     OW28348   3.294   4.211   0.599
 9150SOL    HW128349   3.195   4.210   0.589
 9150SOL    HW228350   3.319   4.257   0.685
 9151SOL     OW28351   2.190   3.922   3.921
 9151SOL    HW128352   2.235   3.930   3.832
 9151SOL    HW228353   2.156   3.829   3.933
 9152SOL     OW28354   1.866   4.253   3.983
 9152SOL    HW128355   1.773   4.218   3.974
 9152SOL    HW228356   1.926   4.181   4.017
 9153SOL     OW28357   0.523   3.496   6.577
 9153SOL    HW128358   0.439   3.517   6.528
 9153SOL    HW228359   0.501   3.458   6.667
 9154SOL     OW28360   4.860   5.098   3.469
 9154SOL    HW128361   4.794   5.076   3.541
 9154SOL    HW228362   4.910   5.015   3.443
 9155SOL     OW28363   1.847   4.367   3.089
 9155SOL    HW128364   1.939   4.376   3.127
 9155SOL    HW228365   1.804   4.284   3.123
 9156SOL     OW28366   6.599   2.731   0.890
 9156SOL    HW128367   6.546   2.660   0.936
 9156SOL    HW228368   6.606   2.811   0.949
 9157SOL     OW28369   3.340   4.004   6.497
 9157SOL    HW128370   3.330   4.010   6.398
 9157SOL    HW228371   3.373   4.091   6.533
 9158SOL     OW28372   6.513   4.797   4.448
 9158SOL    HW128373   6.573   4.870   4.415
 9158SOL    HW228374   6.542   4.710   4.408
 9159SOL     OW28375   2.024   6.858   3.551
 9159SOL    HW128376   1.999   6.947   3.512
 9159SOL    HW228377   1.994   6.785   3.489
 9160SOL     OW28378   0.683   4.919   6.383
 9160SOL    HW128379   0.628   4.845   6.345
 9160SOL    HW228380   0.680   4.997   6.321
 9161SOL     OW28381   5.969   5.006   3.109
 9161SOL    HW128382   5.914   5.089   3.106
 9161SOL    HW228383   6.048   5.016   3.049
 9162SOL     OW28384   3.962   0.774   2.625
 9162SOL    HW128385   3.997   0.757   2.533
 9162SOL    HW228386   4.015   0.722   2.692
 9163SOL     OW28387   6.772   2.835   1.966
 9163SOL    HW128388   6.793   2.738   1.977
 9163SOL    HW228389   6.848   2.889   2.002
 9164SOL     OW28390   1.689   0.685   6.773
 9164SOL    HW128391   1.757   0.750   6.807
 9164SOL    HW228392   1.603   0.699   6.821
 9165SOL     OW28393   5.103   2.335   5.584
 9165SOL    HW128394   5.201   2.346   5.566
 9165SOL    HW228395   5.059   2.288   5.507
 9166SOL     OW28396   3.808   5.368   0.958
 9166SOL    HW128397   3.723   5.335   1.000
 9166SOL    HW228398   3.886   5.338   1.013
 9167SOL     OW28399   1.146   2.220   6.540
 9167SOL    HW128400   1.168   2.214   6.637
 9167SOL    HW228401   1.225   2.256   6.490
 9168SOL     OW28402   6.427   5.747   6.347
 9168SOL    HW128403   6.489   5.682   6.304
 9168SOL    HW228404   6.431   5.735   6.447
 9169SOL     OW28405   6.646   6.047   6.417
 9169SOL    HW128406   6.599   6.059   6.504
 9169SOL    HW228407   6.700   5.962   6.420
 9170SOL     OW28408   1.852   1.418   6.390
 9170SOL    HW128409   1.912   1.495   6.409
 9170SOL    HW228410   1.891   1.362   6.317
 9171SOL     OW28411   2.360   5.399   1.054
 9171SOL    HW128412   2.312   5.311   1.049
 9171SOL    HW228413   2.319   5.463   0.989
 9172SOL     OW28414   4.438   1.631   4.906
 9172SOL    HW128415   4.439   1.675   4.816
 9172SOL    HW228416   4.361   1.567   4.910
 9173SOL     OW28417   6.817   3.177   4.229
 9173SOL    HW128418   6.755   3.209   4.301
 9173SOL    HW228419   6.902   3.145   4.270
 9174SOL     OW28420   0.629   6.040   6.936
 9174SOL    HW128421   0.532   6.062   6.941
 9174SOL    HW228422   0.648   5.957   6.989
 9175SOL     OW28423   1.628   6.157   0.642
 9175SOL    HW128424   1.613   6.243   0.690
 9175SOL    HW228425   1.608   6.081   0.704
 9176SOL     OW28426   2.140   0.278   2.419
 9176SOL    HW128427   2.170   0.184   2.434
 9176SOL    HW228428   2.220   0.336   2.400
 9177SOL     OW28429   1.785   2.809   4.163
 9177SOL    HW128430   1.806   2.804   4.260
 9177SOL    HW228431   1.859   2.856   4.115
 9178SOL     OW28432   2.111   5.501   6.554
 9178SOL    HW128433   2.022   5.468   6.583
 9178SOL    HW228434   2.179   5.428   6.563
 9179SOL     OW28435   2.987   5.765   4.552
 9179SOL    HW128436   2.931   5.827   4.497
 9179SOL    HW228437   2.930   5.690   4.586
 9180SOL     OW28438   6.454   1.936   4.020
 9180SOL    HW128439   6.541   1.983   4.020
 9180SOL    HW228440   6.418   1.930   3.927
 9181SOL     OW28441   4.975   2.517   3.454
 9181SOL    HW128442   4.939   2.536   3.363
 9181SOL    HW228443   4.899   2.501   3.517
 9182SOL     OW28444   2.694   1.093   2.768
 9182SOL    HW128445   2.708   1.150   2.687
 9182SOL    HW228446   2.764   1.115   2.836
 9183SOL     OW28447   4.712   3.738   6.522
 9183SOL    HW128448   4.764   3.713   6.440
 9183SOL    HW228449   4.614   3.723   6.505
 9184SOL     OW28450   3.269   2.057   0.864
 9184SOL    HW128451   3.243   2.153   0.879
 9184SOL    HW228452   3.230   2.000   0.937
 9185SOL     OW28453   0.201   6.985   6.277
 9185SOL    HW128454   0.120   7.006   6.222
 9185SOL    HW228455   0.283   7.008   6.225
 9186SOL     OW28456   4.884   0.476   5.757
 9186SOL    HW128457   4.928   0.565   5.768
 9186SOL    HW228458   4.950   0.403   5.779
 9187SOL     OW28459   4.372   2.133   6.851
 9187SOL    HW128460   4.360   2.100   6.944
 9187SOL    HW228461   4.282   2.156   6.812
 9188SOL     OW28462   1.617   0.768   1.334
 9188SOL    HW128463   1.525   0.783   1.298
 9188SOL    HW228464   1.684   0.787   1.262
 9189SOL     OW28465   3.371   0.940   3.486
 9189SOL    HW128466   3.461   0.898   3.499
 9189SOL    HW228467   3.318   0.885   3.420
 9190SOL     OW28468   6.328   3.972   5.300
 9190SOL    HW128469   6.237   4.010   5.285
 9190SOL    HW228470   6.320   3.875   5.323
 9191SOL     OW28471   5.083   0.007   6.909
 9191SOL    HW128472   5.080   0.095   6.956
 9191SOL    HW228473   4.990   6.994   6.887
 9192SOL     OW28474   5.941   3.932   6.028
 9192SOL    HW128475   6.035   3.962   6.009
 9192SOL    HW228476   5.939   3.881   6.114
 9193SOL     OW28477   3.150   3.651   3.799
 9193SOL    HW128478   3.162   3.595   3.717
 9193SOL    HW228479   3.239   3.682   3.832
 9194SOL     OW28480   3.612   6.058   2.098
 9194SOL    HW128481   3.664   6.143   2.082
 9194SOL    HW228482   3.583   6.055   2.194
 9195SOL     OW28483   1.672   2.656   3.819
 9195SOL    HW128484   1.582   2.661   3.776
 9195SOL    HW228485   1.662   2.645   3.918
 9196SOL     OW28486   4.809   0.374   4.181
 9196SOL    HW128487   4.727   0.377   4.124
 9196SOL    HW228488   4.876   0.312   4.140
 9197SOL     OW28489   2.687   3.606   0.606
 9197SOL    HW128490   2.640   3.564   0.528
 9197SOL    HW228491   2.714   3.535   0.670
 9198SOL     OW28492   5.905   4.325   6.148
 9198SOL    HW128493   5.855   4.260   6.092
 9198SOL    HW228494   5.850   4.408   6.159
 9199SOL     OW28495   0.799   3.184   6.437
 9199SOL    HW128496   0.705   3.181   6.404
 9199SOL    HW228497   0.808   3.124   6.517
 9200SOL     OW28498   1.130   6.096   0.189
 9200SOL    HW128499   1.068   6.151   0.133
 9200SOL    HW228500   1.197   6.156   0.234
 9201SOL     OW28501   0.945   3.882   1.332
 9201SOL    HW128502   0.887   3.815   1.377
 9201SOL    HW228503   0.903   3.910   1.245
 9202SOL     OW28504   2.544   5.645   4.821
 9202SOL    HW128505   2.504   5.735   4.841
 9202SOL    HW228506   2.522   5.581   4.895
 9203SOL     OW28507   5.101   1.981   6.235
 9203SOL    HW128508   5.172   1.939   6.177
 9203SOL    HW228509   5.083   2.074   6.204
 9204SOL     OW28510   5.790   3.894   3.295
 9204SOL    HW128511   5.777   3.856   3.386
 9204SOL    HW228512   5.838   3.982   3.302
 9205SOL     OW28513   5.015   3.428   2.723
 9205SOL    HW128514   5.048   3.439   2.817
 9205SOL    HW228515   5.016   3.331   2.700
 9206SOL     OW28516   3.298   0.571   4.755
 9206SOL    HW128517   3.229   0.545   4.821
 9206SOL    HW228518   3.255   0.619   4.679
 9207SOL     OW28519   3.503   6.230   5.849
 9207SOL    HW128520   3.540   6.305   5.794
 9207SOL    HW228521   3.571   6.157   5.855
 9208SOL     OW28522   4.879   3.385   2.330
 9208SOL    HW128523   4.916   3.432   2.250
 9208SOL    HW228524   4.846   3.453   2.396
 9209SOL     OW28525   3.953   1.125   1.669
 9209SOL    HW128526   3.892   1.196   1.704
 9209SOL    HW228527   3.981   1.066   1.744
 9210SOL     OW28528   2.171   0.290   1.590
 9210SOL    HW128529   2.103   0.268   1.660
 9210SOL    HW228530   2.252   0.329   1.633
 9211SOL     OW28531   5.516   1.457   6.418
 9211SOL    HW128532   5.594   1.493   6.468
 9211SOL    HW228533   5.511   1.357   6.431
 9212SOL     OW28534   4.558   4.438   4.791
 9212SOL    HW128535   4.570   4.514   4.728
 9212SOL    HW228536   4.502   4.468   4.868
 9213SOL     OW28537   6.049   6.674   4.513
 9213SOL    HW128538   6.049   6.614   4.593
 9213SOL    HW228539   6.139   6.718   4.505
 9214SOL     OW28540   1.222   2.407   4.902
 9214SOL    HW128541   1.259   2.493   4.868
 9214SOL    HW228542   1.156   2.371   4.837
 9215SOL     OW28543   6.865   4.533   2.310
 9215SOL    HW128544   6.836   4.445   2.271
 9215SOL    HW228545   6.933   4.517   2.381
 9216SOL     OW28546   2.536   6.670   4.665
 9216SOL    HW128547   2.442   6.689   4.635
 9216SOL    HW228548   2.597   6.667   4.586
 9217SOL     OW28549   5.465   1.197   6.483
 9217SOL    HW128550   5.383   1.171   6.535
 9217SOL    HW228551   5.544   1.148   6.520
 9218SOL     OW28552   4.303   0.160   6.535
 9218SOL    HW128553   4.251   0.187   6.455
 9218SOL    HW228554   4.386   0.216   6.542
 9219SOL     OW28555   4.153   2.937   5.444
 9219SOL    HW128556   4.250   2.959   5.438
 9219SOL    HW228557   4.100   3.022   5.453
 9220SOL     OW28558   2.238   5.781   3.057
 9220SOL    HW128559   2.332   5.768   3.089
 9220SOL    HW228560   2.192   5.692   3.051
 9221SOL     OW28561   2.207   0.739   5.941
 9221SOL    HW128562   2.279   0.761   5.876
 9221SOL    HW228563   2.129   0.801   5.927
 9222SOL     OW28564   2.495   4.536   4.178
 9222SOL    HW128565   2.519   4.555   4.273
 9222SOL    HW228566   2.414   4.478   4.174
 9223SOL     OW28567   1.090   3.201   3.911
 9223SOL    HW128568   1.000   3.245   3.911
 9223SOL    HW228569   1.140   3.230   3.993
 9224SOL     OW28570   1.179   3.388   3.712
 9224SOL    HW128571   1.233   3.456   3.762
 9224SOL    HW228572   1.144   3.320   3.776
 9225SOL     OW28573   3.653   6.444   6.099
 9225SOL    HW128574   3.663   6.350   6.131
 9225SOL    HW228575   3.608   6.498   6.170
 9226SOL     OW28576   1.066   0.119   1.707
 9226SOL    HW128577   1.093   0.052   1.776
 9226SOL    HW228578   0.980   0.162   1.734
 9227SOL     OW28579   1.364   5.276   1.059
 9227SOL    HW128580   1.385   5.222   0.977
 9227SOL    HW228581   1.420   5.359   1.060
 9228SOL     OW28582   2.342   2.419   6.356
 9228SOL    HW128583   2.329   2.517   6.370
 9228SOL    HW228584   2.285   2.388   6.280
 9229SOL     OW28585   1.199   5.186   6.912
 9229SOL    HW128586   1.176   5.170   6.816
 9229SOL    HW228587   1.123   5.156   6.969
 9230SOL     OW28588   4.620   2.471   4.119
 9230SOL    HW128589   4.700   2.453   4.177
 9230SOL    HW228590   4.556   2.395   4.126
 9231SOL     OW28591   0.705   5.128   5.778
 9231SOL    HW128592   0.611   5.160   5.771
 9231SOL    HW228593   0.760   5.195   5.829
 9232SOL     OW28594   1.815   4.901   1.182
 9232SOL    HW128595   1.863   4.924   1.267
 9232SOL    HW228596   1.824   4.802   1.165
 9233SOL     OW28597   0.860   6.722   1.095
 9233SOL    HW128598   0.777   6.745   1.045
 9233SOL    HW228599   0.884   6.627   1.077
 9234SOL     OW28600   2.175   5.196   1.019
 9234SOL    HW128601   2.208   5.102   1.019
 9234SOL    HW228602   2.119   5.211   0.938
 9235SOL     OW28603   2.387   2.678   3.503
 9235SOL    HW128604   2.345   2.692   3.593
 9235SOL    HW228605   2.353   2.747   3.439
 9236SOL     OW28606   2.279   3.380   6.914
 9236SOL    HW128607   2.195   3.389   6.860
 9236SOL    HW228608   2.344   3.451   6.887
 9237SOL     OW28609   6.843   6.098   2.940
 9237SOL    HW128610   6.877   6.190   2.958
 9237SOL    HW228611   6.745   6.103   2.919
 9238SOL     OW28612   2.465   2.746   6.055
 9238SOL    HW128613   2.394   2.768   5.989
 9238SOL    HW228614   2.496   2.651   6.041
 9239SOL     OW28615   6.991   4.571   6.666
 9239SOL    HW128616   6.970   4.641   6.734
 9239SOL    HW228617   6.909   4.552   6.612
 9240SOL     OW28618   5.137   3.447   2.968
 9240SOL    HW128619   5.197   3.509   3.019
 9240SOL    HW228620   5.142   3.355   3.009
 9241SOL     OW28621   0.193   5.544   0.289
 9241SOL    HW128622   0.219   5.504   0.201
 9241SOL    HW228623   0.093   5.549   0.296
 9242SOL     OW28624   1.772   2.413   1.813
 9242SOL    HW128625   1.754   2.443   1.719
 9242SOL    HW228626   1.870   2.415   1.830
 9243SOL     OW28627   1.324   0.567   2.014
 9243SOL    HW128628   1.410   0.567   1.962
 9243SOL    HW228629   1.265   0.641   1.980
 9244SOL     OW28630   2.832   6.495   5.983
 9244SOL    HW128631   2.774   6.573   5.959
 9244SOL    HW228632   2.900   6.524   6.051
 9245SOL     OW28633   1.239   4.145   3.545
 9245SOL    HW128634   1.316   4.090   3.514
 9245SOL    HW228635   1.183   4.171   3.465
 9246SOL     OW28636   6.020   0.387   4.146
 9246SOL    HW128637   6.115   0.358   4.134
 9246SOL    HW228638   6.011   0.440   4.230
 9247SOL     OW28639   3.897   5.315   3.053
 9247SOL    HW128640   3.911   5.396   3.110
 9247SOL    HW228641   3.909   5.341   2.957
 9248SOL     OW28642   2.847   1.525   5.129
 9248SOL    HW128643   2.831   1.621   5.152
 9248SOL    HW228644   2.828   1.468   5.209
 9249SOL     OW28645   3.926   4.760   1.785
 9249SOL    HW128646   3.927   4.844   1.839
 9249SOL    HW228647   3.854   4.764   1.716
 9250SOL     OW28648   6.843   3.860   3.867
 9250SOL    HW128649   6.805   3.943   3.825
 9250SOL    HW228650   6.876   3.799   3.795
 9251SOL     OW28651   3.642   2.735   1.173
 9251SOL    HW128652   3.653   2.695   1.264
 9251SOL    HW228653   3.731   2.767   1.140
 9252SOL     OW28654   5.002   0.810   5.153
 9252SOL    HW128655   4.927   0.870   5.125
 9252SOL    HW228656   5.088   0.862   5.153
 9253SOL     OW28657   5.669   4.744   5.548
 9253SOL    HW128658   5.680   4.793   5.462
 9253SOL    HW228659   5.576   4.708   5.554
 9254SOL     OW28660   5.451   4.152   2.144
 9254SOL    HW128661   5.473   4.069   2.195
 9254SOL    HW228662   5.533   4.209   2.136
 9255SOL     OW28663   5.687   3.611   6.586
 9255SOL    HW128664   5.759   3.574   6.644
 9255SOL    HW228665   5.671   3.551   6.508
 9256SOL     OW28666   2.023   0.012   1.992
 9256SOL    HW128667   1.958   0.037   2.065
 9256SOL    HW228668   2.045   6.931   2.000
 9257SOL     OW28669   6.089   5.902   3.264
 9257SOL    HW128670   6.029   5.982   3.260
 9257SOL    HW228671   6.106   5.878   3.359
 9258SOL     OW28672   3.416   3.426   0.511
 9258SOL    HW128673   3.482   3.360   0.547
 9258SOL    HW228674   3.448   3.519   0.531
 9259SOL     OW28675   1.910   1.582   0.155
 9259SOL    HW128676   2.006   1.558   0.145
 9259SOL    HW228677   1.892   1.609   0.249
 9260SOL     OW28678   6.818   2.824   6.153
 9260SOL    HW128679   6.918   2.824   6.142
 9260SOL    HW228680   6.778   2.885   6.085
 9261SOL     OW28681   4.738   1.218   0.085
 9261SOL    HW128682   4.811   1.202   0.152
 9261SOL    HW228683   4.752   1.307   0.042
 9262SOL     OW28684   0.608   0.024   4.786
 9262SOL    HW128685   0.695   0.051   4.825
 9262SOL    HW228686   0.600   0.062   4.693
 9263SOL     OW28687   3.196   5.537   3.097
 9263SOL    HW128688   3.203   5.456   3.039
 9263SOL    HW228689   3.181   5.509   3.192
 9264SOL     OW28690   4.919   3.470   6.643
 9264SOL    HW128691   4.996   3.533   6.657
 9264SOL    HW228692   4.911   3.450   6.545
 9265SOL     OW28693   4.122   2.060   6.488
 9265SOL    HW128694   4.177   1.978   6.504
 9265SOL    HW228695   4.172   2.123   6.429
 9266SOL     OW28696   0.450   5.681   0.846
 9266SOL    HW128697   0.389   5.759   0.835
 9266SOL    HW228698   0.517   5.680   0.771
 9267SOL     OW28699   1.028   1.683   4.084
 9267SOL    HW128700   1.091   1.752   4.050
 9267SOL    HW228701   0.969   1.652   4.010
 9268SOL     OW28702   1.087   6.110   2.629
 9268SOL    HW128703   1.007   6.159   2.665
 9268SOL    HW228704   1.059   6.020   2.598
 9269SOL     OW28705   4.244   0.315   6.224
 9269SOL    HW128706   4.237   0.397   6.168
 9269SOL    HW228707   4.160   0.261   6.216
 9270SOL     OW28708   3.620   0.891   5.353
 9270SOL    HW128709   3.659   0.929   5.269
 9270SOL    HW228710   3.546   0.950   5.386
 9271SOL     OW28711   0.450   0.045   0.690
 9271SOL    HW128712   0.356   0.076   0.676
 9271SOL    HW228713   0.460   0.007   0.782
 9272SOL     OW28714   0.628   6.499   6.864
 9272SOL    HW128715   0.570   6.421   6.887
 9272SOL    HW228716   0.722   6.480   6.892
 9273SOL     OW28717   5.105   6.246   3.746
 9273SOL    HW128718   5.050   6.329   3.736
 9273SOL    HW228719   5.112   6.200   3.658
 9274SOL     OW28720   0.074   2.762   0.392
 9274SOL    HW128721   0.110   2.773   0.484
 9274SOL    HW228722   0.138   2.801   0.326
 9275SOL     OW28723   0.185   6.799   0.444
 9275SOL    HW128724   0.132   6.769   0.364
 9275SOL    HW228725   0.195   6.899   0.442
 9276SOL     OW28726   2.897   4.403   0.129
 9276SOL    HW128727   2.842   4.389   0.211
 9276SOL    HW228728   2.855   4.474   0.072
 9277SOL     OW28729   4.177   4.790   3.241
 9277SOL    HW128730   4.251   4.794   3.308
 9277SOL    HW228731   4.095   4.833   3.279
 9278SOL     OW28732   0.094   0.428   5.723
 9278SOL    HW128733   0.157   0.362   5.765
 9278SOL    HW228734   0.040   0.382   5.653
 9279SOL     OW28735   3.409   6.217   1.684
 9279SOL    HW128736   3.378   6.184   1.595
 9279SOL    HW228737   3.474   6.292   1.670
 9280SOL     OW28738   2.167   2.500   2.024
 9280SOL    HW128739   2.111   2.439   1.968
 9280SOL    HW228740   2.173   2.462   2.117
 9281SOL     OW28741   3.273   3.661   5.830
 9281SOL    HW128742   3.368   3.663   5.801
 9281SOL    HW228743   3.218   3.614   5.762
 9282SOL     OW28744   4.524   1.123   4.482
 9282SOL    HW128745   4.442   1.178   4.470
 9282SOL    HW228746   4.583   1.165   4.551
 9283SOL     OW28747   5.361   0.263   6.020
 9283SOL    HW128748   5.320   0.246   6.110
 9283SOL    HW228749   5.372   0.362   6.007
 9284SOL     OW28750   2.971   3.992   4.837
 9284SOL    HW128751   2.897   4.060   4.839
 9284SOL    HW228752   2.932   3.900   4.844
 9285SOL     OW28753   5.537   3.435   1.244
 9285SOL    HW128754   5.489   3.379   1.178
 9285SOL    HW228755   5.473   3.499   1.287
 9286SOL     OW28756   4.969   5.542   0.508
 9286SOL    HW128757   5.016   5.582   0.587
 9286SOL    HW228758   5.014   5.456   0.483
 9287SOL     OW28759   2.448   4.125   5.609
 9287SOL    HW128760   2.512   4.156   5.538
 9287SOL    HW228761   2.355   4.130   5.574
 9288SOL     OW28762   4.550   2.564   3.180
 9288SOL    HW128763   4.462   2.517   3.166
 9288SOL    HW228764   4.572   2.565   3.278
 9289SOL     OW28765   4.554   0.690   6.382
 9289SOL    HW128766   4.608   0.773   6.383
 9289SOL    HW228767   4.613   0.611   6.397
 9290SOL     OW28768   6.251   0.593   4.025
 9290SOL    HW128769   6.294   0.508   4.055
 9290SOL    HW228770   6.153   0.590   4.046
 9291SOL     OW28771   1.107   6.247   5.844
 9291SOL    HW128772   1.030   6.228   5.905
 9291SOL    HW228773   1.179   6.180   5.860
 9292SOL     OW28774   1.590   0.983   6.866
 9292SOL    HW128775   1.572   0.887   6.883
 9292SOL    HW228776   1.508   1.028   6.832
 9293SOL     OW28777   5.177   2.410   6.468
 9293SOL    HW128778   5.113   2.444   6.400
 9293SOL    HW228779   5.129   2.395   6.555
 9294SOL     OW28780   4.927   1.249   0.351
 9294SOL    HW128781   5.002   1.211   0.297
 9294SOL    HW228782   4.928   1.210   0.443
 9295SOL     OW28783   6.943   0.798   5.320
 9295SOL    HW128784   6.989   0.875   5.275
 9295SOL    HW228785   6.909   0.734   5.251
 9296SOL     OW28786   2.256   3.757   0.867
 9296SOL    HW128787   2.183   3.825   0.865
 9296SOL    HW228788   2.218   3.669   0.894
 9297SOL     OW28789   0.829   6.132   2.978
 9297SOL    HW128790   0.899   6.198   2.953
 9297SOL    HW228791   0.820   6.064   2.905
 9298SOL     OW28792   1.101   6.888   5.909
 9298SOL    HW128793   1.197   6.873   5.888
 9298SOL    HW228794   1.056   6.800   5.927
 9299SOL     OW28795   1.972   1.278   3.758
 9299SOL    HW128796   1.912   1.346   3.801
 9299SOL    HW228797   2.065   1.315   3.751
 9300SOL     OW28798   0.200   5.755   5.383
 9300SOL    HW128799   0.213   5.674   5.326
 9300SOL    HW228800   0.267   5.754   5.458
 9301SOL     OW28801   0.169   4.506   4.791
 9301SOL    HW128802   0.137   4.591   4.833
 9301SOL    HW228803   0.098   4.436   4.800
 9302SOL     OW28804   2.313   2.846   4.666
 9302SOL    HW128805   2.271   2.931   4.696
 9302SOL    HW228806   2.413   2.857   4.664
 9303SOL     OW28807   3.239   4.563   0.650
 9303SOL    HW128808   3.290   4.544   0.567
 9303SOL    HW228809   3.163   4.625   0.628
 9304SOL     OW28810   4.835   5.169   0.763
 9304SOL    HW128811   4.897   5.243   0.790
 9304SOL    HW228812   4.874   5.118   0.687
 9305SOL     OW28813   3.675   1.665   0.406
 9305SOL    HW128814   3.702   1.569   0.408
 9305SOL    HW228815   3.582   1.674   0.371
 9306SOL     OW28816   6.706   3.484   4.629
 9306SOL    HW128817   6.637   3.556   4.626
 9306SOL    HW228818   6.790   3.520   4.671
 9307SOL     OW28819   1.728   3.797   0.415
 9307SOL    HW128820   1.746   3.872   0.478
 9307SOL    HW228821   1.735   3.830   0.321
 9308SOL     OW28822   1.157   4.832   1.245
 9308SOL    HW128823   1.225   4.782   1.298
 9308SOL    HW228824   1.133   4.917   1.293
 9309SOL     OW28825   4.367   6.423   6.261
 9309SOL    HW128826   4.419   6.508   6.256
 9309SOL    HW228827   4.281   6.440   6.310
 9310SOL     OW28828   5.015   5.767   5.647
 9310SOL    HW128829   5.073   5.821   5.707
 9310SOL    HW228830   4.923   5.762   5.684
 9311SOL     OW28831   4.487   4.297   1.421
 9311SOL    HW128832   4.519   4.368   1.358
 9311SOL    HW228833   4.545   4.297   1.503
 9312SOL     OW28834   1.725   2.248   1.283
 9312SOL    HW128835   1.792   2.321   1.269
 9312SOL    HW228836   1.740   2.175   1.216
 9313SOL     OW28837   0.855   0.926   1.753
 9313SOL    HW128838   0.833   0.834   1.785
 9313SOL    HW228839   0.948   0.926   1.714
 9314SOL     OW28840   5.688   3.462   0.569
 9314SOL    HW128841   5.681   3.478   0.667
 9314SOL    HW228842   5.615   3.400   0.541
 9315SOL     OW28843   6.392   0.844   6.311
 9315SOL    HW128844   6.344   0.923   6.274
 9315SOL    HW228845   6.330   0.766   6.317
 9316SOL     OW28846   6.209   0.103   5.006
 9316SOL    HW128847   6.301   0.082   5.038
 9316SOL    HW228848   6.147   0.109   5.084
 9317SOL     OW28849   3.342   5.186   3.551
 9317SOL    HW128850   3.284   5.124   3.497
 9317SOL    HW228851   3.425   5.206   3.499
 9318SOL     OW28852   4.529   5.940   0.381
 9318SOL    HW128853   4.479   5.854   0.392
 9318SOL    HW228854   4.464   6.016   0.374
 9319SOL     OW28855   2.427   3.216   0.671
 9319SOL    HW128856   2.431   3.128   0.622
 9319SOL    HW228857   2.414   3.199   0.768
 9320SOL     OW28858   4.624   6.844   5.805
 9320SOL    HW128859   4.525   6.840   5.792
 9320SOL    HW228860   4.651   6.937   5.830
 9321SOL     OW28861   0.879   2.055   5.069
 9321SOL    HW128862   0.823   2.137   5.073
 9321SOL    HW228863   0.821   1.974   5.068
 9322SOL     OW28864   6.408   4.939   5.955
 9322SOL    HW128865   6.461   4.855   5.960
 9322SOL    HW228866   6.326   4.925   5.900
 9323SOL     OW28867   2.475   2.518   4.489
 9323SOL    HW128868   2.571   2.492   4.479
 9323SOL    HW228869   2.455   2.535   4.586
 9324SOL     OW28870   1.984   3.681   0.627
 9324SOL    HW128871   2.012   3.759   0.683
 9324SOL    HW228872   1.913   3.629   0.676
 9325SOL     OW28873   1.806   6.186   1.789
 9325SOL    HW128874   1.900   6.158   1.809
 9325SOL    HW228875   1.784   6.268   1.842
 9326SOL     OW28876   3.519   5.690   0.168
 9326SOL    HW128877   3.440   5.751   0.175
 9326SOL    HW228878   3.527   5.636   0.252
 9327SOL     OW28879   4.766   7.004   3.038
 9327SOL    HW128880   4.748   0.056   3.109
 9327SOL    HW228881   4.740   0.025   2.949
 9328SOL     OW28882   2.173   7.015   5.097
 9328SOL    HW128883   2.166   0.070   5.027
 9328SOL    HW228884   2.269   6.990   5.110
 9329SOL     OW28885   6.976   5.536   6.891
 9329SOL    HW128886   7.010   5.447   6.860
 9329SOL    HW228887   6.989   5.604   6.819
 9330SOL     OW28888   0.654   6.971   6.684
 9330SOL    HW128889   0.673   0.051   6.668
 9330SOL    HW228890   0.570   6.962   6.738
 9331SOL     OW28891   1.766   2.418   5.086
 9331SOL    HW128892   1.711   2.437   5.168
 9331SOL    HW228893   1.863   2.421   5.110
 9332SOL     OW28894   4.419   5.658   0.291
 9332SOL    HW128895   4.453   5.674   0.199
 9332SOL    HW228896   4.427   5.560   0.313
 9333SOL     OW28897   3.603   5.909   0.628
 9333SOL    HW128898   3.584   6.002   0.594
 9333SOL    HW228899   3.519   5.855   0.624
 9334SOL     OW28900   5.418   0.407   4.155
 9334SOL    HW128901   5.355   0.410   4.233
 9334SOL    HW228902   5.428   0.313   4.124
 9335SOL     OW28903   1.957   2.211   0.999
 9335SOL    HW128904   2.037   2.168   1.040
 9335SOL    HW228905   1.978   2.305   0.972
 9336SOL     OW28906   5.845   6.834   4.434
 9336SOL    HW128907   5.921   6.799   4.487
 9336SOL    HW228908   5.874   6.915   4.382
 9337SOL     OW28909   4.888   0.481   0.206
 9337SOL    HW128910   4.857   0.450   0.296
 9337SOL    HW228911   4.811   0.516   0.154
 9338SOL     OW28912   0.079   5.736   0.083
 9338SOL    HW128913   0.035   5.677   0.015
 9338SOL    HW228914   0.089   5.687   0.169
 9339SOL     OW28915   5.860   5.335   0.420
 9339SOL    HW128916   5.854   5.423   0.468
 9339SOL    HW228917   5.955   5.303   0.422
 9340SOL     OW28918   3.922   4.933   2.680
 9340SOL    HW128919   3.973   5.016   2.705
 9340SOL    HW228920   3.882   4.892   2.762
 9341SOL     OW28921   6.731   4.508   6.602
 9341SOL    HW128922   6.720   4.541   6.696
 9341SOL    HW228923   6.641   4.488   6.563
 9342SOL     OW28924   3.074   0.815   5.148
 9342SOL    HW128925   3.028   0.739   5.103
 9342SOL    HW228926   3.036   0.828   5.239
 9343SOL     OW28927   5.005   3.522   2.087
 9343SOL    HW128928   4.965   3.455   2.025
 9343SOL    HW228929   5.105   3.519   2.079
 9344SOL     OW28930   5.320   5.367   6.723
 9344SOL    HW128931   5.359   5.276   6.710
 9344SOL    HW228932   5.264   5.391   6.643
 9345SOL     OW28933   6.546   5.743   6.980
 9345SOL    HW128934   6.499   5.729   0.051
 9345SOL    HW228935   6.487   5.796   6.919
 9346SOL     OW28936   4.795   5.673   2.456
 9346SOL    HW128937   4.709   5.680   2.506
 9346SOL    HW228938   4.815   5.761   2.412
 9347SOL     OW28939   3.825   5.872   0.395
 9347SOL    HW128940   3.882   5.790   0.406
 9347SOL    HW228941   3.746   5.866   0.455
 9348SOL     OW28942   2.652   5.298   3.154
 9348SOL    HW128943   2.616   5.326   3.243
 9348SOL    HW228944   2.740   5.253   3.167
 9349SOL     OW28945   6.480   5.465   2.271
 9349SOL    HW128946   6.515   5.559   2.275
 9349SOL    HW228947   6.383   5.467   2.248
 9350SOL     OW28948   6.964   1.339   4.068
 9350SOL    HW128949   6.873   1.373   4.044
 9350SOL    HW228950   6.972   1.335   4.168
 9351SOL     OW28951   2.393   1.004   5.864
 9351SOL    HW128952   2.337   1.030   5.942
 9351SOL    HW228953   2.473   0.952   5.896
 9352SOL     OW28954   1.505   2.854   5.497
 9352SOL    HW128955   1.445   2.823   5.571
 9352SOL    HW228956   1.521   2.953   5.508
 9353SOL     OW28957   1.701   4.462   2.028
 9353SOL    HW128958   1.788   4.468   2.077
 9353SOL    HW228959   1.642   4.395   2.073
 9354SOL     OW28960   6.085   1.663   1.024
 9354SOL    HW128961   6.063   1.751   1.067
 9354SOL    HW228962   6.084   1.674   0.925
 9355SOL     OW28963   6.149   1.221   3.905
 9355SOL    HW128964   6.233   1.172   3.929
 9355SOL    HW228965   6.144   1.307   3.956
 9356SOL     OW28966   4.774   5.212   2.140
 9356SOL    HW128967   4.852   5.267   2.172
 9356SOL    HW228968   4.699   5.220   2.205
 9357SOL     OW28969   2.461   4.485   6.952
 9357SOL    HW128970   2.550   4.440   6.945
 9357SOL    HW228971   2.465   4.556   0.006
 9358SOL     OW28972   5.484   3.543   1.597
 9358SOL    HW128973   5.514   3.471   1.659
 9358SOL    HW228974   5.406   3.511   1.544
 9359SOL     OW28975   0.262   3.389   5.120
 9359SOL    HW128976   0.280   3.469   5.063
 9359SOL    HW228977   0.329   3.317   5.099
 9360SOL     OW28978   1.037   0.131   5.902
 9360SOL    HW128979   1.031   0.032   5.891
 9360SOL    HW228980   1.108   0.153   5.969
 9361SOL     OW28981   2.719   6.873   3.428
 9361SOL    HW128982   2.740   6.955   3.482
 9361SOL    HW228983   2.790   6.860   3.359
 9362SOL     OW28984   1.629   1.295   1.811
 9362SOL    HW128985   1.633   1.347   1.896
 9362SOL    HW228986   1.605   1.356   1.735
 9363SOL     OW28987   3.879   5.283   1.942
 9363SOL    HW128988   3.947   5.295   2.015
 9363SOL    HW228989   3.913   5.326   1.858
 9364SOL     OW28990   4.032   3.424   6.345
 9364SOL    HW128991   3.953   3.438   6.405
 9364SOL    HW228992   4.054   3.510   6.298
 9365SOL     OW28993   2.480   1.519   4.939
 9365SOL    HW128994   2.518   1.537   4.848
 9365SOL    HW228995   2.485   1.602   4.994
 9366SOL     OW28996   3.187   1.922   6.964
 9366SOL    HW128997   3.277   1.949   6.930
 9366SOL    HW228998   3.136   1.877   6.892
 9367SOL     OW28999   6.988   6.305   3.611
 9367SOL    HW129000   6.959   6.229   3.668
 9367SOL    HW229001   0.071   6.305   3.602
 9368SOL     OW29002   3.046   1.933   3.464
 9368SOL    HW129003   3.095   2.019   3.476
 9368SOL    HW229004   3.094   1.876   3.397
 9369SOL     OW29005   0.313   0.533   6.059
 9369SOL    HW129006   0.386   0.590   6.096
 9369SOL    HW229007   0.226   0.560   6.101
 9370SOL     OW29008   5.309   0.289   2.561
 9370SOL    HW129009   5.357   0.249   2.483
 9370SOL    HW229010   5.268   0.217   2.616
 9371SOL     OW29011   2.212   5.034   0.285
 9371SOL    HW129012   2.242   5.094   0.212
 9371SOL    HW229013   2.292   4.996   0.332
 9372SOL     OW29014   5.860   5.820   3.006
 9372SOL    HW129015   5.901   5.900   2.963
 9372SOL    HW229016   5.829   5.756   2.936
 9373SOL     OW29017   4.662   2.192   2.663
 9373SOL    HW129018   4.613   2.162   2.744
 9373SOL    HW229019   4.642   2.289   2.646
 9374SOL     OW29020   6.064   3.216   6.876
 9374SOL    HW129021   6.137   3.163   6.918
 9374SOL    HW229022   6.039   3.175   6.788
 9375SOL     OW29023   6.885   1.594   3.533
 9375SOL    HW129024   6.867   1.501   3.566
 9375SOL    HW229025   6.816   1.619   3.465
 9376SOL     OW29026   2.778   3.673   1.236
 9376SOL    HW129027   2.737   3.723   1.312
 9376SOL    HW229028   2.748   3.713   1.149
 9377SOL     OW29029   1.541   5.808   4.033
 9377SOL    HW129030   1.471   5.856   3.980
 9377SOL    HW229031   1.621   5.791   3.975
 9378SOL     OW29032   0.831   0.474   5.595
 9378SOL    HW129033   0.800   0.384   5.625
 9378SOL    HW229034   0.765   0.513   5.531
 9379SOL     OW29035   4.456   5.144   5.171
 9379SOL    HW129036   4.417   5.202   5.100
 9379SOL    HW229037   4.495   5.062   5.129
 9380SOL     OW29038   6.063   4.584   4.943
 9380SOL    HW129039   6.161   4.601   4.948
 9380SOL    HW229040   6.014   4.658   4.989
 9381SOL     OW29041   2.123   3.249   5.707
 9381SOL    HW129042   2.107   3.321   5.639
 9381SOL    HW229043   2.204   3.273   5.761
 9382SOL     OW29044   3.563   1.623   2.882
 9382SOL    HW129045   3.572   1.530   2.846
 9382SOL    HW229046   3.468   1.653   2.875
 9383SOL     OW29047   2.765   6.480   4.848
 9383SOL    HW129048   2.669   6.463   4.826
 9383SOL    HW229049   2.803   6.402   4.897
 9384SOL     OW29050   3.667   6.228   1.420
 9384SOL    HW129051   3.744   6.280   1.383
 9384SOL    HW229052   3.601   6.208   1.348
 9385SOL     OW29053   4.335   1.220   2.390
 9385SOL    HW129054   4.344   1.318   2.404
 9385SOL    HW229055   4.423   1.176   2.407
 9386SOL     OW29056   2.208   6.509   5.207
 9386SOL    HW129057   2.200   6.464   5.295
 9386SOL    HW229058   2.131   6.484   5.148
 9387SOL     OW29059   3.559   0.568   6.854
 9387SOL    HW129060   3.571   0.656   6.809
 9387SOL    HW229061   3.480   0.521   6.814
 9388SOL     OW29062   1.984   5.487   2.737
 9388SOL    HW129063   1.947   5.500   2.645
 9388SOL    HW229064   1.935   5.413   2.783
 9389SOL     OW29065   2.016   6.913   5.473
 9389SOL    HW129066   2.081   6.837   5.461
 9389SOL    HW229067   2.056   6.997   5.436
 9390SOL     OW29068   4.031   5.691   4.697
 9390SOL    HW129069   4.089   5.675   4.777
 9390SOL    HW229070   4.000   5.603   4.661
 9391SOL     OW29071   2.235   0.725   5.039
 9391SOL    HW129072   2.252   0.642   4.986
 9391SOL    HW229073   2.179   0.703   5.119
 9392SOL     OW29074   6.840   0.614   5.147
 9392SOL    HW129075   6.893   0.649   5.070
 9392SOL    HW229076   6.745   0.603   5.119
 9393SOL     OW29077   3.338   0.913   5.485
 9393SOL    HW129078   3.266   0.935   5.551
 9393SOL    HW229079   3.309   0.835   5.430
 9394SOL     OW29080   6.431   1.551   2.302
 9394SOL    HW129081   6.430   1.625   2.234
 9394SOL    HW229082   6.416   1.590   2.393
 9395SOL     OW29083   2.608   2.545   0.518
 9395SOL    HW129084   2.619   2.610   0.593
 9395SOL    HW229085   2.523   2.564   0.470
 9396SOL     OW29086   0.531   5.370   3.385
 9396SOL    HW129087   0.532   5.412   3.294
 9396SOL    HW229088   0.611   5.309   3.394
 9397SOL     OW29089   2.916   0.207   0.535
 9397SOL    HW129090   2.828   0.238   0.500
 9397SOL    HW229091   2.900   0.130   0.598
 9398SOL     OW29092   1.697   0.154   5.582
 9398SOL    HW129093   1.704   0.097   5.500
 9398SOL    HW229094   1.776   0.137   5.641
 9399SOL     OW29095   0.511   1.602   0.128
 9399SOL    HW129096   0.554   1.693   0.134
 9399SOL    HW229097   0.525   1.565   0.037
 9400SOL     OW29098   5.464   2.654   1.429
 9400SOL    HW129099   5.503   2.739   1.464
 9400SOL    HW229100   5.534   2.582   1.430
 9401SOL     OW29101   4.177   6.775   3.154
 9401SOL    HW129102   4.132   6.690   3.182
 9401SOL    HW229103   4.242   6.756   3.080
 9402SOL     OW29104   1.109   4.837   4.458
 9402SOL    HW129105   1.170   4.773   4.411
 9402SOL    HW229106   1.159   4.883   4.531
 9403SOL     OW29107   5.536   1.435   3.119
 9403SOL    HW129108   5.585   1.420   3.204
 9403SOL    HW229109   5.533   1.533   3.098
 9404SOL     OW29110   0.678   3.120   6.091
 9404SOL    HW129111   0.586   3.158   6.102
 9404SOL    HW229112   0.742   3.193   6.067
 9405SOL     OW29113   0.331   6.134   2.419
 9405SOL    HW129114   0.293   6.044   2.395
 9405SOL    HW229115   0.257   6.201   2.423
 9406SOL     OW29116   7.015   3.250   6.244
 9406SOL    HW129117   6.952   3.237   6.321
 9406SOL    HW229118   0.091   3.265   6.279
 9407SOL     OW29119   2.402   5.202   3.558
 9407SOL    HW129120   2.440   5.256   3.483
 9407SOL    HW229121   2.471   5.138   3.591
 9408SOL     OW29122   3.811   1.883   6.191
 9408SOL    HW129123   3.907   1.911   6.199
 9408SOL    HW229124   3.782   1.839   6.276
 9409SOL     OW29125   5.799   4.554   6.221
 9409SOL    HW129126   5.699   4.548   6.226
 9409SOL    HW229127   5.827   4.574   6.127
 9410SOL     OW29128   3.441   6.558   1.829
 9410SOL    HW129129   3.355   6.513   1.806
 9410SOL    HW229130   3.515   6.517   1.776
 9411SOL     OW29131   3.999   3.721   1.409
 9411SOL    HW129132   4.067   3.776   1.359
 9411SOL    HW229133   4.032   3.704   1.501
 9412SOL     OW29134   0.269   3.273   1.639
 9412SOL    HW129135   0.237   3.296   1.730
 9412SOL    HW229136   0.198   3.223   1.590
 9413SOL     OW29137   4.066   6.147   4.476
 9413SOL    HW129138   4.164   6.141   4.457
 9413SOL    HW229139   4.030   6.055   4.490
 9414SOL     OW29140   3.147   1.076   3.750
 9414SOL    HW129141   3.062   1.078   3.697
 9414SOL    HW229142   3.224   1.099   3.692
 9415SOL     OW29143   2.554   0.098   2.561
 9415SOL    HW129144   2.598   0.041   2.631
 9415SOL    HW229145   2.569   0.194   2.582
 9416SOL     OW29146   0.820   1.486   1.097
 9416SOL    HW129147   0.806   1.574   1.143
 9416SOL    HW229148   0.782   1.490   1.005
 9417SOL     OW29149   4.034   6.779   5.763
 9417SOL    HW129150   4.024   6.876   5.784
 9417SOL    HW229151   4.102   6.739   5.824
 9418SOL     OW29152   2.917   6.811   1.264
 9418SOL    HW129153   2.919   6.749   1.186
 9418SOL    HW229154   2.940   6.904   1.234
 9419SOL     OW29155   2.919   5.081   5.814
 9419SOL    HW129156   2.904   5.178   5.792
 9419SOL    HW229157   2.831   5.040   5.839
 9420SOL     OW29158   0.043   2.068   4.246
 9420SOL    HW129159   0.091   2.110   4.170
 9420SOL    HW229160   0.045   2.129   4.325
 9421SOL     OW29161   2.520   6.345   4.724
 9421SOL    HW129162   2.454   6.314   4.792
 9421SOL    HW229163   2.473   6.403   4.657
 9422SOL     OW29164   4.516   6.020   2.484
 9422SOL    HW129165   4.554   6.057   2.569
 9422SOL    HW229166   4.434   6.071   2.459
 9423SOL     OW29167   4.305   0.889   3.226
 9423SOL    HW129168   4.310   0.804   3.173
 9423SOL    HW229169   4.280   0.964   3.166
 9424SOL     OW29170   4.988   1.030   5.391
 9424SOL    HW129171   4.921   1.034   5.317
 9424SOL    HW229172   5.080   1.024   5.353
 9425SOL     OW29173   0.649   3.704   6.116
 9425SOL    HW129174   0.670   3.747   6.028
 9425SOL    HW229175   0.608   3.614   6.100
 9426SOL     OW29176   2.498   1.811   0.324
 9426SOL    HW129177   2.595   1.820   0.302
 9426SOL    HW229178   2.468   1.888   0.380
 9427SOL     OW29179   3.197   5.171   4.788
 9427SOL    HW129180   3.264   5.111   4.832
 9427SOL    HW229181   3.125   5.194   4.853
 9428SOL     OW29182   5.246   1.098   0.854
 9428SOL    HW129183   5.242   1.011   0.806
 9428SOL    HW229184   5.192   1.166   0.804
 9429SOL     OW29185   1.942   4.470   2.165
 9429SOL    HW129186   1.991   4.549   2.128
 9429SOL    HW229187   2.000   4.389   2.159
 9430SOL     OW29188   0.194   4.619   1.701
 9430SOL    HW129189   0.194   4.526   1.665
 9430SOL    HW229190   0.195   4.615   1.801
 9431SOL     OW29191   5.532   4.013   0.931
 9431SOL    HW129192   5.492   3.944   0.992
 9431SOL    HW229193   5.518   4.104   0.970
 9432SOL     OW29194   5.340   0.783   2.691
 9432SOL    HW129195   5.343   0.683   2.699
 9432SOL    HW229196   5.324   0.808   2.595
 9433SOL     OW29197   3.439   4.979   3.787
 9433SOL    HW129198   3.362   5.033   3.754
 9433SOL    HW229199   3.478   5.022   3.868
 9434SOL     OW29200   5.369   5.166   3.112
 9434SOL    HW129201   5.302   5.165   3.187
 9434SOL    HW229202   5.443   5.102   3.133
 9435SOL     OW29203   0.591   1.844   4.361
 9435SOL    HW129204   0.569   1.766   4.419
 9435SOL    HW229205   0.656   1.814   4.290
 9436SOL     OW29206   1.198   4.065   2.062
 9436SOL    HW129207   1.198   4.159   2.027
 9436SOL    HW229208   1.160   4.004   1.993
 9437SOL     OW29209   1.689   6.267   3.596
 9437SOL    HW129210   1.778   6.230   3.620
 9437SOL    HW229211   1.672   6.253   3.499
 9438SOL     OW29212   0.754   7.011   2.032
 9438SOL    HW129213   0.804   6.975   2.110
 9438SOL    HW229214   0.675   6.953   2.013
 9439SOL     OW29215   0.335   2.487   2.257
 9439SOL    HW129216   0.262   2.474   2.190
 9439SOL    HW229217   0.387   2.570   2.234
 9440SOL     OW29218   4.548   5.829   4.322
 9440SOL    HW129219   4.564   5.925   4.343
 9440SOL    HW229220   4.466   5.797   4.368
 9441SOL     OW29221   1.760   3.675   4.881
 9441SOL    HW129222   1.765   3.771   4.908
 9441SOL    HW229223   1.673   3.636   4.911
 9442SOL     OW29224   4.910   3.409   0.120
 9442SOL    HW129225   4.916   3.338   0.050
 9442SOL    HW229226   4.818   3.449   0.120
 9443SOL     OW29227   2.313   5.828   1.370
 9443SOL    HW129228   2.368   5.886   1.431
 9443SOL    HW229229   2.364   5.811   1.286
 9444SOL     OW29230   1.552   4.071   6.390
 9444SOL    HW129231   1.571   4.006   6.464
 9444SOL    HW229232   1.628   4.071   6.326
 9445SOL     OW29233   5.756   3.452   2.721
 9445SOL    HW129234   5.772   3.423   2.627
 9445SOL    HW229235   5.714   3.378   2.773
 9446SOL     OW29236   6.587   6.876   3.840
 9446SOL    HW129237   6.596   6.975   3.841
 9446SOL    HW229238   6.623   6.839   3.926
 9447SOL     OW29239   6.351   3.339   3.106
 9447SOL    HW129240   6.268   3.395   3.098
 9447SOL    HW229241   6.340   3.276   3.182
 9448SOL     OW29242   6.889   6.838   6.239
 9448SOL    HW129243   6.829   6.824   6.318
 9448SOL    HW229244   6.841   6.812   6.156
 9449SOL     OW29245   6.444   5.659   6.614
 9449SOL    HW129246   6.542   5.644   6.622
 9449SOL    HW229247   6.414   5.724   6.684
 9450SOL     OW29248   3.345   4.932   4.678
 9450SOL    HW129249   3.431   4.929   4.626
 9450SOL    HW229250   3.274   4.975   4.622
 9451SOL     OW29251   3.743   5.995   6.274
 9451SOL    HW129252   3.789   5.982   6.362
 9451SOL    HW229253   3.746   5.910   6.222
 9452SOL     OW29254   0.904   3.537   0.715
 9452SOL    HW129255   0.959   3.555   0.797
 9452SOL    HW229256   0.947   3.464   0.661
 9453SOL     OW29257   2.170   5.085   3.975
 9453SOL    HW129258   2.098   5.019   3.996
 9453SOL    HW229259   2.181   5.092   3.876
 9454SOL     OW29260   2.164   3.460   5.963
 9454SOL    HW129261   2.105   3.435   6.040
 9454SOL    HW229262   2.235   3.392   5.952
 9455SOL     OW29263   4.013   1.981   2.832
 9455SOL    HW129264   4.028   2.031   2.746
 9455SOL    HW229265   3.965   1.896   2.813
 9456SOL     OW29266   0.895   4.008   0.277
 9456SOL    HW129267   0.907   4.107   0.282
 9456SOL    HW229268   0.853   3.983   0.190
 9457SOL     OW29269   2.275   4.169   5.311
 9457SOL    HW129270   2.315   4.089   5.265
 9457SOL    HW229271   2.234   4.140   5.398
 9458SOL     OW29272   1.385   3.004   6.666
 9458SOL    HW129273   1.334   3.084   6.636
 9458SOL    HW229274   1.372   2.930   6.600
 9459SOL     OW29275   5.907   4.574   2.821
 9459SOL    HW129276   5.903   4.483   2.861
 9459SOL    HW229277   5.877   4.642   2.889
 9460SOL     OW29278   6.746   1.727   5.029
 9460SOL    HW129279   6.682   1.792   4.988
 9460SOL    HW229280   6.717   1.705   5.122
 9461SOL     OW29281   6.745   1.812   2.869
 9461SOL    HW129282   6.744   1.724   2.915
 9461SOL    HW229283   6.837   1.851   2.873
 9462SOL     OW29284   2.145   3.795   3.467
 9462SOL    HW129285   2.200   3.715   3.442
 9462SOL    HW229286   2.065   3.799   3.407
 9463SOL     OW29287   0.593   0.927   1.277
 9463SOL    HW129288   0.670   0.919   1.341
 9463SOL    HW229289   0.554   1.018   1.283
 9464SOL     OW29290   5.971   6.561   0.532
 9464SOL    HW129291   5.900   6.627   0.555
 9464SOL    HW229292   6.052   6.610   0.498
 9465SOL     OW29293   0.664   6.341   3.046
 9465SOL    HW129294   0.633   6.376   2.957
 9465SOL    HW229295   0.730   6.267   3.031
 9466SOL     OW29296   3.987   4.034   5.033
 9466SOL    HW129297   3.963   4.054   4.938
 9466SOL    HW229298   3.911   4.060   5.093
 9467SOL     OW29299   1.506   2.457   1.821
 9467SOL    HW129300   1.604   2.447   1.835
 9467SOL    HW229301   1.461   2.368   1.833
 9468SOL     OW29302   5.772   2.380   5.891
 9468SOL    HW129303   5.752   2.328   5.974
 9468SOL    HW229304   5.769   2.477   5.911
 9469SOL     OW29305   5.787   5.858   1.245
 9469SOL    HW129306   5.769   5.910   1.329
 9469SOL    HW229307   5.818   5.766   1.269
 9470SOL     OW29308   4.935   4.020   5.696
 9470SOL    HW129309   4.884   4.072   5.764
 9470SOL    HW229310   4.992   3.952   5.743
 9471SOL     OW29311   5.912   1.317   4.329
 9471SOL    HW129312   5.821   1.297   4.293
 9471SOL    HW229313   5.978   1.253   4.289
 9472SOL     OW29314   6.048   2.900   4.367
 9472SOL    HW129315   6.136   2.938   4.339
 9472SOL    HW229316   5.989   2.888   4.287
 9473SOL     OW29317   2.461   4.824   5.765
 9473SOL    HW129318   2.539   4.822   5.702
 9473SOL    HW229319   2.479   4.764   5.843
 9474SOL     OW29320   6.416   3.010   0.165
 9474SOL    HW129321   6.486   2.951   0.205
 9474SOL    HW229322   6.435   3.105   0.188
 9475SOL     OW29323   3.210   3.739   0.380
 9475SOL    HW129324   3.117   3.751   0.346
 9475SOL    HW229325   3.216   3.772   0.474
 9476SOL     OW29326   2.916   3.382   5.011
 9476SOL    HW129327   3.000   3.400   4.959
 9476SOL    HW229328   2.857   3.321   4.958
 9477SOL     OW29329   0.507   3.241   2.565
 9477SOL    HW129330   0.550   3.195   2.487
 9477SOL    HW229331   0.445   3.312   2.531
 9478SOL     OW29332   4.717   3.433   5.746
 9478SOL    HW129333   4.682   3.421   5.839
 9478SOL    HW229334   4.701   3.349   5.694
 9479SOL     OW29335   5.503   6.262   6.877
 9479SOL    HW129336   5.576   6.252   6.810
 9479SOL    HW229337   5.461   6.353   6.867
 9480SOL     OW29338   5.016   3.961   0.448
 9480SOL    HW129339   4.986   4.002   0.534
 9480SOL    HW229340   4.939   3.956   0.385
 9481SOL     OW29341   5.915   3.590   1.624
 9481SOL    HW129342   5.850   3.652   1.582
 9481SOL    HW229343   5.901   3.497   1.589
 9482SOL     OW29344   6.665   0.599   2.953
 9482SOL    HW129345   6.753   0.566   2.988
 9482SOL    HW229346   6.679   0.645   2.865
 9483SOL     OW29347   1.556   1.595   1.425
 9483SOL    HW129348   1.641   1.642   1.401
 9483SOL    HW229349   1.537   1.525   1.357
 9484SOL     OW29350   4.136   1.002   3.034
 9484SOL    HW129351   4.054   1.055   3.055
 9484SOL    HW229352   4.115   0.904   3.042
 9485SOL     OW29353   0.998   0.203   2.704
 9485SOL    HW129354   0.983   0.112   2.742
 9485SOL    HW229355   1.086   0.239   2.737
 9486SOL     OW29356   2.488   4.767   1.483
 9486SOL    HW129357   2.397   4.808   1.473
 9486SOL    HW229358   2.522   4.783   1.576
 9487SOL     OW29359   2.956   3.162   3.361
 9487SOL    HW129360   3.013   3.105   3.421
 9487SOL    HW229361   2.874   3.191   3.410
 9488SOL     OW29362   2.190   6.151   1.352
 9488SOL    HW129363   2.183   6.117   1.258
 9488SOL    HW229364   2.098   6.157   1.392
 9489SOL     OW29365   3.976   4.080   1.443
 9489SOL    HW129366   3.877   4.080   1.429
 9489SOL    HW229367   4.018   4.007   1.389
 9490SOL     OW29368   6.139   5.860   1.035
 9490SOL    HW129369   6.144   5.786   0.968
 9490SOL    HW229370   6.077   5.931   1.001
 9491SOL     OW29371   6.811   4.466   3.690
 9491SOL    HW129372   6.891   4.407   3.684
 9491SOL    HW229373   6.728   4.412   3.677
 9492SOL     OW29374   3.560   2.850   3.116
 9492SOL    HW129375   3.599   2.783   3.053
 9492SOL    HW229376   3.486   2.899   3.071
 9493SOL     OW29377   4.348   5.384   4.237
 9493SOL    HW129378   4.439   5.392   4.196
 9493SOL    HW229379   4.310   5.294   4.215
 9494SOL     OW29380   4.401   4.565   1.574
 9494SOL    HW129381   4.316   4.563   1.521
 9494SOL    HW229382   4.458   4.640   1.540
 9495SOL     OW29383   5.829   1.800   4.747
 9495SOL    HW129384   5.910   1.764   4.700
 9495SOL    HW229385   5.827   1.764   4.841
 9496SOL     OW29386   5.599   4.646   1.015
 9496SOL    HW129387   5.551   4.729   0.984
 9496SOL    HW229388   5.561   4.567   0.968
 9497SOL     OW29389   5.915   4.788   0.090
 9497SOL    HW129390   5.839   4.735   0.052
 9497SOL    HW229391   5.977   4.727   0.139
 9498SOL     OW29392   5.355   0.045   5.547
 9498SOL    HW129393   5.372   0.047   5.645
 9498SOL    HW229394   5.325   0.135   5.516
 9499SOL     OW29395   2.619   4.314   6.194
 9499SOL    HW129396   2.561   4.319   6.113
 9499SOL    HW229397   2.601   4.229   6.243
 9500SOL     OW29398   4.579   0.567   1.449
 9500SOL    HW129399   4.665   0.602   1.410
 9500SOL    HW229400   4.539   0.637   1.508
 9501SOL     OW29401   3.578   1.422   4.691
 9501SOL    HW129402   3.612   1.444   4.599
 9501SOL    HW229403   3.592   1.500   4.751
 9502SOL     OW29404   0.222   1.999   4.459
 9502SOL    HW129405   0.264   2.008   4.368
 9502SOL    HW229406   0.253   2.073   4.518
 9503SOL     OW29407   0.397   1.510   1.222
 9503SOL    HW129408   0.375   1.439   1.155
 9503SOL    HW229409   0.410   1.468   1.312
 9504SOL     OW29410   0.615   1.856   0.507
 9504SOL    HW129411   0.638   1.759   0.520
 9504SOL    HW229412   0.560   1.887   0.584
 9505SOL     OW29413   5.375   4.251   4.026
 9505SOL    HW129414   5.442   4.188   3.988
 9505SOL    HW229415   5.420   4.316   4.086
 9506SOL     OW29416   0.454   3.464   6.838
 9506SOL    HW129417   0.492   3.544   6.885
 9506SOL    HW229418   0.375   3.430   6.890
 9507SOL     OW29419   1.575   1.158   3.680
 9507SOL    HW129420   1.501   1.170   3.746
 9507SOL    HW229421   1.604   1.247   3.645
 9508SOL     OW29422   5.710   3.435   0.840
 9508SOL    HW129423   5.702   3.337   0.861
 9508SOL    HW229424   5.714   3.487   0.926
 9509SOL     OW29425   0.632   0.661   5.796
 9509SOL    HW129426   0.680   0.747   5.781
 9509SOL    HW229427   0.650   0.629   5.889
 9510SOL     OW29428   0.911   4.095   2.007
 9510SOL    HW129429   0.857   4.035   1.948
 9510SOL    HW229430   0.986   4.135   1.954
 9511SOL     OW29431   0.440   1.457   6.886
 9511SOL    HW129432   0.405   1.386   6.947
 9511SOL    HW229433   0.530   1.432   6.853
 9512SOL     OW29434   5.777   1.036   1.995
 9512SOL    HW129435   5.842   0.983   2.049
 9512SOL    HW229436   5.763   1.125   2.038
 9513SOL     OW29437   1.709   3.375   5.121
 9513SOL    HW129438   1.752   3.289   5.095
 9513SOL    HW229439   1.738   3.447   5.058
 9514SOL     OW29440   2.475   4.759   0.066
 9514SOL    HW129441   2.392   4.814   0.073
 9514SOL    HW229442   2.555   4.819   0.069
 9515SOL     OW29443   1.339   5.975   0.593
 9515SOL    HW129444   1.367   5.947   0.685
 9515SOL    HW229445   1.403   5.937   0.526
 9516SOL     OW29446   5.559   3.740   5.166
 9516SOL    HW129447   5.498   3.751   5.245
 9516SOL    HW229448   5.558   3.824   5.112
 9517SOL     OW29449   1.606   4.507   0.209
 9517SOL    HW129450   1.542   4.532   0.136
 9517SOL    HW229451   1.696   4.546   0.189
 9518SOL     OW29452   1.183   2.393   0.209
 9518SOL    HW129453   1.086   2.378   0.190
 9518SOL    HW229454   1.219   2.463   0.147
 9519SOL     OW29455   3.657   3.285   3.979
 9519SOL    HW129456   3.624   3.243   3.894
 9519SOL    HW229457   3.589   3.271   4.052
 9520SOL     OW29458   0.194   1.143   2.569
 9520SOL    HW129459   0.191   1.231   2.522
 9520SOL    HW229460   0.249   1.078   2.516
 9521SOL     OW29461   3.677   4.305   1.139
 9521SOL    HW129462   3.644   4.400   1.139
 9521SOL    HW229463   3.611   4.248   1.186
 9522SOL     OW29464   4.545   5.750   2.538
 9522SOL    HW129465   4.454   5.712   2.527
 9522SOL    HW229466   4.548   5.843   2.501
 9523SOL     OW29467   2.422   5.018   5.164
 9523SOL    HW129468   2.446   4.949   5.232
 9523SOL    HW229469   2.349   4.982   5.105
 9524SOL     OW29470   2.286   2.582   0.184
 9524SOL    HW129471   2.288   2.587   0.284
 9524SOL    HW229472   2.379   2.569   0.150
 9525SOL     OW29473   2.076   2.277   5.325
 9525SOL    HW129474   1.988   2.249   5.364
 9525SOL    HW229475   2.070   2.370   5.289
 9526SOL     OW29476   6.067   4.376   1.729
 9526SOL    HW129477   6.121   4.318   1.791
 9526SOL    HW229478   6.119   4.392   1.645
 9527SOL     OW29479   1.873   0.777   5.290
 9527SOL    HW129480   1.950   0.716   5.310
 9527SOL    HW229481   1.901   0.872   5.306
 9528SOL     OW29482   0.017   1.854   0.214
 9528SOL    HW129483   6.994   1.780   0.159
 9528SOL    HW229484   0.106   1.824   0.249
 9529SOL     OW29485   5.900   3.863   6.279
 9529SOL    HW129486   5.827   3.796   6.265
 9529SOL    HW229487   5.979   3.819   6.321
 9530SOL     OW29488   1.607   3.047   3.655
 9530SOL    HW129489   1.552   3.081   3.731
 9530SOL    HW229490   1.554   2.979   3.604
 9531SOL     OW29491   5.090   4.155   2.194
 9531SOL    HW129492   5.154   4.232   2.198
 9531SOL    HW229493   5.137   4.074   2.157
 9532SOL     OW29494   0.080   5.289   1.168
 9532SOL    HW129495   0.044   5.369   1.120
 9532SOL    HW229496   0.174   5.307   1.198
 9533SOL     OW29497   0.460   5.811   4.875
 9533SOL    HW129498   0.559   5.804   4.883
 9533SOL    HW229499   0.419   5.720   4.881
 9534SOL     OW29500   6.224   3.866   5.045
 9534SOL    HW129501   6.237   3.964   5.031
 9534SOL    HW229502   6.291   3.832   5.111
 9535SOL     OW29503   2.204   0.458   5.841
 9535SOL    HW129504   2.121   0.425   5.796
 9535SOL    HW229505   2.189   0.552   5.873
 9536SOL     OW29506   3.138   3.924   5.255
 9536SOL    HW129507   3.102   3.985   5.325
 9536SOL    HW229508   3.120   3.962   5.165
 9537SOL     OW29509   2.259   0.464   4.271
 9537SOL    HW129510   2.349   0.468   4.227
 9537SOL    HW229511   2.224   0.370   4.264
 9538SOL     OW29512   5.382   1.129   4.473
 9538SOL    HW129513   5.386   1.029   4.477
 9538SOL    HW229514   5.475   1.165   4.468
 9539SOL     OW29515   3.415   4.184   4.553
 9539SOL    HW129516   3.331   4.238   4.562
 9539SOL    HW229517   3.418   4.116   4.626
 9540SOL     OW29518   5.763   4.680   4.044
 9540SOL    HW129519   5.721   4.760   4.000
 9540SOL    HW229520   5.718   4.597   4.011
 9541SOL     OW29521   2.667   0.250   6.069
 9541SOL    HW129522   2.688   0.225   6.164
 9541SOL    HW229523   2.735   0.209   6.008
 9542SOL     OW29524   5.022   4.463   4.732
 9542SOL    HW129525   5.094   4.393   4.739
 9542SOL    HW229526   4.960   4.454   4.810
 9543SOL     OW29527   3.461   0.713   6.124
 9543SOL    HW129528   3.408   0.778   6.179
 9543SOL    HW229529   3.399   0.645   6.083
 9544SOL     OW29530   5.774   2.832   3.913
 9544SOL    HW129531   5.712   2.909   3.898
 9544SOL    HW229532   5.722   2.752   3.942
 9545SOL     OW29533   5.819   5.825   3.447
 9545SOL    HW129534   5.914   5.845   3.468
 9545SOL    HW229535   5.788   5.748   3.502
 9546SOL     OW29536   3.681   2.058   5.805
 9546SOL    HW129537   3.629   2.086   5.886
 9546SOL    HW229538   3.726   2.137   5.764
 9547SOL     OW29539   2.340   5.291   4.101
 9547SOL    HW129540   2.269   5.220   4.097
 9547SOL    HW229541   2.345   5.329   4.193
 9548SOL     OW29542   0.096   4.569   5.218
 9548SOL    HW129543   0.115   4.626   5.298
 9548SOL    HW229544   0.067   4.478   5.248
 9549SOL     OW29545   3.231   2.288   1.510
 9549SOL    HW129546   3.247   2.366   1.449
 9549SOL    HW229547   3.207   2.322   1.602
 9550SOL     OW29548   0.282   0.673   0.160
 9550SOL    HW129549   0.263   0.693   0.257
 9550SOL    HW229550   0.227   0.735   0.103
 9551SOL     OW29551   6.143   2.536   6.100
 9551SOL    HW129552   6.089   2.455   6.123
 9551SOL    HW229553   6.083   2.613   6.082
 9552SOL     OW29554   2.221   6.319   4.609
 9552SOL    HW129555   2.202   6.223   4.625
 9552SOL    HW229556   2.160   6.375   4.665
 9553SOL     OW29557   5.905   2.322   6.410
 9553SOL    HW129558   5.807   2.326   6.388
 9553SOL    HW229559   5.922   2.370   6.496
 9554SOL     OW29560   2.857   0.181   2.932
 9554SOL    HW129561   2.887   0.250   2.998
 9554SOL    HW229562   2.757   0.174   2.936
 9555SOL     OW29563   0.965   1.365   2.185
 9555SOL    HW129564   0.948   1.348   2.282
 9555SOL    HW229565   1.015   1.288   2.145
 9556SOL     OW29566   1.705   4.153   1.837
 9556SOL    HW129567   1.698   4.154   1.738
 9556SOL    HW229568   1.707   4.248   1.871
 9557SOL     OW29569   6.635   6.229   1.740
 9557SOL    HW129570   6.676   6.319   1.753
 9557SOL    HW229571   6.708   6.160   1.735
 9558SOL     OW29572   6.027   5.933   5.864
 9558SOL    HW129573   5.929   5.913   5.859
 9558SOL    HW229574   6.040   6.024   5.904
 9559SOL     OW29575   0.372   4.562   0.851
 9559SOL    HW129576   0.377   4.525   0.758
 9559SOL    HW229577   0.464   4.582   0.883
 9560SOL     OW29578   2.560   0.908   3.512
 9560SOL    HW129579   2.652   0.878   3.486
 9560SOL    HW229580   2.552   1.006   3.494
 9561SOL     OW29581   2.009   0.648   0.762
 9561SOL    HW129582   2.071   0.665   0.839
 9561SOL    HW229583   1.935   0.588   0.792
 9562SOL     OW29584   2.529   0.444   5.640
 9562SOL    HW129585   2.625   0.417   5.642
 9562SOL    HW229586   2.490   0.435   5.732
 9563SOL     OW29587   0.143   6.316   0.658
 9563SOL    HW129588   0.193   6.317   0.571
 9563SOL    HW229589   0.110   6.223   0.676
 9564SOL     OW29590   2.536   1.123   0.721
 9564SOL    HW129591   2.577   1.068   0.794
 9564SOL    HW229592   2.543   1.073   0.635
 9565SOL     OW29593   4.111   1.181   4.627
 9565SOL    HW129594   4.027   1.197   4.677
 9565SOL    HW229595   4.160   1.103   4.667
 9566SOL     OW29596   2.900   5.025   6.965
 9566SOL    HW129597   2.851   5.096   6.916
 9566SOL    HW229598   2.834   4.962   7.006
 9567SOL     OW29599   4.829   4.687   0.687
 9567SOL    HW129600   4.742   4.719   0.723
 9567SOL    HW229601   4.893   4.673   0.762
 9568SOL     OW29602   4.375   2.698   6.314
 9568SOL    HW129603   4.349   2.790   6.344
 9568SOL    HW229604   4.319   2.672   6.236
 9569SOL     OW29605   6.392   0.951   2.476
 9569SOL    HW129606   6.477   0.964   2.526
 9569SOL    HW229607   6.317   0.934   2.540
 9570SOL     OW29608   0.464   3.522   1.792
 9570SOL    HW129609   0.464   3.567   1.881
 9570SOL    HW229610   0.411   3.437   1.798
 9571SOL     OW29611   3.274   3.808   6.062
 9571SOL    HW129612   3.273   3.761   5.974
 9571SOL    HW229613   3.203   3.770   6.121
 9572SOL     OW29614   2.537   4.943   2.067
 9572SOL    HW129615   2.457   4.988   2.028
 9572SOL    HW229616   2.512   4.851   2.097
 9573SOL     OW29617   0.982   2.551   6.686
 9573SOL    HW129618   1.074   2.587   6.670
 9573SOL    HW229619   0.955   2.495   6.608
 9574SOL     OW29620   4.037   3.632   3.018
 9574SOL    HW129621   3.966   3.617   2.949
 9574SOL    HW229622   4.070   3.544   3.052
 9575SOL     OW29623   0.434   1.296   1.418
 9575SOL    HW129624   0.451   1.253   1.507
 9575SOL    HW229625   0.338   1.284   1.393
 9576SOL     OW29626   1.858   1.405   1.550
 9576SOL    HW129627   1.785   1.366   1.494
 9576SOL    HW229628   1.946   1.387   1.507
 9577SOL     OW29629   1.101   0.494   5.992
 9577SOL    HW129630   1.180   0.497   6.053
 9577SOL    HW229631   1.033   0.431   6.029
 9578SOL     OW29632   0.712   4.013   3.292
 9578SOL    HW129633   0.808   3.989   3.309
 9578SOL    HW229634   0.671   4.047   3.377
 9579SOL     OW29635   1.242   5.063   2.996
 9579SOL    HW129636   1.292   5.139   2.954
 9579SOL    HW229637   1.233   5.081   3.095
 9580SOL     OW29638   4.968   3.632   0.980
 9580SOL    HW129639   5.057   3.675   0.971
 9580SOL    HW229640   4.980   3.535   1.001
 9581SOL     OW29641   0.634   6.246   5.600
 9581SOL    HW129642   0.662   6.330   5.646
 9581SOL    HW229643   0.542   6.220   5.630
 9582SOL     OW29644   4.772   5.281   6.222
 9582SOL    HW129645   4.868   5.276   6.193
 9582SOL    HW229646   4.718   5.215   6.170
 9583SOL     OW29647   3.521   4.381   1.461
 9583SOL    HW129648   3.556   4.356   1.551
 9583SOL    HW229649   3.427   4.351   1.451
 9584SOL     OW29650   0.077   5.371   6.507
 9584SOL    HW129651   0.137   5.361   6.586
 9584SOL    HW229652   0.027   5.286   6.491
 9585SOL     OW29653   6.509   6.713   4.704
 9585SOL    HW129654   6.585   6.777   4.694
 9585SOL    HW229655   6.533   6.645   4.773
 9586SOL     OW29656   5.433   4.575   2.345
 9586SOL    HW129657   5.474   4.615   2.427
 9586SOL    HW229658   5.402   4.649   2.285
 9587SOL     OW29659   0.782   0.644   1.665
 9587SOL    HW129660   0.695   0.675   1.626
 9587SOL    HW229661   0.787   0.545   1.661
 9588SOL     OW29662   6.910   0.893   1.112
 9588SOL    HW129663   6.993   0.901   1.166
 9588SOL    HW229664   6.831   0.887   1.173
 9589SOL     OW29665   2.585   4.929   6.840
 9589SOL    HW129666   2.618   4.841   6.806
 9589SOL    HW229667   2.648   5.001   6.810
 9590SOL     OW29668   6.287   2.673   1.961
 9590SOL    HW129669   6.235   2.587   1.962
 9590SOL    HW229670   6.385   2.653   1.960
 9591SOL     OW29671   3.132   5.989   5.638
 9591SOL    HW129672   3.086   5.900   5.633
 9591SOL    HW229673   3.214   5.981   5.694
 9592SOL     OW29674   3.648   4.484   0.614
 9592SOL    HW129675   3.598   4.569   0.595
 9592SOL    HW229676   3.644   4.463   0.712
 9593SOL     OW29677   0.396   0.865   5.853
 9593SOL    HW129678   0.451   0.785   5.826
 9593SOL    HW229679   0.366   0.854   5.947
 9594SOL     OW29680   1.360   5.147   2.578
 9594SOL    HW129681   1.333   5.210   2.506
 9594SOL    HW229682   1.282   5.090   2.603
 9595SOL     OW29683   0.617   3.270   5.064
 9595SOL    HW129684   0.593   3.293   4.970
 9595SOL    HW229685   0.716   3.276   5.075
 9596SOL     OW29686   0.415   5.324   6.452
 9596SOL    HW129687   0.322   5.288   6.456
 9596SOL    HW229688   0.416   5.418   6.488
 9597SOL     OW29689   0.872   4.134   1.429
 9597SOL    HW129690   0.893   4.202   1.358
 9597SOL    HW229691   0.895   4.043   1.396
 9598SOL     OW29692   1.569   4.293   3.992
 9598SOL    HW129693   1.502   4.254   4.056
 9598SOL    HW229694   1.550   4.390   3.980
 9599SOL     OW29695   3.128   0.449   4.943
 9599SOL    HW129696   3.213   0.398   4.954
 9599SOL    HW229697   3.058   0.389   4.904
 9600SOL     OW29698   2.343   6.552   6.557
 9600SOL    HW129699   2.329   6.469   6.612
 9600SOL    HW229700   2.354   6.527   6.461
 9601SOL     OW29701   4.696   3.969   0.743
 9601SOL    HW129702   4.643   3.892   0.707
 9601SOL    HW229703   4.657   4.055   0.708
 9602SOL     OW29704   6.420   5.168   6.130
 9602SOL    HW129705   6.410   5.102   6.056
 9602SOL    HW229706   6.513   5.165   6.165
 9603SOL     OW29707   3.568   1.879   3.832
 9603SOL    HW129708   3.657   1.846   3.863
 9603SOL    HW229709   3.507   1.801   3.818
 9604SOL     OW29710   4.671   0.483   6.649
 9604SOL    HW129711   4.739   0.504   6.719
 9604SOL    HW229712   4.711   0.500   6.558
 9605SOL     OW29713   0.776   5.231   3.406
 9605SOL    HW129714   0.777   5.226   3.505
 9605SOL    HW229715   0.862   5.268   3.373
 9606SOL     OW29716   1.634   6.516   6.570
 9606SOL    HW129717   1.593   6.449   6.508
 9606SOL    HW229718   1.630   6.607   6.528
 9607SOL     OW29719   1.733   1.894   0.517
 9607SOL    HW129720   1.672   1.973   0.510
 9607SOL    HW229721   1.788   1.902   0.600
 9608SOL     OW29722   6.840   5.326   2.617
 9608SOL    HW129723   6.861   5.424   2.621
 9608SOL    HW229724   6.880   5.280   2.697
 9609SOL     OW29725   2.717   4.384   6.820
 9609SOL    HW129726   2.677   4.400   6.730
 9609SOL    HW229727   2.764   4.296   6.821
 9610SOL     OW29728   1.492   5.043   4.124
 9610SOL    HW129729   1.423   5.001   4.183
 9610SOL    HW229730   1.578   5.050   4.174
 9611SOL     OW29731   0.665   6.365   6.594
 9611SOL    HW129732   0.620   6.288   6.639
 9611SOL    HW229733   0.596   6.425   6.554
 9612SOL     OW29734   0.548   3.983   1.692
 9612SOL    HW129735   0.542   3.888   1.659
 9612SOL    HW229736   0.537   3.984   1.791
 9613SOL     OW29737   5.120   6.509   3.162
 9613SOL    HW129738   5.194   6.453   3.200
 9613SOL    HW229739   5.044   6.511   3.227
 9614SOL     OW29740   2.957   1.890   0.507
 9614SOL    HW129741   2.873   1.849   0.469
 9614SOL    HW229742   2.971   1.980   0.464
 9615SOL     OW29743   1.489   0.178   0.268
 9615SOL    HW129744   1.421   0.153   0.337
 9615SOL    HW229745   1.496   0.278   0.264
 9616SOL     OW29746   4.395   3.805   1.467
 9616SOL    HW129747   4.325   3.798   1.397
 9616SOL    HW229748   4.354   3.838   1.552
 9617SOL     OW29749   2.360   2.759   3.181
 9617SOL    HW129750   2.332   2.831   3.245
 9617SOL    HW229751   2.441   2.788   3.131
 9618SOL     OW29752   3.861   6.970   5.466
 9618SOL    HW129753   3.897   6.912   5.392
 9618SOL    HW229754   3.934   6.988   5.532
 9619SOL     OW29755   0.925   0.136   0.491
 9619SOL    HW129756   1.015   0.106   0.460
 9619SOL    HW229757   0.897   0.082   0.570
 9620SOL     OW29758   4.622   2.082   6.773
 9620SOL    HW129759   4.642   2.033   6.688
 9620SOL    HW229760   4.532   2.126   6.765
 9621SOL     OW29761   1.228   1.032   1.864
 9621SOL    HW129762   1.220   1.079   1.776
 9621SOL    HW229763   1.255   1.098   1.935
 9622SOL     OW29764   6.748   0.990   6.880
 9622SOL    HW129765   6.713   0.906   6.837
 9622SOL    HW229766   6.813   1.034   6.817
 9623SOL     OW29767   3.154   4.501   6.096
 9623SOL    HW129768   3.176   4.593   6.062
 9623SOL    HW229769   3.196   4.432   6.038
 9624SOL     OW29770   6.961   4.791   2.286
 9624SOL    HW129771   6.993   4.776   2.193
 9624SOL    HW229772   6.909   4.711   2.317
 9625SOL     OW29773   5.392   5.549   0.304
 9625SOL    HW129774   5.436   5.528   0.216
 9625SOL    HW229775   5.311   5.604   0.288
 9626SOL     OW29776   3.211   6.308   7.001
 9626SOL    HW129777   3.115   6.333   6.988
 9626SOL    HW229778   3.260   6.385   0.025
 9627SOL     OW29779   6.879   5.913   3.124
 9627SOL    HW129780   6.885   5.968   3.208
 9627SOL    HW229781   6.865   5.973   3.046
 9628SOL     OW29782   5.648   4.880   0.207
 9628SOL    HW129783   5.718   4.852   0.273
 9628SOL    HW229784   5.687   4.875   0.114
 9629SOL     OW29785   0.529   6.697   2.558
 9629SOL    HW129786   0.560   6.615   2.510
 9629SOL    HW229787   0.609   6.751   2.585
 9630SOL     OW29788   6.377   6.148   6.164
 9630SOL    HW129789   6.314   6.222   6.143
 9630SOL    HW229790   6.470   6.177   6.143
 9631SOL     OW29791   6.064   0.050   6.985
 9631SOL    HW129792   6.109   0.038   0.057
 9631SOL    HW229793   6.105   7.006   6.917
 9632SOL     OW29794   2.288   5.525   2.836
 9632SOL    HW129795   2.349   5.494   2.909
 9632SOL    HW229796   2.199   5.481   2.846
 9633SOL     OW29797   5.396   4.986   0.144
 9633SOL    HW129798   5.483   4.972   0.192
 9633SOL    HW229799   5.321   4.958   0.203
 9634SOL     OW29800   0.700   0.058   3.894
 9634SOL    HW129801   0.735   7.005   3.956
 9634SOL    HW229802   0.697   0.021   3.801
 9635SOL     OW29803   1.371   4.863   5.734
 9635SOL    HW129804   1.358   4.851   5.636
 9635SOL    HW229805   1.368   4.961   5.756
 9636SOL     OW29806   4.093   1.981   6.190
 9636SOL    HW129807   4.174   1.968   6.248
 9636SOL    HW229808   4.086   2.077   6.162
 9637SOL     OW29809   3.045   1.819   6.761
 9637SOL    HW129810   3.030   1.725   6.794
 9637SOL    HW229811   2.957   1.858   6.731
 9638SOL     OW29812   6.913   3.300   6.710
 9638SOL    HW129813   6.905   3.372   6.641
 9638SOL    HW229814   6.842   3.231   6.694
 9639SOL     OW29815   3.914   1.666   2.187
 9639SOL    HW129816   3.885   1.719   2.266
 9639SOL    HW229817   3.975   1.721   2.130
 9640SOL     OW29818   3.065   1.839   2.800
 9640SOL    HW129819   2.993   1.807   2.862
 9640SOL    HW229820   3.028   1.848   2.708
 9641SOL     OW29821   5.238   6.123   1.080
 9641SOL    HW129822   5.288   6.062   1.019
 9641SOL    HW229823   5.166   6.073   1.127
 9642SOL     OW29824   3.510   6.279   5.269
 9642SOL    HW129825   3.477   6.186   5.250
 9642SOL    HW229826   3.518   6.329   5.183
 9643SOL     OW29827   5.956   4.681   4.504
 9643SOL    HW129828   5.924   4.725   4.420
 9643SOL    HW229829   6.055   4.689   4.510
 9644SOL     OW29830   1.143   4.913   5.385
 9644SOL    HW129831   1.086   4.952   5.313
 9644SOL    HW229832   1.187   4.830   5.351
 9645SOL     OW29833   3.909   4.870   4.075
 9645SOL    HW129834   3.824   4.904   4.036
 9645SOL    HW229835   3.896   4.849   4.172
 9646SOL     OW29836   2.817   4.771   2.101
 9646SOL    HW129837   2.816   4.697   2.034
 9646SOL    HW229838   2.729   4.819   2.099
 9647SOL     OW29839   6.587   5.277   1.334
 9647SOL    HW129840   6.499   5.315   1.366
 9647SOL    HW229841   6.661   5.318   1.386
 9648SOL     OW29842   3.911   2.009   6.817
 9648SOL    HW129843   3.888   1.944   6.889
 9648SOL    HW229844   3.830   2.029   6.762
 9649SOL     OW29845   2.787   5.847   0.126
 9649SOL    HW129846   2.853   5.776   0.101
 9649SOL    HW229847   2.767   5.903   0.045
 9650SOL     OW29848   5.148   4.701   3.295
 9650SOL    HW129849   5.171   4.711   3.198
 9650SOL    HW229850   5.228   4.671   3.346
 9651SOL     OW29851   6.872   0.684   6.756
 9651SOL    HW129852   6.773   0.695   6.741
 9651SOL    HW229853   6.890   0.595   6.799
 9652SOL     OW29854   1.977   4.627   0.437
 9652SOL    HW129855   1.988   4.709   0.493
 9652SOL    HW229856   2.064   4.605   0.393
 9653SOL     OW29857   4.057   5.249   4.961
 9653SOL    HW129858   4.069   5.278   4.866
 9653SOL    HW229859   3.988   5.307   5.005
 9654SOL     OW29860   3.991   3.404   1.687
 9654SOL    HW129861   3.909   3.406   1.744
 9654SOL    HW229862   4.039   3.491   1.694
 9655SOL     OW29863   0.322   1.974   6.982
 9655SOL    HW129864   0.310   1.890   0.018
 9655SOL    HW229865   0.416   1.978   6.946
 9656SOL     OW29866   3.474   2.314   0.862
 9656SOL    HW129867   3.550   2.322   0.927
 9656SOL    HW229868   3.392   2.287   0.911
 9657SOL     OW29869   6.509   1.987   3.656
 9657SOL    HW129870   6.588   2.005   3.598
 9657SOL    HW229871   6.488   1.889   3.655
 9658SOL     OW29872   6.034   1.408   2.667
 9658SOL    HW129873   6.077   1.410   2.576
 9658SOL    HW229874   6.022   1.502   2.699
 9659SOL     OW29875   0.247   4.097   0.237
 9659SOL    HW129876   0.260   4.103   0.138
 9659SOL    HW229877   0.257   4.188   0.278
 9660SOL     OW29878   0.595   5.701   1.097
 9660SOL    HW129879   0.581   5.752   1.012
 9660SOL    HW229880   0.685   5.657   1.096
 9661SOL     OW29881   3.895   6.387   1.894
 9661SOL    HW129882   3.869   6.475   1.854
 9661SOL    HW229883   3.945   6.333   1.826
 9662SOL     OW29884   4.881   3.060   5.215
 9662SOL    HW129885   4.915   2.976   5.257
 9662SOL    HW229886   4.871   3.047   5.116
 9663SOL     OW29887   0.864   6.667   4.297
 9663SOL    HW129888   0.944   6.722   4.273
 9663SOL    HW229889   0.867   6.646   4.395
 9664SOL     OW29890   5.937   6.256   3.907
 9664SOL    HW129891   5.845   6.259   3.946
 9664SOL    HW229892   5.946   6.176   3.849
 9665SOL     OW29893   5.500   5.757   0.052
 9665SOL    HW129894   5.508   5.659   0.037
 9665SOL    HW229895   5.410   5.789   0.021
 9666SOL     OW29896   5.784   4.363   1.234
 9666SOL    HW129897   5.735   4.420   1.300
 9666SOL    HW229898   5.862   4.319   1.280
 9667SOL     OW29899   3.575   3.425   4.711
 9667SOL    HW129900   3.573   3.385   4.803
 9667SOL    HW229901   3.651   3.387   4.659
 9668SOL     OW29902   6.517   1.653   6.638
 9668SOL    HW129903   6.426   1.641   6.679
 9668SOL    HW229904   6.566   1.565   6.640
 9669SOL     OW29905   1.329   0.270   2.102
 9669SOL    HW129906   1.417   0.250   2.058
 9669SOL    HW229907   1.308   0.367   2.091
 9670SOL     OW29908   5.406   4.877   6.297
 9670SOL    HW129909   5.399   4.816   6.376
 9670SOL    HW229910   5.406   4.972   6.329
 9671SOL     OW29911   6.023   5.483   6.851
 9671SOL    HW129912   5.950   5.543   6.819
 9671SOL    HW229913   5.984   5.412   6.910
 9672SOL     OW29914   1.215   5.955   4.706
 9672SOL    HW129915   1.131   5.999   4.737
 9672SOL    HW229916   1.233   5.873   4.760
 9673SOL     OW29917   6.164   3.818   0.239
 9673SOL    HW129918   6.140   3.734   0.289
 9673SOL    HW229919   6.130   3.811   0.145
 9674SOL     OW29920   2.350   5.666   3.399
 9674SOL    HW129921   2.414   5.728   3.354
 9674SOL    HW229922   2.366   5.666   3.497
 9675SOL     OW29923   5.907   1.931   0.353
 9675SOL    HW129924   5.851   1.857   0.390
 9675SOL    HW229925   5.851   2.013   0.339
 9676SOL     OW29926   1.280   3.603   5.163
 9676SOL    HW129927   1.331   3.527   5.204
 9676SOL    HW229928   1.238   3.657   5.236
 9677SOL     OW29929   1.827   5.808   5.347
 9677SOL    HW129930   1.742   5.801   5.295
 9677SOL    HW229931   1.827   5.893   5.399
 9678SOL     OW29932   3.246   3.328   2.998
 9678SOL    HW129933   3.158   3.285   3.013
 9678SOL    HW229934   3.315   3.285   3.056
 9679SOL     OW29935   2.165   0.998   2.573
 9679SOL    HW129936   2.251   1.013   2.621
 9679SOL    HW229937   2.159   1.060   2.494
 9680SOL     OW29938   5.743   0.857   3.111
 9680SOL    HW129939   5.838   0.829   3.125
 9680SOL    HW229940   5.730   0.950   3.145
 9681SOL     OW29941   3.722   1.392   0.107
 9681SOL    HW129942   3.785   1.410   0.183
 9681SOL    HW229943   3.665   1.472   0.092
 9682SOL     OW29944   5.191   4.977   4.041
 9682SOL    HW129945   5.102   4.934   4.028
 9682SOL    HW229946   5.188   5.071   4.008
 9683SOL     OW29947   2.967   5.440   1.058
 9683SOL    HW129948   2.872   5.433   1.027
 9683SOL    HW229949   3.011   5.351   1.050
 9684SOL     OW29950   0.497   2.558   4.792
 9684SOL    HW129951   0.504   2.658   4.798
 9684SOL    HW229952   0.477   2.520   4.882
 9685SOL     OW29953   2.005   3.870   0.981
 9685SOL    HW129954   1.909   3.861   1.008
 9685SOL    HW229955   2.024   3.965   0.956
 9686SOL     OW29956   6.914   1.348   0.648
 9686SOL    HW129957   6.963   1.417   0.595
 9686SOL    HW229958   6.921   1.370   0.746
 9687SOL     OW29959   2.140   0.703   4.325
 9687SOL    HW129960   2.226   0.755   4.332
 9687SOL    HW229961   2.160   0.605   4.322
 9688SOL     OW29962   6.600   1.984   3.026
 9688SOL    HW129963   6.652   1.933   2.957
 9688SOL    HW229964   6.523   1.928   3.057
 9689SOL     OW29965   1.999   5.998   0.297
 9689SOL    HW129966   2.031   5.938   0.371
 9689SOL    HW229967   1.939   6.068   0.336
 9690SOL     OW29968   5.638   5.870   6.597
 9690SOL    HW129969   5.661   5.853   6.692
 9690SOL    HW229970   5.604   5.786   6.555
 9691SOL     OW29971   3.020   4.952   2.082
 9691SOL    HW129972   3.095   4.917   2.139
 9691SOL    HW229973   2.953   4.879   2.068
 9692SOL     OW29974   3.383   5.285   3.171
 9692SOL    HW129975   3.392   5.287   3.072
 9692SOL    HW229976   3.286   5.277   3.196
 9693SOL     OW29977   6.320   5.843   1.699
 9693SOL    HW129978   6.415   5.865   1.677
 9693SOL    HW229979   6.266   5.927   1.704
 9694SOL     OW29980   2.282   0.741   0.074
 9694SOL    HW129981   2.326   0.718   0.161
 9694SOL    HW229982   2.296   0.838   0.054
 9695SOL     OW29983   6.915   3.448   1.726
 9695SOL    HW129984   6.969   3.478   1.805
 9695SOL    HW229985   6.855   3.523   1.697
 9696SOL     OW29986   5.114   3.363   1.267
 9696SOL    HW129987   5.038   3.355   1.202
 9696SOL    HW229988   5.105   3.448   1.318
 9697SOL     OW29989   6.754   6.280   6.587
 9697SOL    HW129990   6.663   6.245   6.611
 9697SOL    HW229991   6.776   6.254   6.493
 9698SOL     OW29992   4.933   1.755   5.888
 9698SOL    HW129993   4.993   1.834   5.894
 9698SOL    HW229994   4.843   1.778   5.926
 9699SOL     OW29995   0.090   4.890   6.612
 9699SOL    HW129996   0.127   4.827   6.543
 9699SOL    HW229997   7.009   4.870   6.625
 9700SOL     OW29998   4.322   5.173   4.929
 9700SOL    HW129999   4.224   5.164   4.947
 9700SOL    HW230000   4.336   5.202   4.834
 9701SOL     OW30001   3.746   5.122   5.113
 9701SOL    HW130002   3.809   5.045   5.105
 9701SOL    HW230003   3.798   5.207   5.116
 9702SOL     OW30004   5.252   0.746   7.004
 9702SOL    HW130005   5.310   0.686   6.949
 9702SOL    HW230006   5.287   0.840   6.999
 9703SOL     OW30007   4.231   5.043   4.485
 9703SOL    HW130008   4.317   5.080   4.450
 9703SOL    HW230009   4.213   5.080   4.576
 9704SOL     OW30010   2.714   1.051   3.239
 9704SOL    HW130011   2.712   1.150   3.251
 9704SOL    HW230012   2.739   1.030   3.144
 9705SOL     OW30013   4.739   5.342   6.500
 9705SOL    HW130014   4.748   5.336   6.401
 9705SOL    HW230015   4.830   5.355   6.541
 9706SOL     OW30016   0.932   2.735   0.787
 9706SOL    HW130017   0.869   2.802   0.825
 9706SOL    HW230018   0.951   2.664   0.856
 9707SOL     OW30019   6.220   4.345   1.495
 9707SOL    HW130020   6.305   4.319   1.541
 9707SOL    HW230021   6.218   4.303   1.404
 9708SOL     OW30022   1.429   2.147   2.555
 9708SOL    HW130023   1.442   2.181   2.462
 9708SOL    HW230024   1.337   2.173   2.587
 9709SOL     OW30025   5.792   6.079   2.755
 9709SOL    HW130026   5.875   6.032   2.785
 9709SOL    HW230027   5.767   6.047   2.664
 9710SOL     OW30028   0.543   1.708   1.827
 9710SOL    HW130029   0.493   1.794   1.815
 9710SOL    HW230030   0.605   1.695   1.750
 9711SOL     OW30031   2.428   3.987   6.247
 9711SOL    HW130032   2.521   4.024   6.246
 9711SOL    HW230033   2.426   3.906   6.305
 9712SOL     OW30034   6.102   4.943   5.934
 9712SOL    HW130035   6.025   4.983   5.885
 9712SOL    HW230036   6.157   4.889   5.871
 9713SOL     OW30037   1.254   5.121   3.846
 9713SOL    HW130038   1.197   5.165   3.777
 9713SOL    HW230039   1.254   5.176   3.929
 9714SOL     OW30040   3.064   0.939   1.418
 9714SOL    HW130041   2.970   0.911   1.436
 9714SOL    HW230042   3.102   0.883   1.343
 9715SOL     OW30043   5.134   4.195   6.149
 9715SOL    HW130044   5.036   4.199   6.127
 9715SOL    HW230045   5.149   4.232   6.241
 9716SOL     OW30046   4.132   2.721   6.640
 9716SOL    HW130047   4.190   2.798   6.666
 9716SOL    HW230048   4.037   2.752   6.632
 9717SOL     OW30049   5.517   5.624   5.483
 9717SOL    HW130050   5.460   5.632   5.564
 9717SOL    HW230051   5.552   5.714   5.458
 9718SOL     OW30052   4.974   2.858   1.285
 9718SOL    HW130053   5.003   2.791   1.216
 9718SOL    HW230054   4.900   2.915   1.248
 9719SOL     OW30055   0.170   2.143   6.623
 9719SOL    HW130056   0.128   2.135   6.713
 9719SOL    HW230057   0.104   2.185   6.560
 9720SOL     OW30058   6.900   5.503   2.307
 9720SOL    HW130059   6.972   5.459   2.361
 9720SOL    HW230060   6.819   5.445   2.306
 9721SOL     OW30061   0.415   3.288   1.213
 9721SOL    HW130062   0.489   3.223   1.197
 9721SOL    HW230063   0.437   3.345   1.292
 9722SOL     OW30064   6.945   0.430   4.306
 9722SOL    HW130065   0.001   0.397   4.366
 9722SOL    HW230066   6.926   0.361   4.235
 9723SOL     OW30067   2.333   6.308   3.499
 9723SOL    HW130068   2.368   6.247   3.428
 9723SOL    HW230069   2.379   6.287   3.586
 9724SOL     OW30070   2.044   3.509   0.199
 9724SOL    HW130071   2.086   3.514   0.290
 9724SOL    HW230072   2.091   3.440   0.145
 9725SOL     OW30073   3.449   4.277   6.532
 9725SOL    HW130074   3.546   4.261   6.518
 9725SOL    HW230075   3.410   4.319   6.450
 9726SOL     OW30076   5.145   0.711   3.891
 9726SOL    HW130077   5.183   0.710   3.798
 9726SOL    HW230078   5.047   0.727   3.886
 9727SOL     OW30079   0.587   3.333   5.640
 9727SOL    HW130080   0.524   3.380   5.701
 9727SOL    HW230081   0.570   3.234   5.645
 9728SOL     OW30082   0.172   0.298   6.273
 9728SOL    HW130083   0.091   0.331   6.224
 9728SOL    HW230084   0.212   0.221   6.224
 9729SOL     OW30085   0.910   4.235   3.117
 9729SOL    HW130086   0.933   4.248   3.021
 9729SOL    HW230087   0.811   4.219   3.125
 9730SOL     OW30088   0.568   3.423   2.937
 9730SOL    HW130089   0.644   3.369   2.973
 9730SOL    HW230090   0.483   3.398   2.984
 9731SOL     OW30091   4.520   3.954   1.210
 9731SOL    HW130092   4.445   4.020   1.223
 9731SOL    HW230093   4.565   3.938   1.297
 9732SOL     OW30094   5.404   5.827   3.263
 9732SOL    HW130095   5.503   5.840   3.272
 9732SOL    HW230096   5.383   5.729   3.255
 9733SOL     OW30097   5.636   4.991   0.810
 9733SOL    HW130098   5.726   4.976   0.852
 9733SOL    HW230099   5.606   4.906   0.765
 9734SOL     OW30100   6.156   1.114   2.767
 9734SOL    HW130101   6.081   1.058   2.732
 9734SOL    HW230102   6.140   1.210   2.743
 9735SOL     OW30103   2.091   4.417   3.220
 9735SOL    HW130104   2.077   4.447   3.315
 9735SOL    HW230105   2.179   4.370   3.213
 9736SOL     OW30106   5.927   1.519   6.059
 9736SOL    HW130107   6.003   1.544   6.118
 9736SOL    HW230108   5.922   1.584   5.983
 9737SOL     OW30109   6.502   3.002   4.244
 9737SOL    HW130110   6.575   2.993   4.312
 9737SOL    HW230111   6.414   3.002   4.291
 9738SOL     OW30112   2.096   0.271   1.943
 9738SOL    HW130113   2.078   0.174   1.960
 9738SOL    HW230114   2.030   0.306   1.876
 9739SOL     OW30115   5.980   5.411   2.414
 9739SOL    HW130116   6.022   5.397   2.504
 9739SOL    HW230117   5.948   5.324   2.377
 9740SOL     OW30118   6.275   2.094   3.727
 9740SOL    HW130119   6.367   2.057   3.717
 9740SOL    HW230120   6.223   2.039   3.792
 9741SOL     OW30121   5.058   1.827   2.765
 9741SOL    HW130122   5.071   1.834   2.666
 9741SOL    HW230123   5.013   1.909   2.799
 9742SOL     OW30124   3.666   0.423   1.824
 9742SOL    HW130125   3.608   0.437   1.904
 9742SOL    HW230126   3.625   0.467   1.745
 9743SOL     OW30127   1.019   1.741   4.626
 9743SOL    HW130128   0.976   1.767   4.540
 9743SOL    HW230129   1.084   1.666   4.610
 9744SOL     OW30130   0.451   0.141   2.498
 9744SOL    HW130131   0.499   0.129   2.411
 9744SOL    HW230132   0.376   0.206   2.486
 9745SOL     OW30133   6.579   3.067   6.222
 9745SOL    HW130134   6.644   3.031   6.154
 9745SOL    HW230135   6.552   3.160   6.196
 9746SOL     OW30136   6.479   1.068   6.013
 9746SOL    HW130137   6.391   1.022   6.024
 9746SOL    HW230138   6.531   1.063   6.098
 9747SOL     OW30139   1.590   0.245   1.956
 9747SOL    HW130140   1.564   0.163   1.906
 9747SOL    HW230141   1.611   0.318   1.891
 9748SOL     OW30142   1.069   1.466   3.725
 9748SOL    HW130143   1.023   1.523   3.657
 9748SOL    HW230144   1.149   1.515   3.761
 9749SOL     OW30145   2.270   1.878   5.359
 9749SOL    HW130146   2.176   1.895   5.386
 9749SOL    HW230147   2.289   1.925   5.273
 9750SOL     OW30148   5.518   4.805   3.601
 9750SOL    HW130149   5.481   4.775   3.688
 9750SOL    HW230150   5.491   4.900   3.584
 9751SOL     OW30151   1.886   1.303   0.322
 9751SOL    HW130152   1.948   1.324   0.246
 9751SOL    HW230153   1.918   1.349   0.404
 9752SOL     OW30154   5.380   1.982   0.137
 9752SOL    HW130155   5.375   2.034   0.052
 9752SOL    HW230156   5.302   1.919   0.141
 9753SOL     OW30157   6.363   5.479   5.601
 9753SOL    HW130158   6.400   5.401   5.651
 9753SOL    HW230159   6.263   5.474   5.601
 9754SOL     OW30160   0.971   1.352   6.244
 9754SOL    HW130161   1.040   1.321   6.179
 9754SOL    HW230162   0.910   1.276   6.267
 9755SOL     OW30163   3.992   3.851   5.391
 9755SOL    HW130164   3.980   3.865   5.490
 9755SOL    HW230165   4.052   3.922   5.355
 9756SOL     OW30166   5.913   3.332   0.336
 9756SOL    HW130167   5.906   3.237   0.367
 9756SOL    HW230168   5.943   3.333   0.240
 9757SOL     OW30169   5.641   3.638   3.235
 9757SOL    HW130170   5.651   3.641   3.135
 9757SOL    HW230171   5.566   3.698   3.263
 9758SOL     OW30172   3.002   0.206   6.810
 9758SOL    HW130173   3.071   0.173   6.875
 9758SOL    HW230174   2.924   0.144   6.811
 9759SOL     OW30175   2.260   6.943   6.984
 9759SOL    HW130176   2.236   0.010   6.936
 9759SOL    HW230177   2.180   6.883   6.989
 9760SOL     OW30178   4.631   3.509   5.342
 9760SOL    HW130179   4.663   3.548   5.255
 9760SOL    HW230180   4.668   3.417   5.353
 9761SOL     OW30181   6.120   0.174   1.941
 9761SOL    HW130182   6.120   0.111   1.864
 9761SOL    HW230183   6.205   0.165   1.993
 9762SOL     OW30184   2.651   1.992   4.116
 9762SOL    HW130185   2.697   1.913   4.075
 9762SOL    HW230186   2.693   2.076   4.084
 9763SOL     OW30187   4.613   1.990   1.763
 9763SOL    HW130188   4.528   2.043   1.753
 9763SOL    HW230189   4.691   2.048   1.740
 9764SOL     OW30190   0.824   2.798   3.317
 9764SOL    HW130191   0.859   2.720   3.264
 9764SOL    HW230192   0.838   2.882   3.264
 9765SOL     OW30193   6.276   1.658   2.830
 9765SOL    HW130194   6.323   1.701   2.907
 9765SOL    HW230195   6.181   1.688   2.827
 9766SOL     OW30196   2.853   0.358   3.285
 9766SOL    HW130197   2.823   0.376   3.191
 9766SOL    HW230198   2.953   0.363   3.289
 9767SOL     OW30199   5.111   1.984   5.343
 9767SOL    HW130200   5.066   1.974   5.432
 9767SOL    HW230201   5.087   2.074   5.304
 9768SOL     OW30202   4.544   1.582   2.391
 9768SOL    HW130203   4.489   1.544   2.465
 9768SOL    HW230204   4.491   1.654   2.344
 9769SOL     OW30205   2.128   1.163   2.350
 9769SOL    HW130206   2.067   1.138   2.275
 9769SOL    HW230207   2.183   1.242   2.324
 9770SOL     OW30208   5.302   0.342   6.951
 9770SOL    HW130209   5.314   0.365   6.854
 9770SOL    HW230210   5.214   0.377   6.983
 9771SOL     OW30211   3.320   5.108   1.434
 9771SOL    HW130212   3.375   5.086   1.514
 9771SOL    HW230213   3.262   5.187   1.453
 9772SOL     OW30214   1.446   5.936   2.931
 9772SOL    HW130215   1.402   6.022   2.904
 9772SOL    HW230216   1.538   5.956   2.965
 9773SOL     OW30217   5.212   6.392   4.503
 9773SOL    HW130218   5.238   6.446   4.583
 9773SOL    HW230219   5.197   6.453   4.425
 9774SOL     OW30220   6.178   4.981   1.560
 9774SOL    HW130221   6.265   4.998   1.513
 9774SOL    HW230222   6.168   5.046   1.635
 9775SOL     OW30223   2.492   1.171   3.453
 9775SOL    HW130224   2.534   1.247   3.405
 9775SOL    HW230225   2.484   1.193   3.550
 9776SOL     OW30226   0.112   5.825   4.617
 9776SOL    HW130227   0.116   5.801   4.713
 9776SOL    HW230228   0.202   5.814   4.576
 9777SOL     OW30229   5.424   4.765   6.033
 9777SOL    HW130230   5.329   4.751   6.005
 9777SOL    HW230231   5.425   4.817   6.119
 9778SOL     OW30232   0.310   0.785   3.244
 9778SOL    HW130233   0.373   0.763   3.319
 9778SOL    HW230234   0.241   0.712   3.237
 9779SOL     OW30235   2.086   1.322   5.110
 9779SOL    HW130236   2.001   1.362   5.144
 9779SOL    HW230237   2.069   1.229   5.077
 9780SOL     OW30238   2.406   1.780   1.332
 9780SOL    HW130239   2.447   1.763   1.242
 9780SOL    HW230240   2.475   1.817   1.394
 9781SOL     OW30241   1.011   3.671   4.193
 9781SOL    HW130242   1.018   3.762   4.234
 9781SOL    HW230243   0.985   3.680   4.097
 9782SOL     OW30244   6.947   0.587   1.086
 9782SOL    HW130245   6.942   0.669   1.143
 9782SOL    HW230246   0.026   0.557   1.079
 9783SOL     OW30247   5.434   2.346   2.907
 9783SOL    HW130248   5.487   2.430   2.894
 9783SOL    HW230249   5.472   2.274   2.850
 9784SOL     OW30250   3.619   1.549   3.472
 9784SOL    HW130251   3.586   1.470   3.525
 9784SOL    HW230252   3.579   1.547   3.381
 9785SOL     OW30253   0.111   3.996   5.298
 9785SOL    HW130254   0.156   3.974   5.211
 9785SOL    HW230255   0.018   4.028   5.280
 9786SOL     OW30256   2.379   4.897   6.334
 9786SOL    HW130257   2.404   4.882   6.429
 9786SOL    HW230258   2.286   4.862   6.318
 9787SOL     OW30259   4.782   3.705   1.797
 9787SOL    HW130260   4.842   3.637   1.839
 9787SOL    HW230261   4.790   3.791   1.848
 9788SOL     OW30262   0.230   0.374   3.550
 9788SOL    HW130263   0.290   0.449   3.522
 9788SOL    HW230264   0.180   0.400   3.632
 9789SOL     OW30265   1.255   5.975   6.568
 9789SOL    HW130266   1.341   5.930   6.594
 9789SOL    HW230267   1.218   5.932   6.486
 9790SOL     OW30268   5.504   4.191   6.259
 9790SOL    HW130269   5.523   4.110   6.315
 9790SOL    HW230270   5.560   4.190   6.177
 9791SOL     OW30271   0.304   1.548   2.935
 9791SOL    HW130272   0.352   1.506   3.011
 9791SOL    HW230273   0.344   1.516   2.849
 9792SOL     OW30274   5.500   5.583   2.022
 9792SOL    HW130275   5.471   5.490   1.999
 9792SOL    HW230276   5.596   5.596   1.996
 9793SOL     OW30277   5.440   5.045   3.526
 9793SOL    HW130278   5.499   5.008   3.454
 9793SOL    HW230279   5.458   5.142   3.537
 9794SOL     OW30280   6.415   4.252   6.446
 9794SOL    HW130281   6.480   4.286   6.378
 9794SOL    HW230282   6.383   4.328   6.503
 9795SOL     OW30283   1.317   1.712   3.934
 9795SOL    HW130284   1.312   1.648   4.010
 9795SOL    HW230285   1.342   1.803   3.968
 9796SOL     OW30286   3.978   2.801   1.269
 9796SOL    HW130287   4.058   2.804   1.330
 9796SOL    HW230288   3.942   2.894   1.257
 9797SOL     OW30289   3.364   4.368   6.279
 9797SOL    HW130290   3.451   4.365   6.230
 9797SOL    HW230291   3.289   4.376   6.214
 9798SOL     OW30292   2.186   0.767   0.949
 9798SOL    HW130293   2.191   0.858   0.907
 9798SOL    HW230294   2.276   0.740   0.981
 9799SOL     OW30295   3.348   3.391   3.306
 9799SOL    HW130296   3.351   3.303   3.258
 9799SOL    HW230297   3.398   3.460   3.254
 9800SOL     OW30298   3.139   6.561   5.329
 9800SOL    HW130299   3.184   6.560   5.239
 9800SOL    HW230300   3.201   6.603   5.396
 9801SOL     OW30301   4.587   4.811   0.490
 9801SOL    HW130302   4.585   4.716   0.459
 9801SOL    HW230303   4.547   4.818   0.581
 9802SOL     OW30304   0.917   2.467   2.569
 9802SOL    HW130305   0.951   2.560   2.581
 9802SOL    HW230306   0.970   2.405   2.627
 9803SOL     OW30307   6.272   1.595   6.764
 9803SOL    HW130308   6.293   1.672   6.824
 9803SOL    HW230309   6.190   1.616   6.710
 9804SOL     OW30310   0.729   5.653   3.306
 9804SOL    HW130311   0.784   5.736   3.298
 9804SOL    HW230312   0.684   5.635   3.218
 9805SOL     OW30313   0.959   6.012   5.587
 9805SOL    HW130314   0.945   6.064   5.503
 9805SOL    HW230315   1.056   6.013   5.612
 9806SOL     OW30316   1.161   1.860   0.307
 9806SOL    HW130317   1.157   1.938   0.245
 9806SOL    HW230318   1.195   1.779   0.258
 9807SOL     OW30319   2.071   2.787   0.146
 9807SOL    HW130320   2.010   2.708   0.134
 9807SOL    HW230321   2.161   2.756   0.176
 9808SOL     OW30322   5.839   1.011   5.669
 9808SOL    HW130323   5.783   1.067   5.607
 9808SOL    HW230324   5.903   1.070   5.718
 9809SOL     OW30325   1.146   1.953   6.206
 9809SOL    HW130326   1.227   1.973   6.151
 9809SOL    HW230327   1.174   1.917   6.295
 9810SOL     OW30328   2.750   2.239   4.011
 9810SOL    HW130329   2.708   2.309   3.954
 9810SOL    HW230330   2.850   2.241   3.997
 9811SOL     OW30331   6.149   5.433   4.173
 9811SOL    HW130332   6.127   5.531   4.174
 9811SOL    HW230333   6.095   5.386   4.243
 9812SOL     OW30334   3.185   2.626   6.182
 9812SOL    HW130335   3.231   2.613   6.094
 9812SOL    HW230336   3.087   2.644   6.166
 9813SOL     OW30337   5.816   6.545   6.867
 9813SOL    HW130338   5.770   6.525   6.954
 9813SOL    HW230339   5.881   6.472   6.846
 9814SOL     OW30340   0.715   1.394   6.832
 9814SOL    HW130341   0.758   1.461   6.892
 9814SOL    HW230342   0.761   1.395   6.743
 9815SOL     OW30343   6.732   3.043   2.216
 9815SOL    HW130344   6.819   3.020   2.171
 9815SOL    HW230345   6.675   2.961   2.221
 9816SOL     OW30346   6.902   1.258   6.226
 9816SOL    HW130347   6.895   1.305   6.315
 9816SOL    HW230348   6.937   1.166   6.240
 9817SOL     OW30349   2.940   5.569   2.074
 9817SOL    HW130350   3.012   5.627   2.111
 9817SOL    HW230351   2.977   5.477   2.058
 9818SOL     OW30352   1.957   1.179   4.038
 9818SOL    HW130353   2.001   1.209   3.953
 9818SOL    HW230354   1.957   1.079   4.042
 9819SOL     OW30355   5.172   3.164   5.085
 9819SOL    HW130356   5.098   3.096   5.092
 9819SOL    HW230357   5.133   3.256   5.087
 9820SOL     OW30358   3.483   3.095   6.441
 9820SOL    HW130359   3.569   3.056   6.473
 9820SOL    HW230360   3.441   3.149   6.515
 9821SOL     OW30361   4.080   1.509   0.999
 9821SOL    HW130362   4.073   1.517   0.899
 9821SOL    HW230363   4.125   1.591   1.035
 9822SOL     OW30364   3.446   5.885   4.231
 9822SOL    HW130365   3.396   5.855   4.312
 9822SOL    HW230366   3.386   5.882   4.151
 9823SOL     OW30367   1.869   0.032   2.359
 9823SOL    HW130368   1.898   0.110   2.304
 9823SOL    HW230369   1.817   0.064   2.438
 9824SOL     OW30370   2.098   6.090   5.178
 9824SOL    HW130371   2.004   6.093   5.144
 9824SOL    HW230372   2.153   6.029   5.120
 9825SOL     OW30373   5.704   6.233   5.053
 9825SOL    HW130374   5.770   6.266   5.121
 9825SOL    HW230375   5.624   6.196   5.100
 9826SOL     OW30376   3.744   6.738   5.142
 9826SOL    HW130377   3.829   6.788   5.160
 9826SOL    HW230378   3.739   6.714   5.045
 9827SOL     OW30379   2.012   3.922   3.217
 9827SOL    HW130380   1.949   3.970   3.278
 9827SOL    HW230381   1.973   3.919   3.124
 9828SOL     OW30382   3.154   2.126   4.805
 9828SOL    HW130383   3.179   2.156   4.897
 9828SOL    HW230384   3.064   2.163   4.782
 9829SOL     OW30385   4.679   5.554   6.197
 9829SOL    HW130386   4.741   5.614   6.145
 9829SOL    HW230387   4.727   5.468   6.217
 9830SOL     OW30388   5.086   1.844   1.541
 9830SOL    HW130389   5.168   1.809   1.586
 9830SOL    HW230390   5.042   1.770   1.489
 9831SOL     OW30391   0.911   4.504   1.835
 9831SOL    HW130392   0.888   4.559   1.916
 9831SOL    HW230393   0.827   4.479   1.787
 9832SOL     OW30394   4.428   5.624   3.539
 9832SOL    HW130395   4.389   5.716   3.539
 9832SOL    HW230396   4.493   5.614   3.615
 9833SOL     OW30397   3.445   2.910   3.353
 9833SOL    HW130398   3.358   2.949   3.321
 9833SOL    HW230399   3.489   2.859   3.279
 9834SOL     OW30400   1.680   4.735   5.884
 9834SOL    HW130401   1.736   4.790   5.823
 9834SOL    HW230402   1.616   4.680   5.831
 9835SOL     OW30403   4.021   3.158   4.589
 9835SOL    HW130404   3.964   3.206   4.656
 9835SOL    HW230405   4.113   3.146   4.626
 9836SOL     OW30406   0.608   4.695   4.593
 9836SOL    HW130407   0.625   4.597   4.582
 9836SOL    HW230408   0.682   4.736   4.646
 9837SOL     OW30409   5.731   1.103   2.502
 9837SOL    HW130410   5.715   1.057   2.414
 9837SOL    HW230411   5.662   1.075   2.568
 9838SOL     OW30412   1.367   0.040   0.755
 9838SOL    HW130413   1.393   6.974   0.805
 9838SOL    HW230414   1.436   0.111   0.770
 9839SOL     OW30415   4.220   0.021   3.214
 9839SOL    HW130416   4.255   0.005   3.306
 9839SOL    HW230417   4.183   6.952   3.177
 9840SOL     OW30418   4.705   1.786   0.484
 9840SOL    HW130419   4.803   1.765   0.476
 9840SOL    HW230420   4.671   1.754   0.572
 9841SOL     OW30421   0.821   4.837   3.273
 9841SOL    HW130422   0.880   4.838   3.354
 9841SOL    HW230423   0.784   4.745   3.260
 9842SOL     OW30424   3.653   3.078   0.208
 9842SOL    HW130425   3.600   3.015   0.264
 9842SOL    HW230426   3.615   3.170   0.216
 9843SOL     OW30427   0.122   7.014   1.836
 9843SOL    HW130428   0.087   6.922   1.855
 9843SOL    HW230429   0.122   0.051   1.920
 9844SOL     OW30430   5.966   0.844   3.825
 9844SOL    HW130431   5.952   0.791   3.908
 9844SOL    HW230432   6.028   0.795   3.764
 9845SOL     OW30433   1.190   2.810   3.128
 9845SOL    HW130434   1.192   2.773   3.035
 9845SOL    HW230435   1.118   2.879   3.134
 9846SOL     OW30436   4.790   1.487   0.403
 9846SOL    HW130437   4.839   1.574   0.400
 9846SOL    HW230438   4.845   1.417   0.356
 9847SOL     OW30439   3.686   3.065   2.259
 9847SOL    HW130440   3.646   2.986   2.213
 9847SOL    HW230441   3.727   3.037   2.346
 9848SOL     OW30442   3.521   4.668   5.320
 9848SOL    HW130443   3.572   4.589   5.353
 9848SOL    HW230444   3.426   4.643   5.305
 9849SOL     OW30445   0.832   6.683   6.977
 9849SOL    HW130446   0.839   6.584   6.968
 9849SOL    HW230447   0.821   6.707   0.057
 9850SOL     OW30448   6.725   0.511   3.305
 9850SOL    HW130449   6.689   0.598   3.270
 9850SOL    HW230450   6.722   0.511   3.405
 9851SOL     OW30451   2.983   6.157   4.526
 9851SOL    HW130452   2.933   6.241   4.546
 9851SOL    HW230453   2.919   6.086   4.499
 9852SOL     OW30454   1.445   0.992   5.217
 9852SOL    HW130455   1.457   1.018   5.122
 9852SOL    HW230456   1.401   0.902   5.222
 9853SOL     OW30457   6.886   3.480   5.232
 9853SOL    HW130458   6.947   3.402   5.247
 9853SOL    HW230459   6.794   3.446   5.212
 9854SOL     OW30460   0.816   5.422   4.808
 9854SOL    HW130461   0.737   5.435   4.867
 9854SOL    HW230462   0.835   5.507   4.759
 9855SOL     OW30463   1.169   3.377   0.883
 9855SOL    HW130464   1.137   3.467   0.913
 9855SOL    HW230465   1.244   3.347   0.941
 9856SOL     OW30466   5.481   4.641   3.890
 9856SOL    HW130467   5.531   4.579   3.949
 9856SOL    HW230468   5.517   4.734   3.898
 9857SOL     OW30469   5.804   3.166   2.818
 9857SOL    HW130470   5.840   3.104   2.888
 9857SOL    HW230471   5.738   3.117   2.761
 9858SOL     OW30472   0.717   6.449   1.557
 9858SOL    HW130473   0.772   6.525   1.590
 9858SOL    HW230474   0.703   6.458   1.458
 9859SOL     OW30475   6.615   4.788   4.700
 9859SOL    HW130476   6.583   4.727   4.773
 9859SOL    HW230477   6.575   4.759   4.613
 9860SOL     OW30478   1.346   2.237   5.063
 9860SOL    HW130479   1.410   2.180   5.011
 9860SOL    HW230480   1.308   2.308   5.003
 9861SOL     OW30481   3.201   0.770   3.318
 9861SOL    HW130482   3.258   0.689   3.327
 9861SOL    HW230483   3.105   0.745   3.333
 9862SOL     OW30484   2.692   3.872   0.801
 9862SOL    HW130485   2.612   3.839   0.750
 9862SOL    HW230486   2.774   3.860   0.745
 9863SOL     OW30487   3.178   5.665   1.116
 9863SOL    HW130488   3.157   5.706   1.204
 9863SOL    HW230489   3.101   5.609   1.086
 9864SOL     OW30490   2.830   0.686   5.555
 9864SOL    HW130491   2.812   0.602   5.504
 9864SOL    HW230492   2.862   0.662   5.647
 9865SOL     OW30493   0.601   6.148   4.976
 9865SOL    HW130494   0.638   6.082   4.910
 9865SOL    HW230495   0.503   6.161   4.958
 9866SOL     OW30496   6.331   4.247   5.012
 9866SOL    HW130497   6.360   4.239   4.917
 9866SOL    HW230498   6.402   4.211   5.072
 9867SOL     OW30499   6.319   2.075   2.750
 9867SOL    HW130500   6.391   2.008   2.766
 9867SOL    HW230501   6.312   2.137   2.828
 9868SOL     OW30502   0.725   3.555   4.128
 9868SOL    HW130503   0.784   3.498   4.185
 9868SOL    HW230504   0.769   3.570   4.040
 9869SOL     OW30505   0.784   2.823   1.129
 9869SOL    HW130506   0.807   2.869   1.044
 9869SOL    HW230507   0.781   2.890   1.204
 9870SOL     OW30508   4.192   0.342   2.929
 9870SOL    HW130509   4.155   0.274   2.992
 9870SOL    HW230510   4.292   0.343   2.934
 9871SOL     OW30511   6.873   3.534   6.136
 9871SOL    HW130512   6.931   3.464   6.177
 9871SOL    HW230513   6.880   3.619   6.188
 9872SOL     OW30514   2.107   5.370   4.965
 9872SOL    HW130515   2.198   5.349   4.927
 9872SOL    HW230516   2.114   5.449   5.026
 9873SOL     OW30517   2.170   2.376   6.147
 9873SOL    HW130518   2.127   2.286   6.143
 9873SOL    HW230519   2.209   2.398   6.058
 9874SOL     OW30520   0.221   3.399   4.612
 9874SOL    HW130521   0.205   3.496   4.632
 9874SOL    HW230522   0.226   3.348   4.698
 9875SOL     OW30523   6.987   5.740   2.236
 9875SOL    HW130524   6.910   5.800   2.217
 9875SOL    HW230525   6.954   5.647   2.249
 9876SOL     OW30526   5.073   0.527   4.211
 9876SOL    HW130527   4.992   0.482   4.247
 9876SOL    HW230528   5.050   0.619   4.180
 9877SOL     OW30529   7.010   4.536   4.535
 9877SOL    HW130530   0.063   4.602   4.563
 9877SOL    HW230531   7.004   4.534   4.435
 9878SOL     OW30532   2.027   3.688   6.652
 9878SOL    HW130533   2.000   3.709   6.558
 9878SOL    HW230534   2.008   3.591   6.671
 9879SOL     OW30535   0.552   4.816   5.690
 9879SOL    HW130536   0.531   4.722   5.665
 9879SOL    HW230537   0.649   4.835   5.672
 9880SOL     OW30538   2.717   0.818   0.271
 9880SOL    HW130539   2.795   0.801   0.211
 9880SOL    HW230540   2.652   0.879   0.225
 9881SOL     OW30541   5.915   0.681   4.599
 9881SOL    HW130542   5.914   0.586   4.629
 9881SOL    HW230543   5.923   0.741   4.680
 9882SOL     OW30544   3.794   3.616   4.968
 9882SOL    HW130545   3.850   3.609   5.051
 9882SOL    HW230546   3.784   3.712   4.943
 9883SOL     OW30547   2.067   6.156   1.747
 9883SOL    HW130548   2.100   6.127   1.837
 9883SOL    HW230549   2.142   6.152   1.682
 9884SOL     OW30550   2.957   2.554   6.797
 9884SOL    HW130551   2.860   2.545   6.818
 9884SOL    HW230552   2.989   2.471   6.751
 9885SOL     OW30553   0.780   3.250   4.215
 9885SOL    HW130554   0.871   3.287   4.236
 9885SOL    HW230555   0.766   3.252   4.116
 9886SOL     OW30556   6.141   6.774   2.098
 9886SOL    HW130557   6.149   6.687   2.146
 9886SOL    HW230558   6.090   6.761   2.013
 9887SOL     OW30559   3.531   0.056   0.304
 9887SOL    HW130560   3.568   0.149   0.311
 9887SOL    HW230561   3.513   0.035   0.208
 9888SOL     OW30562   5.932   6.141   3.203
 9888SOL    HW130563   5.889   6.228   3.181
 9888SOL    HW230564   5.872   6.089   3.265
 9889SOL     OW30565   0.635   5.125   2.559
 9889SOL    HW130566   0.557   5.145   2.618
 9889SOL    HW230567   0.720   5.146   2.607
 9890SOL     OW30568   6.160   3.242   0.401
 9890SOL    HW130569   6.084   3.307   0.399
 9890SOL    HW230570   6.246   3.293   0.406
 9891SOL     OW30571   5.071   4.758   1.451
 9891SOL    HW130572   5.069   4.698   1.531
 9891SOL    HW230573   5.063   4.853   1.480
 9892SOL     OW30574   2.177   5.214   3.713
 9892SOL    HW130575   2.098   5.235   3.656
 9892SOL    HW230576   2.260   5.220   3.659
 9893SOL     OW30577   6.886   5.594   2.563
 9893SOL    HW130578   6.904   5.565   2.468
 9893SOL    HW230579   6.882   5.694   2.567
 9894SOL     OW30580   2.833   1.317   6.631
 9894SOL    HW130581   2.793   1.372   6.558
 9894SOL    HW230582   2.928   1.294   6.608
 9895SOL     OW30583   5.838   2.073   5.586
 9895SOL    HW130584   5.881   2.123   5.662
 9895SOL    HW230585   5.902   2.005   5.550
 9896SOL     OW30586   4.317   2.571   1.054
 9896SOL    HW130587   4.351   2.552   1.146
 9896SOL    HW230588   4.313   2.670   1.040
 9897SOL     OW30589   5.403   1.076   2.397
 9897SOL    HW130590   5.438   1.082   2.303
 9897SOL    HW230591   5.479   1.059   2.460
 9898SOL     OW30592   0.806   5.398   5.539
 9898SOL    HW130593   0.764   5.309   5.523
 9898SOL    HW230594   0.883   5.410   5.477
 9899SOL     OW30595   6.242   4.113   2.216
 9899SOL    HW130596   6.243   4.074   2.125
 9899SOL    HW230597   6.332   4.153   2.237
 9900SOL     OW30598   1.977   2.126   2.397
 9900SOL    HW130599   2.044   2.053   2.381
 9900SOL    HW230600   1.958   2.132   2.495
 9901SOL     OW30601   1.210   2.341   0.469
 9901SOL    HW130602   1.123   2.303   0.501
 9901SOL    HW230603   1.202   2.367   0.373
 9902SOL     OW30604   3.362   3.323   0.924
 9902SOL    HW130605   3.448   3.372   0.939
 9902SOL    HW230606   3.307   3.326   1.007
 9903SOL     OW30607   4.577   0.466   2.116
 9903SOL    HW130608   4.533   0.397   2.059
 9903SOL    HW230609   4.594   0.428   2.207
 9904SOL     OW30610   0.353   3.736   6.651
 9904SOL    HW130611   0.438   3.683   6.643
 9904SOL    HW230612   0.374   3.833   6.663
 9905SOL     OW30613   1.818   6.669   0.686
 9905SOL    HW130614   1.773   6.647   0.600
 9905SOL    HW230615   1.785   6.757   0.720
 9906SOL     OW30616   1.430   2.839   6.865
 9906SOL    HW130617   1.414   2.894   6.783
 9906SOL    HW230618   1.449   2.900   6.942
 9907SOL     OW30619   2.767   6.440   3.336
 9907SOL    HW130620   2.690   6.451   3.273
 9907SOL    HW230621   2.839   6.387   3.291
 9908SOL     OW30622   0.864   3.341   6.210
 9908SOL    HW130623   0.843   3.296   6.297
 9908SOL    HW230624   0.943   3.296   6.167
 9909SOL     OW30625   3.755   0.702   3.019
 9909SOL    HW130626   3.731   0.728   2.926
 9909SOL    HW230627   3.767   0.784   3.075
 9910SOL     OW30628   0.191   4.871   1.563
 9910SOL    HW130629   0.204   4.777   1.595
 9910SOL    HW230630   0.095   4.898   1.577
 9911SOL     OW30631   4.760   5.240   3.258
 9911SOL    HW130632   4.775   5.174   3.332
 9911SOL    HW230633   4.779   5.332   3.290
 9912SOL     OW30634   4.012   0.663   2.355
 9912SOL    HW130635   4.004   0.680   2.256
 9912SOL    HW230636   3.964   0.579   2.378
 9913SOL     OW30637   5.819   2.972   1.886
 9913SOL    HW130638   5.916   2.951   1.883
 9913SOL    HW230639   5.767   2.894   1.850
 9914SOL     OW30640   1.019   0.650   5.564
 9914SOL    HW130641   1.002   0.734   5.616
 9914SOL    HW230642   0.937   0.593   5.565
 9915SOL     OW30643   5.610   4.103   4.019
 9915SOL    HW130644   5.698   4.132   4.057
 9915SOL    HW230645   5.620   4.087   3.921
 9916SOL     OW30646   2.611   2.122   3.551
 9916SOL    HW130647   2.659   2.200   3.509
 9916SOL    HW230648   2.563   2.153   3.633
 9917SOL     OW30649   2.967   3.161   4.751
 9917SOL    HW130650   2.892   3.095   4.756
 9917SOL    HW230651   2.950   3.225   4.676
 9918SOL     OW30652   1.372   1.291   0.153
 9918SOL    HW130653   1.275   1.277   0.169
 9918SOL    HW230654   1.419   1.303   0.241
 9919SOL     OW30655   2.028   4.957   2.388
 9919SOL    HW130656   1.994   5.046   2.418
 9919SOL    HW230657   2.028   4.893   2.465
 9920SOL     OW30658   3.342   0.865   2.432
 9920SOL    HW130659   3.413   0.795   2.444
 9920SOL    HW230660   3.385   0.956   2.430
 9921SOL     OW30661   6.295   6.245   3.707
 9921SOL    HW130662   6.326   6.184   3.634
 9921SOL    HW230663   6.223   6.200   3.760
 9922SOL     OW30664   4.214   4.386   0.773
 9922SOL    HW130665   4.118   4.395   0.801
 9922SOL    HW230666   4.234   4.290   0.752
 9923SOL     OW30667   6.570   2.723   0.236
 9923SOL    HW130668   6.634   2.755   0.166
 9923SOL    HW230669   6.621   2.678   0.309
 9924SOL     OW30670   5.549   1.624   1.761
 9924SOL    HW130671   5.562   1.529   1.732
 9924SOL    HW230672   5.628   1.679   1.732
 9925SOL     OW30673   1.925   4.508   5.197
 9925SOL    HW130674   1.956   4.414   5.209
 9925SOL    HW230675   1.931   4.556   5.285
 9926SOL     OW30676   3.307   2.494   1.336
 9926SOL    HW130677   3.401   2.461   1.321
 9926SOL    HW230678   3.308   2.594   1.344
 9927SOL     OW30679   1.042   2.512   1.332
 9927SOL    HW130680   1.004   2.543   1.420
 9927SOL    HW230681   1.074   2.417   1.342
 9928SOL     OW30682   5.926   4.345   2.354
 9928SOL    HW130683   5.950   4.296   2.270
 9928SOL    HW230684   5.918   4.280   2.430
 9929SOL     OW30685   2.782   4.105   5.449
 9929SOL    HW130686   2.714   4.040   5.417
 9929SOL    HW230687   2.782   4.185   5.389
 9930SOL     OW30688   6.704   0.296   5.796
 9930SOL    HW130689   6.724   0.213   5.746
 9930SOL    HW230690   6.694   0.372   5.732
 9931SOL     OW30691   6.922   5.767   5.286
 9931SOL    HW130692   6.895   5.684   5.237
 9931SOL    HW230693   6.976   5.742   5.366
 9932SOL     OW30694   1.490   2.101   0.525
 9932SOL    HW130695   1.441   2.026   0.571
 9932SOL    HW230696   1.463   2.188   0.565
 9933SOL     OW30697   2.798   0.815   3.582
 9933SOL    HW130698   2.798   0.879   3.658
 9933SOL    HW230699   2.754   0.729   3.610
 9934SOL     OW30700   6.114   2.004   0.157
 9934SOL    HW130701   6.108   2.103   0.161
 9934SOL    HW230702   6.047   1.963   0.220
 9935SOL     OW30703   2.927   2.252   0.789
 9935SOL    HW130704   2.888   2.160   0.796
 9935SOL    HW230705   2.857   2.320   0.813
 9936SOL     OW30706   5.535   4.556   6.165
 9936SOL    HW130707   5.545   4.636   6.106
 9936SOL    HW230708   5.505   4.477   6.111
 9937SOL     OW30709   1.039   1.000   2.920
 9937SOL    HW130710   1.073   0.972   2.830
 9937SOL    HW230711   1.117   1.025   2.978
 9938SOL     OW30712   5.227   0.644   3.637
 9938SOL    HW130713   5.302   0.584   3.665
 9938SOL    HW230714   5.257   0.701   3.560
 9939SOL     OW30715   1.365   3.333   1.099
 9939SOL    HW130716   1.325   3.256   1.150
 9939SOL    HW230717   1.411   3.394   1.163
 9940SOL     OW30718   0.077   0.123   3.657
 9940SOL    HW130719   0.056   0.221   3.663
 9940SOL    HW230720   0.170   0.111   3.621
 9941SOL     OW30721   3.672   5.543   5.174
 9941SOL    HW130722   3.733   5.620   5.194
 9941SOL    HW230723   3.589   5.577   5.129
 9942SOL     OW30724   4.727   4.472   2.629
 9942SOL    HW130725   4.671   4.389   2.619
 9942SOL    HW230726   4.791   4.459   2.705
 9943SOL     OW30727   1.082   4.353   6.379
 9943SOL    HW130728   1.178   4.364   6.403
 9943SOL    HW230729   1.027   4.344   6.462
 9944SOL     OW30730   6.706   5.625   6.653
 9944SOL    HW130731   6.784   5.682   6.681
 9944SOL    HW230732   6.694   5.551   6.719
 9945SOL     OW30733   5.608   3.983   6.414
 9945SOL    HW130734   5.683   3.962   6.477
 9945SOL    HW230735   5.522   3.987   6.464
 9946SOL     OW30736   5.897   7.011   3.412
 9946SOL    HW130737   5.872   0.085   3.443
 9946SOL    HW230738   5.818   6.967   3.369
 9947SOL     OW30739   1.494   1.101   3.238
 9947SOL    HW130740   1.489   1.102   3.138
 9947SOL    HW230741   1.585   1.130   3.267
 9948SOL     OW30742   6.885   5.534   5.180
 9948SOL    HW130743   6.802   5.478   5.177
 9948SOL    HW230744   6.943   5.512   5.101
 9949SOL     OW30745   0.342   5.409   4.148
 9949SOL    HW130746   0.335   5.382   4.052
 9949SOL    HW230747   0.429   5.377   4.185
 9950SOL     OW30748   6.670   5.225   6.286
 9950SOL    HW130749   6.652   5.254   6.381
 9950SOL    HW230750   6.724   5.141   6.287
 9951SOL     OW30751   1.653   2.731   2.570
 9951SOL    HW130752   1.665   2.769   2.662
 9951SOL    HW230753   1.703   2.787   2.504
 9952SOL     OW30754   0.646   3.858   2.133
 9952SOL    HW130755   0.633   3.796   2.210
 9952SOL    HW230756   0.686   3.944   2.166
 9953SOL     OW30757   6.216   2.440   3.422
 9953SOL    HW130758   6.244   2.350   3.390
 9953SOL    HW230759   6.275   2.510   3.381
 9954SOL     OW30760   2.201   1.569   5.159
 9954SOL    HW130761   2.193   1.470   5.168
 9954SOL    HW230762   2.298   1.595   5.157
 9955SOL     OW30763   4.636   3.231   6.797
 9955SOL    HW130764   4.664   3.227   6.893
 9955SOL    HW230765   4.625   3.327   6.770
 9956SOL     OW30766   0.336   4.103   2.181
 9956SOL    HW130767   0.411   4.106   2.246
 9956SOL    HW230768   0.366   4.057   2.098
 9957SOL     OW30769   5.595   0.234   1.139
 9957SOL    HW130770   5.588   0.192   1.230
 9957SOL    HW230771   5.689   0.224   1.105
 9958SOL     OW30772   3.516   5.660   6.244
 9958SOL    HW130773   3.435   5.682   6.190
 9958SOL    HW230774   3.499   5.577   6.297
 9959SOL     OW30775   4.522   3.412   1.507
 9959SOL    HW130776   4.516   3.485   1.575
 9959SOL    HW230777   4.504   3.324   1.551
 9960SOL     OW30778   6.997   6.028   1.548
 9960SOL    HW130779   0.050   5.960   1.570
 9960SOL    HW230780   6.968   6.018   1.453
 9961SOL     OW30781   2.033   4.493   2.599
 9961SOL    HW130782   2.011   4.486   2.696
 9961SOL    HW230783   1.954   4.528   2.549
 9962SOL     OW30784   3.554   0.816   1.493
 9962SOL    HW130785   3.512   0.838   1.581
 9962SOL    HW230786   3.627   0.881   1.474
 9963SOL     OW30787   2.673   2.177   0.421
 9963SOL    HW130788   2.661   2.197   0.518
 9963SOL    HW230789   2.725   2.251   0.377
 9964SOL     OW30790   3.538   4.993   6.044
 9964SOL    HW130791   3.525   5.053   5.966
 9964SOL    HW230792   3.635   4.969   6.052
 9965SOL     OW30793   3.589   5.540   4.374
 9965SOL    HW130794   3.532   5.561   4.453
 9965SOL    HW230795   3.633   5.451   4.388
 9966SOL     OW30796   2.874   5.112   2.354
 9966SOL    HW130797   2.823   5.127   2.269
 9966SOL    HW230798   2.971   5.130   2.338
 9967SOL     OW30799   6.322   5.534   2.964
 9967SOL    HW130800   6.238   5.572   3.001
 9967SOL    HW230801   6.384   5.609   2.938
 9968SOL     OW30802   4.647   5.505   6.851
 9968SOL    HW130803   4.637   5.581   6.786
 9968SOL    HW230804   4.601   5.424   6.815
 9969SOL     OW30805   1.573   2.900   4.655
 9969SOL    HW130806   1.608   2.971   4.717
 9969SOL    HW230807   1.481   2.925   4.626
 9970SOL     OW30808   6.171   5.121   1.787
 9970SOL    HW130809   6.180   5.056   1.862
 9970SOL    HW230810   6.075   5.146   1.776
 9971SOL     OW30811   1.412   2.951   1.553
 9971SOL    HW130812   1.403   2.943   1.653
 9971SOL    HW230813   1.441   2.864   1.515
 9972SOL     OW30814   2.803   4.040   1.328
 9972SOL    HW130815   2.751   3.967   1.284
 9972SOL    HW230816   2.754   4.070   1.410
 9973SOL     OW30817   4.936   2.826   4.647
 9973SOL    HW130818   4.852   2.773   4.659
 9973SOL    HW230819   4.916   2.923   4.658
 9974SOL     OW30820   6.737   1.719   3.317
 9974SOL    HW130821   6.762   1.801   3.265
 9974SOL    HW230822   6.680   1.661   3.260
 9975SOL     OW30823   0.611   5.505   6.313
 9975SOL    HW130824   0.584   5.410   6.295
 9975SOL    HW230825   0.657   5.542   6.233
 9976SOL     OW30826   0.980   5.051   5.654
 9976SOL    HW130827   1.041   4.995   5.599
 9976SOL    HW230828   1.018   5.142   5.665
 9977SOL     OW30829   5.139   4.753   5.726
 9977SOL    HW130830   5.183   4.690   5.790
 9977SOL    HW230831   5.050   4.715   5.699
 9978SOL     OW30832   0.104   1.933   5.349
 9978SOL    HW130833   0.125   1.985   5.267
 9978SOL    HW230834   0.142   1.840   5.341
 9979SOL     OW30835   6.176   4.321   6.000
 9979SOL    HW130836   6.235   4.359   6.071
 9979SOL    HW230837   6.081   4.327   6.029
 9980SOL     OW30838   2.073   0.365   1.047
 9980SOL    HW130839   1.992   0.310   1.025
 9980SOL    HW230840   2.044   0.460   1.062
 9981SOL     OW30841   1.925   1.856   1.033
 9981SOL    HW130842   1.901   1.846   1.130
 9981SOL    HW230843   2.019   1.826   1.018
 9982SOL     OW30844   1.232   1.022   4.360
 9982SOL    HW130845   1.202   0.980   4.446
 9982SOL    HW230846   1.235   1.122   4.371
 9983SOL     OW30847   6.672   1.782   2.209
 9983SOL    HW130848   6.755   1.832   2.184
 9983SOL    HW230849   6.696   1.689   2.234
 9984SOL     OW30850   0.696   5.989   0.259
 9984SOL    HW130851   0.788   5.967   0.290
 9984SOL    HW230852   0.697   6.079   0.216
 9985SOL     OW30853   2.753   5.133   1.423
 9985SOL    HW130854   2.740   5.060   1.490
 9985SOL    HW230855   2.777   5.218   1.470
 9986SOL     OW30856   5.869   4.727   0.756
 9986SOL    HW130857   5.939   4.667   0.793
 9986SOL    HW230858   5.906   4.779   0.679
 9987SOL     OW30859   5.833   2.804   2.151
 9987SOL    HW130860   5.816   2.718   2.102
 9987SOL    HW230861   5.871   2.872   2.088
 9988SOL     OW30862   6.769   5.356   4.332
 9988SOL    HW130863   6.803   5.412   4.257
 9988SOL    HW230864   6.808   5.264   4.325
 9989SOL     OW30865   6.102   3.963   2.384
 9989SOL    HW130866   6.179   4.012   2.344
 9989SOL    HW230867   6.019   4.018   2.375
 9990SOL     OW30868   2.127   6.480   3.404
 9990SOL    HW130869   2.069   6.496   3.484
 9990SOL    HW230870   2.197   6.413   3.426
 9991SOL     OW30871   2.103   3.679   4.114
 9991SOL    HW130872   2.147   3.617   4.049
 9991SOL    HW230873   2.009   3.697   4.084
 9992SOL     OW30874   3.482   3.798   0.941
 9992SOL    HW130875   3.461   3.743   1.021
 9992SOL    HW230876   3.533   3.743   0.874
 9993SOL     OW30877   3.946   6.684   3.896
 9993SOL    HW130878   3.858   6.653   3.933
 9993SOL    HW230879   3.941   6.687   3.797
 9994SOL     OW30880   0.031   3.970   2.768
 9994SOL    HW130881   6.975   3.930   2.823
 9994SOL    HW230882   0.019   4.069   2.765
 9995SOL     OW30883   3.714   1.206   3.543
 9995SOL    HW130884   3.780   1.270   3.504
 9995SOL    HW230885   3.658   1.252   3.610
 9996SOL     OW30886   3.065   4.122   1.216
 9996SOL    HW130887   2.984   4.101   1.270
 9996SOL    HW230888   3.137   4.055   1.236
 9997SOL     OW30889   5.653   0.488   2.771
 9997SOL    HW130890   5.702   0.409   2.734
 9997SOL    HW230891   5.656   0.484   2.871
 9998SOL     OW30892   5.336   3.634   1.816
 9998SOL    HW130893   5.332   3.605   1.911
 9998SOL    HW230894   5.421   3.601   1.774
 9999SOL     OW30895   6.962   6.138   4.824
 9999SOL    HW130896   6.926   6.060   4.773
 9999SOL    HW230897   6.981   6.111   4.918
10000SOL     OW30898   5.637   2.129   0.539
10000SOL    HW130899   5.696   2.138   0.619
10000SOL    HW230900   5.692   2.128   0.456
10001SOL     OW30901   3.310   0.425   1.616
10001SOL    HW130902   3.321   0.367   1.535
10001SOL    HW230903   3.247   0.500   1.595
10002SOL     OW30904   1.861   1.053   1.639
10002SOL    HW130905   1.846   1.142   1.682
10002SOL    HW230906   1.944   1.056   1.584
10003SOL     OW30907   2.939   2.145   2.327
10003SOL    HW130908   2.874   2.216   2.298
10003SOL    HW230909   2.984   2.107   2.247
10004SOL     OW30910   5.339   3.048   5.264
10004SOL    HW130911   5.351   2.949   5.274
10004SOL    HW230912   5.288   3.067   5.181
10005SOL     OW30913   3.556   5.536   3.086
10005SOL    HW130914   3.533   5.459   3.027
10005SOL    HW230915   3.503   5.616   3.059
10006SOL     OW30916   5.857   6.988   5.467
10006SOL    HW130917   5.773   6.938   5.492
10006SOL    HW230918   5.846   0.011   5.376
10007SOL     OW30919   1.085   2.866   4.243
10007SOL    HW130920   1.162   2.803   4.253
10007SOL    HW230921   1.038   2.875   4.331
10008SOL     OW30922   4.775   1.027   3.404
10008SOL    HW130923   4.867   1.047   3.368
10008SOL    HW230924   4.743   1.106   3.457
10009SOL     OW30925   1.890   4.387   1.720
10009SOL    HW130926   1.809   4.445   1.723
10009SOL    HW230927   1.972   4.444   1.709
10010SOL     OW30928   2.593   6.117   0.812
10010SOL    HW130929   2.590   6.056   0.891
10010SOL    HW230930   2.502   6.123   0.772
10011SOL     OW30931   0.257   4.435   6.857
10011SOL    HW130932   0.344   4.398   6.887
10011SOL    HW230933   0.182   4.387   6.903
10012SOL     OW30934   5.302   0.288   2.137
10012SOL    HW130935   5.340   0.280   2.229
10012SOL    HW230936   5.307   0.383   2.107
10013SOL     OW30937   1.949   2.674   4.554
10013SOL    HW130938   1.923   2.725   4.636
10013SOL    HW230939   1.953   2.577   4.576
10014SOL     OW30940   1.325   0.739   1.579
10014SOL    HW130941   1.232   0.706   1.593
10014SOL    HW230942   1.379   0.670   1.531
10015SOL     OW30943   4.451   5.088   0.328
10015SOL    HW130944   4.534   5.053   0.285
10015SOL    HW230945   4.402   5.147   0.264
10016SOL     OW30946   2.314   1.124   4.632
10016SOL    HW130947   2.328   1.146   4.728
10016SOL    HW230948   2.396   1.146   4.580
10017SOL     OW30949   1.796   1.347   2.694
10017SOL    HW130950   1.836   1.383   2.610
10017SOL    HW230951   1.758   1.256   2.676
10018SOL     OW30952   6.901   4.780   5.908
10018SOL    HW130953   6.879   4.766   6.004
10018SOL    HW230954   6.878   4.698   5.856
10019SOL     OW30955   0.066   1.465   3.046
10019SOL    HW130956   0.164   1.465   3.027
10019SOL    HW230957   0.027   1.555   3.023
10020SOL     OW30958   0.097   1.346   1.678
10020SOL    HW130959   0.010   1.393   1.693
10020SOL    HW230960   0.171   1.402   1.714
10021SOL     OW30961   0.810   3.064   2.628
10021SOL    HW130962   0.907   3.081   2.613
10021SOL    HW230963   0.767   3.147   2.664
10022SOL     OW30964   3.271   6.728   0.921
10022SOL    HW130965   3.327   6.739   1.003
10022SOL    HW230966   3.283   6.808   0.861
10023SOL     OW30967   2.395   5.390   4.383
10023SOL    HW130968   2.297   5.370   4.392
10023SOL    HW230969   2.421   5.460   4.450
10024SOL     OW30970   1.555   5.925   2.489
10024SOL    HW130971   1.604   5.860   2.548
10024SOL    HW230972   1.457   5.915   2.502
10025SOL     OW30973   1.403   2.923   2.371
10025SOL    HW130974   1.360   2.910   2.282
10025SOL    HW230975   1.491   2.968   2.360
10026SOL     OW30976   5.309   0.304   3.233
10026SOL    HW130977   5.349   0.375   3.291
10026SOL    HW230978   5.297   0.220   3.287
10027SOL     OW30979   0.758   2.454   4.812
10027SOL    HW130980   0.664   2.487   4.805
10027SOL    HW230981   0.770   2.376   4.750
10028SOL     OW30982   2.077   1.558   1.910
10028SOL    HW130983   2.015   1.585   1.836
10028SOL    HW230984   2.142   1.491   1.876
10029SOL     OW30985   1.872   2.387   3.719
10029SOL    HW130986   1.775   2.402   3.699
10029SOL    HW230987   1.881   2.353   3.813
10030SOL     OW30988   3.417   0.496   5.207
10030SOL    HW130989   3.509   0.529   5.187
10030SOL    HW230990   3.413   0.397   5.193
10031SOL     OW30991   5.591   4.657   4.767
10031SOL    HW130992   5.685   4.629   4.786
10031SOL    HW230993   5.590   4.754   4.741
10032SOL     OW30994   4.588   0.713   5.627
10032SOL    HW130995   4.657   0.751   5.566
10032SOL    HW230996   4.611   0.619   5.649
10033SOL     OW30997   4.582   2.664   4.404
10033SOL    HW130998   4.551   2.582   4.355
10033SOL    HW230999   4.511   2.734   4.400
10034SOL     OW31000   2.934   0.245   4.114
10034SOL    HW131001   2.911   0.328   4.063
10034SOL    HW231002   3.008   0.196   4.066
10035SOL     OW31003   6.771   4.851   0.942
10035SOL    HW131004   6.846   4.845   0.875
10035SOL    HW231005   6.755   4.947   0.965
10036SOL     OW31006   6.593   0.861   0.609
10036SOL    HW131007   6.556   0.908   0.690
10036SOL    HW231008   6.528   0.868   0.534
10037SOL     OW31009   6.090   0.932   0.059
10037SOL    HW131010   6.085   1.024   0.020
10037SOL    HW231011   6.070   0.937   0.157
10038SOL     OW31012   3.953   6.793   6.566
10038SOL    HW131013   3.982   6.888   6.559
10038SOL    HW231014   3.865   6.789   6.614
10039SOL     OW31015   4.511   6.701   5.257
10039SOL    HW131016   4.526   6.604   5.240
10039SOL    HW231017   4.457   6.712   5.341
10040SOL     OW31018   4.177   5.668   6.279
10040SOL    HW131019   4.245   5.605   6.242
10040SOL    HW231020   4.214   5.761   6.282
10041SOL     OW31021   5.003   6.051   6.666
10041SOL    HW131022   5.004   5.979   6.597
10041SOL    HW231023   4.952   6.020   6.746
10042SOL     OW31024   1.173   1.781   5.239
10042SOL    HW131025   1.142   1.802   5.332
10042SOL    HW231026   1.171   1.864   5.184
10043SOL     OW31027   0.216   1.821   4.202
10043SOL    HW131028   0.280   1.897   4.208
10043SOL    HW231029   0.132   1.843   4.251
10044SOL     OW31030   2.203   1.890   3.742
10044SOL    HW131031   2.294   1.887   3.781
10044SOL    HW231032   2.176   1.986   3.728
10045SOL     OW31033   5.188   6.868   3.560
10045SOL    HW131034   5.109   6.822   3.519
10045SOL    HW231035   5.167   6.892   3.655
10046SOL     OW31036   1.103   3.681   1.542
10046SOL    HW131037   1.004   3.693   1.539
10046SOL    HW231038   1.129   3.603   1.486
10047SOL     OW31039   6.300   3.940   4.710
10047SOL    HW131040   6.272   3.857   4.661
10047SOL    HW231041   6.218   3.988   4.741
10048SOL     OW31042   4.837   2.121   2.468
10048SOL    HW131043   4.766   2.145   2.535
10048SOL    HW231044   4.862   2.202   2.415
10049SOL     OW31045   0.507   0.296   6.851
10049SOL    HW131046   0.508   0.311   6.950
10049SOL    HW231047   0.540   0.378   6.805
10050SOL     OW31048   6.763   2.295   4.786
10050SOL    HW131049   6.827   2.371   4.803
10050SOL    HW231050   6.692   2.325   4.723
10051SOL     OW31051   6.238   2.234   5.112
10051SOL    HW131052   6.159   2.224   5.051
10051SOL    HW231053   6.321   2.209   5.064
10052SOL     OW31054   3.082   2.099   2.975
10052SOL    HW131055   3.052   2.004   2.976
10052SOL    HW231056   3.059   2.140   2.886
10053SOL     OW31057   3.617   6.017   1.751
10053SOL    HW131058   3.557   6.098   1.747
10053SOL    HW231059   3.711   6.047   1.763
10054SOL     OW31060   4.608   5.109   6.090
10054SOL    HW131061   4.510   5.095   6.081
10054SOL    HW231062   4.652   5.097   6.000
10055SOL     OW31063   6.219   2.447   5.314
10055SOL    HW131064   6.277   2.525   5.289
10055SOL    HW231065   6.242   2.369   5.256
10056SOL     OW31066   5.836   4.676   1.368
10056SOL    HW131067   5.809   4.737   1.293
10056SOL    HW231068   5.757   4.621   1.396
10057SOL     OW31069   4.146   2.215   4.689
10057SOL    HW131070   4.214   2.220   4.615
10057SOL    HW231071   4.193   2.219   4.777
10058SOL     OW31072   0.428   3.812   4.524
10058SOL    HW131073   0.436   3.723   4.479
10058SOL    HW231074   0.331   3.834   4.535
10059SOL     OW31075   5.539   6.494   0.934
10059SOL    HW131076   5.458   6.465   0.883
10059SOL    HW231077   5.521   6.485   1.032
10060SOL     OW31078   1.909   1.617   1.719
10060SOL    HW131079   1.829   1.677   1.725
10060SOL    HW231080   1.884   1.532   1.672
10061SOL     OW31081   5.571   1.146   4.763
10061SOL    HW131082   5.527   1.229   4.797
10061SOL    HW231083   5.663   1.168   4.731
10062SOL     OW31084   6.582   0.352   4.534
10062SOL    HW131085   6.609   0.297   4.455
10062SOL    HW231086   6.576   0.448   4.508
10063SOL     OW31087   1.845   1.451   3.929
10063SOL    HW131088   1.904   1.531   3.916
10063SOL    HW231089   1.888   1.389   3.995
10064SOL     OW31090   5.045   6.797   0.031
10064SOL    HW131091   5.014   6.847   0.112
10064SOL    HW231092   5.054   6.861   6.971
10065SOL     OW31093   2.010   6.688   2.711
10065SOL    HW131094   1.973   6.693   2.618
10065SOL    HW231095   1.957   6.749   2.771
10066SOL     OW31096   0.729   1.546   3.140
10066SOL    HW131097   0.699   1.512   3.050
10066SOL    HW231098   0.799   1.616   3.128
10067SOL     OW31099   6.426   4.203   4.737
10067SOL    HW131100   6.520   4.223   4.711
10067SOL    HW231101   6.404   4.108   4.715
10068SOL     OW31102   6.598   3.007   2.576
10068SOL    HW131103   6.577   2.973   2.485
10068SOL    HW231104   6.625   3.103   2.571
10069SOL     OW31105   1.910   5.375   3.728
10069SOL    HW131106   1.820   5.400   3.765
10069SOL    HW231107   1.966   5.336   3.801
10070SOL     OW31108   6.586   0.093   5.138
10070SOL    HW131109   6.605   0.149   5.058
10070SOL    HW231110   6.672   0.058   5.176
10071SOL     OW31111   6.132   5.734   3.805
10071SOL    HW131112   6.095   5.686   3.885
10071SOL    HW231113   6.231   5.721   3.802
10072SOL     OW31114   0.209   6.601   4.114
10072SOL    HW131115   0.192   6.700   4.112
10072SOL    HW231116   0.122   6.552   4.108
10073SOL     OW31117   6.187   4.846   5.165
10073SOL    HW131118   6.226   4.793   5.089
10073SOL    HW231119   6.176   4.941   5.137
10074SOL     OW31120   1.473   1.038   5.520
10074SOL    HW131121   1.518   1.005   5.437
10074SOL    HW231122   1.376   1.051   5.503
10075SOL     OW31123   1.436   2.899   3.499
10075SOL    HW131124   1.364   2.968   3.504
10075SOL    HW231125   1.468   2.891   3.405
10076SOL     OW31126   6.841   0.288   3.212
10076SOL    HW131127   6.941   0.295   3.220
10076SOL    HW231128   6.800   0.377   3.233
10077SOL     OW31129   3.769   3.399   6.406
10077SOL    HW131130   3.761   3.372   6.310
10077SOL    HW231131   3.680   3.431   6.439
10078SOL     OW31132   0.322   5.308   3.883
10078SOL    HW131133   0.290   5.234   3.824
10078SOL    HW231134   0.340   5.389   3.827
10079SOL     OW31135   0.044   3.676   2.275
10079SOL    HW131136   7.007   3.698   2.194
10079SOL    HW231137   0.101   3.754   2.301
10080SOL     OW31138   3.748   0.997   5.142
10080SOL    HW131139   3.808   1.066   5.102
10080SOL    HW231140   3.723   0.930   5.072
10081SOL     OW31141   7.015   0.009   0.750
10081SOL    HW131142   0.008   6.944   0.807
10081SOL    HW231143   6.922   0.014   0.715
10082SOL     OW31144   6.620   5.096   1.784
10082SOL    HW131145   6.691   5.151   1.741
10082SOL    HW231146   6.633   5.000   1.760
10083SOL     OW31147   5.258   0.774   3.193
10083SOL    HW131148   5.271   0.867   3.157
10083SOL    HW231149   5.295   0.708   3.128
10084SOL     OW31150   2.628   1.307   5.599
10084SOL    HW131151   2.603   1.372   5.527
10084SOL    HW231152   2.572   1.225   5.591
10085SOL     OW31153   1.775   6.226   2.304
10085SOL    HW131154   1.831   6.213   2.222
10085SOL    HW231155   1.834   6.251   2.381
10086SOL     OW31156   5.346   5.261   2.613
10086SOL    HW131157   5.266   5.204   2.595
10086SOL    HW231158   5.343   5.293   2.708
10087SOL     OW31159   0.332   0.128   3.523
10087SOL    HW131160   0.291   0.219   3.534
10087SOL    HW231161   0.346   0.110   3.425
10088SOL     OW31162   6.693   0.377   1.153
10088SOL    HW131163   6.715   0.472   1.174
10088SOL    HW231164   6.757   0.342   1.085
10089SOL     OW31165   3.089   1.704   2.195
10089SOL    HW131166   3.070   1.678   2.100
10089SOL    HW231167   3.070   1.801   2.207
10090SOL     OW31168   1.253   4.264   1.418
10090SOL    HW131169   1.228   4.167   1.416
10090SOL    HW231170   1.282   4.289   1.511
10091SOL     OW31171   1.461   3.829   5.737
10091SOL    HW131172   1.432   3.921   5.711
10091SOL    HW231173   1.452   3.768   5.658
10092SOL     OW31174   1.818   3.127   5.057
10092SOL    HW131175   1.788   3.032   5.057
10092SOL    HW231176   1.916   3.132   5.076
10093SOL     OW31177   6.586   3.557   4.924
10093SOL    HW131178   6.547   3.631   4.978
10093SOL    HW231179   6.647   3.595   4.854
10094SOL     OW31180   2.327   5.478   1.839
10094SOL    HW131181   2.411   5.491   1.786
10094SOL    HW231182   2.351   5.450   1.932
10095SOL     OW31183   5.686   1.632   5.176
10095SOL    HW131184   5.588   1.615   5.179
10095SOL    HW231185   5.735   1.555   5.217
10096SOL     OW31186   4.822   4.960   2.593
10096SOL    HW131187   4.760   4.941   2.517
10096SOL    HW231188   4.865   4.875   2.623
10097SOL     OW31189   0.905   1.006   0.796
10097SOL    HW131190   0.977   1.075   0.808
10097SOL    HW231191   0.924   0.954   0.712
10098SOL     OW31192   2.684   0.725   5.133
10098SOL    HW131193   2.715   0.670   5.210
10098SOL    HW231194   2.715   0.683   5.047
10099SOL     OW31195   6.863   5.139   1.074
10099SOL    HW131196   6.864   5.135   0.974
10099SOL    HW231197   6.939   5.196   1.105
10100SOL     OW31198   4.994   0.187   4.910
10100SOL    HW131199   5.060   0.157   4.842
10100SOL    HW231200   4.903   0.195   4.869
10101SOL     OW31201   5.888   3.975   1.672
10101SOL    HW131202   5.982   3.974   1.706
10101SOL    HW231203   5.824   3.980   1.749
10102SOL     OW31204   1.357   1.199   2.079
10102SOL    HW131205   1.347   1.298   2.086
10102SOL    HW231206   1.449   1.178   2.044
10103SOL     OW31207   2.551   0.642   6.369
10103SOL    HW131208   2.457   0.658   6.340
10103SOL    HW231209   2.607   0.721   6.345
10104SOL     OW31210   1.612   2.159   3.976
10104SOL    HW131211   1.582   2.144   4.070
10104SOL    HW231212   1.639   2.072   3.935
10105SOL     OW31213   1.473   0.749   0.814
10105SOL    HW131214   1.571   0.764   0.799
10105SOL    HW231215   1.460   0.679   0.884
10106SOL     OW31216   4.147   6.570   0.949
10106SOL    HW131217   4.163   6.487   0.896
10106SOL    HW231218   4.118   6.644   0.889
10107SOL     OW31219   6.792   1.403   6.579
10107SOL    HW131220   6.778   1.432   6.674
10107SOL    HW231221   6.858   1.463   6.535
10108SOL     OW31222   6.385   6.571   0.400
10108SOL    HW131223   6.463   6.630   0.384
10108SOL    HW231224   6.407   6.505   0.472
10109SOL     OW31225   5.021   0.251   0.760
10109SOL    HW131226   5.039   0.254   0.661
10109SOL    HW231227   5.106   0.272   0.809
10110SOL     OW31228   3.955   5.883   4.517
10110SOL    HW131229   3.879   5.852   4.460
10110SOL    HW231230   3.975   5.814   4.587
10111SOL     OW31231   5.317   3.724   3.551
10111SOL    HW131232   5.254   3.651   3.579
10111SOL    HW231233   5.327   3.790   3.626
10112SOL     OW31234   5.633   4.026   3.737
10112SOL    HW131235   5.613   3.931   3.765
10112SOL    HW231236   5.582   4.047   3.654
10113SOL     OW31237   4.661   0.032   6.151
10113SOL    HW131238   4.730   0.021   6.079
10113SOL    HW231239   4.707   0.047   6.238
10114SOL     OW31240   5.667   1.316   0.954
10114SOL    HW131241   5.745   1.257   0.975
10114SOL    HW231242   5.685   1.366   0.869
10115SOL     OW31243   3.626   1.548   4.440
10115SOL    HW131244   3.609   1.643   4.465
10115SOL    HW231245   3.679   1.545   4.355
10116SOL     OW31246   0.316   6.264   0.863
10116SOL    HW131247   0.409   6.289   0.835
10116SOL    HW231248   0.254   6.278   0.786
10117SOL     OW31249   6.258   6.293   5.776
10117SOL    HW131250   6.233   6.385   5.806
10117SOL    HW231251   6.190   6.228   5.810
10118SOL     OW31252   2.066   4.761   2.681
10118SOL    HW131253   2.141   4.827   2.691
10118SOL    HW231254   2.101   4.677   2.641
10119SOL     OW31255   0.463   6.059   4.672
10119SOL    HW131256   0.395   6.100   4.733
10119SOL    HW231257   0.500   5.976   4.714
10120SOL     OW31258   1.705   3.921   4.981
10120SOL    HW131259   1.606   3.916   4.964
10120SOL    HW231260   1.735   4.016   4.978
10121SOL     OW31261   6.447   4.031   6.606
10121SOL    HW131262   6.411   4.066   6.692
10121SOL    HW231263   6.448   4.104   6.537
10122SOL     OW31264   6.249   3.359   1.333
10122SOL    HW131265   6.298   3.390   1.414
10122SOL    HW231266   6.239   3.260   1.337
10123SOL     OW31267   5.600   6.951   0.073
10123SOL    HW131268   5.652   6.988   0.150
10123SOL    HW231269   5.518   7.007   0.058
10124SOL     OW31270   1.436   4.224   0.203
10124SOL    HW131271   1.397   4.166   0.274
10124SOL    HW231272   1.535   4.211   0.201
10125SOL     OW31273   2.126   1.658   2.273
10125SOL    HW131274   2.048   1.655   2.210
10125SOL    HW231275   2.176   1.572   2.267
10126SOL     OW31276   0.126   6.502   6.235
10126SOL    HW131277   0.114   6.594   6.273
10126SOL    HW231278   0.075   6.494   6.149
10127SOL     OW31279   2.860   4.717   6.453
10127SOL    HW131280   2.779   4.684   6.405
10127SOL    HW231281   2.916   4.640   6.481
10128SOL     OW31282   2.781   1.146   1.353
10128SOL    HW131283   2.772   1.117   1.258
10128SOL    HW231284   2.763   1.069   1.413
10129SOL     OW31285   5.623   1.732   2.514
10129SOL    HW131286   5.586   1.774   2.431
10129SOL    HW231287   5.622   1.632   2.504
10130SOL     OW31288   1.643   3.888   1.968
10130SOL    HW131289   1.715   3.864   2.033
10130SOL    HW231290   1.680   3.947   1.896
10131SOL     OW31291   1.085   0.046   4.407
10131SOL    HW131292   1.133   0.104   4.474
10131SOL    HW231293   1.059   0.101   4.328
10132SOL     OW31294   3.555   0.113   4.750
10132SOL    HW131295   3.652   0.135   4.753
10132SOL    HW231296   3.541   0.033   4.692
10133SOL     OW31297   3.734   6.252   1.055
10133SOL    HW131298   3.760   6.202   0.973
10133SOL    HW231299   3.635   6.249   1.066
10134SOL     OW31300   0.252   6.359   3.628
10134SOL    HW131301   0.241   6.289   3.557
10134SOL    HW231302   0.279   6.445   3.586
10135SOL     OW31303   4.849   3.118   3.596
10135SOL    HW131304   4.853   3.097   3.499
10135SOL    HW231305   4.835   3.034   3.648
10136SOL     OW31306   5.133   0.485   2.407
10136SOL    HW131307   5.197   0.535   2.350
10136SOL    HW231308   5.183   0.440   2.481
10137SOL     OW31309   6.391   4.029   4.318
10137SOL    HW131310   6.342   4.115   4.333
10137SOL    HW231311   6.480   4.034   4.363
10138SOL     OW31312   4.930   3.377   0.726
10138SOL    HW131313   5.012   3.424   0.693
10138SOL    HW231314   4.854   3.442   0.733
10139SOL     OW31315   3.262   4.074   3.274
10139SOL    HW131316   3.360   4.070   3.290
10139SOL    HW231317   3.212   4.059   3.359
10140SOL     OW31318   5.840   6.137   6.923
10140SOL    HW131319   5.901   6.193   6.866
10140SOL    HW231320   5.831   6.180   7.013
10141SOL     OW31321   3.774   1.789   5.189
10141SOL    HW131322   3.681   1.813   5.217
10141SOL    HW231323   3.785   1.690   5.192
10142SOL     OW31324   6.067   6.572   5.203
10142SOL    HW131325   6.056   6.639   5.276
10142SOL    HW231326   6.153   6.588   5.156
10143SOL     OW31327   4.987   1.076   6.885
10143SOL    HW131328   4.925   1.021   6.942
10143SOL    HW231329   5.045   1.133   6.944
10144SOL     OW31330   3.123   0.300   6.113
10144SOL    HW131331   3.055   0.267   6.047
10144SOL    HW231332   3.113   0.249   6.199
10145SOL     OW31333   2.665   5.353   4.467
10145SOL    HW131334   2.669   5.441   4.420
10145SOL    HW231335   2.571   5.317   4.465
10146SOL     OW31336   4.379   4.785   4.887
10146SOL    HW131337   4.379   4.688   4.910
10146SOL    HW231338   4.473   4.820   4.890
10147SOL     OW31339   5.189   3.985   5.451
10147SOL    HW131340   5.173   3.962   5.547
10147SOL    HW231341   5.243   4.069   5.445
10148SOL     OW31342   5.223   4.589   6.788
10148SOL    HW131343   5.230   4.686   6.765
10148SOL    HW231344   5.314   4.548   6.788
10149SOL     OW31345   5.820   3.195   0.604
10149SOL    HW131346   5.790   3.290   0.596
10149SOL    HW231347   5.880   3.186   0.683
10150SOL     OW31348   3.485   3.898   0.300
10150SOL    HW131349   3.454   3.803   0.292
10150SOL    HW231350   3.462   3.933   0.391
10151SOL     OW31351   0.856   6.154   6.900
10151SOL    HW131352   0.763   6.117   6.903
10151SOL    HW231353   0.908   6.108   6.827
10152SOL     OW31354   7.016   6.089   4.416
10152SOL    HW131355   0.071   6.156   4.435
10152SOL    HW231356   6.950   6.089   4.491
10153SOL     OW31357   4.814   6.212   3.657
10153SOL    HW131358   4.875   6.285   3.688
10153SOL    HW231359   4.719   6.243   3.663
10154SOL     OW31360   4.427   6.573   5.489
10154SOL    HW131361   4.344   6.518   5.490
10154SOL    HW231362   4.437   6.620   5.577
10155SOL     OW31363   3.816   2.353   5.604
10155SOL    HW131364   3.813   2.433   5.665
10155SOL    HW231365   3.823   2.384   5.509
10156SOL     OW31366   5.872   0.520   2.503
10156SOL    HW131367   5.926   0.480   2.577
10156SOL    HW231368   5.809   0.451   2.467
10157SOL     OW31369   6.809   1.768   0.772
10157SOL    HW131370   6.834   1.862   0.748
10157SOL    HW231371   6.743   1.733   0.706
10158SOL     OW31372   5.899   5.020   0.640
10158SOL    HW131373   5.956   5.101   0.631
10158SOL    HW231374   5.904   4.984   0.733
10159SOL     OW31375   2.387   3.445   0.162
10159SOL    HW131376   2.449   3.518   0.133
10159SOL    HW231377   2.350   3.398   0.082
10160SOL     OW31378   1.798   2.816   2.321
10160SOL    HW131379   1.809   2.915   2.315
10160SOL    HW231380   1.860   2.772   2.255
10161SOL     OW31381   2.978   2.815   0.327
10161SOL    HW131382   2.983   2.865   0.414
10161SOL    HW231383   2.986   2.717   0.345
10162SOL     OW31384   3.637   4.639   0.866
10162SOL    HW131385   3.555   4.688   0.836
10162SOL    HW231386   3.713   4.703   0.878
10163SOL     OW31387   6.274   4.379   6.751
10163SOL    HW131388   6.234   4.392   6.660
10163SOL    HW231389   6.310   4.466   6.784
10164SOL     OW31390   6.094   3.459   4.290
10164SOL    HW131391   6.189   3.454   4.319
10164SOL    HW231392   6.053   3.367   4.296
10165SOL     OW31393   6.519   1.571   3.198
10165SOL    HW131394   6.440   1.520   3.230
10165SOL    HW231395   6.574   1.514   3.136
10166SOL     OW31396   3.306   1.976   1.856
10166SOL    HW131397   3.397   1.962   1.896
10166SOL    HW231398   3.307   2.061   1.802
10167SOL     OW31399   2.222   4.386   6.844
10167SOL    HW131400   2.240   4.344   6.755
10167SOL    HW231401   2.307   4.389   6.897
10168SOL     OW31402   5.881   3.341   6.395
10168SOL    HW131403   5.960   3.371   6.448
10168SOL    HW231404   5.797   3.371   6.440
10169SOL     OW31405   6.566   4.638   3.746
10169SOL    HW131406   6.642   4.595   3.698
10169SOL    HW231407   6.570   4.614   3.843
10170SOL     OW31408   6.832   5.886   5.614
10170SOL    HW131409   6.871   5.800   5.647
10170SOL    HW231410   6.789   5.872   5.525
10171SOL     OW31411   6.838   2.575   4.389
10171SOL    HW131412   6.792   2.622   4.314
10171SOL    HW231413   6.916   2.524   4.354
10172SOL     OW31414   0.225   6.041   5.386
10172SOL    HW131415   0.306   6.068   5.333
10172SOL    HW231416   0.210   5.943   5.375
10173SOL     OW31417   1.643   2.952   0.966
10173SOL    HW131418   1.735   2.983   0.943
10173SOL    HW231419   1.600   3.017   1.029
10174SOL     OW31420   4.835   4.460   3.207
10174SOL    HW131421   4.770   4.406   3.261
10174SOL    HW231422   4.918   4.406   3.192
10175SOL     OW31423   5.923   1.768   3.763
10175SOL    HW131424   5.865   1.836   3.718
10175SOL    HW231425   5.867   1.704   3.814
10176SOL     OW31426   0.628   3.638   4.895
10176SOL    HW131427   0.642   3.702   4.820
10176SOL    HW231428   0.586   3.686   4.972
10177SOL     OW31429   2.470   0.592   1.302
10177SOL    HW131430   2.552   0.592   1.359
10177SOL    HW231431   2.442   0.498   1.284
10178SOL     OW31432   0.816   1.036   6.126
10178SOL    HW131433   0.790   1.121   6.080
10178SOL    HW231434   0.794   1.043   6.224
10179SOL     OW31435   0.811   2.776   6.627
10179SOL    HW131436   0.852   2.685   6.631
10179SOL    HW231437   0.759   2.785   6.543
10180SOL     OW31438   4.252   0.556   6.036
10180SOL    HW131439   4.277   0.518   5.947
10180SOL    HW231440   4.334   0.592   6.081
10181SOL     OW31441   6.292   3.323   1.060
10181SOL    HW131442   6.207   3.358   1.018
10181SOL    HW231443   6.301   3.361   1.152
10182SOL     OW31444   4.653   0.985   1.744
10182SOL    HW131445   4.652   1.082   1.719
10182SOL    HW231446   4.665   0.975   1.843
10183SOL     OW31447   6.951   2.995   6.455
10183SOL    HW131448   6.881   3.066   6.444
10183SOL    HW231449   6.931   2.919   6.393
10184SOL     OW31450   3.901   1.545   6.136
10184SOL    HW131451   3.953   1.623   6.101
10184SOL    HW231452   3.948   1.460   6.110
10185SOL     OW31453   6.253   6.072   3.024
10185SOL    HW131454   6.176   6.033   3.075
10185SOL    HW231455   6.335   6.069   3.082
10186SOL     OW31456   5.763   3.702   4.035
10186SOL    HW131457   5.793   3.608   4.051
10186SOL    HW231458   5.741   3.746   4.122
10187SOL     OW31459   1.228   3.618   0.500
10187SOL    HW131460   1.240   3.705   0.548
10187SOL    HW231461   1.220   3.636   0.402
10188SOL     OW31462   4.232   5.294   0.454
10188SOL    HW131463   4.260   5.207   0.496
10188SOL    HW231464   4.176   5.345   0.520
10189SOL     OW31465   1.202   0.876   5.988
10189SOL    HW131466   1.242   0.796   6.034
10189SOL    HW231467   1.252   0.894   5.903
10190SOL     OW31468   4.904   3.351   1.904
10190SOL    HW131469   4.835   3.312   1.965
10190SOL    HW231470   4.866   3.361   1.812
10191SOL     OW31471   4.404   6.182   6.615
10191SOL    HW131472   4.413   6.281   6.609
10191SOL    HW231473   4.307   6.157   6.618
10192SOL     OW31474   4.080   1.591   5.084
10192SOL    HW131475   4.120   1.516   5.032
10192SOL    HW231476   4.152   1.657   5.107
10193SOL     OW31477   3.843   3.040   1.994
10193SOL    HW131478   3.836   3.092   2.079
10193SOL    HW231479   3.772   2.970   1.992
10194SOL     OW31480   5.418   6.088   5.669
10194SOL    HW131481   5.388   6.171   5.715
10194SOL    HW231482   5.500   6.108   5.614
10195SOL     OW31483   5.984   5.875   0.423
10195SOL    HW131484   5.986   5.903   0.327
10195SOL    HW231485   5.914   5.927   0.471
10196SOL     OW31486   4.386   1.989   3.946
10196SOL    HW131487   4.450   2.057   3.908
10196SOL    HW231488   4.421   1.955   4.033
10197SOL     OW31489   5.811   0.760   4.985
10197SOL    HW131490   5.824   0.821   4.906
10197SOL    HW231491   5.869   0.791   5.060
10198SOL     OW31492   2.846   6.413   2.954
10198SOL    HW131493   2.922   6.477   2.940
10198SOL    HW231494   2.880   6.319   2.947
10199SOL     OW31495   2.118   3.478   0.470
10199SOL    HW131496   2.179   3.475   0.550
10199SOL    HW231497   2.048   3.548   0.485
10200SOL     OW31498   5.052   2.513   6.251
10200SOL    HW131499   5.014   2.515   6.159
10200SOL    HW231500   5.070   2.606   6.282
10201SOL     OW31501   1.345   5.199   0.333
10201SOL    HW131502   1.424   5.177   0.275
10201SOL    HW231503   1.261   5.177   0.283
10202SOL     OW31504   3.362   4.990   1.191
10202SOL    HW131505   3.345   5.048   1.271
10202SOL    HW231506   3.288   4.924   1.182
10203SOL     OW31507   6.582   2.380   2.513
10203SOL    HW131508   6.579   2.427   2.602
10203SOL    HW231509   6.509   2.312   2.509
10204SOL     OW31510   5.016   6.082   0.159
10204SOL    HW131511   4.978   6.009   0.217
10204SOL    HW231512   5.104   6.053   0.122
10205SOL     OW31513   2.370   0.547   2.129
10205SOL    HW131514   2.373   0.637   2.085
10205SOL    HW231515   2.275   0.521   2.146
10206SOL     OW31516   6.802   0.220   6.520
10206SOL    HW131517   6.784   0.262   6.609
10206SOL    HW231518   6.900   0.203   6.512
10207SOL     OW31519   1.233   2.086   6.764
10207SOL    HW131520   1.268   2.134   6.844
10207SOL    HW231521   1.309   2.039   6.718
10208SOL     OW31522   6.460   4.813   4.132
10208SOL    HW131523   6.533   4.873   4.099
10208SOL    HW231524   6.500   4.735   4.181
10209SOL     OW31525   0.192   0.048   0.410
10209SOL    HW131526   0.144   0.075   0.326
10209SOL    HW231527   0.173   0.114   0.482
10210SOL     OW31528   4.421   6.994   1.825
10210SOL    HW131529   4.475   0.055   1.791
10210SOL    HW231530   4.448   6.974   1.919
10211SOL     OW31531   4.598   6.643   4.370
10211SOL    HW131532   4.507   6.613   4.340
10211SOL    HW231533   4.653   6.563   4.393
10212SOL     OW31534   0.315   0.212   5.713
10212SOL    HW131535   0.292   0.125   5.671
10212SOL    HW231536   0.389   0.256   5.661
10213SOL     OW31537   5.773   2.575   1.637
10213SOL    HW131538   5.699   2.638   1.657
10213SOL    HW231539   5.850   2.593   1.699
10214SOL     OW31540   0.520   2.119   1.407
10214SOL    HW131541   0.609   2.076   1.420
10214SOL    HW231542   0.518   2.166   1.319
10215SOL     OW31543   3.962   3.075   4.062
10215SOL    HW131544   3.988   3.141   3.992
10215SOL    HW231545   4.005   3.099   4.149
10216SOL     OW31546   6.943   0.974   1.409
10216SOL    HW131547   6.877   1.040   1.373
10216SOL    HW231548   0.003   0.965   1.346
10217SOL     OW31549   3.257   1.177   3.191
10217SOL    HW131550   3.344   1.193   3.237
10217SOL    HW231551   3.256   1.084   3.154
10218SOL     OW31552   1.477   1.470   1.686
10218SOL    HW131553   1.394   1.415   1.679
10218SOL    HW231554   1.494   1.516   1.599
10219SOL     OW31555   0.593   1.770   3.464
10219SOL    HW131556   0.635   1.832   3.530
10219SOL    HW231557   0.568   1.820   3.381
10220SOL     OW31558   5.011   1.890   0.865
10220SOL    HW131559   5.061   1.841   0.794
10220SOL    HW231560   4.972   1.825   0.930
10221SOL     OW31561   1.426   4.544   3.960
10221SOL    HW131562   1.428   4.644   3.959
10221SOL    HW231563   1.406   4.511   4.052
10222SOL     OW31564   3.047   4.290   5.240
10222SOL    HW131565   2.985   4.367   5.230
10222SOL    HW231566   3.025   4.240   5.324
10223SOL     OW31567   2.142   4.706   1.165
10223SOL    HW131568   2.186   4.626   1.126
10223SOL    HW231569   2.072   4.678   1.231
10224SOL     OW31570   5.975   2.939   5.761
10224SOL    HW131571   5.920   2.874   5.709
10224SOL    HW231572   6.013   3.008   5.699
10225SOL     OW31573   0.861   5.733   5.392
10225SOL    HW131574   0.785   5.791   5.421
10225SOL    HW231575   0.938   5.791   5.366
10226SOL     OW31576   2.204   0.177   6.149
10226SOL    HW131577   2.107   0.190   6.127
10226SOL    HW231578   2.241   0.102   6.094
10227SOL     OW31579   5.867   4.768   1.109
10227SOL    HW131580   5.799   4.751   1.037
10227SOL    HW231581   5.949   4.713   1.091
10228SOL     OW31582   0.703   6.085   1.910
10228SOL    HW131583   0.669   6.107   1.819
10228SOL    HW231584   0.707   6.168   1.965
10229SOL     OW31585   1.676   3.105   4.812
10229SOL    HW131586   1.741   3.096   4.887
10229SOL    HW231587   1.687   3.194   4.768
10230SOL     OW31588   6.076   6.305   3.013
10230SOL    HW131589   6.055   6.234   3.080
10230SOL    HW231590   6.155   6.276   2.958
10231SOL     OW31591   6.784   4.460   5.450
10231SOL    HW131592   6.743   4.437   5.361
10231SOL    HW231593   6.756   4.553   5.476
10232SOL     OW31594   3.521   1.363   3.662
10232SOL    HW131595   3.542   1.328   3.753
10232SOL    HW231596   3.450   1.308   3.619
10233SOL     OW31597   3.789   4.072   4.789
10233SOL    HW131598   3.816   3.985   4.748
10233SOL    HW231599   3.763   4.136   4.718
10234SOL     OW31600   5.923   0.780   0.475
10234SOL    HW131601   5.920   0.878   0.454
10234SOL    HW231602   5.833   0.740   0.461
10235SOL     OW31603   3.165   2.284   1.197
10235SOL    HW131604   3.189   2.374   1.232
10235SOL    HW231605   3.067   2.282   1.174
10236SOL     OW31606   2.494   0.986   0.206
10236SOL    HW131607   2.440   0.987   0.122
10236SOL    HW231608   2.435   0.963   0.284
10237SOL     OW31609   1.027   4.040   6.343
10237SOL    HW131610   0.927   4.043   6.350
10237SOL    HW231611   1.063   4.133   6.341
10238SOL     OW31612   3.823   4.209   1.718
10238SOL    HW131613   3.733   4.250   1.733
10238SOL    HW231614   3.828   4.121   1.765
10239SOL     OW31615   1.824   3.295   5.789
10239SOL    HW131616   1.842   3.208   5.832
10239SOL    HW231617   1.909   3.334   5.754
10240SOL     OW31618   1.778   4.814   2.539
10240SOL    HW131619   1.728   4.887   2.493
10240SOL    HW231620   1.849   4.779   2.479
10241SOL     OW31621   0.180   6.565   3.368
10241SOL    HW131622   0.239   6.638   3.402
10241SOL    HW231623   0.233   6.480   3.363
10242SOL     OW31624   0.205   1.041   1.005
10242SOL    HW131625   0.288   1.085   1.037
10242SOL    HW231626   0.169   1.091   0.926
10243SOL     OW31627   2.163   4.388   2.380
10243SOL    HW131628   2.092   4.348   2.323
10243SOL    HW231629   2.121   4.427   2.463
10244SOL     OW31630   1.603   4.362   0.693
10244SOL    HW131631   1.601   4.268   0.658
10244SOL    HW231632   1.622   4.424   0.617
10245SOL     OW31633   3.552   3.802   1.562
10245SOL    HW131634   3.528   3.707   1.582
10245SOL    HW231635   3.605   3.806   1.477
10246SOL     OW31636   3.260   3.377   4.134
10246SOL    HW131637   3.282   3.453   4.196
10246SOL    HW231638   3.257   3.411   4.040
10247SOL     OW31639   6.475   4.176   6.076
10247SOL    HW131640   6.385   4.139   6.097
10247SOL    HW231641   6.467   4.241   6.000
10248SOL     OW31642   1.478   6.302   2.638
10248SOL    HW131643   1.462   6.369   2.710
10248SOL    HW231644   1.565   6.255   2.655
10249SOL     OW31645   3.407   5.635   6.685
10249SOL    HW131646   3.442   5.705   6.623
10249SOL    HW231647   3.464   5.632   6.768
10250SOL     OW31648   6.853   2.938   1.671
10250SOL    HW131649   6.826   2.867   1.606
10250SOL    HW231650   6.794   2.933   1.752
10251SOL     OW31651   2.071   1.590   5.431
10251SOL    HW131652   2.147   1.611   5.369
10251SOL    HW231653   2.084   1.500   5.471
10252SOL     OW31654   4.109   4.407   6.316
10252SOL    HW131655   4.052   4.434   6.238
10252SOL    HW231656   4.176   4.340   6.287
10253SOL     OW31657   2.844   6.299   0.532
10253SOL    HW131658   2.763   6.357   0.539
10253SOL    HW231659   2.828   6.214   0.583
10254SOL     OW31660   5.176   1.231   5.756
10254SOL    HW131661   5.130   1.173   5.823
10254SOL    HW231662   5.216   1.310   5.802
10255SOL     OW31663   2.426   6.335   1.566
10255SOL    HW131664   2.368   6.270   1.517
10255SOL    HW231665   2.379   6.365   1.649
10256SOL     OW31666   4.721   2.297   2.159
10256SOL    HW131667   4.801   2.320   2.104
10256SOL    HW231668   4.745   2.302   2.256
10257SOL     OW31669   1.755   5.047   4.513
10257SOL    HW131670   1.687   5.034   4.586
10257SOL    HW231671   1.747   4.974   4.445
10258SOL     OW31672   3.357   1.492   3.277
10258SOL    HW131673   3.422   1.429   3.319
10258SOL    HW231674   3.399   1.537   3.198
10259SOL     OW31675   1.211   4.508   2.831
10259SOL    HW131676   1.238   4.599   2.862
10259SOL    HW231677   1.252   4.438   2.889
10260SOL     OW31678   1.056   1.454   3.257
10260SOL    HW131679   0.985   1.389   3.230
10260SOL    HW231680   1.145   1.411   3.248
10261SOL     OW31681   6.596   4.322   1.826
10261SOL    HW131682   6.545   4.258   1.769
10261SOL    HW231683   6.533   4.374   1.884
10262SOL     OW31684   2.310   6.807   5.603
10262SOL    HW131685   2.285   6.774   5.512
10262SOL    HW231686   2.321   6.729   5.664
10263SOL     OW31687   5.495   0.328   0.130
10263SOL    HW131688   5.429   0.286   0.192
10263SOL    HW231689   5.452   0.341   0.040
10264SOL     OW31690   5.876   0.147   6.803
10264SOL    HW131691   5.954   0.143   6.865
10264SOL    HW231692   5.878   0.069   6.741
10265SOL     OW31693   2.851   2.523   1.250
10265SOL    HW131694   2.818   2.552   1.340
10265SOL    HW231695   2.933   2.574   1.226
10266SOL     OW31696   3.808   2.961   3.603
10266SOL    HW131697   3.754   2.987   3.524
10266SOL    HW231698   3.871   2.887   3.578
10267SOL     OW31699   5.521   2.575   6.689
10267SOL    HW131700   5.437   2.569   6.636
10267SOL    HW231701   5.505   2.629   6.771
10268SOL     OW31702   6.078   5.745   2.776
10268SOL    HW131703   6.004   5.747   2.709
10268SOL    HW231704   6.091   5.651   2.808
10269SOL     OW31705   1.243   3.701   6.712
10269SOL    HW131706   1.191   3.651   6.781
10269SOL    HW231707   1.236   3.654   6.624
10270SOL     OW31708   3.132   4.867   2.578
10270SOL    HW131709   3.074   4.847   2.658
10270SOL    HW231710   3.096   4.819   2.498
10271SOL     OW31711   3.590   2.734   6.440
10271SOL    HW131712   3.500   2.750   6.480
10271SOL    HW231713   3.651   2.810   6.464
10272SOL     OW31714   1.631   1.426   5.556
10272SOL    HW131715   1.563   1.482   5.603
10272SOL    HW231716   1.711   1.482   5.535
10273SOL     OW31717   2.676   5.348   2.796
10273SOL    HW131718   2.757   5.338   2.737
10273SOL    HW231719   2.605   5.398   2.747
10274SOL     OW31720   0.821   4.837   5.690
10274SOL    HW131721   0.876   4.780   5.750
10274SOL    HW231722   0.858   4.930   5.688
10275SOL     OW31723   0.864   6.289   2.611
10275SOL    HW131724   0.877   6.369   2.552
10275SOL    HW231725   0.820   6.216   2.558
10276SOL     OW31726   5.617   5.396   5.571
10276SOL    HW131727   5.585   5.471   5.513
10276SOL    HW231728   5.551   5.379   5.644
10277SOL     OW31729   1.476   5.827   4.582
10277SOL    HW131730   1.412   5.887   4.534
10277SOL    HW231731   1.429   5.778   4.655
10278SOL     OW31732   1.255   1.692   3.423
10278SOL    HW131733   1.166   1.655   3.450
10278SOL    HW231734   1.241   1.781   3.379
10279SOL     OW31735   1.712   4.779   4.068
10279SOL    HW131736   1.634   4.775   4.006
10279SOL    HW231737   1.758   4.690   4.069
10280SOL     OW31738   6.767   3.021   0.136
10280SOL    HW131739   6.750   2.931   0.097
10280SOL    HW231740   6.839   3.014   0.205
10281SOL     OW31741   5.493   1.058   2.672
10281SOL    HW131742   5.518   1.021   2.761
10281SOL    HW231743   5.394   1.050   2.658
10282SOL     OW31744   5.545   4.017   4.570
10282SOL    HW131745   5.552   4.041   4.473
10282SOL    HW231746   5.555   3.918   4.581
10283SOL     OW31747   2.025   3.301   0.883
10283SOL    HW131748   2.010   3.242   0.803
10283SOL    HW231749   2.033   3.244   0.965
10284SOL     OW31750   4.820   2.574   5.116
10284SOL    HW131751   4.840   2.643   5.046
10284SOL    HW231752   4.899   2.562   5.175
10285SOL     OW31753   5.417   6.785   2.228
10285SOL    HW131754   5.347   6.716   2.207
10285SOL    HW231755   5.403   6.865   2.171
10286SOL     OW31756   3.351   2.045   3.487
10286SOL    HW131757   3.297   2.092   3.418
10286SOL    HW231758   3.431   2.002   3.443
10287SOL     OW31759   2.652   6.156   1.939
10287SOL    HW131760   2.568   6.179   1.989
10287SOL    HW231761   2.704   6.239   1.921
10288SOL     OW31762   4.557   5.240   3.092
10288SOL    HW131763   4.638   5.223   3.149
10288SOL    HW231764   4.475   5.207   3.139
10289SOL     OW31765   2.942   6.296   6.989
10289SOL    HW131766   2.853   6.327   6.955
10289SOL    HW231767   2.928   6.236   0.052
10290SOL     OW31768   2.853   3.651   2.867
10290SOL    HW131769   2.911   3.697   2.799
10290SOL    HW231770   2.758   3.657   2.838
10291SOL     OW31771   3.762   1.401   2.353
10291SOL    HW131772   3.788   1.482   2.406
10291SOL    HW231773   3.845   1.353   2.325
10292SOL     OW31774   1.994   1.854   5.407
10292SOL    HW131775   1.934   1.870   5.485
10292SOL    HW231776   2.008   1.755   5.396
10293SOL     OW31777   1.966   3.899   2.377
10293SOL    HW131778   2.013   3.919   2.463
10293SOL    HW231779   1.918   3.981   2.346
10294SOL     OW31780   5.320   2.794   3.426
10294SOL    HW131781   5.282   2.887   3.425
10294SOL    HW231782   5.285   2.743   3.348
10295SOL     OW31783   0.283   3.532   5.586
10295SOL    HW131784   0.298   3.465   5.513
10295SOL    HW231785   0.194   3.575   5.573
10296SOL     OW31786   4.914   1.426   6.987
10296SOL    HW131787   4.992   1.376   0.008
10296SOL    HW231788   4.933   1.524   6.989
10297SOL     OW31789   1.908   0.054   6.595
10297SOL    HW131790   2.002   0.037   6.623
10297SOL    HW231791   1.852   6.990   6.614
10298SOL     OW31792   2.495   4.330   1.068
10298SOL    HW131793   2.569   4.347   1.134
10298SOL    HW231794   2.521   4.254   1.009
10299SOL     OW31795   4.580   4.415   3.079
10299SOL    HW131796   4.518   4.480   3.123
10299SOL    HW231797   4.670   4.456   3.070
10300SOL     OW31798   0.911   4.113   2.268
10300SOL    HW131799   0.909   4.105   2.168
10300SOL    HW231800   1.005   4.129   2.298
10301SOL     OW31801   5.076   2.580   4.190
10301SOL    HW131802   5.070   2.650   4.118
10301SOL    HW231803   5.051   2.621   4.277
10302SOL     OW31804   1.877   6.414   4.735
10302SOL    HW131805   1.971   6.448   4.737
10302SOL    HW231806   1.814   6.488   4.759
10303SOL     OW31807   1.428   5.819   3.190
10303SOL    HW131808   1.513   5.767   3.201
10303SOL    HW231809   1.427   5.862   3.100
10304SOL     OW31810   5.617   0.151   1.420
10304SOL    HW131811   5.539   0.114   1.470
10304SOL    HW231812   5.699   0.143   1.477
10305SOL     OW31813   1.180   4.090   6.594
10305SOL    HW131814   1.270   4.074   6.636
10305SOL    HW231815   1.169   4.027   6.516
10306SOL     OW31816   4.950   6.313   6.864
10306SOL    HW131817   4.984   6.404   6.890
10306SOL    HW231818   4.932   6.311   6.766
10307SOL     OW31819   2.958   2.120   5.077
10307SOL    HW131820   2.894   2.177   5.129
10307SOL    HW231821   3.049   2.161   5.081
10308SOL     OW31822   1.728   3.750   2.883
10308SOL    HW131823   1.716   3.659   2.922
10308SOL    HW231824   1.745   3.743   2.785
10309SOL     OW31825   6.987   1.837   6.529
10309SOL    HW131826   6.904   1.880   6.494
10309SOL    HW231827   0.050   1.890   6.501
10310SOL     OW31828   2.914   3.418   1.259
10310SOL    HW131829   2.872   3.338   1.216
10310SOL    HW231830   2.870   3.501   1.224
10311SOL     OW31831   0.040   6.071   0.698
10311SOL    HW131832   0.010   6.029   0.784
10311SOL    HW231833   0.061   5.999   0.632
10312SOL     OW31834   3.501   5.335   2.926
10312SOL    HW131835   3.579   5.282   2.894
10312SOL    HW231836   3.423   5.321   2.864
10313SOL     OW31837   4.449   6.338   2.253
10313SOL    HW131838   4.415   6.422   2.211
10313SOL    HW231839   4.378   6.268   2.252
10314SOL     OW31840   6.279   0.537   1.657
10314SOL    HW131841   6.188   0.562   1.624
10314SOL    HW231842   6.282   0.542   1.757
10315SOL     OW31843   4.984   5.634   5.387
10315SOL    HW131844   5.028   5.649   5.475
10315SOL    HW231845   4.984   5.719   5.334
10316SOL     OW31846   5.413   1.567   5.155
10316SOL    HW131847   5.399   1.615   5.068
10316SOL    HW231848   5.345   1.494   5.165
10317SOL     OW31849   4.956   5.485   5.043
10317SOL    HW131850   4.973   5.575   5.002
10317SOL    HW231851   5.029   5.464   5.108
10318SOL     OW31852   5.540   6.711   6.409
10318SOL    HW131853   5.598   6.650   6.464
10318SOL    HW231854   5.509   6.787   6.467
10319SOL     OW31855   1.133   2.472   5.455
10319SOL    HW131856   1.150   2.374   5.442
10319SOL    HW231857   1.191   2.507   5.528
10320SOL     OW31858   0.224   0.808   2.348
10320SOL    HW131859   0.301   0.826   2.287
10320SOL    HW231860   0.141   0.848   2.310
10321SOL     OW31861   3.635   1.980   1.638
10321SOL    HW131862   3.701   2.027   1.696
10321SOL    HW231863   3.636   1.882   1.658
10322SOL     OW31864   6.578   5.605   5.459
10322SOL    HW131865   6.673   5.575   5.457
10322SOL    HW231866   6.519   5.528   5.484
10323SOL     OW31867   5.433   3.495   5.698
10323SOL    HW131868   5.434   3.522   5.602
10323SOL    HW231869   5.409   3.398   5.706
10324SOL     OW31870   3.134   3.475   2.200
10324SOL    HW131871   3.054   3.489   2.258
10324SOL    HW231872   3.105   3.452   2.108
10325SOL     OW31873   6.760   3.682   1.707
10325SOL    HW131874   6.795   3.776   1.711
10325SOL    HW231875   6.723   3.657   1.797
10326SOL     OW31876   3.327   5.456   0.338
10326SOL    HW131877   3.309   5.425   0.245
10326SOL    HW231878   3.301   5.385   0.403
10327SOL     OW31879   2.024   1.201   0.911
10327SOL    HW131880   1.953   1.245   0.965
10327SOL    HW231881   2.067   1.269   0.852
10328SOL     OW31882   6.240   2.217   1.045
10328SOL    HW131883   6.210   2.293   1.102
10328SOL    HW231884   6.207   2.230   0.952
10329SOL     OW31885   3.971   0.994   3.970
10329SOL    HW131886   3.875   0.982   3.996
10329SOL    HW231887   3.977   1.014   3.872
10330SOL     OW31888   4.793   0.648   2.208
10330SOL    HW131889   4.722   0.714   2.232
10330SOL    HW231890   4.760   0.588   2.135
10331SOL     OW31891   6.340   0.629   5.764
10331SOL    HW131892   6.281   0.708   5.780
10331SOL    HW231893   6.407   0.651   5.693
10332SOL     OW31894   6.676   0.032   0.915
10332SOL    HW131895   6.665   6.999   0.828
10332SOL    HW231896   6.665   6.985   0.991
10333SOL     OW31897   6.898   4.820   4.643
10333SOL    HW131898   6.809   4.803   4.683
10333SOL    HW231899   6.919   4.918   4.647
10334SOL     OW31900   3.659   6.702   3.483
10334SOL    HW131901   3.704   6.764   3.548
10334SOL    HW231902   3.570   6.739   3.458
10335SOL     OW31903   3.494   4.371   0.105
10335SOL    HW131904   3.490   4.277   0.140
10335SOL    HW231905   3.452   4.375   0.015
10336SOL     OW31906   6.906   6.519   1.973
10336SOL    HW131907   6.892   6.606   2.021
10336SOL    HW231908   6.927   6.447   2.039
10337SOL     OW31909   0.066   6.592   5.989
10337SOL    HW131910   0.058   6.687   6.020
10337SOL    HW231911   7.002   6.569   5.935
10338SOL     OW31912   2.339   6.592   2.962
10338SOL    HW131913   2.312   6.544   2.879
10338SOL    HW231914   2.273   6.572   3.035
10339SOL     OW31915   3.589   4.615   0.087
10339SOL    HW131916   3.521   4.678   0.051
10339SOL    HW231917   3.552   4.522   0.085
10340SOL     OW31918   1.870   4.311   1.036
10340SOL    HW131919   1.811   4.230   1.037
10340SOL    HW231920   1.930   4.310   1.115
10341SOL     OW31921   1.859   3.187   1.846
10341SOL    HW131922   1.933   3.146   1.899
10341SOL    HW231923   1.842   3.280   1.879
10342SOL     OW31924   0.704   0.529   5.337
10342SOL    HW131925   0.779   0.469   5.308
10342SOL    HW231926   0.624   0.514   5.278
10343SOL     OW31927   3.459   5.987   6.258
10343SOL    HW131928   3.556   6.001   6.239
10343SOL    HW231929   3.404   6.033   6.189
10344SOL     OW31930   4.604   4.024   1.741
10344SOL    HW131931   4.643   4.000   1.830
10344SOL    HW231932   4.541   4.101   1.752
10345SOL     OW31933   1.827   1.104   6.946
10345SOL    HW131934   1.738   1.057   6.946
10345SOL    HW231935   1.812   1.202   6.960
10346SOL     OW31936   6.606   6.082   1.981
10346SOL    HW131937   6.598   6.180   1.996
10346SOL    HW231938   6.521   6.037   2.008
10347SOL     OW31939   4.835   2.178   3.147
10347SOL    HW131940   4.781   2.103   3.109
10347SOL    HW231941   4.887   2.145   3.226
10348SOL     OW31942   6.445   1.624   0.224
10348SOL    HW131943   6.529   1.580   0.255
10348SOL    HW231944   6.467   1.710   0.179
10349SOL     OW31945   0.039   0.605   0.741
10349SOL    HW131946   0.069   0.695   0.771
10349SOL    HW231947   6.981   0.573   0.800
10350SOL     OW31948   1.454   6.919   5.417
10350SOL    HW131949   1.408   6.958   5.497
10350SOL    HW231950   1.490   6.828   5.440
10351SOL     OW31951   4.136   4.926   6.217
10351SOL    HW131952   4.103   4.895   6.128
10351SOL    HW231953   4.099   5.016   6.237
10352SOL     OW31954   4.139   1.927   5.735
10352SOL    HW131955   4.138   1.883   5.825
10352SOL    HW231956   4.069   1.999   5.733
10353SOL     OW31957   6.890   2.256   5.528
10353SOL    HW131958   6.930   2.181   5.580
10353SOL    HW231959   6.873   2.226   5.434
10354SOL     OW31960   5.863   2.556   2.063
10354SOL    HW131961   5.951   2.527   2.101
10354SOL    HW231962   5.876   2.583   1.967
10355SOL     OW31963   1.567   6.800   2.346
10355SOL    HW131964   1.572   6.865   2.422
10355SOL    HW231965   1.488   6.822   2.288
10356SOL     OW31966   0.595   4.267   6.136
10356SOL    HW131967   0.574   4.271   6.039
10356SOL    HW231968   0.690   4.295   6.152
10357SOL     OW31969   2.670   3.207   5.981
10357SOL    HW131970   2.639   3.113   5.964
10357SOL    HW231971   2.594   3.261   6.016
10358SOL     OW31972   6.379   2.656   2.622
10358SOL    HW131973   6.435   2.739   2.613
10358SOL    HW231974   6.326   2.643   2.538
10359SOL     OW31975   6.979   1.749   1.463
10359SOL    HW131976   0.060   1.728   1.455
10359SOL    HW231977   6.967   1.830   1.521
10360SOL     OW31978   5.052   5.759   2.820
10360SOL    HW131979   5.037   5.678   2.763
10360SOL    HW231980   4.987   5.760   2.895
10361SOL     OW31981   3.184   0.290   3.257
10361SOL    HW131982   3.199   0.192   3.272
10361SOL    HW231983   3.208   0.340   3.340
10362SOL     OW31984   0.881   5.167   4.866
10362SOL    HW131985   0.791   5.124   4.872
10362SOL    HW231986   0.869   5.263   4.841
10363SOL     OW31987   4.933   1.682   1.009
10363SOL    HW131988   4.971   1.590   1.016
10363SOL    HW231989   4.894   1.709   1.097
10364SOL     OW31990   3.387   3.619   1.686
10364SOL    HW131991   3.452   3.543   1.693
10364SOL    HW231992   3.300   3.591   1.726
10365SOL     OW31993   4.662   4.629   5.922
10365SOL    HW131994   4.659   4.610   5.824
10365SOL    HW231995   4.620   4.554   5.972
10366SOL     OW31996   4.236   0.361   4.481
10366SOL    HW131997   4.316   0.320   4.438
10366SOL    HW231998   4.248   0.361   4.580
10367SOL     OW31999   6.571   1.909   2.651
10367SOL    HW132000   6.598   1.853   2.729
10367SOL    HW232001   6.637   1.982   2.637
10368SOL     OW32002   2.093   1.102   1.953
10368SOL    HW132003   2.170   1.045   1.922
10368SOL    HW232004   2.035   1.048   2.014
10369SOL     OW32005   3.832   1.543   5.198
10369SOL    HW132006   3.813   1.474   5.268
10369SOL    HW232007   3.928   1.539   5.173
10370SOL     OW32008   5.350   1.858   5.424
10370SOL    HW132009   5.308   1.943   5.454
10370SOL    HW232010   5.298   1.822   5.346
10371SOL     OW32011   2.588   6.065   4.729
10371SOL    HW132012   2.578   6.164   4.740
10371SOL    HW232013   2.512   6.019   4.774
10372SOL     OW32014   1.199   1.551   0.219
10372SOL    HW132015   1.143   1.594   0.148
10372SOL    HW232016   1.278   1.507   0.178
10373SOL     OW32017   2.079   6.113   4.847
10373SOL    HW132018   2.089   6.026   4.798
10373SOL    HW232019   2.006   6.104   4.915
10374SOL     OW32020   4.170   1.016   2.505
10374SOL    HW132021   4.222   1.091   2.463
10374SOL    HW232022   4.089   0.996   2.448
10375SOL     OW32023   2.726   1.790   6.079
10375SOL    HW132024   2.744   1.884   6.107
10375SOL    HW232025   2.745   1.780   5.981
10376SOL     OW32026   1.181   6.502   4.346
10376SOL    HW132027   1.151   6.543   4.432
10376SOL    HW232028   1.189   6.573   4.276
10377SOL     OW32029   6.751   0.722   4.020
10377SOL    HW132030   6.702   0.806   3.996
10377SOL    HW232031   6.687   0.646   4.020
10378SOL     OW32032   6.291   0.020   6.108
10378SOL    HW132033   6.281   0.013   6.208
10378SOL    HW232034   6.388   0.016   6.085
10379SOL     OW32035   3.190   6.517   4.823
10379SOL    HW132036   3.173   6.507   4.725
10379SOL    HW232037   3.184   6.427   4.867
10380SOL     OW32038   0.527   1.410   3.961
10380SOL    HW132039   0.559   1.485   4.018
10380SOL    HW232040   0.586   1.401   3.881
10381SOL     OW32041   4.183   5.608   0.010
10381SOL    HW132042   4.201   5.516   6.992
10381SOL    HW232043   4.258   5.669   7.000
10382SOL     OW32044   2.181   4.571   0.296
10382SOL    HW132045   2.214   4.481   0.266
10382SOL    HW232046   2.257   4.623   0.334
10383SOL     OW32047   0.716   3.480   0.442
10383SOL    HW132048   0.745   3.557   0.386
10383SOL    HW232049   0.796   3.428   0.473
10384SOL     OW32050   0.762   0.115   0.979
10384SOL    HW132051   0.769   0.205   0.935
10384SOL    HW232052   0.814   0.115   1.064
10385SOL     OW32053   3.310   6.700   5.846
10385SOL    HW132054   3.267   6.627   5.899
10385SOL    HW232055   3.404   6.714   5.879
10386SOL     OW32056   6.248   3.068   5.694
10386SOL    HW132057   6.197   3.009   5.632
10386SOL    HW232058   6.251   3.027   5.785
10387SOL     OW32059   4.172   2.273   2.792
10387SOL    HW132060   4.127   2.225   2.717
10387SOL    HW232061   4.229   2.346   2.755
10388SOL     OW32062   2.005   5.766   2.740
10388SOL    HW132063   2.028   5.670   2.757
10388SOL    HW232064   1.935   5.795   2.806
10389SOL     OW32065   0.511   6.814   2.004
10389SOL    HW132066   0.423   6.775   2.032
10389SOL    HW232067   0.502   6.855   1.913
10390SOL     OW32068   1.677   3.359   1.540
10390SOL    HW132069   1.734   3.415   1.480
10390SOL    HW232070   1.616   3.418   1.592
10391SOL     OW32071   1.260   5.722   4.870
10391SOL    HW132072   1.194   5.656   4.905
10391SOL    HW232073   1.351   5.680   4.867
10392SOL     OW32074   6.392   4.032   0.381
10392SOL    HW132075   6.488   4.004   0.379
10392SOL    HW232076   6.371   4.088   0.301
10393SOL     OW32077   2.198   2.224   2.693
10393SOL    HW132078   2.112   2.242   2.740
10393SOL    HW232079   2.257   2.304   2.699
10394SOL     OW32080   2.499   6.501   5.119
10394SOL    HW132081   2.407   6.511   5.157
10394SOL    HW232082   2.517   6.576   5.056
10395SOL     OW32083   6.355   0.513   3.271
10395SOL    HW132084   6.405   0.427   3.278
10395SOL    HW232085   6.316   0.523   3.179
10396SOL     OW32086   2.405   0.757   4.372
10396SOL    HW132087   2.414   0.725   4.466
10396SOL    HW232088   2.468   0.706   4.313
10397SOL     OW32089   2.873   2.253   3.658
10397SOL    HW132090   2.965   2.224   3.686
10397SOL    HW232091   2.808   2.228   3.730
10398SOL     OW32092   5.762   2.888   0.466
10398SOL    HW132093   5.726   2.795   0.469
10398SOL    HW232094   5.757   2.928   0.558
10399SOL     OW32095   4.196   1.983   4.372
10399SOL    HW132096   4.233   1.900   4.413
10399SOL    HW232097   4.106   1.964   4.333
10400SOL     OW32098   3.655   5.824   2.021
10400SOL    HW132099   3.615   5.914   2.038
10400SOL    HW232100   3.586   5.764   1.980
10401SOL     OW32101   6.670   0.166   2.713
10401SOL    HW132102   6.742   0.233   2.694
10401SOL    HW232103   6.597   0.211   2.764
10402SOL     OW32104   0.144   2.695   5.442
10402SOL    HW132105   0.058   2.657   5.407
10402SOL    HW232106   0.221   2.641   5.410
10403SOL     OW32107   5.099   1.251   2.421
10403SOL    HW132108   5.196   1.235   2.401
10403SOL    HW232109   5.065   1.179   2.481
10404SOL     OW32110   0.641   6.590   3.454
10404SOL    HW132111   0.689   6.677   3.462
10404SOL    HW232112   0.610   6.577   3.360
10405SOL     OW32113   1.268   5.343   4.943
10405SOL    HW132114   1.343   5.401   4.975
10405SOL    HW232115   1.223   5.387   4.865
10406SOL     OW32116   2.079   3.890   5.044
10406SOL    HW132117   2.123   3.813   5.091
10406SOL    HW232118   2.150   3.952   5.010
10407SOL     OW32119   1.746   0.252   6.507
10407SOL    HW132120   1.808   0.190   6.554
10407SOL    HW232121   1.697   0.202   6.436
10408SOL     OW32122   4.343   6.051   2.242
10408SOL    HW132123   4.405   5.977   2.267
10408SOL    HW232124   4.333   6.055   2.143
10409SOL     OW32125   0.453   4.274   0.853
10409SOL    HW132126   0.365   4.238   0.885
10409SOL    HW232127   0.464   4.369   0.885
10410SOL     OW32128   5.143   1.653   1.303
10410SOL    HW132129   5.178   1.573   1.254
10410SOL    HW232130   5.201   1.732   1.281
10411SOL     OW32131   3.513   5.459   4.111
10411SOL    HW132132   3.472   5.368   4.110
10411SOL    HW232133   3.521   5.491   4.205
10412SOL     OW32134   0.574   1.452   0.335
10412SOL    HW132135   0.558   1.505   0.252
10412SOL    HW232136   0.548   1.357   0.320
10413SOL     OW32137   6.992   2.030   0.775
10413SOL    HW132138   0.029   2.047   0.693
10413SOL    HW232139   6.909   2.086   0.773
10414SOL     OW32140   4.715   6.311   5.473
10414SOL    HW132141   4.658   6.285   5.551
10414SOL    HW232142   4.775   6.234   5.448
10415SOL     OW32143   2.248   4.706   3.724
10415SOL    HW132144   2.230   4.773   3.652
10415SOL    HW232145   2.161   4.666   3.754
10416SOL     OW32146   6.424   1.312   5.603
10416SOL    HW132147   6.470   1.266   5.679
10416SOL    HW232148   6.325   1.310   5.619
10417SOL     OW32149   4.884   3.948   4.345
10417SOL    HW132150   4.882   3.849   4.359
10417SOL    HW232151   4.810   3.991   4.397
10418SOL     OW32152   6.524   4.141   5.141
10418SOL    HW132153   6.588   4.069   5.114
10418SOL    HW232154   6.479   4.114   5.227
10419SOL     OW32155   2.782   0.509   5.333
10419SOL    HW132156   2.876   0.481   5.356
10419SOL    HW232157   2.741   0.441   5.273
10420SOL     OW32158   6.936   3.695   3.645
10420SOL    HW132159   6.862   3.691   3.578
10420SOL    HW232160   6.999   3.619   3.631
10421SOL     OW32161   1.588   2.984   4.038
10421SOL    HW132162   1.491   2.974   4.056
10421SOL    HW232163   1.640   2.931   4.105
10422SOL     OW32164   6.702   3.583   5.635
10422SOL    HW132165   6.668   3.500   5.591
10422SOL    HW232166   6.756   3.558   5.716
10423SOL     OW32167   3.958   4.932   4.879
10423SOL    HW132168   3.901   5.014   4.873
10423SOL    HW232169   3.961   4.900   4.974
10424SOL     OW32170   4.794   2.155   6.967
10424SOL    HW132171   4.825   2.249   6.960
10424SOL    HW232172   4.728   2.136   6.893
10425SOL     OW32173   0.594   6.427   1.782
10425SOL    HW132174   0.628   6.457   1.693
10425SOL    HW232175   0.640   6.479   1.854
10426SOL     OW32176   5.071   3.779   5.840
10426SOL    HW132177   5.095   3.704   5.900
10426SOL    HW232178   5.074   3.749   5.745
10427SOL     OW32179   5.193   5.933   5.917
10427SOL    HW132180   5.114   5.978   5.957
10427SOL    HW232181   5.264   6.001   5.897
10428SOL     OW32182   1.700   1.683   3.969
10428SOL    HW132183   1.742   1.681   3.878
10428SOL    HW232184   1.698   1.590   4.007
10429SOL     OW32185   1.133   3.592   2.845
10429SOL    HW132186   1.057   3.606   2.782
10429SOL    HW232187   1.158   3.495   2.846
10430SOL     OW32188   3.550   6.267   4.088
10430SOL    HW132189   3.615   6.198   4.121
10430SOL    HW232190   3.483   6.286   4.160
10431SOL     OW32191   2.773   0.791   3.981
10431SOL    HW132192   2.797   0.767   3.887
10431SOL    HW232193   2.837   0.859   4.016
10432SOL     OW32194   0.493   1.468   5.268
10432SOL    HW132195   0.455   1.379   5.294
10432SOL    HW232196   0.570   1.490   5.328
10433SOL     OW32197   0.339   6.437   1.667
10433SOL    HW132198   0.353   6.504   1.595
10433SOL    HW232199   0.427   6.416   1.711
10434SOL     OW32200   4.846   6.233   4.629
10434SOL    HW132201   4.837   6.137   4.656
10434SOL    HW232202   4.841   6.240   4.529
10435SOL     OW32203   1.484   1.964   5.835
10435SOL    HW132204   1.575   1.933   5.810
10435SOL    HW232205   1.415   1.908   5.788
10436SOL     OW32206   6.072   4.094   3.871
10436SOL    HW132207   6.082   4.019   3.937
10436SOL    HW232208   6.163   4.125   3.843
10437SOL     OW32209   5.256   4.788   5.181
10437SOL    HW132210   5.255   4.860   5.250
10437SOL    HW232211   5.350   4.756   5.168
10438SOL     OW32212   0.130   6.090   5.978
10438SOL    HW132213   0.071   6.166   5.951
10438SOL    HW232214   0.204   6.123   6.037
10439SOL     OW32215   5.842   0.910   4.765
10439SOL    HW132216   5.894   0.991   4.738
10439SOL    HW232217   5.755   0.909   4.717
10440SOL     OW32218   6.736   6.456   0.032
10440SOL    HW132219   6.737   6.433   0.129
10440SOL    HW232220   6.764   6.552   0.020
10441SOL     OW32221   2.909   1.377   0.785
10441SOL    HW132222   2.944   1.443   0.718
10441SOL    HW232223   2.984   1.348   0.845
10442SOL     OW32224   4.354   0.693   5.085
10442SOL    HW132225   4.274   0.684   5.144
10442SOL    HW232226   4.355   0.783   5.043
10443SOL     OW32227   6.316   2.310   2.927
10443SOL    HW132228   6.252   2.383   2.952
10443SOL    HW232229   6.385   2.346   2.864
10444SOL     OW32230   2.983   5.112   3.032
10444SOL    HW132231   2.944   5.110   3.124
10444SOL    HW232232   2.910   5.103   2.965
10445SOL     OW32233   0.785   3.620   2.913
10445SOL    HW132234   0.798   3.522   2.925
10445SOL    HW232235   0.690   3.643   2.932
10446SOL     OW32236   1.763   4.213   6.031
10446SOL    HW132237   1.753   4.164   5.944
10446SOL    HW232238   1.845   4.271   6.027
10447SOL     OW32239   6.779   0.518   1.755
10447SOL    HW132240   6.816   0.438   1.802
10447SOL    HW232241   6.822   0.527   1.665
10448SOL     OW32242   3.305   0.244   2.992
10448SOL    HW132243   3.279   0.257   3.087
10448SOL    HW232244   3.401   0.218   2.987
10449SOL     OW32245   3.154   5.537   6.598
10449SOL    HW132246   3.245   5.570   6.622
10449SOL    HW232247   3.162   5.466   6.528
10450SOL     OW32248   6.793   0.909   6.533
10450SOL    HW132249   6.883   0.865   6.529
10450SOL    HW232250   6.721   0.839   6.525
10451SOL     OW32251   3.448   0.425   2.844
10451SOL    HW132252   3.381   0.359   2.878
10451SOL    HW232253   3.461   0.497   2.913
10452SOL     OW32254   6.896   2.575   2.674
10452SOL    HW132255   6.890   2.674   2.687
10452SOL    HW232256   6.914   2.531   2.762
10453SOL     OW32257   4.286   5.961   2.696
10453SOL    HW132258   4.220   5.887   2.698
10453SOL    HW232259   4.348   5.949   2.619
10454SOL     OW32260   5.856   1.030   0.396
10454SOL    HW132261   5.801   1.041   0.478
10454SOL    HW232262   5.815   1.080   0.320
10455SOL     OW32263   0.236   5.964   4.288
10455SOL    HW132264   0.168   5.976   4.361
10455SOL    HW232265   0.299   5.892   4.313
10456SOL     OW32266   0.267   5.397   0.793
10456SOL    HW132267   0.312   5.421   0.879
10456SOL    HW232268   0.300   5.457   0.721
10457SOL     OW32269   4.050   3.216   6.993
10457SOL    HW132270   4.068   3.314   6.999
10457SOL    HW232271   4.137   3.166   6.993
10458SOL     OW32272   6.789   6.898   6.711
10458SOL    HW132273   6.730   6.973   6.741
10458SOL    HW232274   6.885   6.927   6.717
10459SOL     OW32275   5.932   5.001   0.921
10459SOL    HW132276   5.996   4.961   0.987
10459SOL    HW232277   5.896   5.087   0.957
10460SOL     OW32278   0.137   3.592   1.898
10460SOL    HW132279   0.231   3.613   1.927
10460SOL    HW232280   0.098   3.673   1.854
10461SOL     OW32281   6.377   4.741   5.512
10461SOL    HW132282   6.301   4.685   5.479
10461SOL    HW232283   6.378   4.828   5.463
10462SOL     OW32284   5.143   2.313   2.518
10462SOL    HW132285   5.116   2.289   2.425
10462SOL    HW232286   5.162   2.411   2.523
10463SOL     OW32287   4.756   1.608   6.393
10463SOL    HW132288   4.845   1.650   6.378
10463SOL    HW232289   4.760   1.510   6.372
10464SOL     OW32290   5.720   5.733   2.195
10464SOL    HW132291   5.668   5.725   2.110
10464SOL    HW232292   5.675   5.680   2.267
10465SOL     OW32293   4.763   5.392   2.432
10465SOL    HW132294   4.838   5.355   2.486
10465SOL    HW232295   4.764   5.492   2.436
10466SOL     OW32296   4.762   4.462   6.466
10466SOL    HW132297   4.684   4.507   6.510
10466SOL    HW232298   4.779   4.505   6.377
10467SOL     OW32299   1.590   2.721   0.530
10467SOL    HW132300   1.590   2.665   0.613
10467SOL    HW232301   1.538   2.804   0.546
10468SOL     OW32302   3.962   5.088   3.622
10468SOL    HW132303   3.898   5.011   3.628
10468SOL    HW232304   3.922   5.168   3.666
10469SOL     OW32305   4.460   4.317   5.572
10469SOL    HW132306   4.539   4.268   5.608
10469SOL    HW232307   4.478   4.344   5.477
10470SOL     OW32308   2.274   1.506   3.231
10470SOL    HW132309   2.300   1.415   3.201
10470SOL    HW232310   2.204   1.499   3.303
10471SOL     OW32311   3.303   0.305   0.191
10471SOL    HW132312   3.379   0.360   0.227
10471SOL    HW232313   3.227   0.308   0.255
10472SOL     OW32314   2.645   5.456   1.196
10472SOL    HW132315   2.604   5.367   1.217
10472SOL    HW232316   2.651   5.510   1.280
10473SOL     OW32317   5.759   6.321   5.744
10473SOL    HW132318   5.794   6.329   5.838
10473SOL    HW232319   5.716   6.231   5.733
10474SOL     OW32320   4.502   1.679   3.504
10474SOL    HW132321   4.435   1.751   3.486
10474SOL    HW232322   4.520   1.673   3.602
10475SOL     OW32323   2.923   6.854   1.607
10475SOL    HW132324   3.022   6.850   1.612
10475SOL    HW232325   2.887   6.909   1.683
10476SOL     OW32326   4.661   6.345   6.231
10476SOL    HW132327   4.719   6.423   6.210
10476SOL    HW232328   4.565   6.370   6.214
10477SOL     OW32329   6.629   0.656   4.689
10477SOL    HW132330   6.702   0.629   4.752
10477SOL    HW232331   6.665   0.659   4.595
10478SOL     OW32332   6.645   6.017   0.019
10478SOL    HW132333   6.566   6.003   0.077
10478SOL    HW232334   6.670   5.931   6.991
10479SOL     OW32335   6.524   0.914   2.009
10479SOL    HW132336   6.498   1.008   1.989
10479SOL    HW232337   6.515   0.859   1.926
10480SOL     OW32338   1.455   0.853   1.788
10480SOL    HW132339   1.439   0.806   1.701
10480SOL    HW232340   1.376   0.841   1.848
10481SOL     OW32341   1.886   6.080   3.245
10481SOL    HW132342   1.927   6.170   3.230
10481SOL    HW232343   1.958   6.011   3.248
10482SOL     OW32344   6.296   5.127   4.867
10482SOL    HW132345   6.385   5.139   4.910
10482SOL    HW232346   6.303   5.148   4.770
10483SOL     OW32347   5.621   5.665   0.433
10483SOL    HW132348   5.624   5.743   0.372
10483SOL    HW232349   5.543   5.607   0.410
10484SOL     OW32350   4.473   1.848   1.527
10484SOL    HW132351   4.522   1.875   1.610
10484SOL    HW232352   4.481   1.920   1.458
10485SOL     OW32353   3.281   4.895   0.523
10485SOL    HW132354   3.215   4.833   0.564
10485SOL    HW232355   3.370   4.884   0.567
10486SOL     OW32356   0.356   1.157   0.429
10486SOL    HW132357   0.278   1.098   0.405
10486SOL    HW232358   0.345   1.187   0.524
10487SOL     OW32359   5.066   6.941   2.175
10487SOL    HW132360   5.151   6.925   2.224
10487SOL    HW232361   4.989   6.919   2.235
10488SOL     OW32362   2.982   1.664   5.965
10488SOL    HW132363   2.938   1.723   5.898
10488SOL    HW232364   3.049   1.718   6.017
10489SOL     OW32365   0.357   6.565   4.891
10489SOL    HW132366   0.363   6.653   4.939
10489SOL    HW232367   0.316   6.579   4.801
10490SOL     OW32368   6.212   1.400   1.728
10490SOL    HW132369   6.260   1.476   1.684
10490SOL    HW232370   6.125   1.384   1.681
10491SOL     OW32371   1.650   3.493   6.931
10491SOL    HW132372   1.683   3.508   0.008
10491SOL    HW232373   1.606   3.404   6.926
10492SOL     OW32374   6.038   4.001   5.589
10492SOL    HW132375   5.949   3.955   5.592
10492SOL    HW232376   6.109   3.938   5.621
10493SOL     OW32377   3.638   1.009   1.180
10493SOL    HW132378   3.652   1.104   1.151
10493SOL    HW232379   3.587   1.008   1.265
10494SOL     OW32380   4.651   3.930   5.688
10494SOL    HW132381   4.552   3.926   5.674
10494SOL    HW232382   4.693   3.846   5.654
10495SOL     OW32383   2.100   6.629   0.431
10495SOL    HW132384   2.156   6.694   0.379
10495SOL    HW232385   2.111   6.538   0.393
10496SOL     OW32386   0.188   4.925   6.947
10496SOL    HW132387   0.097   4.893   6.918
10496SOL    HW232388   0.245   4.940   6.866
10497SOL     OW32389   2.320   0.056   2.389
10497SOL    HW132390   2.289   6.981   2.415
10497SOL    HW232391   2.400   0.081   2.443
10498SOL     OW32392   2.977   6.462   1.570
10498SOL    HW132393   3.052   6.443   1.634
10498SOL    HW232394   2.890   6.439   1.613
10499SOL     OW32395   3.268   6.916   2.343
10499SOL    HW132396   3.238   6.870   2.426
10499SOL    HW232397   3.274   7.014   2.359
10500SOL     OW32398   6.948   0.497   6.955
10500SOL    HW132399   6.982   0.583   6.991
10500SOL    HW232400   6.994   0.421   7.001
10501SOL     OW32401   2.430   5.162   3.068
10501SOL    HW132402   2.500   5.232   3.077
10501SOL    HW232403   2.457   5.080   3.118
10502SOL     OW32404   2.920   0.167   0.889
10502SOL    HW132405   2.878   0.105   0.822
10502SOL    HW232406   2.930   0.258   0.848
10503SOL     OW32407   3.908   3.221   0.192
10503SOL    HW132408   3.828   3.160   0.195
10503SOL    HW232409   3.951   3.215   0.102
10504SOL     OW32410   1.743   1.740   0.026
10504SOL    HW132411   1.791   1.676   0.085
10504SOL    HW232412   1.645   1.737   0.045
10505SOL     OW32413   5.363   6.001   0.739
10505SOL    HW132414   5.369   5.941   0.819
10505SOL    HW232415   5.267   6.025   0.722
10506SOL     OW32416   6.799   5.181   6.621
10506SOL    HW132417   6.866   5.150   6.554
10506SOL    HW232418   6.733   5.241   6.577
10507SOL     OW32419   2.038   0.147   0.142
10507SOL    HW132420   2.061   0.201   0.062
10507SOL    HW232421   1.939   0.152   0.158
10508SOL     OW32422   6.244   6.219   4.275
10508SOL    HW132423   6.194   6.233   4.361
10508SOL    HW232424   6.275   6.307   4.240
10509SOL     OW32425   0.838   6.350   5.002
10509SOL    HW132426   0.754   6.306   5.032
10509SOL    HW232427   0.915   6.319   5.058
10510SOL     OW32428   4.792   5.812   5.824
10510SOL    HW132429   4.787   5.912   5.832
10510SOL    HW232430   4.818   5.773   5.912
10511SOL     OW32431   4.215   1.833   1.284
10511SOL    HW132432   4.240   1.840   1.381
10511SOL    HW232433   4.227   1.921   1.240
10512SOL     OW32434   4.042   0.029   5.694
10512SOL    HW132435   3.991   0.090   5.755
10512SOL    HW232436   4.115   0.080   5.650
10513SOL     OW32437   6.763   2.244   4.326
10513SOL    HW132438   6.783   2.232   4.423
10513SOL    HW232439   6.848   2.248   4.275
10514SOL     OW32440   0.205   3.657   0.334
10514SOL    HW132441   0.238   3.740   0.380
10514SOL    HW232442   0.127   3.680   0.275
10515SOL     OW32443   0.076   2.909   3.049
10515SOL    HW132444   7.006   2.938   3.007
10515SOL    HW232445   0.069   2.917   3.149
10516SOL     OW32446   4.000   0.812   6.626
10516SOL    HW132447   4.077   0.863   6.664
10516SOL    HW232448   3.975   0.738   6.689
10517SOL     OW32449   6.891   1.892   3.193
10517SOL    HW132450   6.912   1.902   3.096
10517SOL    HW232451   6.931   1.968   3.244
10518SOL     OW32452   0.970   4.952   6.323
10518SOL    HW132453   1.027   4.996   6.254
10518SOL    HW232454   0.876   4.985   6.314
10519SOL     OW32455   2.540   2.944   6.516
10519SOL    HW132456   2.490   3.009   6.573
10519SOL    HW232457   2.635   2.941   6.545
10520SOL     OW32458   1.617   2.504   6.459
10520SOL    HW132459   1.600   2.437   6.531
10520SOL    HW232460   1.646   2.590   6.500
10521SOL     OW32461   5.467   5.791   1.841
10521SOL    HW132462   5.459   5.725   1.915
10521SOL    HW232463   5.381   5.795   1.790
10522SOL     OW32464   6.169   0.493   6.822
10522SOL    HW132465   6.268   0.489   6.814
10522SOL    HW232466   6.138   0.426   6.890
10523SOL     OW32467   0.817   5.188   4.562
10523SOL    HW132468   0.720   5.203   4.582
10523SOL    HW232469   0.851   5.111   4.615
10524SOL     OW32470   1.758   0.785   5.036
10524SOL    HW132471   1.796   0.876   5.024
10524SOL    HW232472   1.753   0.763   5.133
10525SOL     OW32473   3.177   0.165   5.792
10525SOL    HW132474   3.225   0.083   5.822
10525SOL    HW232475   3.235   0.245   5.808
10526SOL     OW32476   0.469   6.985   3.017
10526SOL    HW132477   0.372   6.981   2.995
10526SOL    HW232478   0.522   6.940   2.946
10527SOL     OW32479   6.297   2.334   4.587
10527SOL    HW132480   6.257   2.337   4.495
10527SOL    HW232481   6.239   2.386   4.650
10528SOL     OW32482   1.337   3.207   5.955
10528SOL    HW132483   1.309   3.124   5.906
10528SOL    HW232484   1.358   3.279   5.889
10529SOL     OW32485   2.032   6.251   3.727
10529SOL    HW132486   2.126   6.221   3.713
10529SOL    HW232487   1.970   6.193   3.673
10530SOL     OW32488   2.270   0.590   6.358
10530SOL    HW132489   2.274   0.512   6.420
10530SOL    HW232490   2.202   0.656   6.390
10531SOL     OW32491   0.882   2.767   4.038
10531SOL    HW132492   0.846   2.850   3.996
10531SOL    HW232493   0.960   2.790   4.097
10532SOL     OW32494   2.020   4.478   6.693
10532SOL    HW132495   2.071   4.453   6.775
10532SOL    HW232496   1.933   4.428   6.691
10533SOL     OW32497   3.164   1.607   4.629
10533SOL    HW132498   3.066   1.611   4.613
10533SOL    HW232499   3.192   1.685   4.685
10534SOL     OW32500   5.822   5.794   1.609
10534SOL    HW132501   5.801   5.891   1.602
10534SOL    HW232502   5.903   5.780   1.666
10535SOL     OW32503   0.964   1.661   0.856
10535SOL    HW132504   0.933   1.730   0.921
10535SOL    HW232505   1.040   1.698   0.803
10536SOL     OW32506   3.977   0.679   3.289
10536SOL    HW132507   4.043   0.709   3.358
10536SOL    HW232508   4.026   0.652   3.206
10537SOL     OW32509   3.534   5.204   4.569
10537SOL    HW132510   3.435   5.217   4.562
10537SOL    HW232511   3.554   5.107   4.586
10538SOL     OW32512   5.089   2.470   0.112
10538SOL    HW132513   5.140   2.555   0.129
10538SOL    HW232514   5.132   2.395   0.162
10539SOL     OW32515   0.461   3.987   6.656
10539SOL    HW132516   0.445   4.086   6.653
10539SOL    HW232517   0.546   3.966   6.607
10540SOL     OW32518   1.429   2.441   5.258
10540SOL    HW132519   1.392   2.363   5.207
10540SOL    HW232520   1.409   2.526   5.207
10541SOL     OW32521   3.660   3.647   2.042
10541SOL    HW132522   3.601   3.598   2.106
10541SOL    HW232523   3.696   3.729   2.086
10542SOL     OW32524   6.555   1.761   6.235
10542SOL    HW132525   6.522   1.672   6.264
10542SOL    HW232526   6.649   1.754   6.203
10543SOL     OW32527   6.701   1.072   5.301
10543SOL    HW132528   6.619   1.122   5.328
10543SOL    HW232529   6.724   1.004   5.370
10544SOL     OW32530   1.545   6.946   2.569
10544SOL    HW132531   1.524   0.024   2.594
10544SOL    HW232532   1.593   6.902   2.644
10545SOL     OW32533   6.400   0.949   2.805
10545SOL    HW132534   6.391   0.898   2.891
10545SOL    HW232535   6.317   1.004   2.790
10546SOL     OW32536   0.997   1.034   6.581
10546SOL    HW132537   1.069   1.070   6.521
10546SOL    HW232538   1.035   1.020   6.673
10547SOL     OW32539   4.930   2.000   1.947
10547SOL    HW132540   4.952   2.007   2.044
10547SOL    HW232541   4.874   1.918   1.932
10548SOL     OW32542   5.355   4.582   4.812
10548SOL    HW132543   5.433   4.626   4.768
10548SOL    HW232544   5.328   4.501   4.761
10549SOL     OW32545   6.310   6.991   2.026
10549SOL    HW132546   6.371   6.953   1.956
10549SOL    HW232547   6.240   6.924   2.049
10550SOL     OW32548   4.603   6.099   5.007
10550SOL    HW132549   4.528   6.161   4.984
10550SOL    HW232550   4.632   6.050   4.925
10551SOL     OW32551   1.958   2.548   5.953
10551SOL    HW132552   1.960   2.475   5.885
10551SOL    HW232553   1.868   2.552   5.996
10552SOL     OW32554   3.575   2.045   6.103
10552SOL    HW132555   3.661   1.999   6.120
10552SOL    HW232556   3.582   2.141   6.130
10553SOL     OW32557   0.619   5.158   1.212
10553SOL    HW132558   0.575   5.123   1.295
10553SOL    HW232559   0.716   5.171   1.228
10554SOL     OW32560   5.209   5.181   0.163
10554SOL    HW132561   5.272   5.105   0.148
10554SOL    HW232562   5.189   5.226   0.076
10555SOL     OW32563   2.347   2.913   0.652
10555SOL    HW132564   2.394   2.828   0.677
10555SOL    HW232565   2.301   2.900   0.564
10556SOL     OW32566   2.190   2.341   4.986
10556SOL    HW132567   2.107   2.300   5.025
10556SOL    HW232568   2.195   2.320   4.888
10557SOL     OW32569   1.993   2.245   2.940
10557SOL    HW132570   1.977   2.146   2.941
10557SOL    HW232571   1.936   2.289   3.009
10558SOL     OW32572   4.209   0.618   3.845
10558SOL    HW132573   4.168   0.689   3.901
10558SOL    HW232574   4.159   0.611   3.758
10559SOL     OW32575   4.850   0.368   1.249
10559SOL    HW132576   4.875   0.458   1.213
10559SOL    HW232577   4.753   0.368   1.274
10560SOL     OW32578   3.433   6.856   3.433
10560SOL    HW132579   3.475   6.880   3.345
10560SOL    HW232580   3.343   6.815   3.418
10561SOL     OW32581   2.821   4.675   0.852
10561SOL    HW132582   2.885   4.727   0.908
10561SOL    HW232583   2.739   4.653   0.906
10562SOL     OW32584   4.958   6.335   0.245
10562SOL    HW132585   4.993   6.415   0.196
10562SOL    HW232586   5.002   6.252   0.210
10563SOL     OW32587   0.582   0.743   3.812
10563SOL    HW132588   0.671   0.705   3.788
10563SOL    HW232589   0.567   0.829   3.763
10564SOL     OW32590   5.662   6.154   2.475
10564SOL    HW132591   5.698   6.189   2.388
10564SOL    HW232592   5.643   6.057   2.467
10565SOL     OW32593   6.956   0.748   5.986
10565SOL    HW132594   6.900   0.667   5.967
10565SOL    HW232595   6.983   0.790   5.900
10566SOL     OW32596   4.322   2.856   0.164
10566SOL    HW132597   4.413   2.818   0.149
10566SOL    HW232598   4.260   2.822   0.093
10567SOL     OW32599   2.051   1.506   4.310
10567SOL    HW132600   2.139   1.547   4.332
10567SOL    HW232601   1.982   1.578   4.303
10568SOL     OW32602   5.852   1.893   1.308
10568SOL    HW132603   5.766   1.929   1.271
10568SOL    HW232604   5.870   1.936   1.396
10569SOL     OW32605   6.056   2.107   1.362
10569SOL    HW132606   6.076   2.136   1.455
10569SOL    HW232607   6.115   2.030   1.338
10570SOL     OW32608   1.440   4.694   3.383
10570SOL    HW132609   1.475   4.619   3.439
10570SOL    HW232610   1.340   4.699   3.393
10571SOL     OW32611   6.898   5.106   4.638
10571SOL    HW132612   6.915   5.084   4.541
10571SOL    HW232613   6.906   5.204   4.651
10572SOL     OW32614   0.065   4.059   3.832
10572SOL    HW132615   0.087   4.011   3.746
10572SOL    HW232616   0.034   3.992   3.900
10573SOL     OW32617   4.652   0.275   4.584
10573SOL    HW132618   4.562   0.233   4.590
10573SOL    HW232619   4.711   0.219   4.525
10574SOL     OW32620   0.898   1.720   4.355
10574SOL    HW132621   0.915   1.818   4.349
10574SOL    HW232622   0.909   1.679   4.264
10575SOL     OW32623   6.959   1.004   2.466
10575SOL    HW132624   6.974   0.933   2.397
10575SOL    HW232625   0.030   1.035   2.501
10576SOL     OW32626   6.956   6.137   5.624
10576SOL    HW132627   6.898   6.063   5.660
10576SOL    HW232628   6.955   6.135   5.524
10577SOL     OW32629   1.836   2.342   6.808
10577SOL    HW132630   1.867   2.425   6.854
10577SOL    HW232631   1.849   2.351   6.710
10578SOL     OW32632   6.001   0.547   3.093
10578SOL    HW132633   6.015   0.646   3.106
10578SOL    HW232634   5.984   0.529   2.996
10579SOL     OW32635   4.029   1.892   0.504
10579SOL    HW132636   4.100   1.960   0.484
10579SOL    HW232637   4.043   1.812   0.447
10580SOL     OW32638   6.743   0.309   0.133
10580SOL    HW132639   6.677   0.269   0.196
10580SOL    HW232640   6.720   0.405   0.115
10581SOL     OW32641   6.995   6.796   3.224
10581SOL    HW132642   0.076   6.817   3.226
10581SOL    HW232643   6.943   6.877   3.252
10582SOL     OW32644   4.705   4.709   6.981
10582SOL    HW132645   4.621   4.666   7.015
10582SOL    HW232646   4.741   4.771   0.034
10583SOL     OW32647   3.889   0.821   5.327
10583SOL    HW132648   3.819   0.806   5.396
10583SOL    HW232649   3.853   0.879   5.254
10584SOL     OW32650   6.274   6.524   1.513
10584SOL    HW132651   6.187   6.492   1.476
10584SOL    HW232652   6.258   6.588   1.588
10585SOL     OW32653   2.286   2.769   5.505
10585SOL    HW132654   2.368   2.748   5.453
10585SOL    HW232655   2.300   2.854   5.556
10586SOL     OW32656   0.587   5.422   4.934
10586SOL    HW132657   0.607   5.414   5.032
10586SOL    HW232658   0.574   5.330   4.895
10587SOL     OW32659   6.390   3.881   0.625
10587SOL    HW132660   6.406   3.785   0.644
10587SOL    HW232661   6.367   3.892   0.528
10588SOL     OW32662   0.179   3.896   2.545
10588SOL    HW132663   0.129   3.935   2.468
10588SOL    HW232664   0.134   3.920   2.630
10589SOL     OW32665   6.249   1.274   4.752
10589SOL    HW132666   6.323   1.304   4.812
10589SOL    HW232667   6.227   1.347   4.687
10590SOL     OW32668   1.415   0.209   1.513
10590SOL    HW132669   1.412   0.152   1.596
10590SOL    HW232670   1.373   0.160   1.437
10591SOL     OW32671   1.328   1.524   6.132
10591SOL    HW132672   1.327   1.427   6.108
10591SOL    HW232673   1.235   1.554   6.154
10592SOL     OW32674   6.301   2.743   0.624
10592SOL    HW132675   6.264   2.710   0.537
10592SOL    HW232676   6.306   2.843   0.622
10593SOL     OW32677   2.212   5.326   0.484
10593SOL    HW132678   2.205   5.246   0.423
10593SOL    HW232679   2.304   5.330   0.522
10594SOL     OW32680   5.236   0.871   2.394
10594SOL    HW132681   5.147   0.904   2.363
10594SOL    HW232682   5.302   0.946   2.393
10595SOL     OW32683   3.588   0.369   5.489
10595SOL    HW132684   3.490   0.351   5.479
10595SOL    HW232685   3.608   0.461   5.457
10596SOL     OW32686   4.695   0.044   0.258
10596SOL    HW132687   4.643   0.035   0.173
10596SOL    HW232688   4.772   0.107   0.244
10597SOL     OW32689   3.609   1.160   4.856
10597SOL    HW132690   3.594   1.257   4.842
10597SOL    HW232691   3.533   1.121   4.908
10598SOL     OW32692   2.452   2.649   6.894
10598SOL    HW132693   2.488   2.588   6.965
10598SOL    HW232694   2.387   2.598   6.837
10599SOL     OW32695   5.017   2.430   6.720
10599SOL    HW132696   4.973   2.417   6.809
10599SOL    HW232697   4.982   2.513   6.677
10600SOL     OW32698   1.840   2.653   0.444
10600SOL    HW132699   1.743   2.645   0.468
10600SOL    HW232700   1.891   2.577   0.484
10601SOL     OW32701   1.744   4.706   6.599
10601SOL    HW132702   1.752   4.805   6.594
10601SOL    HW232703   1.782   4.674   6.685
10602SOL     OW32704   5.083   1.923   3.098
10602SOL    HW132705   5.164   1.969   3.062
10602SOL    HW232706   5.033   1.986   3.158
10603SOL     OW32707   2.254   5.552   4.070
10603SOL    HW132708   2.280   5.579   3.977
10603SOL    HW232709   2.252   5.452   4.077
10604SOL     OW32710   5.919   3.786   5.275
10604SOL    HW132711   5.853   3.715   5.299
10604SOL    HW232712   6.012   3.753   5.294
10605SOL     OW32713   1.217   4.739   0.674
10605SOL    HW132714   1.220   4.748   0.774
10605SOL    HW232715   1.247   4.824   0.632
10606SOL     OW32716   6.687   6.915   2.040
10606SOL    HW132717   6.607   6.856   2.055
10606SOL    HW232718   6.693   6.938   1.943
10607SOL     OW32719   4.056   4.011   5.977
10607SOL    HW132720   3.983   4.013   5.909
10607SOL    HW232721   4.124   4.081   5.955
10608SOL     OW32722   5.105   1.977   5.861
10608SOL    HW132723   5.100   2.077   5.856
10608SOL    HW232724   5.199   1.947   5.843
10609SOL     OW32725   3.414   6.839   1.857
10609SOL    HW132726   3.419   6.740   1.843
10609SOL    HW232727   3.478   6.865   1.929
10610SOL     OW32728   0.422   3.520   5.815
10610SOL    HW132729   0.478   3.602   5.833
10610SOL    HW232730   0.367   3.536   5.733
10611SOL     OW32731   4.391   3.955   5.640
10611SOL    HW132732   4.363   3.927   5.733
10611SOL    HW232733   4.334   4.031   5.610
10612SOL     OW32734   2.782   0.315   5.659
10612SOL    HW132735   2.772   0.225   5.615
10612SOL    HW232736   2.818   0.302   5.752
10613SOL     OW32737   6.668   0.502   5.409
10613SOL    HW132738   6.666   0.404   5.393
10613SOL    HW232739   6.753   0.540   5.370
10614SOL     OW32740   6.841   2.167   4.575
10614SOL    HW132741   6.797   2.207   4.656
10614SOL    HW232742   6.930   2.211   4.561
10615SOL     OW32743   3.025   6.182   6.073
10615SOL    HW132744   2.955   6.192   6.002
10615SOL    HW232745   3.032   6.085   6.099
10616SOL     OW32746   2.752   6.452   1.288
10616SOL    HW132747   2.793   6.501   1.366
10616SOL    HW232748   2.792   6.361   1.281
10617SOL     OW32749   2.341   2.618   0.451
10617SOL    HW132750   2.332   2.605   0.549
10617SOL    HW232751   2.283   2.694   0.421
10618SOL     OW32752   6.102   3.682   6.664
10618SOL    HW132753   6.021   3.672   6.721
10618SOL    HW232754   6.174   3.728   6.716
10619SOL     OW32755   7.007   3.854   1.887
10619SOL    HW132756   0.041   3.928   1.933
10619SOL    HW232757   6.937   3.819   1.948
10620SOL     OW32758   1.125   5.678   5.853
10620SOL    HW132759   1.049   5.651   5.794
10620SOL    HW232760   1.179   5.598   5.877
10621SOL     OW32761   1.067   6.466   1.282
10621SOL    HW132762   1.050   6.509   1.371
10621SOL    HW232763   1.145   6.405   1.289
10622SOL     OW32764   5.458   0.766   1.070
10622SOL    HW132765   5.524   0.837   1.093
10622SOL    HW232766   5.505   0.680   1.050
10623SOL     OW32767   6.895   4.726   4.333
10623SOL    HW132768   6.871   4.630   4.320
10623SOL    HW232769   6.889   4.749   4.431
10624SOL     OW32770   0.583   1.618   4.516
10624SOL    HW132771   0.519   1.542   4.511
10624SOL    HW232772   0.660   1.601   4.455
10625SOL     OW32773   0.583   4.867   0.028
10625SOL    HW132774   0.522   4.799   7.004
10625SOL    HW232775   0.541   4.957   0.019
10626SOL     OW32776   1.538   3.067   1.174
10626SOL    HW132777   1.581   3.101   1.257
10626SOL    HW232778   1.440   3.087   1.176
10627SOL     OW32779   5.440   5.851   1.230
10627SOL    HW132780   5.383   5.910   1.286
10627SOL    HW232781   5.521   5.823   1.281
10628SOL     OW32782   5.488   5.458   6.009
10628SOL    HW132783   5.421   5.390   5.979
10628SOL    HW232784   5.580   5.418   6.004
10629SOL     OW32785   2.395   4.529   4.742
10629SOL    HW132786   2.413   4.514   4.645
10629SOL    HW232787   2.477   4.566   4.785
10630SOL     OW32788   6.276   1.300   3.567
10630SOL    HW132789   6.272   1.392   3.606
10630SOL    HW232790   6.223   1.298   3.482
10631SOL     OW32791   1.621   4.831   5.503
10631SOL    HW132792   1.599   4.818   5.406
10631SOL    HW232793   1.619   4.928   5.525
10632SOL     OW32794   5.454   1.813   4.118
10632SOL    HW132795   5.517   1.848   4.188
10632SOL    HW232796   5.360   1.831   4.146
10633SOL     OW32797   2.364   3.520   1.319
10633SOL    HW132798   2.346   3.548   1.413
10633SOL    HW232799   2.418   3.590   1.272
10634SOL     OW32800   3.165   5.331   1.586
10634SOL    HW132801   3.133   5.349   1.493
10634SOL    HW232802   3.117   5.390   1.651
10635SOL     OW32803   3.340   1.860   0.641
10635SOL    HW132804   3.322   1.937   0.702
10635SOL    HW232805   3.283   1.782   0.668
10636SOL     OW32806   1.426   1.806   1.573
10636SOL    HW132807   1.380   1.880   1.525
10636SOL    HW232808   1.438   1.728   1.512
10637SOL     OW32809   3.214   4.949   5.321
10637SOL    HW132810   3.310   4.949   5.349
10637SOL    HW232811   3.155   4.936   5.401
10638SOL     OW32812   0.437   5.786   3.020
10638SOL    HW132813   0.375   5.727   3.072
10638SOL    HW232814   0.413   5.882   3.034
10639SOL     OW32815   0.271   2.743   2.951
10639SOL    HW132816   0.316   2.813   2.894
10639SOL    HW232817   0.177   2.770   2.969
10640SOL     OW32818   3.898   0.204   5.870
10640SOL    HW132819   3.969   0.166   5.929
10640SOL    HW232820   3.825   0.244   5.926
10641SOL     OW32821   3.684   2.169   7.008
10641SOL    HW132822   3.780   2.143   0.004
10641SOL    HW232823   3.669   2.196   6.913
10642SOL     OW32824   6.912   2.571   1.572
10642SOL    HW132825   6.971   2.651   1.567
10642SOL    HW232826   6.816   2.600   1.580
10643SOL     OW32827   2.278   4.564   5.588
10643SOL    HW132828   2.367   4.530   5.619
10643SOL    HW232829   2.252   4.644   5.642
10644SOL     OW32830   5.621   2.033   3.096
10644SOL    HW132831   5.536   2.009   3.144
10644SOL    HW232832   5.699   1.992   3.143
10645SOL     OW32833   0.222   1.150   4.579
10645SOL    HW132834   0.263   1.076   4.632
10645SOL    HW232835   0.173   1.113   4.501
10646SOL     OW32836   0.423   1.565   5.918
10646SOL    HW132837   0.330   1.586   5.887
10646SOL    HW232838   0.432   1.589   6.015
10647SOL     OW32839   3.955   5.634   0.164
10647SOL    HW132840   4.023   5.639   0.090
10647SOL    HW232841   4.001   5.642   0.252
10648SOL     OW32842   4.520   4.093   6.527
10648SOL    HW132843   4.482   4.185   6.535
10648SOL    HW232844   4.492   4.052   6.440
10649SOL     OW32845   0.605   4.195   3.125
10649SOL    HW132846   0.517   4.173   3.084
10649SOL    HW232847   0.637   4.116   3.178
10650SOL     OW32848   1.455   6.180   3.143
10650SOL    HW132849   1.512   6.147   3.219
10650SOL    HW232850   1.412   6.267   3.170
10651SOL     OW32851   4.666   6.603   5.930
10651SOL    HW132852   4.750   6.561   5.896
10651SOL    HW232853   4.654   6.693   5.888
10652SOL     OW32854   3.109   0.131   6.317
10652SOL    HW132855   3.183   0.162   6.376
10652SOL    HW232856   3.024   0.126   6.369
10653SOL     OW32857   5.422   4.297   4.341
10653SOL    HW132858   5.453   4.358   4.413
10653SOL    HW232859   5.485   4.219   4.334
10654SOL     OW32860   4.608   1.001   0.676
10654SOL    HW132861   4.609   1.040   0.768
10654SOL    HW232862   4.513   0.991   0.645
10655SOL     OW32863   2.756   5.361   1.552
10655SOL    HW132864   2.718   5.445   1.515
10655SOL    HW232865   2.840   5.382   1.604
10656SOL     OW32866   5.976   2.405   0.388
10656SOL    HW132867   6.046   2.366   0.448
10656SOL    HW232868   5.927   2.478   0.436
10657SOL     OW32869   6.519   6.692   6.787
10657SOL    HW132870   6.614   6.664   6.777
10657SOL    HW232871   6.497   6.703   6.884
10658SOL     OW32872   6.672   3.957   4.378
10658SOL    HW132873   6.701   3.950   4.473
10658SOL    HW232874   6.687   3.868   4.333
10659SOL     OW32875   6.381   6.307   0.873
10659SOL    HW132876   6.300   6.255   0.843
10659SOL    HW232877   6.458   6.244   0.885
10660SOL     OW32878   5.365   4.569   6.401
10660SOL    HW132879   5.427   4.550   6.325
10660SOL    HW232880   5.271   4.550   6.372
10661SOL     OW32881   0.616   6.459   2.396
10661SOL    HW132882   0.698   6.456   2.338
10661SOL    HW232883   0.535   6.459   2.338
10662SOL     OW32884   5.880   0.534   2.078
10662SOL    HW132885   5.820   0.477   2.023
10662SOL    HW232886   5.947   0.477   2.126
10663SOL     OW32887   0.102   0.003   1.560
10663SOL    HW132888   0.106   0.024   1.657
10663SOL    HW232889   0.012   6.983   1.537
10664SOL     OW32890   1.868   4.271   5.459
10664SOL    HW132891   1.915   4.236   5.378
10664SOL    HW232892   1.931   4.326   5.513
10665SOL     OW32893   0.657   0.432   0.644
10665SOL    HW132894   0.717   0.418   0.565
10665SOL    HW232895   0.704   0.489   0.711
10666SOL     OW32896   3.587   4.801   0.289
10666SOL    HW132897   3.661   4.772   0.350
10666SOL    HW232898   3.562   4.726   0.228
10667SOL     OW32899   3.473   2.622   5.319
10667SOL    HW132900   3.546   2.684   5.290
10667SOL    HW232901   3.514   2.539   5.357
10668SOL     OW32902   1.008   1.405   5.071
10668SOL    HW132903   1.019   1.327   5.133
10668SOL    HW232904   1.093   1.417   5.019
10669SOL     OW32905   6.152   6.573   0.756
10669SOL    HW132906   6.159   6.651   0.819
10669SOL    HW232907   6.110   6.604   0.671
10670SOL     OW32908   4.940   4.541   5.390
10670SOL    HW132909   4.980   4.453   5.418
10670SOL    HW232910   4.993   4.580   5.316
10671SOL     OW32911   2.474   2.426   2.551
10671SOL    HW132912   2.568   2.430   2.585
10671SOL    HW232913   2.467   2.481   2.468
10672SOL     OW32914   0.110   2.385   0.797
10672SOL    HW132915   0.102   2.355   0.702
10672SOL    HW232916   0.169   2.466   0.801
10673SOL     OW32917   1.798   2.538   6.187
10673SOL    HW132918   1.880   2.575   6.232
10673SOL    HW232919   1.769   2.454   6.232
10674SOL     OW32920   3.596   3.263   0.635
10674SOL    HW132921   3.597   3.164   0.651
10674SOL    HW232922   3.640   3.310   0.711
10675SOL     OW32923   1.731   0.536   6.371
10675SOL    HW132924   1.724   0.486   6.458
10675SOL    HW232925   1.814   0.508   6.323
10676SOL     OW32926   6.550   6.906   6.364
10676SOL    HW132927   6.604   6.827   6.392
10676SOL    HW232928   6.587   6.945   6.280
10677SOL     OW32929   0.732   0.300   2.296
10677SOL    HW132930   0.687   0.214   2.269
10677SOL    HW232931   0.666   0.374   2.294
10678SOL     OW32932   3.546   5.176   3.375
10678SOL    HW132933   3.508   5.219   3.293
10678SOL    HW232934   3.582   5.085   3.352
10679SOL     OW32935   4.948   4.452   5.934
10679SOL    HW132936   5.039   4.491   5.939
10679SOL    HW232937   4.898   4.492   5.857
10680SOL     OW32938   2.139   2.470   4.023
10680SOL    HW132939   2.040   2.484   4.020
10680SOL    HW232940   2.172   2.490   4.116
10681SOL     OW32941   0.111   3.925   6.390
10681SOL    HW132942   0.140   3.991   6.321
10681SOL    HW232943   0.185   3.860   6.408
10682SOL     OW32944   2.002   1.973   2.907
10682SOL    HW132945   1.998   1.950   3.005
10682SOL    HW232946   2.090   1.942   2.869
10683SOL     OW32947   3.199   1.694   3.699
10683SOL    HW132948   3.193   1.685   3.600
10683SOL    HW232949   3.113   1.730   3.735
10684SOL     OW32950   4.393   3.703   0.388
10684SOL    HW132951   4.377   3.630   0.322
10684SOL    HW232952   4.490   3.708   0.410
10685SOL     OW32953   6.876   4.243   2.114
10685SOL    HW132954   6.944   4.173   2.091
10685SOL    HW232955   6.825   4.214   2.196
10686SOL     OW32956   4.321   5.179   6.528
10686SOL    HW132957   4.222   5.170   6.524
10686SOL    HW232958   4.364   5.095   6.495
10687SOL     OW32959   0.079   4.769   2.007
10687SOL    HW132960   0.167   4.725   2.023
10687SOL    HW232961   0.094   4.867   1.992
10688SOL     OW32962   5.976   4.238   2.605
10688SOL    HW132963   6.003   4.171   2.674
10688SOL    HW232964   6.018   4.327   2.626
10689SOL     OW32965   0.398   0.182   3.197
10689SOL    HW132966   0.424   0.102   3.143
10689SOL    HW232967   0.369   0.256   3.137
10690SOL     OW32968   5.960   5.512   3.927
10690SOL    HW132969   6.048   5.471   3.904
10690SOL    HW232970   5.963   5.546   4.021
10691SOL     OW32971   6.951   1.992   2.315
10691SOL    HW132972   0.033   1.977   2.321
10691SOL    HW232973   6.912   1.993   2.406
10692SOL     OW32974   3.692   5.196   3.680
10692SOL    HW132975   3.685   5.263   3.607
10692SOL    HW232976   3.625   5.123   3.665
10693SOL     OW32977   1.850   0.760   1.737
10693SOL    HW132978   1.884   0.749   1.830
10693SOL    HW232979   1.856   0.857   1.711
10694SOL     OW32980   3.476   6.222   1.222
10694SOL    HW132981   3.462   6.319   1.199
10694SOL    HW232982   3.461   6.166   1.140
10695SOL     OW32983   6.476   2.238   3.526
10695SOL    HW132984   6.411   2.215   3.454
10695SOL    HW232985   6.457   2.184   3.608
10696SOL     OW32986   0.082   5.032   1.986
10696SOL    HW132987   0.089   5.102   1.916
10696SOL    HW232988   0.023   5.064   2.060
10697SOL     OW32989   0.110   6.271   4.148
10697SOL    HW132990   0.180   6.220   4.098
10697SOL    HW232991   0.136   6.278   4.244
10698SOL     OW32992   3.258   6.653   3.916
10698SOL    HW132993   3.223   6.583   3.979
10698SOL    HW232994   3.340   6.618   3.872
10699SOL     OW32995   4.773   1.766   2.752
10699SOL    HW132996   4.755   1.691   2.815
10699SOL    HW232997   4.871   1.772   2.734
10700SOL     OW32998   0.891   0.398   0.493
10700SOL    HW132999   0.920   0.449   0.412
10700SOL    HW233000   0.910   0.301   0.480
10701SOL     OW33001   4.397   6.164   6.910
10701SOL    HW133002   4.314   6.124   6.949
10701SOL    HW233003   4.411   6.130   6.817
10702SOL     OW33004   5.485   2.472   2.014
10702SOL    HW133005   5.498   2.420   2.099
10702SOL    HW233006   5.419   2.546   2.031
10703SOL     OW33007   3.721   2.938   3.878
10703SOL    HW133008   3.788   2.962   3.949
10703SOL    HW233009   3.764   2.946   3.788
10704SOL     OW33010   4.786   6.008   1.900
10704SOL    HW133011   4.704   6.043   1.854
10704SOL    HW233012   4.840   6.084   1.935
10705SOL     OW33013   1.058   3.698   0.280
10705SOL    HW133014   1.041   3.744   0.368
10705SOL    HW233015   0.972   3.693   0.228
10706SOL     OW33016   4.722   0.013   1.616
10706SOL    HW133017   4.805   0.044   1.571
10706SOL    HW233018   4.642   0.040   1.563
10707SOL     OW33019   0.352   6.956   4.947
10707SOL    HW133020   0.434   6.973   4.892
10707SOL    HW233021   0.282   0.007   4.924
10708SOL     OW33022   5.042   1.046   1.700
10708SOL    HW133023   5.049   1.142   1.726
10708SOL    HW233024   5.097   0.990   1.762
10709SOL     OW33025   6.224   0.883   5.577
10709SOL    HW133026   6.323   0.889   5.590
10709SOL    HW233027   6.193   0.959   5.519
10710SOL     OW33028   0.823   6.571   4.830
10710SOL    HW133029   0.831   6.499   4.899
10710SOL    HW233030   0.803   6.658   4.874
10711SOL     OW33031   1.672   6.960   3.987
10711SOL    HW133032   1.656   7.003   3.898
10711SOL    HW233033   1.770   6.945   4.000
10712SOL     OW33034   3.983   1.094   3.718
10712SOL    HW133035   3.917   1.030   3.679
10712SOL    HW233036   3.939   1.182   3.733
10713SOL     OW33037   1.971   4.978   1.403
10713SOL    HW133038   1.961   5.067   1.359
10713SOL    HW233039   1.969   4.989   1.502
10714SOL     OW33040   6.948   3.749   5.198
10714SOL    HW133041   0.024   3.730   5.167
10714SOL    HW233042   6.895   3.664   5.199
10715SOL     OW33043   5.110   0.273   2.783
10715SOL    HW133044   5.127   0.202   2.852
10715SOL    HW233045   5.065   0.233   2.704
10716SOL     OW33046   0.361   1.624   3.529
10716SOL    HW133047   0.438   1.660   3.477
10716SOL    HW233048   0.289   1.595   3.465
10717SOL     OW33049   0.322   1.347   0.998
10717SOL    HW133050   0.387   1.271   0.993
10717SOL    HW233051   0.311   1.386   0.906
10718SOL     OW33052   6.708   4.499   0.442
10718SOL    HW133053   6.627   4.452   0.479
10718SOL    HW233054   6.739   4.452   0.360
10719SOL     OW33055   5.222   6.463   2.166
10719SOL    HW133056   5.263   6.480   2.076
10719SOL    HW233057   5.215   6.364   2.181
10720SOL     OW33058   6.246   3.610   6.126
10720SOL    HW133059   6.192   3.653   6.198
10720SOL    HW233060   6.318   3.673   6.096
10721SOL     OW33061   6.128   2.180   4.161
10721SOL    HW133062   6.226   2.167   4.175
10721SOL    HW233063   6.110   2.274   4.134
10722SOL     OW33064   0.553   3.599   0.064
10722SOL    HW133065   0.539   3.578   0.161
10722SOL    HW233066   0.541   3.697   0.049
10723SOL     OW33067   5.423   3.958   6.612
10723SOL    HW133068   5.349   4.018   6.642
10723SOL    HW233069   5.458   3.906   6.690
10724SOL     OW33070   4.188   6.739   5.999
10724SOL    HW133071   4.265   6.795   6.030
10724SOL    HW233072   4.104   6.769   6.044
10725SOL     OW33073   0.354   5.668   4.249
10725SOL    HW133074   0.321   5.579   4.217
10725SOL    HW233075   0.394   5.717   4.172
10726SOL     OW33076   5.851   0.063   4.670
10726SOL    HW133077   5.945   0.097   4.679
10726SOL    HW233078   5.842   0.012   4.584
10727SOL     OW33079   1.648   5.473   5.509
10727SOL    HW133080   1.645   5.402   5.438
10727SOL    HW233081   1.614   5.435   5.595
10728SOL     OW33082   5.685   6.472   2.734
10728SOL    HW133083   5.642   6.546   2.786
10728SOL    HW233084   5.614   6.418   2.688
10729SOL     OW33085   6.419   1.629   2.549
10729SOL    HW133086   6.507   1.675   2.556
10729SOL    HW233087   6.397   1.585   2.636
10730SOL     OW33088   2.543   6.541   1.910
10730SOL    HW133089   2.635   6.503   1.921
10730SOL    HW233090   2.512   6.580   1.996
10731SOL     OW33091   2.454   5.751   0.646
10731SOL    HW133092   2.398   5.834   0.645
10731SOL    HW233093   2.399   5.673   0.617
10732SOL     OW33094   6.764   6.981   2.887
10732SOL    HW133095   6.724   0.052   2.860
10732SOL    HW233096   6.839   6.997   2.951
10733SOL     OW33097   6.328   2.333   6.812
10733SOL    HW133098   6.425   2.311   6.804
10733SOL    HW233099   6.313   2.391   6.892
10734SOL     OW33100   0.366   0.431   6.395
10734SOL    HW133101   0.328   0.474   6.477
10734SOL    HW233102   0.292   0.400   6.336
10735SOL     OW33103   0.908   5.184   2.400
10735SOL    HW133104   0.920   5.174   2.499
10735SOL    HW233105   0.815   5.215   2.380
10736SOL     OW33106   0.353   0.978   3.005
10736SOL    HW133107   0.333   0.944   3.097
10736SOL    HW233108   0.452   0.986   2.994
10737SOL     OW33109   0.711   1.543   0.828
10737SOL    HW133110   0.656   1.565   0.747
10737SOL    HW233111   0.807   1.559   0.808
10738SOL     OW33112   2.281   0.387   2.682
10738SOL    HW133113   2.250   0.294   2.660
10738SOL    HW233114   2.310   0.433   2.599
10739SOL     OW33115   6.368   2.112   1.985
10739SOL    HW133116   6.331   2.069   2.068
10739SOL    HW233117   6.464   2.134   2.000
10740SOL     OW33118   1.151   6.344   5.595
10740SOL    HW133119   1.071   6.363   5.537
10740SOL    HW233120   1.122   6.291   5.675
10741SOL     OW33121   1.786   1.601   3.413
10741SOL    HW133122   1.730   1.658   3.353
10741SOL    HW233123   1.827   1.659   3.484
10742SOL     OW33124   5.720   6.334   2.273
10742SOL    HW133125   5.665   6.418   2.278
10742SOL    HW233126   5.804   6.346   2.327
10743SOL     OW33127   3.222   1.401   4.484
10743SOL    HW133128   3.267   1.337   4.547
10743SOL    HW233129   3.216   1.491   4.527
10744SOL     OW33130   3.441   1.415   1.907
10744SOL    HW133131   3.465   1.327   1.864
10744SOL    HW233132   3.490   1.424   1.994
10745SOL     OW33133   2.238   4.837   0.531
10745SOL    HW133134   2.193   4.914   0.574
10745SOL    HW233135   2.312   4.803   0.590
10746SOL     OW33136   2.332   5.690   1.109
10746SOL    HW133137   2.378   5.602   1.123
10746SOL    HW233138   2.233   5.678   1.120
10747SOL     OW33139   5.280   1.571   3.420
10747SOL    HW133140   5.246   1.600   3.330
10747SOL    HW233141   5.248   1.478   3.440
10748SOL     OW33142   5.218   5.656   1.041
10748SOL    HW133143   5.121   5.629   1.040
10748SOL    HW233144   5.272   5.583   1.082
10749SOL     OW33145   6.711   4.739   2.722
10749SOL    HW133146   6.659   4.815   2.685
10749SOL    HW233147   6.809   4.758   2.717
10750SOL     OW33148   4.827   3.950   4.644
10750SOL    HW133149   4.765   3.877   4.673
10750SOL    HW233150   4.789   4.038   4.672
10751SOL     OW33151   1.385   3.063   5.196
10751SOL    HW133152   1.471   3.024   5.163
10751SOL    HW233153   1.396   3.161   5.209
10752SOL     OW33154   5.863   4.303   6.699
10752SOL    HW133155   5.826   4.222   6.745
10752SOL    HW233156   5.934   4.275   6.635
10753SOL     OW33157   5.423   0.132   3.755
10753SOL    HW133158   5.468   0.199   3.696
10753SOL    HW233159   5.436   0.157   3.851
10754SOL     OW33160   1.110   3.040   2.040
10754SOL    HW133161   1.149   3.083   1.958
10754SOL    HW233162   1.099   3.109   2.112
10755SOL     OW33163   6.766   2.172   0.841
10755SOL    HW133164   6.667   2.171   0.856
10755SOL    HW233165   6.799   2.266   0.841
10756SOL     OW33166   6.780   2.253   0.229
10756SOL    HW133167   6.847   2.318   0.265
10756SOL    HW233168   6.762   2.272   0.133
10757SOL     OW33169   0.078   3.705   0.716
10757SOL    HW133170   0.151   3.638   0.734
10757SOL    HW233171   0.001   3.658   0.672
10758SOL     OW33172   0.583   5.541   5.783
10758SOL    HW133173   0.536   5.495   5.858
10758SOL    HW233174   0.581   5.640   5.797
10759SOL     OW33175   1.673   3.442   5.989
10759SOL    HW133176   1.695   3.405   5.899
10759SOL    HW233177   1.669   3.542   5.984
10760SOL     OW33178   0.916   5.543   0.746
10760SOL    HW133179   0.990   5.491   0.790
10760SOL    HW233180   0.888   5.618   0.806
10761SOL     OW33181   1.108   2.708   6.094
10761SOL    HW133182   1.059   2.626   6.125
10761SOL    HW233183   1.180   2.681   6.030
10762SOL     OW33184   4.860   0.866   5.936
10762SOL    HW133185   4.842   0.830   6.028
10762SOL    HW233186   4.783   0.922   5.907
10763SOL     OW33187   4.981   0.417   1.618
10763SOL    HW133188   5.060   0.360   1.640
10763SOL    HW233189   4.902   0.360   1.600
10764SOL     OW33190   5.283   1.461   5.899
10764SOL    HW133191   5.318   1.528   5.833
10764SOL    HW233192   5.352   1.444   5.969
10765SOL     OW33193   5.703   1.280   2.105
10765SOL    HW133194   5.777   1.310   2.167
10765SOL    HW233195   5.635   1.354   2.097
10766SOL     OW33196   2.246   4.323   0.232
10766SOL    HW133197   2.314   4.264   0.189
10766SOL    HW233198   2.154   4.296   0.204
10767SOL     OW33199   1.792   6.397   0.859
10767SOL    HW133200   1.718   6.411   0.792
10767SOL    HW233201   1.880   6.397   0.811
10768SOL     OW33202   5.211   5.728   0.181
10768SOL    HW133203   5.254   5.818   0.173
10768SOL    HW233204   5.112   5.738   0.187
10769SOL     OW33205   2.734   4.354   5.316
10769SOL    HW133206   2.786   4.426   5.270
10769SOL    HW233207   2.639   4.356   5.285
10770SOL     OW33208   5.492   0.208   4.825
10770SOL    HW133209   5.581   0.207   4.780
10770SOL    HW233210   5.446   0.295   4.808
10771SOL     OW33211   4.235   0.209   5.577
10771SOL    HW133212   4.271   0.169   5.493
10771SOL    HW233213   4.196   0.299   5.556
10772SOL     OW33214   6.903   6.614   3.757
10772SOL    HW133215   6.914   6.515   3.770
10772SOL    HW233216   6.910   6.636   3.660
10773SOL     OW33217   6.926   4.355   6.841
10773SOL    HW133218   6.836   4.398   6.851
10773SOL    HW233219   6.990   4.421   6.801
10774SOL     OW33220   1.647   2.515   1.578
10774SOL    HW133221   1.653   2.436   1.518
10774SOL    HW233222   1.566   2.506   1.637
10775SOL     OW33223   2.042   4.262   1.275
10775SOL    HW133224   2.140   4.246   1.265
10775SOL    HW233225   2.027   4.350   1.319
10776SOL     OW33226   0.297   6.642   2.096
10776SOL    HW133227   0.243   6.601   2.022
10776SOL    HW233228   0.243   6.713   2.141
10777SOL     OW33229   4.137   0.394   3.367
10777SOL    HW133230   4.072   0.469   3.378
10777SOL    HW233231   4.147   0.345   3.454
10778SOL     OW33232   6.135   6.179   4.537
10778SOL    HW133233   6.153   6.221   4.626
10778SOL    HW233234   6.081   6.095   4.550
10779SOL     OW33235   6.389   4.347   2.534
10779SOL    HW133236   6.442   4.266   2.556
10779SOL    HW233237   6.444   4.429   2.551
10780SOL     OW33238   0.368   5.731   4.519
10780SOL    HW133239   0.370   5.721   4.419
10780SOL    HW233240   0.461   5.749   4.552
10781SOL     OW33241   5.373   0.859   4.453
10781SOL    HW133242   5.280   0.826   4.467
10781SOL    HW233243   5.437   0.783   4.460
10782SOL     OW33244   6.095   3.063   4.071
10782SOL    HW133245   6.058   3.010   3.994
10782SOL    HW233246   6.024   3.123   4.107
10783SOL     OW33247   2.111   3.153   2.264
10783SOL    HW133248   2.150   3.128   2.353
10783SOL    HW233249   2.141   3.245   2.239
10784SOL     OW33250   2.827   6.912   2.127
10784SOL    HW133251   2.926   6.900   2.125
10784SOL    HW233252   2.796   6.926   2.221
10785SOL     OW33253   1.453   5.205   1.324
10785SOL    HW133254   1.463   5.296   1.365
10785SOL    HW233255   1.395   5.212   1.243
10786SOL     OW33256   4.710   1.935   2.303
10786SOL    HW133257   4.775   1.859   2.296
10786SOL    HW233258   4.751   2.009   2.356
10787SOL     OW33259   3.327   1.072   4.288
10787SOL    HW133260   3.345   1.043   4.194
10787SOL    HW233261   3.402   1.129   4.320
10788SOL     OW33262   1.905   4.117   0.145
10788SOL    HW133263   1.923   4.206   0.187
10788SOL    HW233264   1.986   4.087   0.094
10789SOL     OW33265   6.608   0.799   0.176
10789SOL    HW133266   6.510   0.790   0.158
10789SOL    HW233267   6.622   0.811   0.275
10790SOL     OW33268   6.629   0.994   5.789
10790SOL    HW133269   6.584   1.023   5.873
10790SOL    HW233270   6.652   1.074   5.734
10791SOL     OW33271   2.100   1.743   1.548
10791SOL    HW133272   2.104   1.827   1.603
10791SOL    HW233273   2.048   1.673   1.598
10792SOL     OW33274   3.438   3.039   1.150
10792SOL    HW133275   3.494   3.121   1.155
10792SOL    HW233276   3.469   2.973   1.219
10793SOL     OW33277   5.190   2.342   4.220
10793SOL    HW133278   5.125   2.268   4.234
10793SOL    HW233279   5.143   2.422   4.185
10794SOL     OW33280   4.129   3.912   1.895
10794SOL    HW133281   4.155   3.904   1.991
10794SOL    HW233282   4.029   3.912   1.888
10795SOL     OW33283   6.701   3.725   2.494
10795SOL    HW133284   6.614   3.679   2.475
10795SOL    HW233285   6.776   3.660   2.481
10796SOL     OW33286   4.099   0.041   6.298
10796SOL    HW133287   4.042   0.104   6.350
10796SOL    HW233288   4.080   6.964   6.327
10797SOL     OW33289   3.960   2.429   0.045
10797SOL    HW133290   3.935   2.333   0.032
10797SOL    HW233291   4.060   2.436   0.054
10798SOL     OW33292   2.474   0.565   6.735
10798SOL    HW133293   2.417   0.516   6.669
10798SOL    HW233294   2.477   0.513   6.821
10799SOL     OW33295   3.458   2.146   2.504
10799SOL    HW133296   3.407   2.195   2.433
10799SOL    HW233297   3.394   2.106   2.569
10800SOL     OW33298   2.268   6.426   0.872
10800SOL    HW133299   2.283   6.489   0.949
10800SOL    HW233300   2.191   6.458   0.817
10801SOL     OW33301   1.958   6.459   5.097
10801SOL    HW133302   1.898   6.527   5.140
10801SOL    HW233303   1.903   6.392   5.048
10802SOL     OW33304   2.151   3.084   3.942
10802SOL    HW133305   2.246   3.054   3.936
10802SOL    HW233306   2.093   3.021   3.891
10803SOL     OW33307   5.311   4.408   5.223
10803SOL    HW133308   5.395   4.448   5.188
10803SOL    HW233309   5.232   4.452   5.180
10804SOL     OW33310   6.783   3.842   0.655
10804SOL    HW133311   6.774   3.863   0.752
10804SOL    HW233312   6.732   3.759   0.634
10805SOL     OW33313   3.370   6.884   6.564
10805SOL    HW133314   3.449   6.937   6.595
10805SOL    HW233315   3.372   6.794   6.609
10806SOL     OW33316   6.119   4.095   0.356
10806SOL    HW133317   6.114   3.996   0.340
10806SOL    HW233318   6.181   4.136   0.289
10807SOL     OW33319   3.177   6.733   3.433
10807SOL    HW133320   3.117   6.709   3.510
10807SOL    HW233321   3.139   6.695   3.349
10808SOL     OW33322   0.487   3.862   0.005
10808SOL    HW133323   0.501   3.961   7.016
10808SOL    HW233324   0.406   3.838   6.968
10809SOL     OW33325   2.827   0.893   4.317
10809SOL    HW133326   2.878   0.867   4.399
10809SOL    HW233327   2.891   0.919   4.245
10810SOL     OW33328   0.431   1.318   5.579
10810SOL    HW133329   0.398   1.252   5.646
10810SOL    HW233330   0.431   1.275   5.488
10811SOL     OW33331   3.912   5.161   5.864
10811SOL    HW133332   3.949   5.210   5.942
10811SOL    HW233333   3.812   5.164   5.866
10812SOL     OW33334   0.588   2.500   2.731
10812SOL    HW133335   0.680   2.482   2.696
10812SOL    HW233336   0.542   2.566   2.672
10813SOL     OW33337   2.904   5.881   1.485
10813SOL    HW133338   2.857   5.925   1.561
10813SOL    HW233339   2.838   5.861   1.412
10814SOL     OW33340   1.601   0.143   5.925
10814SOL    HW133341   1.697   0.118   5.937
10814SOL    HW233342   1.552   0.130   6.011
10815SOL     OW33343   4.852   4.728   3.573
10815SOL    HW133344   4.769   4.675   3.591
10815SOL    HW233345   4.861   4.745   3.475
10816SOL     OW33346   1.909   1.419   2.142
10816SOL    HW133347   1.820   1.407   2.099
10816SOL    HW233348   1.975   1.453   2.074
10817SOL     OW33349   5.383   6.586   2.834
10817SOL    HW133350   5.415   6.515   2.897
10817SOL    HW233351   5.296   6.622   2.866
10818SOL     OW33352   5.815   2.661   5.946
10818SOL    HW133353   5.803   2.651   6.045
10818SOL    HW233354   5.909   2.691   5.927
10819SOL     OW33355   1.225   3.561   6.468
10819SOL    HW133356   1.142   3.574   6.413
10819SOL    HW233357   1.275   3.481   6.434
10820SOL     OW33358   0.155   6.944   3.844
10820SOL    HW133359   0.173   6.889   3.926
10820SOL    HW233360   0.059   6.935   3.818
10821SOL     OW33361   6.502   6.175   2.595
10821SOL    HW133362   6.564   6.096   2.587
10821SOL    HW233363   6.439   6.175   2.517
10822SOL     OW33364   1.542   3.576   2.704
10822SOL    HW133365   1.459   3.629   2.682
10822SOL    HW233366   1.554   3.504   2.635
10823SOL     OW33367   1.836   5.854   1.472
10823SOL    HW133368   1.835   5.873   1.570
10823SOL    HW233369   1.905   5.783   1.452
10824SOL     OW33370   5.274   0.080   3.404
10824SOL    HW133371   5.239   0.010   3.466
10824SOL    HW233372   5.368   0.102   3.428
10825SOL     OW33373   2.384   1.300   0.887
10825SOL    HW133374   2.443   1.256   0.820
10825SOL    HW233375   2.309   1.347   0.841
10826SOL     OW33376   6.691   3.560   2.135
10826SOL    HW133377   6.711   3.478   2.189
10826SOL    HW233378   6.646   3.534   2.050
10827SOL     OW33379   6.269   3.809   3.791
10827SOL    HW133380   6.285   3.713   3.814
10827SOL    HW233381   6.254   3.861   3.875
10828SOL     OW33382   0.898   6.000   1.462
10828SOL    HW133383   0.828   6.013   1.532
10828SOL    HW233384   0.953   6.083   1.453
10829SOL     OW33385   2.299   2.848   1.368
10829SOL    HW133386   2.335   2.872   1.278
10829SOL    HW233387   2.202   2.870   1.371
10830SOL     OW33388   5.935   2.571   4.210
10830SOL    HW133389   5.845   2.545   4.245
10830SOL    HW233390   5.942   2.671   4.208
10831SOL     OW33391   5.220   0.284   1.808
10831SOL    HW133392   5.190   0.224   1.882
10831SOL    HW233393   5.229   0.377   1.843
10832SOL     OW33394   0.697   2.098   1.022
10832SOL    HW133395   0.694   2.168   0.951
10832SOL    HW233396   0.607   2.056   1.032
10833SOL     OW33397   2.124   0.248   3.596
10833SOL    HW133398   2.129   0.306   3.677
10833SOL    HW233399   2.211   0.250   3.547
10834SOL     OW33400   0.108   1.471   4.876
10834SOL    HW133401   0.101   1.394   4.813
10834SOL    HW233402   0.150   1.549   4.829
10835SOL     OW33403   6.520   1.796   1.667
10835SOL    HW133404   6.497   1.894   1.668
10835SOL    HW233405   6.567   1.773   1.752
10836SOL     OW33406   6.826   2.152   5.270
10836SOL    HW133407   6.747   2.182   5.217
10836SOL    HW233408   6.878   2.085   5.217
10837SOL     OW33409   0.069   4.596   0.114
10837SOL    HW133410   0.029   4.613   0.204
10837SOL    HW233411   0.105   4.503   0.110
10838SOL     OW33412   5.576   0.245   5.642
10838SOL    HW133413   5.565   0.339   5.674
10838SOL    HW233414   5.596   0.245   5.544
10839SOL     OW33415   2.797   2.469   0.044
10839SOL    HW133416   2.828   2.389   7.010
10839SOL    HW233417   2.872   2.535   0.051
10840SOL     OW33418   3.623   5.956   1.500
10840SOL    HW133419   3.593   5.950   1.596
10840SOL    HW233420   3.651   6.050   1.481
10841SOL     OW33421   3.627   5.974   5.391
10841SOL    HW133422   3.665   6.065   5.377
10841SOL    HW233423   3.592   5.966   5.484
10842SOL     OW33424   6.212   2.873   1.029
10842SOL    HW133425   6.203   2.777   1.002
10842SOL    HW233426   6.284   2.917   0.974
10843SOL     OW33427   0.768   2.002   1.442
10843SOL    HW133428   0.793   1.914   1.401
10843SOL    HW233429   0.823   2.018   1.523
10844SOL     OW33430   6.689   6.378   4.390
10844SOL    HW133431   6.686   6.347   4.485
10844SOL    HW233432   6.777   6.354   4.349
10845SOL     OW33433   1.559   1.043   1.600
10845SOL    HW133434   1.544   0.980   1.676
10845SOL    HW233435   1.657   1.062   1.592
10846SOL     OW33436   4.727   1.936   0.904
10846SOL    HW133437   4.821   1.909   0.882
10846SOL    HW233438   4.663   1.872   0.861
10847SOL     OW33439   2.443   1.927   6.080
10847SOL    HW133440   2.408   1.978   6.159
10847SOL    HW233441   2.515   1.980   6.035
10848SOL     OW33442   2.530   1.630   0.016
10848SOL    HW133443   2.606   1.695   0.016
10848SOL    HW233444   2.527   1.582   0.103
10849SOL     OW33445   3.802   4.868   3.677
10849SOL    HW133446   3.828   4.771   3.685
10849SOL    HW233447   3.724   4.886   3.736
10850SOL     OW33448   3.919   6.883   0.041
10850SOL    HW133449   3.935   6.924   0.131
10850SOL    HW233450   3.821   6.864   0.031
10851SOL     OW33451   2.954   3.213   6.006
10851SOL    HW133452   2.855   3.210   5.991
10851SOL    HW233453   2.991   3.298   5.970
10852SOL     OW33454   0.263   0.632   6.702
10852SOL    HW133455   0.337   0.645   6.767
10852SOL    HW233456   0.189   0.697   6.721
10853SOL     OW33457   3.719   2.030   4.256
10853SOL    HW133458   3.697   2.041   4.353
10853SOL    HW233459   3.654   2.082   4.201
10854SOL     OW33460   6.112   0.328   0.003
10854SOL    HW133461   6.051   0.374   0.068
10854SOL    HW233462   6.083   0.233   7.009
10855SOL     OW33463   2.721   6.203   2.436
10855SOL    HW133464   2.724   6.109   2.404
10855SOL    HW233465   2.696   6.206   2.533
10856SOL     OW33466   6.014   0.075   0.882
10856SOL    HW133467   6.010   0.171   0.855
10856SOL    HW233468   6.101   0.036   0.853
10857SOL     OW33469   6.410   2.952   3.081
10857SOL    HW133470   6.357   2.995   3.154
10857SOL    HW233471   6.500   2.995   3.076
10858SOL     OW33472   1.781   2.791   6.990
10858SOL    HW133473   1.688   2.815   6.961
10858SOL    HW233474   1.809   2.853   0.047
10859SOL     OW33475   1.493   3.622   3.204
10859SOL    HW133476   1.423   3.633   3.275
10859SOL    HW233477   1.450   3.629   3.114
10860SOL     OW33478   6.514   1.085   0.011
10860SOL    HW133479   6.451   1.012   0.037
10860SOL    HW233480   6.587   1.048   6.970
10861SOL     OW33481   3.660   2.742   1.789
10861SOL    HW133482   3.743   2.724   1.737
10861SOL    HW233483   3.586   2.683   1.755
10862SOL     OW33484   2.582   2.018   6.398
10862SOL    HW133485   2.651   2.027   6.327
10862SOL    HW233486   2.492   2.040   6.360
10863SOL     OW33487   2.808   0.465   3.041
10863SOL    HW133488   2.765   0.553   3.059
10863SOL    HW233489   2.843   0.464   2.947
10864SOL     OW33490   2.100   4.516   1.582
10864SOL    HW133491   2.167   4.525   1.508
10864SOL    HW233492   2.010   4.548   1.550
10865SOL     OW33493   5.801   3.105   3.708
10865SOL    HW133494   5.883   3.053   3.734
10865SOL    HW233495   5.821   3.202   3.714
10866SOL     OW33496   5.865   3.252   1.182
10866SOL    HW133497   5.787   3.247   1.119
10866SOL    HW233498   5.906   3.161   1.191
10867SOL     OW33499   2.759   2.984   0.268
10867SOL    HW133500   2.697   2.928   0.213
10867SOL    HW233501   2.838   2.929   0.294
10868SOL     OW33502   1.014   2.194   3.029
10868SOL    HW133503   1.089   2.252   3.061
10868SOL    HW233504   0.985   2.134   3.103
10869NA      NA33505   0.932   1.992   6.130
10870NA      NA33506   4.502   4.584   5.133
10871NA      NA33507   1.828   4.747   2.765
10872NA      NA33508   5.084   4.481   3.775
10873NA      NA33509   4.315   2.417   5.309
10874NA      NA33510   3.016   4.851   1.610
10875NA      NA33511   1.206   4.649   0.046
10876NA      NA33512   4.022   4.283   1.579
10877NA      NA33513   4.636   3.958   0.993
10878NA      NA33514   3.672   1.151   5.687
10879NA      NA33515   4.844   5.791   1.829
10880NA      NA33516   1.526   0.239   5.740
10881NA      NA33517   4.972   4.790   2.135
10882NA      NA33518   3.407   3.411   0.273
   7.01663   7.01663   7.01663
