Generated by trjconv : CNT in water t= 592.00000
33518
    1C        C    1   2.834   2.758   4.745
    1C        C    2   2.893   2.716   4.865
    1C        C    3   2.842   2.770   4.984
    1C        C    4   2.841   2.768   4.258
    1C        C    5   2.899   2.727   4.380
    1C        C    6   2.839   2.765   4.503
    1C        C    7   3.009   2.636   4.625
    1C        C    8   2.891   2.713   4.624
    1C        C    9   3.075   2.599   4.745
    1C        C   10   3.007   2.632   4.864
    1C        C   11   3.178   2.487   4.975
    1C        C   12   3.057   2.557   4.972
    1C        C   13   2.841   2.761   3.771
    1C        C   14   2.894   2.712   3.892
    1C        C   15   2.843   2.768   4.012
    1C        C   16   3.012   2.643   4.135
    1C        C   17   2.898   2.727   4.135
    1C        C   18   3.075   2.615   4.258
    1C        C   19   3.016   2.648   4.382
    1C        C   20   3.207   2.558   4.502
    1C        C   21   3.075   2.608   4.504
    1C        C   22   3.275   2.531   4.623
    1C        C   23   3.206   2.544   4.746
    1C        C   24   3.410   2.476   4.863
    1C        C   25   3.268   2.496   4.864
    1C        C   26   3.484   2.469   4.982
    1C        C   27   2.838   2.757   3.279
    1C        C   28   2.896   2.719   3.402
    1C        C   29   2.842   2.759   3.526
    1C        C   30   3.011   2.633   3.646
    1C        C   31   2.893   2.712   3.649
    1C        C   32   3.071   2.597   3.769
    1C        C   33   3.009   2.630   3.892
    1C        C   34   3.206   2.556   4.014
    1C        C   35   3.072   2.600   4.015
    1C        C   36   3.275   2.538   4.137
    1C        C   37   3.208   2.567   4.258
    1C        C   38   3.414   2.511   4.379
    1C        C   39   3.276   2.542   4.380
    1C        C   40   3.485   2.506   4.501
    1C        C   41   3.414   2.506   4.623
    1C        C   42   3.628   2.485   4.742
    1C        C   43   3.486   2.485   4.743
    1C        C   44   3.701   2.485   4.862
    1C        C   45   3.623   2.472   4.978
    1C        C   46   2.832   2.747   2.792
    1C        C   47   2.888   2.705   2.915
    1C        C   48   2.837   2.757   3.036
    1C        C   49   3.012   2.634   3.159
    1C        C   50   2.894   2.712   3.157
    1C        C   51   3.076   2.606   3.282
    1C        C   52   3.014   2.641   3.404
    1C        C   53   3.206   2.546   3.525
    1C        C   54   3.076   2.602   3.525
    1C        C   55   3.274   2.527   3.647
    1C        C   56   3.204   2.552   3.767
    1C        C   57   3.411   2.513   3.892
    1C        C   58   3.271   2.536   3.891
    1C        C   59   3.484   2.515   4.013
    1C        C   60   3.414   2.512   4.136
    1C        C   61   3.626   2.502   4.254
    1C        C   62   3.484   2.501   4.258
    1C        C   63   3.695   2.511   4.376
    1C        C   64   3.626   2.507   4.500
    1C        C   65   3.836   2.536   4.619
    1C        C   66   3.699   2.502   4.621
    1C        C   67   3.902   2.559   4.741
    1C        C   68   3.836   2.526   4.862
    1C        C   69   4.052   2.577   4.974
    1C        C   70   3.921   2.527   4.974
    1C        C   71   2.820   2.728   2.307
    1C        C   72   2.879   2.685   2.428
    1C        C   73   2.825   2.738   2.547
    1C        C   74   3.002   2.623   2.669
    1C        C   75   2.881   2.695   2.670
    1C        C   76   3.070   2.599   2.791
    1C        C   77   3.009   2.631   2.914
    1C        C   78   3.205   2.549   3.035
    1C        C   79   3.072   2.598   3.036
    1C        C   80   3.274   2.532   3.157
    1C        C   81   3.208   2.557   3.280
    1C        C   82   3.413   2.504   3.400
    1C        C   83   3.275   2.532   3.402
    1C        C   84   3.483   2.497   3.523
    1C        C   85   3.414   2.508   3.646
    1C        C   86   3.623   2.504   3.766
    1C        C   87   3.482   2.505   3.770
    1C        C   88   3.694   2.511   3.887
    1C        C   89   3.625   2.510   4.010
    1C        C   90   3.834   2.543   4.134
    1C        C   91   3.696   2.513   4.132
    1C        C   92   3.903   2.565   4.255
    1C        C   93   3.832   2.545   4.375
    1C        C   94   4.028   2.628   4.496
    1C        C   95   3.900   2.567   4.497
    1C        C   96   4.089   2.666   4.618
    1C        C   97   4.029   2.622   4.738
    1C        C   98   4.188   2.760   4.862
    1C        C   99   4.097   2.650   4.860
    1C        C  100   4.201   2.844   4.973
    1C        C  101   2.820   2.722   2.065
    1C        C  102   2.984   2.585   2.186
    1C        C  103   2.871   2.672   2.186
    1C        C  104   3.059   2.571   2.306
    1C        C  105   2.998   2.610   2.427
    1C        C  106   3.200   2.538   2.548
    1C        C  107   3.067   2.586   2.549
    1C        C  108   3.269   2.522   2.670
    1C        C  109   3.199   2.542   2.791
    1C        C  110   3.409   2.500   2.910
    1C        C  111   3.269   2.521   2.912
    1C        C  112   3.479   2.496   3.032
    1C        C  113   3.413   2.505   3.157
    1C        C  114   3.625   2.497   3.275
    1C        C  115   3.484   2.496   3.278
    1C        C  116   3.694   2.513   3.398
    1C        C  117   3.624   2.502   3.520
    1C        C  118   3.830   2.543   3.642
    1C        C  119   3.693   2.509   3.643
    1C        C  120   3.895   2.571   3.765
    1C        C  121   3.831   2.547   3.889
    1C        C  122   4.026   2.631   4.009
    1C        C  123   3.900   2.567   4.011
    1C        C  124   4.093   2.660   4.130
    1C        C  125   4.032   2.623   4.252
    1C        C  126   4.191   2.764   4.373
    1C        C  127   4.087   2.668   4.374
    1C        C  128   4.240   2.816   4.495
    1C        C  129   4.191   2.763   4.616
    1C        C  130   4.315   2.933   4.739
    1C        C  131   4.236   2.815   4.740
    1C        C  132   4.352   3.000   4.857
    1C        C  133   4.280   2.958   4.970
    1C        C  134   3.171   2.465   2.077
    1C        C  135   3.037   2.505   2.079
    1C        C  136   3.256   2.479   2.187
    1C        C  137   3.191   2.517   2.307
    1C        C  138   3.399   2.469   2.426
    1C        C  139   3.260   2.496   2.428
    1C        C  140   3.477   2.478   2.544
    1C        C  141   3.407   2.494   2.665
    1C        C  142   3.619   2.498   2.788
    1C        C  143   3.478   2.493   2.787
    1C        C  144   3.691   2.506   2.910
    1C        C  145   3.621   2.496   3.032
    1C        C  146   3.831   2.539   3.152
    1C        C  147   3.695   2.500   3.152
    1C        C  148   3.898   2.562   3.274
    1C        C  149   3.831   2.545   3.397
    1C        C  150   4.027   2.621   3.521
    1C        C  151   3.900   2.559   3.520
    1C        C  152   4.085   2.665   3.642
    1C        C  153   4.023   2.631   3.764
    1C        C  154   4.196   2.755   3.884
    1C        C  155   4.085   2.667   3.886
    1C        C  156   4.245   2.805   4.007
    1C        C  157   4.200   2.751   4.129
    1C        C  158   4.336   2.916   4.251
    1C        C  159   4.247   2.807   4.251
    1C        C  160   4.375   2.978   4.372
    1C        C  161   4.330   2.925   4.495
    1C        C  162   4.434   3.110   4.614
    1C        C  163   4.361   2.989   4.617
    1C        C  164   4.462   3.182   4.732
    1C        C  165   4.426   3.120   4.854
    1C        C  166   4.511   3.318   4.968
    1C        C  167   4.474   3.184   4.969
    1C        C  168   3.471   2.443   2.070
    1C        C  169   3.396   2.459   2.187
    1C        C  170   3.614   2.465   2.305
    1C        C  171   3.472   2.460   2.306
    1C        C  172   3.690   2.488   2.422
    1C        C  173   3.618   2.487   2.544
    1C        C  174   3.827   2.535   2.663
    1C        C  175   3.689   2.504   2.665
    1C        C  176   3.897   2.551   2.784
    1C        C  177   3.829   2.533   2.907
    1C        C  178   4.024   2.620   3.028
    1C        C  179   3.896   2.560   3.029
    1C        C  180   4.085   2.657   3.150
    1C        C  181   4.027   2.621   3.274
    1C        C  182   4.198   2.743   3.396
    1C        C  183   4.086   2.656   3.397
    1C        C  184   4.250   2.794   3.517
    1C        C  185   4.198   2.749   3.640
    1C        C  186   4.336   2.911   3.761
    1C        C  187   4.252   2.798   3.762
    1C        C  188   4.374   2.972   3.882
    1C        C  189   4.336   2.914   4.005
    1C        C  190   4.440   3.098   4.126
    1C        C  191   4.375   2.972   4.127
    1C        C  192   4.459   3.169   4.247
    1C        C  193   4.435   3.105   4.371
    1C        C  194   4.503   3.309   4.488
    1C        C  195   4.464   3.173   4.491
    1C        C  196   4.523   3.383   4.606
    1C        C  197   4.513   3.314   4.729
    1C        C  198   4.552   3.530   4.845
    1C        C  199   4.533   3.389   4.849
    1C        C  200   4.583   3.617   4.954
    1C        C  201   3.610   2.424   2.069
    1C        C  202   3.823   2.510   2.179
    1C        C  203   3.688   2.462   2.183
    1C        C  204   3.896   2.535   2.298
    1C        C  205   3.827   2.520   2.420
    1C        C  206   4.022   2.614   2.540
    1C        C  207   3.895   2.552   2.540
    1C        C  208   4.086   2.647   2.661
    1C        C  209   4.024   2.611   2.783
    1C        C  210   4.196   2.739   2.906
    1C        C  211   4.083   2.654   2.904
    1C        C  212   4.249   2.788   3.027
    1C        C  213   4.197   2.743   3.150
    1C        C  214   4.337   2.902   3.269
    1C        C  215   4.246   2.793   3.273
    1C        C  216   4.374   2.962   3.391
    1C        C  217   4.336   2.906   3.515
    1C        C  218   4.429   3.098   3.636
    1C        C  219   4.374   2.968   3.637
    1C        C  220   4.454   3.166   3.758
    1C        C  221   4.435   3.100   3.881
    1C        C  222   4.496   3.302   4.000
    1C        C  223   4.462   3.165   4.004
    1C        C  224   4.510   3.375   4.121
    1C        C  225   4.497   3.305   4.243
    1C        C  226   4.515   3.517   4.362
    1C        C  227   4.512   3.376   4.364
    1C        C  228   4.512   3.593   4.481
    1C        C  229   4.521   3.524   4.604
    1C        C  230   4.499   3.739   4.723
    1C        C  231   4.534   3.601   4.722
    1C        C  232   4.496   3.817   4.840
    1C        C  233   4.549   3.753   4.953
    1C        C  234   4.018   2.594   2.061
    1C        C  235   3.888   2.545   2.060
    1C        C  236   4.083   2.642   2.176
    1C        C  237   4.022   2.602   2.296
    1C        C  238   4.199   2.726   2.418
    1C        C  239   4.085   2.641   2.417
    1C        C  240   4.248   2.782   2.538
    1C        C  241   4.196   2.735   2.661
    1C        C  242   4.336   2.896   2.781
    1C        C  243   4.246   2.786   2.783
    1C        C  244   4.374   2.958   2.901
    1C        C  245   4.333   2.902   3.025
    1C        C  246   4.436   3.087   3.146
    1C        C  247   4.375   2.960   3.146
    1C        C  248   4.455   3.156   3.268
    1C        C  249   4.432   3.091   3.391
    1C        C  250   4.485   3.298   3.509
    1C        C  251   4.454   3.161   3.512
    1C        C  252   4.494   3.368   3.632
    1C        C  253   4.488   3.303   3.757
    1C        C  254   4.513   3.514   3.874
    1C        C  255   4.506   3.373   3.878
    1C        C  256   4.510   3.585   3.996
    1C        C  257   4.510   3.516   4.119
    1C        C  258   4.484   3.728   4.239
    1C        C  259   4.504   3.588   4.240
    1C        C  260   4.466   3.801   4.359
    1C        C  261   4.484   3.731   4.481
    1C        C  262   4.421   3.937   4.601
    1C        C  263   4.467   3.803   4.601
    1C        C  264   4.396   4.006   4.721
    1C        C  265   4.432   3.943   4.842
    1C        C  266   4.317   4.128   4.957
    1C        C  267   4.388   4.009   4.958
    1C        C  268   4.260   2.768   2.058
    1C        C  269   4.196   2.727   2.176
    1C        C  270   4.340   2.887   2.293
    1C        C  271   4.251   2.776   2.296
    1C        C  272   4.384   2.946   2.414
    1C        C  273   4.340   2.889   2.536
    1C        C  274   4.440   3.077   2.656
    1C        C  275   4.378   2.950   2.657
    1C        C  276   4.466   3.144   2.778
    1C        C  277   4.442   3.082   2.902
    1C        C  278   4.504   3.286   3.021
    1C        C  279   4.469   3.149   3.023
    1C        C  280   4.505   3.359   3.142
    1C        C  281   4.488   3.293   3.266
    1C        C  282   4.506   3.507   3.385
    1C        C  283   4.500   3.366   3.386
    1C        C  284   4.501   3.576   3.508
    1C        C  285   4.504   3.509   3.633
    1C        C  286   4.489   3.725   3.751
    1C        C  287   4.508   3.585   3.752
    1C        C  288   4.469   3.793   3.873
    1C        C  289   4.483   3.723   3.996
    1C        C  290   4.424   3.929   4.114
    1C        C  291   4.470   3.796   4.116
    1C        C  292   4.391   3.997   4.234
    1C        C  293   4.416   3.932   4.357
    1C        C  294   4.320   4.123   4.476
    1C        C  295   4.387   3.999   4.478
    1C        C  296   4.280   4.183   4.597
    1C        C  297   4.324   4.128   4.719
    1C        C  298   4.198   4.310   4.836
    1C        C  299   4.282   4.194   4.838
    1C        C  300   4.166   4.398   4.944
    1C        C  301   4.347   2.876   2.058
    1C        C  302   4.462   3.067   2.172
    1C        C  303   4.392   2.942   2.173
    1C        C  304   4.479   3.139   2.294
    1C        C  305   4.446   3.073   2.414
    1C        C  306   4.506   3.279   2.533
    1C        C  307   4.470   3.142   2.535
    1C        C  308   4.509   3.353   2.653
    1C        C  309   4.495   3.283   2.775
    1C        C  310   4.513   3.494   2.898
    1C        C  311   4.510   3.353   2.897
    1C        C  312   4.506   3.569   3.018
    1C        C  313   4.508   3.501   3.141
    1C        C  314   4.483   3.715   3.261
    1C        C  315   4.501   3.575   3.261
    1C        C  316   4.471   3.785   3.383
    1C        C  317   4.486   3.717   3.506
    1C        C  318   4.422   3.921   3.626
    1C        C  319   4.470   3.789   3.626
    1C        C  320   4.387   3.985   3.748
    1C        C  321   4.418   3.924   3.872
    1C        C  322   4.312   4.110   3.986
    1C        C  323   4.392   3.993   3.992
    1C        C  324   4.275   4.170   4.108
    1C        C  325   4.316   4.116   4.232
    1C        C  326   4.184   4.282   4.351
    1C        C  327   4.282   4.181   4.353
    1C        C  328   4.133   4.337   4.471
    1C        C  329   4.188   4.291   4.593
    1C        C  330   4.024   4.432   4.708
    1C        C  331   4.139   4.348   4.712
    1C        C  332   3.967   4.485   4.826
    1C        C  333   4.053   4.481   4.936
    1C        C  334   4.549   3.264   2.058
    1C        C  335   4.532   3.125   2.062
    1C        C  336   4.537   3.345   2.172
    1C        C  337   4.516   3.276   2.293
    1C        C  338   4.520   3.492   2.408
    1C        C  339   4.520   3.351   2.413
    1C        C  340   4.515   3.564   2.529
    1C        C  341   4.514   3.494   2.652
    1C        C  342   4.484   3.702   2.772
    1C        C  343   4.508   3.563   2.775
    1C        C  344   4.469   3.775   2.892
    1C        C  345   4.485   3.709   3.016
    1C        C  346   4.421   3.914   3.135
    1C        C  347   4.465   3.780   3.137
    1C        C  348   4.388   3.979   3.256
    1C        C  349   4.418   3.916   3.379
    1C        C  350   4.314   4.099   3.499
    1C        C  351   4.392   3.981   3.502
    1C        C  352   4.271   4.161   3.618
    1C        C  353   4.317   4.107   3.741
    1C        C  354   4.173   4.265   3.862
    1C        C  355   4.271   4.163   3.862
    1C        C  356   4.120   4.316   3.983
    1C        C  357   4.176   4.271   4.105
    1C        C  358   4.007   4.396   4.227
    1C        C  359   4.127   4.321   4.227
    1C        C  360   3.948   4.443   4.347
    1C        C  361   4.017   4.416   4.467
    1C        C  362   3.829   4.520   4.588
    1C        C  363   3.957   4.461   4.587
    1C        C  364   3.760   4.545   4.709
    1C        C  365   3.837   4.540   4.827
    1C        C  366   3.628   4.591   4.944
    1C        C  367   3.766   4.571   4.943
    1C        C  368   4.512   3.560   2.049
    1C        C  369   4.522   3.485   2.167
    1C        C  370   4.499   3.703   2.283
    1C        C  371   4.511   3.562   2.285
    1C        C  372   4.484   3.773   2.405
    1C        C  373   4.493   3.703   2.527
    1C        C  374   4.413   3.901   2.647
    1C        C  375   4.465   3.770   2.649
    1C        C  376   4.387   3.969   2.768
    1C        C  377   4.420   3.907   2.891
    1C        C  378   4.315   4.094   3.008
    1C        C  379   4.392   3.976   3.011
    1C        C  380   4.268   4.150   3.129
    1C        C  381   4.310   4.097   3.253
    1C        C  382   4.170   4.253   3.375
    1C        C  383   4.270   4.153   3.376
    1C        C  384   4.119   4.308   3.495
    1C        C  385   4.174   4.263   3.618
    1C        C  386   4.005   4.392   3.739
    1C        C  387   4.121   4.311   3.740
    1C        C  388   3.942   4.429   3.860
    1C        C  389   4.002   4.393   3.983
    1C        C  390   3.814   4.488   4.105
    1C        C  391   3.943   4.429   4.106
    1C        C  392   3.748   4.513   4.227
    1C        C  393   3.817   4.497   4.349
    1C        C  394   3.612   4.549   4.468
    1C        C  395   3.752   4.529   4.470
    1C        C  396   3.543   4.564   4.591
    1C        C  397   3.619   4.563   4.710
    1C        C  398   3.409   4.548   4.836
    1C        C  399   3.548   4.573   4.831
    1C        C  400   3.339   4.509   4.950
    1C        C  401   4.501   3.699   2.050
    1C        C  402   4.451   3.914   2.162
    1C        C  403   4.493   3.779   2.164
    1C        C  404   4.406   3.971   2.283
    1C        C  405   4.433   3.905   2.405
    1C        C  406   4.319   4.089   2.519
    1C        C  407   4.393   3.968   2.525
    1C        C  408   4.274   4.145   2.640
    1C        C  409   4.312   4.089   2.764
    1C        C  410   4.172   4.249   2.884
    1C        C  411   4.271   4.149   2.885
    1C        C  412   4.116   4.294   3.005
    1C        C  413   4.169   4.250   3.129
    1C        C  414   3.999   4.373   3.249
    1C        C  415   4.118   4.297   3.252
    1C        C  416   3.938   4.410   3.371
    1C        C  417   4.001   4.385   3.495
    1C        C  418   3.810   4.475   3.616
    1C        C  419   3.942   4.426   3.617
    1C        C  420   3.742   4.497   3.738
    1C        C  421   3.810   4.479   3.860
    1C        C  422   3.607   4.535   3.981
    1C        C  423   3.745   4.505   3.983
    1C        C  424   3.537   4.533   4.104
    1C        C  425   3.608   4.533   4.226
    1C        C  426   3.398   4.544   4.352
    1C        C  427   3.539   4.550   4.348
    1C        C  428   3.330   4.536   4.476
    1C        C  429   3.403   4.553   4.596
    1C        C  430   3.192   4.517   4.718
    1C        C  431   3.332   4.543   4.717
    1C        C  432   3.122   4.495   4.839
    1C        C  433   3.200   4.495   4.956
    1C        C  434   4.380   4.121   2.048
    1C        C  435   4.452   4.001   2.052
    1C        C  436   4.296   4.156   2.159
    1C        C  437   4.328   4.089   2.280
    1C        C  438   4.179   4.250   2.398
    1C        C  439   4.277   4.148   2.398
    1C        C  440   4.125   4.298   2.519
    1C        C  441   4.177   4.248   2.641
    1C        C  442   4.000   4.370   2.760
    1C        C  443   4.119   4.294   2.761
    1C        C  444   3.940   4.408   2.882
    1C        C  445   4.000   4.374   3.005
    1C        C  446   3.810   4.469   3.128
    1C        C  447   3.939   4.412   3.127
    1C        C  448   3.743   4.490   3.251
    1C        C  449   3.810   4.470   3.374
    1C        C  450   3.603   4.525   3.494
    1C        C  451   3.741   4.496   3.494
    1C        C  452   3.534   4.537   3.617
    1C        C  453   3.604   4.531   3.740
    1C        C  454   3.392   4.540   3.862
    1C        C  455   3.533   4.545   3.861
    1C        C  456   3.324   4.530   3.986
    1C        C  457   3.396   4.533   4.107
    1C        C  458   3.189   4.498   4.232
    1C        C  459   3.328   4.528   4.231
    1C        C  460   3.124   4.480   4.355
    1C        C  461   3.192   4.505   4.476
    1C        C  462   2.993   4.431   4.597
    1C        C  463   3.123   4.485   4.598
    1C        C  464   2.927   4.398   4.718
    1C        C  465   2.988   4.445   4.838
    1C        C  466   2.801   4.330   4.955
    1C        C  467   2.905   4.424   4.952
    1C        C  468   4.115   4.278   2.038
    1C        C  469   4.181   4.240   2.155
    1C        C  470   4.006   4.371   2.275
    1C        C  471   4.125   4.294   2.275
    1C        C  472   3.936   4.398   2.394
    1C        C  473   4.004   4.371   2.515
    1C        C  474   3.807   4.453   2.638
    1C        C  475   3.938   4.402   2.636
    1C        C  476   3.742   4.482   2.760
    1C        C  477   3.809   4.462   2.883
    1C        C  478   3.605   4.516   3.005
    1C        C  479   3.743   4.487   3.005
    1C        C  480   3.533   4.521   3.126
    1C        C  481   3.604   4.515   3.248
    1C        C  482   3.394   4.531   3.373
    1C        C  483   3.535   4.527   3.370
    1C        C  484   3.322   4.531   3.494
    1C        C  485   3.393   4.538   3.616
    1C        C  486   3.188   4.493   3.741
    1C        C  487   3.323   4.533   3.739
    1C        C  488   3.125   4.466   3.865
    1C        C  489   3.188   4.492   3.988
    1C        C  490   2.992   4.415   4.112
    1C        C  491   3.120   4.476   4.111
    1C        C  492   2.933   4.380   4.235
    1C        C  493   2.997   4.418   4.356
    1C        C  494   2.821   4.302   4.478
    1C        C  495   2.929   4.392   4.477
    1C        C  496   2.767   4.257   4.600
    1C        C  497   2.812   4.314   4.721
    1C        C  498   2.665   4.158   4.844
    1C        C  499   2.747   4.272   4.839
    1C        C  500   2.589   4.116   4.954
    1C        C  501   4.001   4.357   2.034
    1C        C  502   3.811   4.455   2.149
    1C        C  503   3.943   4.404   2.153
    1C        C  504   3.739   4.475   2.269
    1C        C  505   3.804   4.447   2.391
    1C        C  506   3.602   4.502   2.516
    1C        C  507   3.739   4.467   2.515
    1C        C  508   3.532   4.514   2.638
    1C        C  509   3.603   4.509   2.760
    1C        C  510   3.393   4.521   2.883
    1C        C  511   3.534   4.523   2.883
    1C        C  512   3.321   4.513   3.004
    1C        C  513   3.391   4.522   3.127
    1C        C  514   3.186   4.489   3.252
    1C        C  515   3.323   4.523   3.251
    1C        C  516   3.118   4.470   3.374
    1C        C  517   3.183   4.501   3.495
    1C        C  518   2.996   4.408   3.619
    1C        C  519   3.119   4.476   3.619
    1C        C  520   2.939   4.368   3.742
    1C        C  521   2.996   4.408   3.865
    1C        C  522   2.828   4.284   3.991
    1C        C  523   2.933   4.379   3.988
    1C        C  524   2.784   4.232   4.115
    1C        C  525   2.826   4.288   4.237
    1C        C  526   2.686   4.132   4.361
    1C        C  527   2.768   4.246   4.359
    1C        C  528   2.649   4.073   4.484
    1C        C  529   2.686   4.141   4.603
    1C        C  530   2.578   3.959   4.727
    1C        C  531   2.637   4.088   4.724
    1C        C  532   2.539   3.900   4.850
    1C        C  533   2.520   3.994   4.956
    1C        C  534   3.611   4.547   2.032
    1C        C  535   3.745   4.504   2.036
    1C        C  536   3.533   4.525   2.150
    1C        C  537   3.601   4.510   2.274
    1C        C  538   3.389   4.512   2.395
    1C        C  539   3.530   4.515   2.396
    1C        C  540   3.320   4.504   2.518
    1C        C  541   3.390   4.508   2.640
    1C        C  542   3.181   4.480   2.762
    1C        C  543   3.320   4.509   2.763
    1C        C  544   3.114   4.467   2.886
    1C        C  545   3.182   4.489   3.008
    1C        C  546   2.991   4.400   3.131
    1C        C  547   3.117   4.465   3.131
    1C        C  548   2.932   4.365   3.255
    1C        C  549   2.992   4.406   3.376
    1C        C  550   2.827   4.275   3.502
    1C        C  551   2.933   4.368   3.499
    1C        C  552   2.779   4.226   3.625
    1C        C  553   2.828   4.280   3.746
    1C        C  554   2.693   4.119   3.872
    1C        C  555   2.781   4.229   3.870
    1C        C  556   2.655   4.060   3.995
    1C        C  557   2.693   4.124   4.115
    1C        C  558   2.594   3.940   4.243
    1C        C  559   2.655   4.067   4.239
    1C        C  560   2.564   3.876   4.365
    1C        C  561   2.589   3.946   4.485
    1C        C  562   2.527   3.747   4.613
    1C        C  563   2.562   3.883   4.609
    1C        C  564   2.517   3.676   4.735
    1C        C  565   2.524   3.757   4.852
    1C        C  566   2.523   3.546   4.975
    1C        C  567   2.522   3.685   4.972
    1C        C  568   3.322   4.472   2.034
    1C        C  569   3.393   4.505   2.150
    1C        C  570   3.181   4.471   2.277
    1C        C  571   3.319   4.502   2.272
    1C        C  572   3.111   4.456   2.399
    1C        C  573   3.181   4.478   2.520
    1C        C  574   2.983   4.401   2.646
    1C        C  575   3.111   4.460   2.641
    1C        C  576   2.924   4.363   2.768
    1C        C  577   2.990   4.400   2.888
    1C        C  578   2.825   4.267   3.011
    1C        C  579   2.931   4.359   3.010
    1C        C  580   2.775   4.222   3.135
    1C        C  581   2.824   4.274   3.257
    1C        C  582   2.690   4.111   3.380
    1C        C  583   2.778   4.222   3.380
    1C        C  584   2.655   4.053   3.504
    1C        C  585   2.693   4.114   3.626
    1C        C  586   2.592   3.933   3.750
    1C        C  587   2.653   4.060   3.750
    1C        C  588   2.568   3.870   3.874
    1C        C  589   2.598   3.931   3.998
    1C        C  590   2.536   3.733   4.125
    1C        C  591   2.572   3.869   4.122
    1C        C  592   2.521   3.666   4.249
    1C        C  593   2.529   3.739   4.369
    1C        C  594   2.509   3.532   4.495
    1C        C  595   2.514   3.673   4.493
    1C        C  596   2.517   3.460   4.617
    1C        C  597   2.516   3.534   4.737
    1C        C  598   2.534   3.325   4.862
    1C        C  599   2.522   3.466   4.861
    1C        C  600   2.531   3.246   4.977
    1C        C  601   3.189   4.434   2.039
    1C        C  602   2.977   4.393   2.155
    1C        C  603   3.114   4.434   2.158
    1C        C  604   2.920   4.360   2.281
    1C        C  605   2.985   4.392   2.402
    1C        C  606   2.814   4.270   2.526
    1C        C  607   2.924   4.358   2.525
    1C        C  608   2.765   4.220   2.649
    1C        C  609   2.813   4.276   2.770
    1C        C  610   2.677   4.111   2.890
    1C        C  611   2.767   4.219   2.891
    1C        C  612   2.644   4.052   3.014
    1C        C  613   2.689   4.110   3.135
    1C        C  614   2.594   3.923   3.260
    1C        C  615   2.649   4.053   3.258
    1C        C  616   2.571   3.859   3.384
    1C        C  617   2.596   3.925   3.506
    1C        C  618   2.534   3.726   3.635
    1C        C  619   2.566   3.863   3.630
    1C        C  620   2.521   3.659   3.759
    1C        C  621   2.537   3.732   3.880
    1C        C  622   2.516   3.522   4.008
    1C        C  623   2.527   3.663   4.003
    1C        C  624   2.514   3.452   4.131
    1C        C  625   2.514   3.525   4.252
    1C        C  626   2.535   3.317   4.378
    1C        C  627   2.514   3.457   4.376
    1C        C  628   2.554   3.248   4.500
    1C        C  629   2.539   3.321   4.620
    1C        C  630   2.596   3.116   4.742
    1C        C  631   2.555   3.252   4.743
    1C        C  632   2.609   3.042   4.863
    1C        C  633   2.558   3.108   4.980
    1C        C  634   2.778   4.302   2.046
    1C        C  635   2.887   4.390   2.044
    1C        C  636   2.741   4.234   2.163
    1C        C  637   2.803   4.278   2.282
    1C        C  638   2.678   4.107   2.405
    1C        C  639   2.761   4.221   2.404
    1C        C  640   2.639   4.046   2.526
    1C        C  641   2.682   4.106   2.647
    1C        C  642   2.584   3.918   2.771
    1C        C  643   2.641   4.047   2.769
    1C        C  644   2.564   3.854   2.896
    1C        C  645   2.587   3.923   3.017
    1C        C  646   2.532   3.718   3.144
    1C        C  647   2.569   3.854   3.140
    1C        C  648   2.518   3.652   3.269
    1C        C  649   2.530   3.724   3.390
    1C        C  650   2.510   3.515   3.516
    1C        C  651   2.519   3.656   3.513
    1C        C  652   2.511   3.448   3.640
    1C        C  653   2.514   3.518   3.763
    1C        C  654   2.536   3.310   3.888
    1C        C  655   2.515   3.450   3.887
    1C        C  656   2.549   3.245   4.012
    1C        C  657   2.538   3.313   4.135
    1C        C  658   2.602   3.112   4.256
    1C        C  659   2.552   3.245   4.258
    1C        C  660   2.633   3.053   4.380
    1C        C  661   2.600   3.115   4.503
    1C        C  662   2.703   2.928   4.625
    1C        C  663   2.628   3.047   4.623
    1C        C  664   2.740   2.865   4.746
    1C        C  665   2.689   2.924   4.866
    1C        C  666   2.745   2.870   4.982
    1C        C  667   2.679   4.021   2.052
    1C        C  668   2.682   4.106   2.163
    1C        C  669   2.588   3.913   2.287
    1C        C  670   2.643   4.044   2.284
    1C        C  671   2.564   3.845   2.408
    1C        C  672   2.583   3.916   2.528
    1C        C  673   2.526   3.712   2.654
    1C        C  674   2.557   3.850   2.650
    1C        C  675   2.516   3.647   2.779
    1C        C  676   2.529   3.717   2.900
    1C        C  677   2.514   3.507   3.025
    1C        C  678   2.516   3.648   3.023
    1C        C  679   2.517   3.439   3.149
    1C        C  680   2.510   3.511   3.270
    1C        C  681   2.534   3.304   3.398
    1C        C  682   2.512   3.443   3.394
    1C        C  683   2.555   3.239   3.522
    1C        C  684   2.534   3.309   3.643
    1C        C  685   2.598   3.108   3.767
    1C        C  686   2.551   3.241   3.766
    1C        C  687   2.630   3.047   3.891
    1C        C  688   2.598   3.112   4.012
    1C        C  689   2.706   2.928   4.137
    1C        C  690   2.629   3.046   4.133
    1C        C  691   2.746   2.872   4.260
    1C        C  692   2.707   2.932   4.382
    1C        C  693   2.748   2.873   4.503
    1C        C  694   2.625   3.892   2.054
    1C        C  695   2.526   3.701   2.173
    1C        C  696   2.575   3.834   2.171
    1C        C  697   2.508   3.633   2.295
    1C        C  698   2.527   3.708   2.412
    1C        C  699   2.496   3.499   2.537
    1C        C  700   2.508   3.640   2.534
    1C        C  701   2.509   3.434   2.662
    1C        C  702   2.508   3.506   2.783
    1C        C  703   2.530   3.294   2.910
    1C        C  704   2.507   3.433   2.904
    1C        C  705   2.545   3.228   3.034
    1C        C  706   2.532   3.298   3.156
    1C        C  707   2.594   3.096   3.277
    1C        C  708   2.548   3.230   3.279
    1C        C  709   2.628   3.039   3.402
    1C        C  710   2.605   3.106   3.524
    1C        C  711   2.709   2.924   3.647
    1C        C  712   2.630   3.041   3.646
    1C        C  713   2.755   2.873   3.770
    1C        C  714   2.712   2.932   3.891
    1C        C  715   2.752   2.875   4.014
    1C        C  716   2.454   3.496   2.058
    1C        C  717   2.494   3.630   2.056
    1C        C  718   2.460   3.416   2.176
    1C        C  719   2.484   3.492   2.294
    1C        C  720   2.508   3.284   2.423
    1C        C  721   2.490   3.424   2.417
    1C        C  722   2.533   3.219   2.545
    1C        C  723   2.527   3.294   2.665
    1C        C  724   2.586   3.090   2.787
    1C        C  725   2.544   3.225   2.787
    1C        C  726   2.612   3.025   2.910
    1C        C  727   2.587   3.093   3.031
    1C        C  728   2.696   2.912   3.157
    1C        C  729   2.623   3.034   3.154
    1C        C  730   2.742   2.860   3.280
    1C        C  731   2.703   2.919   3.402
    1C        C  732   2.749   2.865   3.524
    1C        C  733   2.487   3.194   2.067
    1C        C  734   2.487   3.275   2.182
    1C        C  735   2.587   3.084   2.302
    1C        C  736   2.523   3.211   2.303
    1C        C  737   2.610   3.017   2.424
    1C        C  738   2.585   3.087   2.544
    1C        C  739   2.693   2.904   2.667
    1C        C  740   2.617   3.024   2.666
    1C        C  741   2.734   2.848   2.790
    1C        C  742   2.690   2.907   2.911
    1C        C  743   2.736   2.855   3.034
    1C        C  744   2.539   3.065   2.073
    1C        C  745   2.678   2.888   2.183
    1C        C  746   2.603   3.008   2.184
    1C        C  747   2.726   2.834   2.304
    1C        C  748   2.685   2.897   2.424
    1C        C  749   2.729   2.842   2.546
    1C        C  750   2.732   2.830   2.067
    1C        C  751   3.650   2.351   1.947
    1C        O  752   3.683   2.229   1.954
    1C        O  753   3.654   2.404   1.818
    1C        C  754   4.641   3.054   1.991
    1C        O  755   4.642   3.074   1.866
    1C        O  756   4.754   3.019   2.066
    1C        C  757   4.426   4.225   1.953
    1C        O  758   4.465   4.338   1.995
    1C        O  759   4.356   4.235   1.832
    1C        C  760   3.589   4.670   1.952
    1C        O  761   3.595   4.785   2.003
    1C        O  762   3.563   4.672   1.815
    1C        C  763   2.868   4.494   1.940
    1C        O  764   2.897   4.462   1.821
    1C        O  765   2.778   4.601   1.936
    1C        C  766   2.356   3.455   1.954
    1C        O  767   2.361   3.497   1.835
    1C        O  768   2.217   3.446   1.975
    1C        C  769   4.707   3.594   5.033
    1C        O  770   4.710   3.535   5.144
    1C        O  771   4.826   3.576   4.962
    1C        C  772   4.276   4.464   5.017
    1C        O  773   4.309   4.429   5.134
    1C        O  774   4.387   4.530   4.964
    1C        C  775   4.154   2.495   5.044
    1C        O  776   4.211   2.402   4.981
    1C        O  777   4.167   2.505   5.183
    1C        C  778   2.869   4.539   5.037
    1C        O  779   2.762   4.603   5.013
    1C        O  780   2.893   4.524   5.174
    1C        C  781   2.474   3.034   5.077
    1C        O  782   2.383   2.958   5.035
    1C        O  783   2.465   3.075   5.210
    1C        C  784   2.389   3.992   5.025
    1C        O  785   2.276   3.998   4.969
    1C        O  786   2.372   4.025   5.161
    1C        C  787   2.953   2.401   2.014
    1C        O  788   2.947   2.390   1.889
    1C        O  789   2.926   2.277   2.070
    1C        C  790   3.183   2.387   5.084
    1C        O  791   3.113   2.282   5.080
    1C        O  792   3.238   2.407   5.212
    1C        H  793   4.300   3.001   5.066
    1C        H  794   4.146   2.830   5.064
    1C        H  795   4.517   3.122   5.045
    1C        H  796   4.552   3.359   5.058
    1C        H  797   4.577   3.816   5.034
    1C        H  798   4.407   3.964   5.053
    1C        H  799   4.281   4.163   5.051
    1C        H  800   4.045   4.565   5.002
    1C        H  801   3.821   4.605   5.028
    1C        H  802   3.586   4.629   5.035
    1C        H  803   3.390   4.465   5.034
    1C        H  804   3.158   4.455   5.045
    1C        H  805   3.873   2.543   5.068
    1C        H  806   3.666   2.456   5.075
    1C        H  807   2.996   2.560   5.059
    1C        H  808   3.438   2.468   5.078
    1C        H  809   2.833   2.704   5.068
    1C        H  810   2.742   2.932   5.069
    1C        H  811   2.533   3.290   5.074
    1C        H  812   2.561   3.500   5.064
    1C        H  813   2.484   3.734   5.060
    1C        H  814   2.584   4.183   5.037
    1C        H  815   2.775   4.288   5.050
    1C        H  816   2.725   2.878   1.972
    1C        H  817   2.849   2.674   1.974
    1C        H  818   3.210   2.435   1.982
    1C        H  819   3.429   2.470   1.975
    1C        H  820   3.824   2.580   1.981
    1C        H  821   4.078   2.567   1.976
    1C        H  822   4.262   2.705   1.972
    1C        H  823   4.395   2.899   1.965
    1C        H  824   4.573   3.310   1.964
    1C        H  825   4.527   3.520   1.951
    1C        H  826   4.536   3.749   1.963
    1C        H  827   3.783   4.496   1.936
    1C        H  828   3.986   4.412   1.943
    1C        H  829   4.114   4.210   1.955
    1C        H  830   4.518   3.983   1.969
    1C        H  831   2.664   3.829   1.976
    1C        H  832   2.757   4.034   1.979
    1C        H  833   2.704   4.297   1.968
    1C        H  834   3.376   4.475   1.941
    1C        H  835   3.138   4.424   1.946
    1C        H  836   2.504   3.002   1.995
    1C        H  837   2.401   3.204   2.005
    1C        H  838   2.463   3.686   1.971
    2V3OU   H29  839   2.793   3.530   6.473
    2V3OU   C27  840   2.779   3.491   6.577
    2V3OU   H27  841   2.723   3.571   6.631
    2V3OU   H28  842   2.721   3.395   6.584
    2V3OU   O11  843   2.904   3.469   6.642
    2V3OU   C15  844   2.918   3.393   6.756
    2V3OU   C13  845   3.049   3.369   6.802
    2V3OU   C14  846   3.075   3.257   6.883
    2V3OU   C16  847   2.972   3.179   6.933
    2V3OU    H6  848   2.989   3.100   7.008
    2V3OU   C12  849   3.212   3.228   6.933
    2V3OU    O2  850   3.233   3.126   7.001
    2V3OU   C10  851   3.323   3.306   6.876
    2V3OU    C8  852   3.456   3.267   6.889
    2V3OU   O10  853   3.485   3.158   6.965
    2V3OU   H26  854   3.397   3.118   6.972
    2V3OU    C6  855   3.566   3.343   6.839
    2V3OU    C5  856   3.537   3.460   6.769
    2V3OU    C4  857   3.705   3.290   6.841
    2V3OU    H4  858   3.720   3.222   6.929
    2V3OU    H5  859   3.710   3.227   6.748
    2V3OU    C2  860   3.815   3.397   6.841
    2V3OU    O6  861   3.801   3.473   6.961
    2V3OU   H21  862   3.765   3.557   6.928
    2V3OU    C3  863   3.781   3.493   6.728
    2V3OU    H2  864   3.863   3.570   6.733
    2V3OU    H3  865   3.778   3.439   6.630
    2V3OU   C25  866   3.951   3.326   6.829
    2V3OU    O7  867   3.991   3.286   6.721
    2V3OU   C26  868   4.024   3.290   6.958
    2V3OU   H22  869   4.060   3.377   0.001
    2V3OU   H23  870   4.114   3.228   6.934
    2V3OU    O8  871   3.954   3.203   0.029
    2V3OU   H24  872   3.922   3.262   0.099
    2V3OU    C1  873   3.646   3.560   6.744
    2V3OU    H1  874   3.620   3.617   6.650
    2V3OU    O3  875   3.655   3.650   6.856
    2V3OU   C19  876   3.619   3.788   6.845
    2V3OU    H9  877   3.519   3.801   6.795
    2V3OU    O4  878   3.713   3.842   6.754
    2V3OU   C20  879   3.842   3.873   6.809
    2V3OU   H10  880   3.895   3.775   6.828
    2V3OU   C24  881   3.608   3.853   6.982
    2V3OU   H16  882   3.540   3.789   0.027
    2V3OU   H17  883   3.561   3.954   6.970
    2V3OU   C23  884   3.748   3.874   0.026
    2V3OU   H15  885   3.788   3.769   0.041
    2V3OU    N1  886   3.738   3.952   0.147
    2V3OU   H19  887   3.802   3.910   0.211
    2V3OU   H20  888   3.650   3.929   0.189
    2V3OU   C21  889   3.846   3.945   6.943
    2V3OU   H11  890   3.951   3.926   6.981
    2V3OU    O5  891   3.824   4.085   6.948
    2V3OU   H18  892   3.778   4.098   0.017
    2V3OU   C22  893   3.911   3.953   6.700
    2V3OU   H12  894   3.860   4.052   6.684
    2V3OU   H13  895   3.905   3.895   6.604
    2V3OU   H14  896   4.019   3.967   6.726
    2V3OU   C11  897   3.157   3.464   6.770
    2V3OU    O1  898   3.135   3.574   6.715
    2V3OU    C9  899   3.296   3.425   6.803
    2V3OU    C7  900   3.401   3.497   6.748
    2V3OU    O9  901   3.380   3.616   6.680
    2V3OU   H25  902   3.284   3.632   6.678
    2V3OU   C17  903   2.818   3.314   6.816
    2V3OU    H7  904   2.717   3.337   6.780
    2V3OU   C18  905   2.841   3.202   6.894
    2V3OU    H8  906   2.760   3.133   6.924
    3SOL     OW  907   2.569   3.365   5.483
    3SOL    HW1  908   2.486   3.345   5.432
    3SOL    HW2  909   2.568   3.460   5.513
    4SOL     OW  910   0.834   0.367   0.545
    4SOL    HW1  911   0.854   0.269   0.548
    4SOL    HW2  912   0.736   0.382   0.560
    5SOL     OW  913   3.678   1.834   0.274
    5SOL    HW1  914   3.591   1.808   0.317
    5SOL    HW2  915   3.691   1.782   0.189
    6SOL     OW  916   2.973   2.101   1.865
    6SOL    HW1  917   2.950   2.178   1.925
    6SOL    HW2  918   3.062   2.119   1.822
    7SOL     OW  919   1.655   2.743   4.727
    7SOL    HW1  920   1.586   2.777   4.664
    7SOL    HW2  921   1.719   2.684   4.679
    8SOL     OW  922   1.301   1.625   5.972
    8SOL    HW1  923   1.205   1.628   6.002
    8SOL    HW2  924   1.329   1.717   5.945
    9SOL     OW  925   2.201   2.331   5.487
    9SOL    HW1  926   2.251   2.254   5.447
    9SOL    HW2  927   2.173   2.307   5.580
   10SOL     OW  928   5.861   4.932   0.648
   10SOL    HW1  929   5.853   4.834   0.627
   10SOL    HW2  930   5.957   4.955   0.661
   11SOL     OW  931   3.139   1.403   0.915
   11SOL    HW1  932   3.232   1.418   0.950
   11SOL    HW2  933   3.143   1.384   0.817
   12SOL     OW  934   5.750   4.715   1.043
   12SOL    HW1  935   5.668   4.727   0.988
   12SOL    HW2  936   5.821   4.670   0.988
   13SOL     OW  937   4.507   6.121   1.960
   13SOL    HW1  938   4.457   6.094   2.042
   13SOL    HW2  939   4.531   6.218   1.965
   14SOL     OW  940   4.571   5.744   1.187
   14SOL    HW1  941   4.659   5.699   1.203
   14SOL    HW2  942   4.556   5.815   1.256
   15SOL     OW  943   0.285   0.192   0.074
   15SOL    HW1  944   0.224   0.129   0.028
   15SOL    HW2  945   0.298   0.273   0.017
   16SOL     OW  946   1.712   4.961   5.528
   16SOL    HW1  947   1.700   5.056   5.557
   16SOL    HW2  948   1.624   4.925   5.495
   17SOL     OW  949   0.412   2.163   4.134
   17SOL    HW1  950   0.374   2.221   4.205
   17SOL    HW2  951   0.371   2.072   4.139
   18SOL     OW  952   2.311   6.802   5.066
   18SOL    HW1  953   2.344   6.843   4.981
   18SOL    HW2  954   2.309   6.703   5.057
   19SOL     OW  955   4.194   5.952   3.504
   19SOL    HW1  956   4.147   5.893   3.439
   19SOL    HW2  957   4.128   6.009   3.553
   20SOL     OW  958   0.284   1.430   4.471
   20SOL    HW1  959   0.277   1.514   4.525
   20SOL    HW2  960   0.192   1.400   4.445
   21SOL     OW  961   2.128   3.122   2.021
   21SOL    HW1  962   2.160   3.028   2.010
   21SOL    HW2  963   2.105   3.139   2.117
   22SOL     OW  964   0.298   0.355   0.578
   22SOL    HW1  965   0.256   0.289   0.640
   22SOL    HW2  966   0.261   0.344   0.486
   23SOL     OW  967   0.534   5.132   0.540
   23SOL    HW1  968   0.489   5.205   0.591
   23SOL    HW2  969   0.469   5.059   0.519
   24SOL     OW  970   4.379   0.797   6.255
   24SOL    HW1  971   4.409   0.816   6.348
   24SOL    HW2  972   4.459   0.769   6.200
   25SOL     OW  973   2.296   0.399   5.503
   25SOL    HW1  974   2.366   0.428   5.437
   25SOL    HW2  975   2.341   0.376   5.590
   26SOL     OW  976   2.388   6.523   5.471
   26SOL    HW1  977   2.289   6.518   5.458
   26SOL    HW2  978   2.408   6.579   5.551
   27SOL     OW  979   0.159   0.185   1.814
   27SOL    HW1  980   0.150   0.098   1.767
   27SOL    HW2  981   0.068   0.227   1.824
   28SOL     OW  982   2.073   0.430   5.031
   28SOL    HW1  983   1.988   0.472   5.000
   28SOL    HW2  984   2.083   0.444   5.129
   29SOL     OW  985   5.310   0.526   2.099
   29SOL    HW1  986   5.363   0.442   2.106
   29SOL    HW2  987   5.217   0.509   2.132
   30SOL     OW  988   4.791   6.546   4.667
   30SOL    HW1  989   4.843   6.465   4.693
   30SOL    HW2  990   4.693   6.528   4.680
   31SOL     OW  991   6.072   3.921   4.543
   31SOL    HW1  992   6.050   3.986   4.616
   31SOL    HW2  993   6.141   3.960   4.482
   32SOL     OW  994   3.832   1.738   1.419
   32SOL    HW1  995   3.900   1.812   1.416
   32SOL    HW2  996   3.869   1.661   1.470
   33SOL     OW  997   1.931   4.802   5.116
   33SOL    HW1  998   1.834   4.790   5.134
   33SOL    HW2  999   1.984   4.775   5.196
   34SOL     OW 1000   2.663   6.997   5.407
   34SOL    HW1 1001   2.603   6.951   5.472
   34SOL    HW2 1002   2.758   6.988   5.437
   35SOL     OW 1003   0.999   3.197   4.757
   35SOL    HW1 1004   1.027   3.101   4.757
   35SOL    HW2 1005   1.074   3.254   4.725
   36SOL     OW 1006   5.619   1.179   4.847
   36SOL    HW1 1007   5.619   1.113   4.771
   36SOL    HW2 1008   5.609   1.129   4.933
   37SOL     OW 1009   1.086   5.865   3.672
   37SOL    HW1 1010   1.051   5.787   3.620
   37SOL    HW2 1011   1.109   5.835   3.765
   38SOL     OW 1012   0.968   3.644   2.174
   38SOL    HW1 1013   0.993   3.735   2.141
   38SOL    HW2 1014   0.974   3.579   2.099
   39SOL     OW 1015   6.176   5.661   1.282
   39SOL    HW1 1016   6.138   5.569   1.286
   39SOL    HW2 1017   6.214   5.678   1.191
   40SOL     OW 1018   4.296   0.618   5.565
   40SOL    HW1 1019   4.329   0.626   5.659
   40SOL    HW2 1020   4.257   0.527   5.551
   41SOL     OW 1021   0.355   3.761   1.275
   41SOL    HW1 1022   0.326   3.712   1.357
   41SOL    HW2 1023   0.436   3.717   1.237
   42SOL     OW 1024   2.670   3.908   1.156
   42SOL    HW1 1025   2.754   3.883   1.205
   42SOL    HW2 1026   2.674   4.004   1.129
   43SOL     OW 1027   5.051   0.657   3.270
   43SOL    HW1 1028   5.031   0.560   3.256
   43SOL    HW2 1029   4.997   0.691   3.348
   44SOL     OW 1030   0.100   1.036   6.476
   44SOL    HW1 1031   0.148   1.087   6.547
   44SOL    HW2 1032   0.036   0.972   6.518
   45SOL     OW 1033   2.169   3.810   4.498
   45SOL    HW1 1034   2.211   3.868   4.428
   45SOL    HW2 1035   2.148   3.865   4.579
   46SOL     OW 1036   0.678   5.813   4.548
   46SOL    HW1 1037   0.686   5.912   4.542
   46SOL    HW2 1038   0.596   5.783   4.500
   47SOL     OW 1039   0.471   3.904   6.153
   47SOL    HW1 1040   0.508   3.961   6.080
   47SOL    HW2 1041   0.395   3.952   6.197
   48SOL     OW 1042   0.734   4.203   0.313
   48SOL    HW1 1043   0.696   4.151   0.389
   48SOL    HW2 1044   0.696   4.170   0.226
   49SOL     OW 1045   3.651   0.369   0.039
   49SOL    HW1 1046   3.564   0.344   0.080
   49SOL    HW2 1047   3.684   0.294   6.997
   50SOL     OW 1048   4.887   1.979   5.928
   50SOL    HW1 1049   4.797   1.936   5.934
   50SOL    HW2 1050   4.958   1.909   5.934
   51SOL     OW 1051   0.681   6.814   1.591
   51SOL    HW1 1052   0.641   6.775   1.674
   51SOL    HW2 1053   0.698   6.741   1.525
   52SOL     OW 1054   5.006   3.324   2.740
   52SOL    HW1 1055   5.006   3.251   2.671
   52SOL    HW2 1056   5.020   3.412   2.695
   53SOL     OW 1057   4.224   6.094   1.302
   53SOL    HW1 1058   4.278   6.177   1.289
   53SOL    HW2 1059   4.127   6.116   1.291
   54SOL     OW 1060   0.944   0.998   6.324
   54SOL    HW1 1061   0.861   1.003   6.380
   54SOL    HW2 1062   0.948   0.910   6.277
   55SOL     OW 1063   2.594   3.852   6.260
   55SOL    HW1 1064   2.557   3.945   6.256
   55SOL    HW2 1065   2.657   3.838   6.183
   56SOL     OW 1066   2.192   2.178   6.937
   56SOL    HW1 1067   2.137   2.261   6.931
   56SOL    HW2 1068   2.237   2.162   6.849
   57SOL     OW 1069   4.229   6.159   1.719
   57SOL    HW1 1070   4.182   6.115   1.795
   57SOL    HW2 1071   4.323   6.125   1.713
   58SOL     OW 1072   0.618   0.489   0.173
   58SOL    HW1 1073   0.524   0.519   0.188
   58SOL    HW2 1074   0.680   0.540   0.233
   59SOL     OW 1075   4.299   3.654   6.901
   59SOL    HW1 1076   4.322   3.685   6.809
   59SOL    HW2 1077   4.259   3.731   6.952
   60SOL     OW 1078   6.177   2.491   2.066
   60SOL    HW1 1079   6.266   2.446   2.072
   60SOL    HW2 1080   6.148   2.520   2.157
   61SOL     OW 1081   1.007   4.787   2.664
   61SOL    HW1 1082   1.078   4.826   2.606
   61SOL    HW2 1083   0.918   4.796   2.619
   62SOL     OW 1084   4.825   3.748   3.126
   62SOL    HW1 1085   4.784   3.774   3.039
   62SOL    HW2 1086   4.868   3.658   3.117
   63SOL     OW 1087   4.641   0.142   5.742
   63SOL    HW1 1088   4.644   0.087   5.658
   63SOL    HW2 1089   4.550   0.135   5.782
   64SOL     OW 1090   2.384   1.749   6.641
   64SOL    HW1 1091   2.423   1.683   6.577
   64SOL    HW2 1092   2.288   1.725   6.658
   65SOL     OW 1093   0.613   5.237   5.063
   65SOL    HW1 1094   0.657   5.305   5.121
   65SOL    HW2 1095   0.530   5.276   5.022
   66SOL     OW 1096   4.655   1.775   1.395
   66SOL    HW1 1097   4.573   1.721   1.413
   66SOL    HW2 1098   4.669   1.783   1.296
   67SOL     OW 1099   0.339   3.140   3.193
   67SOL    HW1 1100   0.324   3.210   3.123
   67SOL    HW2 1101   0.435   3.111   3.191
   68SOL     OW 1102   0.184   1.139   5.865
   68SOL    HW1 1103   0.140   1.217   5.910
   68SOL    HW2 1104   0.167   1.143   5.767
   69SOL     OW 1105   1.836   1.086   5.932
   69SOL    HW1 1106   1.930   1.067   5.902
   69SOL    HW2 1107   1.808   1.175   5.896
   70SOL     OW 1108   4.827   4.970   2.896
   70SOL    HW1 1109   4.886   4.922   2.960
   70SOL    HW2 1110   4.869   5.056   2.868
   71SOL     OW 1111   5.272   1.376   5.433
   71SOL    HW1 1112   5.187   1.325   5.445
   71SOL    HW2 1113   5.255   1.474   5.443
   72SOL     OW 1114   6.892   1.916   2.576
   72SOL    HW1 1115   6.940   1.991   2.621
   72SOL    HW2 1116   6.802   1.946   2.546
   73SOL     OW 1117   2.641   1.051   0.698
   73SOL    HW1 1118   2.724   1.014   0.658
   73SOL    HW2 1119   2.648   1.150   0.707
   74SOL     OW 1120   2.814   0.791   0.281
   74SOL    HW1 1121   2.881   0.849   0.235
   74SOL    HW2 1122   2.801   0.822   0.375
   75SOL     OW 1123   2.967   3.325   1.248
   75SOL    HW1 1124   2.889   3.357   1.195
   75SOL    HW2 1125   2.974   3.377   1.333
   76SOL     OW 1126   3.359   4.993   6.278
   76SOL    HW1 1127   3.302   4.977   6.358
   76SOL    HW2 1128   3.370   5.091   6.263
   77SOL     OW 1129   0.723   4.680   5.187
   77SOL    HW1 1130   0.646   4.718   5.238
   77SOL    HW2 1131   0.805   4.732   5.207
   78SOL     OW 1132   4.850   1.369   0.828
   78SOL    HW1 1133   4.931   1.404   0.781
   78SOL    HW2 1134   4.878   1.310   0.904
   79SOL     OW 1135   2.009   4.938   4.290
   79SOL    HW1 1136   2.103   4.911   4.268
   79SOL    HW2 1137   1.995   4.929   4.389
   80SOL     OW 1138   4.460   1.930   5.311
   80SOL    HW1 1139   4.479   1.874   5.392
   80SOL    HW2 1140   4.497   1.885   5.230
   81SOL     OW 1141   2.194   4.985   2.822
   81SOL    HW1 1142   2.133   5.019   2.894
   81SOL    HW2 1143   2.188   4.885   2.818
   82SOL     OW 1144   2.774   0.384   1.142
   82SOL    HW1 1145   2.698   0.405   1.080
   82SOL    HW2 1146   2.757   0.297   1.188
   83SOL     OW 1147   6.023   2.107   3.596
   83SOL    HW1 1148   5.983   2.191   3.633
   83SOL    HW2 1149   6.023   2.112   3.496
   84SOL     OW 1150   5.154   1.966   2.912
   84SOL    HW1 1151   5.071   2.002   2.867
   84SOL    HW2 1152   5.174   2.021   2.993
   85SOL     OW 1153   2.241   5.369   2.546
   85SOL    HW1 1154   2.212   5.450   2.598
   85SOL    HW2 1155   2.290   5.307   2.607
   86SOL     OW 1156   4.747   1.246   5.628
   86SOL    HW1 1157   4.671   1.231   5.565
   86SOL    HW2 1158   4.777   1.158   5.666
   87SOL     OW 1159   3.113   2.388   6.891
   87SOL    HW1 1160   3.198   2.381   6.839
   87SOL    HW2 1161   3.097   2.302   6.941
   88SOL     OW 1162   1.528   1.985   0.167
   88SOL    HW1 1163   1.594   1.982   0.092
   88SOL    HW2 1164   1.436   1.976   0.131
   89SOL     OW 1165   4.038   4.092   5.915
   89SOL    HW1 1166   3.942   4.118   5.925
   89SOL    HW2 1167   4.081   4.148   5.844
   90SOL     OW 1168   6.936   4.047   2.059
   90SOL    HW1 1169   6.960   3.955   2.027
   90SOL    HW2 1170   6.950   4.053   2.158
   91SOL     OW 1171   5.301   4.896   0.768
   91SOL    HW1 1172   5.373   4.963   0.753
   91SOL    HW2 1173   5.296   4.874   0.865
   92SOL     OW 1174   6.625   6.385   6.818
   92SOL    HW1 1175   6.671   6.461   6.772
   92SOL    HW2 1176   6.624   6.305   6.757
   93SOL     OW 1177   2.862   3.392   2.446
   93SOL    HW1 1178   2.875   3.491   2.448
   93SOL    HW2 1179   2.811   3.363   2.528
   94SOL     OW 1180   3.773   1.055   4.388
   94SOL    HW1 1181   3.833   1.048   4.469
   94SOL    HW2 1182   3.693   0.997   4.402
   95SOL     OW 1183   0.357   6.586   4.072
   95SOL    HW1 1184   0.365   6.676   4.115
   95SOL    HW2 1185   0.315   6.596   3.982
   96SOL     OW 1186   0.648   6.683   0.731
   96SOL    HW1 1187   0.631   6.595   0.686
   96SOL    HW2 1188   0.647   6.671   0.830
   97SOL     OW 1189   3.899   4.870   4.625
   97SOL    HW1 1190   3.799   4.868   4.625
   97SOL    HW2 1191   3.934   4.828   4.709
   98SOL     OW 1192   6.805   1.941   4.962
   98SOL    HW1 1193   6.842   1.901   5.045
   98SOL    HW2 1194   6.866   2.013   4.929
   99SOL     OW 1195   5.402   4.516   5.090
   99SOL    HW1 1196   5.376   4.605   5.126
   99SOL    HW2 1197   5.437   4.527   4.997
  100SOL     OW 1198   1.925   2.136   5.417
  100SOL    HW1 1199   1.853   2.138   5.348
  100SOL    HW2 1200   2.005   2.091   5.380
  101SOL     OW 1201   5.109   2.615   2.346
  101SOL    HW1 1202   5.050   2.695   2.339
  101SOL    HW2 1203   5.204   2.641   2.330
  102SOL     OW 1204   4.958   6.963   0.727
  102SOL    HW1 1205   5.049   6.958   0.768
  102SOL    HW2 1206   4.911   0.028   0.761
  103SOL     OW 1207   2.399   2.206   1.268
  103SOL    HW1 1208   2.497   2.219   1.254
  103SOL    HW2 1209   2.356   2.293   1.290
  104SOL     OW 1210   1.029   3.828   1.931
  104SOL    HW1 1211   1.000   3.924   1.922
  104SOL    HW2 1212   0.989   3.774   1.857
  105SOL     OW 1213   0.447   1.857   4.386
  105SOL    HW1 1214   0.477   1.768   4.420
  105SOL    HW2 1215   0.354   1.876   4.420
  106SOL     OW 1216   5.221   3.204   1.012
  106SOL    HW1 1217   5.218   3.109   0.981
  106SOL    HW2 1218   5.273   3.209   1.097
  107SOL     OW 1219   4.564   0.516   2.406
  107SOL    HW1 1220   4.487   0.545   2.462
  107SOL    HW2 1221   4.535   0.443   2.344
  108SOL     OW 1222   4.046   1.129   4.820
  108SOL    HW1 1223   4.109   1.054   4.839
  108SOL    HW2 1224   3.979   1.136   4.894
  109SOL     OW 1225   1.910   1.808   4.631
  109SOL    HW1 1226   1.996   1.759   4.624
  109SOL    HW2 1227   1.927   1.902   4.661
  110SOL     OW 1228   4.280   4.914   5.245
  110SOL    HW1 1229   4.350   4.866   5.192
  110SOL    HW2 1230   4.321   4.992   5.291
  111SOL     OW 1231   0.077   3.558   0.419
  111SOL    HW1 1232   0.131   3.486   0.377
  111SOL    HW2 1233   0.058   3.534   0.514
  112SOL     OW 1234   3.164   6.259   4.977
  112SOL    HW1 1235   3.237   6.216   5.030
  112SOL    HW2 1236   3.080   6.205   4.985
  113SOL     OW 1237   1.416   4.785   2.116
  113SOL    HW1 1238   1.336   4.822   2.068
  113SOL    HW2 1239   1.423   4.688   2.097
  114SOL     OW 1240   6.899   1.742   1.687
  114SOL    HW1 1241   6.853   1.677   1.627
  114SOL    HW2 1242   6.837   1.770   1.760
  115SOL     OW 1243   4.594   0.565   3.707
  115SOL    HW1 1244   4.507   0.612   3.690
  115SOL    HW2 1245   4.617   0.571   3.804
  116SOL     OW 1246   6.089   5.800   6.728
  116SOL    HW1 1247   6.026   5.855   6.674
  116SOL    HW2 1248   6.157   5.758   6.668
  117SOL     OW 1249   2.070   1.677   0.245
  117SOL    HW1 1250   2.082   1.776   0.255
  117SOL    HW2 1251   1.986   1.648   0.290
  118SOL     OW 1252   1.226   2.878   1.515
  118SOL    HW1 1253   1.302   2.813   1.516
  118SOL    HW2 1254   1.183   2.881   1.606
  119SOL     OW 1255   5.197   5.162   4.148
  119SOL    HW1 1256   5.116   5.108   4.170
  119SOL    HW2 1257   5.271   5.140   4.211
  120SOL     OW 1258   4.883   1.251   4.033
  120SOL    HW1 1259   4.838   1.292   4.112
  120SOL    HW2 1260   4.814   1.214   3.971
  121SOL     OW 1261   6.839   5.151   5.651
  121SOL    HW1 1262   6.893   5.091   5.710
  121SOL    HW2 1263   6.814   5.102   5.568
  122SOL     OW 1264   0.481   5.761   5.464
  122SOL    HW1 1265   0.452   5.812   5.383
  122SOL    HW2 1266   0.512   5.670   5.437
  123SOL     OW 1267   0.656   2.112   0.955
  123SOL    HW1 1268   0.710   2.169   0.894
  123SOL    HW2 1269   0.700   2.023   0.966
  124SOL     OW 1270   1.637   3.422   6.782
  124SOL    HW1 1271   1.630   3.334   6.736
  124SOL    HW2 1272   1.674   3.409   6.874
  125SOL     OW 1273   4.152   3.712   2.053
  125SOL    HW1 1274   4.213   3.688   1.978
  125SOL    HW2 1275   4.124   3.630   2.102
  126SOL     OW 1276   3.700   3.363   5.263
  126SOL    HW1 1277   3.677   3.283   5.318
  126SOL    HW2 1278   3.734   3.436   5.323
  127SOL     OW 1279   0.271   4.341   6.116
  127SOL    HW1 1280   0.330   4.349   6.036
  127SOL    HW2 1281   0.324   4.358   6.199
  128SOL     OW 1282   4.891   4.272   6.435
  128SOL    HW1 1283   4.885   4.225   6.347
  128SOL    HW2 1284   4.904   4.205   6.508
  129SOL     OW 1285   1.001   5.369   2.586
  129SOL    HW1 1286   0.990   5.270   2.596
  129SOL    HW2 1287   1.081   5.389   2.530
  130SOL     OW 1288   6.370   3.934   5.095
  130SOL    HW1 1289   6.419   3.847   5.100
  130SOL    HW2 1290   6.334   3.946   5.002
  131SOL     OW 1291   0.382   3.057   1.836
  131SOL    HW1 1292   0.408   3.059   1.740
  131SOL    HW2 1293   0.460   3.029   1.892
  132SOL     OW 1294   3.564   3.666   1.804
  132SOL    HW1 1295   3.664   3.658   1.801
  132SOL    HW2 1296   3.527   3.595   1.864
  133SOL     OW 1297   4.278   4.453   5.945
  133SOL    HW1 1298   4.197   4.410   5.904
  133SOL    HW2 1299   4.342   4.479   5.872
  134SOL     OW 1300   0.378   1.956   6.944
  134SOL    HW1 1301   0.282   1.979   6.958
  134SOL    HW2 1302   0.397   1.949   6.846
  135SOL     OW 1303   4.394   4.990   4.001
  135SOL    HW1 1304   4.482   4.961   4.038
  135SOL    HW2 1305   4.331   4.912   3.999
  136SOL     OW 1306   3.508   6.302   6.610
  136SOL    HW1 1307   3.461   6.260   6.688
  136SOL    HW2 1308   3.606   6.281   6.616
  137SOL     OW 1309   1.829   4.137   6.947
  137SOL    HW1 1310   1.834   4.122   0.030
  137SOL    HW2 1311   1.881   4.065   6.901
  138SOL     OW 1312   0.032   6.460   1.714
  138SOL    HW1 1313   0.098   6.386   1.704
  138SOL    HW2 1314   6.968   6.427   1.763
  139SOL     OW 1315   1.155   6.982   1.041
  139SOL    HW1 1316   1.143   6.916   0.966
  139SOL    HW2 1317   1.208   0.044   1.008
  140SOL     OW 1318   2.547   0.220   3.274
  140SOL    HW1 1319   2.544   0.187   3.179
  140SOL    HW2 1320   2.632   0.270   3.288
  141SOL     OW 1321   2.312   2.341   0.545
  141SOL    HW1 1322   2.342   2.426   0.502
  141SOL    HW2 1323   2.332   2.344   0.643
  142SOL     OW 1324   1.526   4.366   6.210
  142SOL    HW1 1325   1.461   4.291   6.223
  142SOL    HW2 1326   1.570   4.388   6.297
  143SOL     OW 1327   4.619   6.146   2.289
  143SOL    HW1 1328   4.626   6.238   2.252
  143SOL    HW2 1329   4.690   6.133   2.359
  144SOL     OW 1330   2.542   4.754   3.074
  144SOL    HW1 1331   2.586   4.685   3.015
  144SOL    HW2 1332   2.510   4.830   3.017
  145SOL     OW 1333   6.061   6.296   2.334
  145SOL    HW1 1334   5.995   6.364   2.366
  145SOL    HW2 1335   6.069   6.302   2.234
  146SOL     OW 1336   6.319   1.359   4.292
  146SOL    HW1 1337   6.278   1.439   4.248
  146SOL    HW2 1338   6.267   1.335   4.374
  147SOL     OW 1339   5.816   6.500   5.599
  147SOL    HW1 1340   5.720   6.517   5.579
  147SOL    HW2 1341   5.825   6.419   5.656
  148SOL     OW 1342   1.886   0.483   3.823
  148SOL    HW1 1343   1.891   0.524   3.732
  148SOL    HW2 1344   1.918   0.389   3.819
  149SOL     OW 1345   2.129   2.005   5.300
  149SOL    HW1 1346   2.221   2.041   5.314
  149SOL    HW2 1347   2.107   2.006   5.203
  150SOL     OW 1348   5.275   3.432   4.464
  150SOL    HW1 1349   5.189   3.427   4.515
  150SOL    HW2 1350   5.280   3.519   4.414
  151SOL     OW 1351   6.383   2.552   1.843
  151SOL    HW1 1352   6.382   2.630   1.905
  151SOL    HW2 1353   6.312   2.563   1.774
  152SOL     OW 1354   6.315   1.472   0.164
  152SOL    HW1 1355   6.252   1.510   0.232
  152SOL    HW2 1356   6.363   1.547   0.117
  153SOL     OW 1357   1.431   2.040   3.566
  153SOL    HW1 1358   1.345   2.027   3.518
  153SOL    HW2 1359   1.478   1.952   3.574
  154SOL     OW 1360   0.105   2.416   3.669
  154SOL    HW1 1361   0.064   2.350   3.607
  154SOL    HW2 1362   0.162   2.368   3.736
  155SOL     OW 1363   5.781   5.053   3.385
  155SOL    HW1 1364   5.746   5.134   3.339
  155SOL    HW2 1365   5.867   5.025   3.344
  156SOL     OW 1366   4.229   0.036   1.132
  156SOL    HW1 1367   4.144   0.082   1.159
  156SOL    HW2 1368   4.211   6.955   1.116
  157SOL     OW 1369   5.772   1.520   0.544
  157SOL    HW1 1370   5.786   1.596   0.481
  157SOL    HW2 1371   5.764   1.435   0.493
  158SOL     OW 1372   1.013   2.534   5.780
  158SOL    HW1 1373   0.982   2.444   5.811
  158SOL    HW2 1374   1.088   2.565   5.838
  159SOL     OW 1375   0.322   4.937   6.613
  159SOL    HW1 1376   0.281   4.943   6.522
  159SOL    HW2 1377   0.255   4.967   6.682
  160SOL     OW 1378   4.347   7.001   1.828
  160SOL    HW1 1379   4.330   0.083   1.827
  160SOL    HW2 1380   4.384   6.974   1.916
  161SOL     OW 1381   5.421   6.383   1.372
  161SOL    HW1 1382   5.512   6.425   1.368
  161SOL    HW2 1383   5.388   6.368   1.279
  162SOL     OW 1384   4.179   6.894   5.311
  162SOL    HW1 1385   4.253   6.926   5.252
  162SOL    HW2 1386   4.123   6.972   5.340
  163SOL     OW 1387   1.645   4.090   3.307
  163SOL    HW1 1388   1.620   4.065   3.214
  163SOL    HW2 1389   1.685   4.011   3.354
  164SOL     OW 1390   1.689   2.801   2.546
  164SOL    HW1 1391   1.606   2.795   2.601
  164SOL    HW2 1392   1.742   2.881   2.574
  165SOL     OW 1393   0.435   6.144   4.978
  165SOL    HW1 1394   0.500   6.127   5.051
  165SOL    HW2 1395   0.398   6.057   4.945
  166SOL     OW 1396   0.422   5.600   4.056
  166SOL    HW1 1397   0.409   5.508   4.019
  166SOL    HW2 1398   0.457   5.660   3.984
  167SOL     OW 1399   0.125   1.340   3.275
  167SOL    HW1 1400   0.183   1.314   3.199
  167SOL    HW2 1401   0.124   1.266   3.343
  168SOL     OW 1402   3.201   4.076   4.659
  168SOL    HW1 1403   3.161   4.033   4.740
  168SOL    HW2 1404   3.156   4.164   4.643
  169SOL     OW 1405   4.730   2.917   5.949
  169SOL    HW1 1406   4.699   2.923   5.854
  169SOL    HW2 1407   4.766   2.825   5.966
  170SOL     OW 1408   5.601   5.297   2.637
  170SOL    HW1 1409   5.696   5.268   2.652
  170SOL    HW2 1410   5.596   5.348   2.551
  171SOL     OW 1411   3.849   3.012   0.937
  171SOL    HW1 1412   3.916   2.938   0.938
  171SOL    HW2 1413   3.776   2.991   1.002
  172SOL     OW 1414   1.934   0.500   0.069
  172SOL    HW1 1415   1.839   0.528   0.057
  172SOL    HW2 1416   1.984   0.516   7.000
  173SOL     OW 1417   5.515   1.018   5.073
  173SOL    HW1 1418   5.427   1.014   5.024
  173SOL    HW2 1419   5.519   0.944   5.140
  174SOL     OW 1420   6.118   5.228   3.575
  174SOL    HW1 1421   6.208   5.189   3.596
  174SOL    HW2 1422   6.092   5.293   3.647
  175SOL     OW 1423   0.690   5.412   2.138
  175SOL    HW1 1424   0.632   5.400   2.058
  175SOL    HW2 1425   0.665   5.496   2.185
  176SOL     OW 1426   6.016   3.836   1.037
  176SOL    HW1 1427   6.023   3.920   0.984
  176SOL    HW2 1428   5.971   3.766   0.982
  177SOL     OW 1429   5.614   2.031   3.642
  177SOL    HW1 1430   5.630   2.126   3.618
  177SOL    HW2 1431   5.520   2.006   3.619
  178SOL     OW 1432   1.034   5.510   4.620
  178SOL    HW1 1433   0.946   5.534   4.578
  178SOL    HW2 1434   1.109   5.545   4.564
  179SOL     OW 1435   3.094   4.032   1.869
  179SOL    HW1 1436   3.090   4.062   1.965
  179SOL    HW2 1437   3.109   4.111   1.810
  180SOL     OW 1438   5.300   0.514   5.693
  180SOL    HW1 1439   5.245   0.587   5.735
  180SOL    HW2 1440   5.358   0.471   5.763
  181SOL     OW 1441   3.227   5.702   5.653
  181SOL    HW1 1442   3.163   5.778   5.665
  181SOL    HW2 1443   3.176   5.621   5.622
  182SOL     OW 1444   3.342   2.623   5.298
  182SOL    HW1 1445   3.305   2.701   5.248
  182SOL    HW2 1446   3.304   2.538   5.260
  183SOL     OW 1447   1.839   0.579   2.563
  183SOL    HW1 1448   1.882   0.563   2.652
  183SOL    HW2 1449   1.866   0.669   2.528
  184SOL     OW 1450   5.402   6.274   3.842
  184SOL    HW1 1451   5.341   6.334   3.791
  184SOL    HW2 1452   5.470   6.328   3.891
  185SOL     OW 1453   0.882   6.025   4.928
  185SOL    HW1 1454   0.853   6.030   4.833
  185SOL    HW2 1455   0.978   5.997   4.933
  186SOL     OW 1456   3.421   4.697   0.780
  186SOL    HW1 1457   3.420   4.796   0.773
  186SOL    HW2 1458   3.436   4.657   0.689
  187SOL     OW 1459   4.124   5.571   0.614
  187SOL    HW1 1460   4.187   5.496   0.634
  187SOL    HW2 1461   4.176   5.650   0.580
  188SOL     OW 1462   1.249   4.309   3.654
  188SOL    HW1 1463   1.265   4.256   3.571
  188SOL    HW2 1464   1.337   4.345   3.687
  189SOL     OW 1465   6.617   3.570   6.018
  189SOL    HW1 1466   6.673   3.648   5.991
  189SOL    HW2 1467   6.570   3.592   6.104
  190SOL     OW 1468   6.299   5.976   0.143
  190SOL    HW1 1469   6.367   5.984   0.215
  190SOL    HW2 1470   6.234   6.051   0.151
  191SOL     OW 1471   1.882   3.776   6.359
  191SOL    HW1 1472   1.883   3.876   6.362
  191SOL    HW2 1473   1.787   3.744   6.364
  192SOL     OW 1474   0.921   6.454   0.125
  192SOL    HW1 1475   0.926   6.549   0.094
  192SOL    HW2 1476   0.848   6.407   0.076
  193SOL     OW 1477   2.737   6.953   1.731
  193SOL    HW1 1478   2.677   6.947   1.651
  193SOL    HW2 1479   2.689   6.918   1.811
  194SOL     OW 1480   4.158   6.601   3.536
  194SOL    HW1 1481   4.194   6.512   3.562
  194SOL    HW2 1482   4.217   6.642   3.466
  195SOL     OW 1483   3.563   0.841   1.193
  195SOL    HW1 1484   3.523   0.750   1.179
  195SOL    HW2 1485   3.490   0.909   1.197
  196SOL     OW 1486   3.709   3.076   1.617
  196SOL    HW1 1487   3.695   3.100   1.713
  196SOL    HW2 1488   3.624   3.040   1.579
  197SOL     OW 1489   0.933   6.792   1.266
  197SOL    HW1 1490   1.027   6.787   1.299
  197SOL    HW2 1491   0.934   6.814   1.168
  198SOL     OW 1492   6.277   0.630   5.288
  198SOL    HW1 1493   6.354   0.664   5.234
  198SOL    HW2 1494   6.258   0.694   5.363
  199SOL     OW 1495   1.166   0.548   3.128
  199SOL    HW1 1496   1.169   0.529   3.030
  199SOL    HW2 1497   1.167   0.647   3.143
  200SOL     OW 1498   1.679   3.514   3.288
  200SOL    HW1 1499   1.729   3.427   3.288
  200SOL    HW2 1500   1.637   3.530   3.377
  201SOL     OW 1501   5.316   1.091   6.696
  201SOL    HW1 1502   5.350   1.156   6.629
  201SOL    HW2 1503   5.310   1.000   6.654
  202SOL     OW 1504   3.833   0.805   2.614
  202SOL    HW1 1505   3.867   0.872   2.681
  202SOL    HW2 1506   3.796   0.726   2.662
  203SOL     OW 1507   6.139   2.551   1.027
  203SOL    HW1 1508   6.121   2.543   1.126
  203SOL    HW2 1509   6.143   2.459   0.987
  204SOL     OW 1510   2.626   5.984   0.817
  204SOL    HW1 1511   2.633   5.963   0.720
  204SOL    HW2 1512   2.711   5.959   0.863
  205SOL     OW 1513   4.849   0.968   0.417
  205SOL    HW1 1514   4.812   1.060   0.403
  205SOL    HW2 1515   4.794   0.903   0.365
  206SOL     OW 1516   0.292   5.504   2.045
  206SOL    HW1 1517   0.307   5.522   1.948
  206SOL    HW2 1518   0.266   5.409   2.058
  207SOL     OW 1519   6.500   2.688   6.057
  207SOL    HW1 1520   6.502   2.620   5.984
  207SOL    HW2 1521   6.434   2.659   6.127
  208SOL     OW 1522   4.942   3.198   1.381
  208SOL    HW1 1523   4.976   3.104   1.385
  208SOL    HW2 1524   4.992   3.255   1.446
  209SOL     OW 1525   6.366   0.462   3.972
  209SOL    HW1 1526   6.438   0.454   3.904
  209SOL    HW2 1527   6.278   0.476   3.926
  210SOL     OW 1528   5.424   3.139   6.633
  210SOL    HW1 1529   5.513   3.106   6.601
  210SOL    HW2 1530   5.433   3.233   6.666
  211SOL     OW 1531   6.916   5.054   2.445
  211SOL    HW1 1532   6.957   4.984   2.504
  211SOL    HW2 1533   6.975   5.135   2.443
  212SOL     OW 1534   0.669   5.285   5.444
  212SOL    HW1 1535   0.710   5.318   5.529
  212SOL    HW2 1536   0.591   5.342   5.420
  213SOL     OW 1537   4.530   2.487   1.370
  213SOL    HW1 1538   4.513   2.579   1.405
  213SOL    HW2 1539   4.617   2.454   1.407
  214SOL     OW 1540   6.844   5.863   3.816
  214SOL    HW1 1541   6.837   5.959   3.790
  214SOL    HW2 1542   6.860   5.807   3.735
  215SOL     OW 1543   3.669   3.090   3.059
  215SOL    HW1 1544   3.598   3.060   2.995
  215SOL    HW2 1545   3.642   3.177   3.101
  216SOL     OW 1546   3.829   6.689   4.961
  216SOL    HW1 1547   3.833   6.691   4.861
  216SOL    HW2 1548   3.884   6.764   4.998
  217SOL     OW 1549   6.198   2.010   4.763
  217SOL    HW1 1550   6.196   2.093   4.819
  217SOL    HW2 1551   6.240   1.936   4.816
  218SOL     OW 1552   2.531   4.979   5.508
  218SOL    HW1 1553   2.563   4.888   5.482
  218SOL    HW2 1554   2.476   5.017   5.434
  219SOL     OW 1555   3.115   6.705   6.802
  219SOL    HW1 1556   3.120   6.611   6.836
  219SOL    HW2 1557   3.205   6.733   6.768
  220SOL     OW 1558   1.261   4.905   0.177
  220SOL    HW1 1559   1.312   4.826   0.142
  220SOL    HW2 1560   1.255   4.899   0.276
  221SOL     OW 1561   6.343   4.638   4.682
  221SOL    HW1 1562   6.264   4.688   4.647
  221SOL    HW2 1563   6.381   4.687   4.760
  222SOL     OW 1564   0.888   0.346   4.408
  222SOL    HW1 1565   0.945   0.395   4.341
  222SOL    HW2 1566   0.942   0.276   4.454
  223SOL     OW 1567   5.973   5.731   1.539
  223SOL    HW1 1568   6.044   5.671   1.503
  223SOL    HW2 1569   5.923   5.684   1.611
  224SOL     OW 1570   5.482   4.262   2.347
  224SOL    HW1 1571   5.548   4.188   2.358
  224SOL    HW2 1572   5.425   4.268   2.429
  225SOL     OW 1573   4.367   6.217   1.013
  225SOL    HW1 1574   4.383   6.119   1.017
  225SOL    HW2 1575   4.354   6.254   1.105
  226SOL     OW 1576   1.238   5.227   2.878
  226SOL    HW1 1577   1.285   5.259   2.961
  226SOL    HW2 1578   1.195   5.138   2.897
  227SOL     OW 1579   1.132   3.817   3.181
  227SOL    HW1 1580   1.075   3.849   3.257
  227SOL    HW2 1581   1.164   3.724   3.200
  228SOL     OW 1582   3.448   5.473   3.515
  228SOL    HW1 1583   3.356   5.476   3.554
  228SOL    HW2 1584   3.442   5.487   3.416
  229SOL     OW 1585   5.581   6.540   1.928
  229SOL    HW1 1586   5.623   6.571   1.842
  229SOL    HW2 1587   5.522   6.612   1.964
  230SOL     OW 1588   1.158   4.633   4.806
  230SOL    HW1 1589   1.132   4.537   4.802
  230SOL    HW2 1590   1.146   4.675   4.716
  231SOL     OW 1591   6.953   2.373   6.942
  231SOL    HW1 1592   0.028   2.355   6.980
  231SOL    HW2 1593   6.934   2.309   6.867
  232SOL     OW 1594   1.918   3.381   0.205
  232SOL    HW1 1595   2.016   3.400   0.210
  232SOL    HW2 1596   1.902   3.307   0.139
  233SOL     OW 1597   3.657   0.463   0.586
  233SOL    HW1 1598   3.583   0.527   0.565
  233SOL    HW2 1599   3.628   0.370   0.564
  234SOL     OW 1600   1.526   5.099   0.706
  234SOL    HW1 1601   1.586   5.061   0.636
  234SOL    HW2 1602   1.439   5.125   0.665
  235SOL     OW 1603   4.541   2.957   5.484
  235SOL    HW1 1604   4.461   2.959   5.424
  235SOL    HW2 1605   4.624   2.954   5.428
  236SOL     OW 1606   6.852   0.019   6.647
  236SOL    HW1 1607   6.825   0.107   6.608
  236SOL    HW2 1608   6.844   0.023   6.746
  237SOL     OW 1609   5.979   0.520   2.847
  237SOL    HW1 1610   5.881   0.525   2.829
  237SOL    HW2 1611   6.025   0.598   2.803
  238SOL     OW 1612   0.162   2.029   3.368
  238SOL    HW1 1613   0.229   1.981   3.424
  238SOL    HW2 1614   0.114   1.962   3.310
  239SOL     OW 1615   6.448   4.414   6.618
  239SOL    HW1 1616   6.413   4.339   6.674
  239SOL    HW2 1617   6.529   4.453   6.662
  240SOL     OW 1618   0.116   2.712   4.255
  240SOL    HW1 1619   0.202   2.709   4.307
  240SOL    HW2 1620   0.094   2.620   4.223
  241SOL     OW 1621   5.962   2.837   4.425
  241SOL    HW1 1622   6.052   2.882   4.420
  241SOL    HW2 1623   5.974   2.738   4.428
  242SOL     OW 1624   2.205   2.550   3.163
  242SOL    HW1 1625   2.110   2.538   3.191
  242SOL    HW2 1626   2.244   2.462   3.136
  243SOL     OW 1627   5.306   1.418   6.129
  243SOL    HW1 1628   5.347   1.465   6.208
  243SOL    HW2 1629   5.240   1.350   6.161
  244SOL     OW 1630   1.730   0.715   5.683
  244SOL    HW1 1631   1.672   0.786   5.642
  244SOL    HW2 1632   1.781   0.754   5.760
  245SOL     OW 1633   5.173   1.889   4.644
  245SOL    HW1 1634   5.207   1.826   4.574
  245SOL    HW2 1635   5.095   1.847   4.691
  246SOL     OW 1636   5.165   4.002   4.555
  246SOL    HW1 1637   5.128   4.091   4.529
  246SOL    HW2 1638   5.089   3.940   4.576
  247SOL     OW 1639   1.578   0.515   2.614
  247SOL    HW1 1640   1.543   0.535   2.706
  247SOL    HW2 1641   1.677   0.529   2.611
  248SOL     OW 1642   6.559   2.874   3.097
  248SOL    HW1 1643   6.533   2.863   3.000
  248SOL    HW2 1644   6.658   2.864   3.106
  249SOL     OW 1645   1.869   6.271   4.700
  249SOL    HW1 1646   1.874   6.370   4.712
  249SOL    HW2 1647   1.905   6.225   4.782
  250SOL     OW 1648   6.192   2.283   0.242
  250SOL    HW1 1649   6.196   2.228   0.326
  250SOL    HW2 1650   6.230   2.231   0.166
  251SOL     OW 1651   2.241   6.913   2.526
  251SOL    HW1 1652   2.202   6.823   2.541
  251SOL    HW2 1653   2.330   6.904   2.481
  252SOL     OW 1654   6.690   3.205   0.079
  252SOL    HW1 1655   6.593   3.184   0.086
  252SOL    HW2 1656   6.705   3.302   0.100
  253SOL     OW 1657   1.865   4.744   5.499
  253SOL    HW1 1658   1.808   4.826   5.495
  253SOL    HW2 1659   1.962   4.770   5.499
  254SOL     OW 1660   5.177   3.317   6.717
  254SOL    HW1 1661   5.119   3.399   6.722
  254SOL    HW2 1662   5.227   3.317   6.630
  255SOL     OW 1663   4.227   1.990   1.931
  255SOL    HW1 1664   4.160   1.937   1.983
  255SOL    HW2 1665   4.180   2.054   1.871
  256SOL     OW 1666   0.585   6.390   0.991
  256SOL    HW1 1667   0.635   6.433   1.066
  256SOL    HW2 1668   0.650   6.347   0.928
  257SOL     OW 1669   2.621   6.046   6.608
  257SOL    HW1 1670   2.572   6.133   6.602
  257SOL    HW2 1671   2.582   5.992   6.682
  258SOL     OW 1672   5.006   4.902   3.964
  258SOL    HW1 1673   4.995   4.983   4.022
  258SOL    HW2 1674   5.018   4.821   4.022
  259SOL     OW 1675   7.000   1.341   1.824
  259SOL    HW1 1676   6.954   1.288   1.753
  259SOL    HW2 1677   0.054   1.284   1.867
  260SOL     OW 1678   6.195   6.886   5.967
  260SOL    HW1 1679   6.187   6.845   6.058
  260SOL    HW2 1680   6.105   6.919   5.937
  261SOL     OW 1681   0.117   1.116   3.063
  261SOL    HW1 1682   0.057   1.095   3.141
  261SOL    HW2 1683   0.142   1.031   3.017
  262SOL     OW 1684   1.775   5.455   0.652
  262SOL    HW1 1685   1.690   5.404   0.671
  262SOL    HW2 1686   1.843   5.393   0.613
  263SOL     OW 1687   1.099   4.813   5.008
  263SOL    HW1 1688   1.194   4.835   5.029
  263SOL    HW2 1689   1.095   4.727   4.957
  264SOL     OW 1690   4.379   4.283   0.753
  264SOL    HW1 1691   4.323   4.316   0.677
  264SOL    HW2 1692   4.353   4.189   0.776
  265SOL     OW 1693   3.656   5.672   4.357
  265SOL    HW1 1694   3.602   5.611   4.414
  265SOL    HW2 1695   3.717   5.618   4.300
  266SOL     OW 1696   4.698   3.396   6.995
  266SOL    HW1 1697   4.617   3.445   6.964
  266SOL    HW2 1698   4.765   3.393   6.920
  267SOL     OW 1699   2.975   2.029   6.201
  267SOL    HW1 1700   3.024   2.113   6.179
  267SOL    HW2 1701   2.950   2.030   6.298
  268SOL     OW 1702   1.500   4.337   2.796
  268SOL    HW1 1703   1.558   4.317   2.716
  268SOL    HW2 1704   1.446   4.419   2.778
  269SOL     OW 1705   2.507   1.457   5.251
  269SOL    HW1 1706   2.470   1.475   5.160
  269SOL    HW2 1707   2.587   1.515   5.267
  270SOL     OW 1708   5.585   5.538   4.909
  270SOL    HW1 1709   5.515   5.539   4.980
  270SOL    HW2 1710   5.542   5.521   4.820
  271SOL     OW 1711   2.827   0.493   6.935
  271SOL    HW1 1712   2.782   0.510   0.006
  271SOL    HW2 1713   2.907   0.552   6.926
  272SOL     OW 1714   5.787   4.047   6.730
  272SOL    HW1 1715   5.827   4.040   6.639
  272SOL    HW2 1716   5.721   4.122   6.732
  273SOL     OW 1717   0.223   5.842   4.088
  273SOL    HW1 1718   0.282   5.885   4.019
  273SOL    HW2 1719   0.261   5.752   4.112
  274SOL     OW 1720   5.227   2.977   2.603
  274SOL    HW1 1721   5.163   2.910   2.642
  274SOL    HW2 1722   5.277   2.935   2.527
  275SOL     OW 1723   5.786   4.816   5.682
  275SOL    HW1 1724   5.700   4.854   5.715
  275SOL    HW2 1725   5.778   4.717   5.673
  276SOL     OW 1726   0.463   0.119   4.538
  276SOL    HW1 1727   0.496   0.049   4.602
  276SOL    HW2 1728   0.515   0.204   4.552
  277SOL     OW 1729   3.818   3.346   5.633
  277SOL    HW1 1730   3.822   3.434   5.586
  277SOL    HW2 1731   3.910   3.307   5.638
  278SOL     OW 1732   6.046   5.302   1.901
  278SOL    HW1 1733   6.128   5.350   1.931
  278SOL    HW2 1734   6.011   5.246   1.976
  279SOL     OW 1735   6.563   3.258   3.804
  279SOL    HW1 1736   6.495   3.232   3.872
  279SOL    HW2 1737   6.627   3.324   3.844
  280SOL     OW 1738   4.309   1.232   2.248
  280SOL    HW1 1739   4.332   1.302   2.180
  280SOL    HW2 1740   4.262   1.276   2.325
  281SOL     OW 1741   5.340   5.193   6.180
  281SOL    HW1 1742   5.295   5.112   6.218
  281SOL    HW2 1743   5.391   5.239   6.253
  282SOL     OW 1744   0.910   1.700   6.921
  282SOL    HW1 1745   0.967   1.636   6.868
  282SOL    HW2 1746   0.968   1.772   6.959
  283SOL     OW 1747   6.340   3.854   2.679
  283SOL    HW1 1748   6.241   3.860   2.696
  283SOL    HW2 1749   6.371   3.761   2.699
  284SOL     OW 1750   5.887   6.946   2.656
  284SOL    HW1 1751   5.799   6.899   2.648
  284SOL    HW2 1752   5.874   0.028   2.637
  285SOL     OW 1753   5.210   5.758   6.053
  285SOL    HW1 1754   5.283   5.701   6.091
  285SOL    HW2 1755   5.130   5.755   6.112
  286SOL     OW 1756   3.495   5.679   5.535
  286SOL    HW1 1757   3.404   5.699   5.572
  286SOL    HW2 1758   3.523   5.753   5.474
  287SOL     OW 1759   4.373   6.731   0.804
  287SOL    HW1 1760   4.396   6.829   0.806
  287SOL    HW2 1761   4.451   6.679   0.771
  288SOL     OW 1762   3.523   0.822   0.307
  288SOL    HW1 1763   3.497   0.813   0.403
  288SOL    HW2 1764   3.566   0.737   0.277
  289SOL     OW 1765   6.050   5.133   5.090
  289SOL    HW1 1766   6.010   5.123   4.998
  289SOL    HW2 1767   6.026   5.223   5.127
  290SOL     OW 1768   2.886   1.036   4.680
  290SOL    HW1 1769   2.818   1.107   4.662
  290SOL    HW2 1770   2.842   0.958   4.724
  291SOL     OW 1771   5.915   1.104   5.001
  291SOL    HW1 1772   5.998   1.106   5.056
  291SOL    HW2 1773   5.938   1.116   4.905
  292SOL     OW 1774   2.616   0.822   4.188
  292SOL    HW1 1775   2.666   0.873   4.258
  292SOL    HW2 1776   2.643   0.726   4.192
  293SOL     OW 1777   5.453   0.658   2.986
  293SOL    HW1 1778   5.356   0.664   2.964
  293SOL    HW2 1779   5.464   0.620   3.078
  294SOL     OW 1780   6.792   1.056   6.191
  294SOL    HW1 1781   6.763   1.150   6.206
  294SOL    HW2 1782   6.756   1.023   6.104
  295SOL     OW 1783   1.019   0.655   5.182
  295SOL    HW1 1784   0.943   0.717   5.202
  295SOL    HW2 1785   0.984   0.565   5.158
  296SOL     OW 1786   0.099   1.416   6.939
  296SOL    HW1 1787   0.042   1.482   6.891
  296SOL    HW2 1788   0.181   1.397   6.885
  297SOL     OW 1789   5.227   4.364   3.159
  297SOL    HW1 1790   5.296   4.364   3.087
  297SOL    HW2 1791   5.154   4.300   3.136
  298SOL     OW 1792   4.065   6.268   5.173
  298SOL    HW1 1793   4.081   6.192   5.111
  298SOL    HW2 1794   3.968   6.291   5.174
  299SOL     OW 1795   6.977   1.517   6.309
  299SOL    HW1 1796   6.948   1.489   6.400
  299SOL    HW2 1797   0.034   1.457   6.277
  300SOL     OW 1798   4.401   6.556   4.535
  300SOL    HW1 1799   4.323   6.587   4.590
  300SOL    HW2 1800   4.458   6.635   4.511
  301SOL     OW 1801   6.458   6.498   5.454
  301SOL    HW1 1802   6.484   6.564   5.525
  301SOL    HW2 1803   6.379   6.533   5.404
  302SOL     OW 1804   0.830   6.320   2.402
  302SOL    HW1 1805   0.797   6.252   2.468
  302SOL    HW2 1806   0.752   6.371   2.365
  303SOL     OW 1807   4.322   5.519   2.422
  303SOL    HW1 1808   4.333   5.618   2.426
  303SOL    HW2 1809   4.406   5.478   2.387
  304SOL     OW 1810   1.250   1.395   5.315
  304SOL    HW1 1811   1.239   1.346   5.229
  304SOL    HW2 1812   1.195   1.479   5.313
  305SOL     OW 1813   3.268   1.406   0.645
  305SOL    HW1 1814   3.258   1.492   0.595
  305SOL    HW2 1815   3.345   1.414   0.708
  306SOL     OW 1816   0.563   6.668   2.518
  306SOL    HW1 1817   0.620   6.715   2.450
  306SOL    HW2 1818   0.594   6.692   2.610
  307SOL     OW 1819   3.953   3.082   4.612
  307SOL    HW1 1820   3.980   3.097   4.517
  307SOL    HW2 1821   3.958   3.167   4.663
  308SOL     OW 1822   6.841   3.115   0.512
  308SOL    HW1 1823   6.863   3.038   0.571
  308SOL    HW2 1824   6.808   3.081   0.424
  309SOL     OW 1825   1.928   5.332   6.983
  309SOL    HW1 1826   1.999   5.396   7.015
  309SOL    HW2 1827   1.955   5.239   7.006
  310SOL     OW 1828   4.492   5.922   5.319
  310SOL    HW1 1829   4.572   5.937   5.376
  310SOL    HW2 1830   4.482   5.996   5.253
  311SOL     OW 1831   1.495   6.417   1.896
  311SOL    HW1 1832   1.517   6.395   1.991
  311SOL    HW2 1833   1.484   6.332   1.844
  312SOL     OW 1834   3.682   0.415   4.395
  312SOL    HW1 1835   3.642   0.473   4.323
  312SOL    HW2 1836   3.646   0.322   4.386
  313SOL     OW 1837   2.886   3.488   3.552
  313SOL    HW1 1838   2.871   3.389   3.558
  313SOL    HW2 1839   2.928   3.510   3.464
  314SOL     OW 1840   2.050   4.647   6.044
  314SOL    HW1 1841   2.044   4.672   6.140
  314SOL    HW2 1842   2.098   4.559   6.035
  315SOL     OW 1843   6.215   0.012   4.196
  315SOL    HW1 1844   6.172   0.001   4.106
  315SOL    HW2 1845   6.176   0.092   4.241
  316SOL     OW 1846   3.781   0.970   4.927
  316SOL    HW1 1847   3.800   1.043   4.993
  316SOL    HW2 1848   3.857   0.905   4.926
  317SOL     OW 1849   0.686   1.115   1.984
  317SOL    HW1 1850   0.596   1.152   2.009
  317SOL    HW2 1851   0.740   1.100   2.067
  318SOL     OW 1852   0.946   1.625   3.873
  318SOL    HW1 1853   1.026   1.679   3.900
  318SOL    HW2 1854   0.870   1.645   3.935
  319SOL     OW 1855   0.519   1.892   1.873
  319SOL    HW1 1856   0.448   1.902   1.943
  319SOL    HW2 1857   0.476   1.867   1.786
  320SOL     OW 1858   5.026   0.795   6.535
  320SOL    HW1 1859   5.001   0.857   6.610
  320SOL    HW2 1860   5.125   0.795   6.523
  321SOL     OW 1861   4.551   3.263   0.913
  321SOL    HW1 1862   4.538   3.183   0.854
  321SOL    HW2 1863   4.647   3.291   0.912
  322SOL     OW 1864   3.088   1.859   0.256
  322SOL    HW1 1865   3.009   1.807   0.224
  322SOL    HW2 1866   3.076   1.955   0.233
  323SOL     OW 1867   0.202   4.248   1.787
  323SOL    HW1 1868   0.246   4.172   1.835
  323SOL    HW2 1869   0.267   4.287   1.721
  324SOL     OW 1870   6.879   0.589   3.653
  324SOL    HW1 1871   6.883   0.686   3.628
  324SOL    HW2 1872   6.808   0.543   3.600
  325SOL     OW 1873   7.007   2.830   0.264
  325SOL    HW1 1874   6.930   2.889   0.287
  325SOL    HW2 1875   0.071   2.886   0.242
  326SOL     OW 1876   5.960   5.965   5.965
  326SOL    HW1 1877   5.862   5.959   5.949
  326SOL    HW2 1878   6.007   5.977   5.877
  327SOL     OW 1879   4.139   6.190   6.627
  327SOL    HW1 1880   4.144   6.208   6.726
  327SOL    HW2 1881   4.190   6.260   6.578
  328SOL     OW 1882   2.578   4.917   3.671
  328SOL    HW1 1883   2.551   4.882   3.581
  328SOL    HW2 1884   2.619   4.844   3.725
  329SOL     OW 1885   2.952   3.681   3.085
  329SOL    HW1 1886   2.977   3.778   3.082
  329SOL    HW2 1887   3.017   3.628   3.029
  330SOL     OW 1888   2.293   3.557   6.424
  330SOL    HW1 1889   2.275   3.504   6.342
  330SOL    HW2 1890   2.212   3.558   6.482
  331SOL     OW 1891   5.018   5.680   4.652
  331SOL    HW1 1892   5.064   5.648   4.569
  331SOL    HW2 1893   5.035   5.778   4.664
  332SOL     OW 1894   6.165   2.122   2.843
  332SOL    HW1 1895   6.199   2.037   2.883
  332SOL    HW2 1896   6.104   2.167   2.908
  333SOL     OW 1897   2.674   5.896   4.255
  333SOL    HW1 1898   2.633   5.987   4.262
  333SOL    HW2 1899   2.770   5.900   4.283
  334SOL     OW 1900   3.852   3.306   3.784
  334SOL    HW1 1901   3.903   3.310   3.698
  334SOL    HW2 1902   3.839   3.210   3.810
  335SOL     OW 1903   4.877   1.258   6.751
  335SOL    HW1 1904   4.870   1.258   6.850
  335SOL    HW2 1905   4.856   1.349   6.716
  336SOL     OW 1906   3.726   1.648   4.555
  336SOL    HW1 1907   3.763   1.673   4.466
  336SOL    HW2 1908   3.800   1.639   4.622
  337SOL     OW 1909   1.003   1.842   5.368
  337SOL    HW1 1910   1.036   1.913   5.430
  337SOL    HW2 1911   0.904   1.850   5.359
  338SOL     OW 1912   5.245   1.707   1.324
  338SOL    HW1 1913   5.221   1.764   1.402
  338SOL    HW2 1914   5.342   1.681   1.330
  339SOL     OW 1915   3.165   4.893   5.890
  339SOL    HW1 1916   3.143   4.864   5.797
  339SOL    HW2 1917   3.082   4.925   5.935
  340SOL     OW 1918   5.533   4.690   4.812
  340SOL    HW1 1919   5.562   4.781   4.782
  340SOL    HW2 1920   5.609   4.642   4.854
  341SOL     OW 1921   5.720   0.606   1.476
  341SOL    HW1 1922   5.701   0.683   1.538
  341SOL    HW2 1923   5.818   0.598   1.463
  342SOL     OW 1924   4.566   0.690   1.216
  342SOL    HW1 1925   4.563   0.788   1.193
  342SOL    HW2 1926   4.551   0.636   1.134
  343SOL     OW 1927   5.758   0.685   1.914
  343SOL    HW1 1928   5.858   0.689   1.906
  343SOL    HW2 1929   5.727   0.758   1.975
  344SOL     OW 1930   6.693   3.161   1.697
  344SOL    HW1 1931   6.767   3.219   1.662
  344SOL    HW2 1932   6.654   3.107   1.623
  345SOL     OW 1933   0.176   3.413   3.368
  345SOL    HW1 1934   0.091   3.381   3.327
  345SOL    HW2 1935   0.237   3.336   3.384
  346SOL     OW 1936   0.647   0.568   3.426
  346SOL    HW1 1937   0.733   0.617   3.413
  346SOL    HW2 1938   0.659   0.472   3.399
  347SOL     OW 1939   1.835   4.007   1.363
  347SOL    HW1 1940   1.795   4.013   1.455
  347SOL    HW2 1941   1.783   4.064   1.300
  348SOL     OW 1942   6.136   4.752   1.054
  348SOL    HW1 1943   6.145   4.851   1.053
  348SOL    HW2 1944   6.070   4.723   0.984
  349SOL     OW 1945   6.125   5.455   6.591
  349SOL    HW1 1946   6.159   5.402   6.513
  349SOL    HW2 1947   6.034   5.421   6.616
  350SOL     OW 1948   2.855   0.490   0.652
  350SOL    HW1 1949   2.927   0.436   0.609
  350SOL    HW2 1950   2.770   0.438   0.652
  351SOL     OW 1951   4.335   3.858   0.606
  351SOL    HW1 1952   4.411   3.803   0.641
  351SOL    HW2 1953   4.309   3.926   0.674
  352SOL     OW 1954   3.463   0.922   2.710
  352SOL    HW1 1955   3.519   0.901   2.790
  352SOL    HW2 1956   3.438   0.838   2.663
  353SOL     OW 1957   2.494   6.344   0.797
  353SOL    HW1 1958   2.532   6.424   0.750
  353SOL    HW2 1959   2.473   6.273   0.729
  354SOL     OW 1960   2.906   2.411   0.906
  354SOL    HW1 1961   2.817   2.417   0.861
  354SOL    HW2 1962   2.914   2.323   0.953
  355SOL     OW 1963   6.939   2.219   2.684
  355SOL    HW1 1964   7.011   2.279   2.720
  355SOL    HW2 1965   6.866   2.275   2.644
  356SOL     OW 1966   2.768   6.658   5.690
  356SOL    HW1 1967   2.681   6.636   5.646
  356SOL    HW2 1968   2.812   6.574   5.723
  357SOL     OW 1969   6.083   6.031   4.524
  357SOL    HW1 1970   6.051   6.120   4.491
  357SOL    HW2 1971   6.112   6.040   4.620
  358SOL     OW 1972   3.351   6.227   6.804
  358SOL    HW1 1973   3.354   6.209   6.902
  358SOL    HW2 1974   3.289   6.162   6.760
  359SOL     OW 1975   2.159   2.226   0.925
  359SOL    HW1 1976   2.073   2.210   0.875
  359SOL    HW2 1977   2.180   2.146   0.980
  360SOL     OW 1978   1.628   4.685   2.826
  360SOL    HW1 1979   1.554   4.688   2.759
  360SOL    HW2 1980   1.685   4.604   2.808
  361SOL     OW 1981   6.150   2.854   2.697
  361SOL    HW1 1982   6.116   2.858   2.791
  361SOL    HW2 1983   6.149   2.945   2.656
  362SOL     OW 1984   4.139   3.244   2.967
  362SOL    HW1 1985   4.228   3.200   2.983
  362SOL    HW2 1986   4.069   3.173   2.957
  363SOL     OW 1987   4.521   5.842   1.651
  363SOL    HW1 1988   4.433   5.802   1.677
  363SOL    HW2 1989   4.570   5.871   1.734
  364SOL     OW 1990   1.233   0.998   6.824
  364SOL    HW1 1991   1.248   0.909   6.781
  364SOL    HW2 1992   1.138   1.004   6.856
  365SOL     OW 1993   4.925   0.345   3.772
  365SOL    HW1 1994   4.883   0.395   3.847
  365SOL    HW2 1995   4.880   0.369   3.686
  366SOL     OW 1996   5.732   0.969   0.204
  366SOL    HW1 1997   5.698   1.010   0.120
  366SOL    HW2 1998   5.800   0.900   0.183
  367SOL     OW 1999   6.421   6.364   6.966
  367SOL    HW1 2000   6.496   6.356   6.899
  367SOL    HW2 2001   6.360   6.286   6.957
  368SOL     OW 2002   2.841   1.354   5.018
  368SOL    HW1 2003   2.880   1.331   5.107
  368SOL    HW2 2004   2.883   1.298   4.947
  369SOL     OW 2005   4.992   3.545   6.734
  369SOL    HW1 2006   4.902   3.511   6.706
  369SOL    HW2 2007   5.006   3.636   6.696
  370SOL     OW 2008   1.544   1.912   4.026
  370SOL    HW1 2009   1.591   1.929   3.940
  370SOL    HW2 2010   1.507   1.998   4.062
  371SOL     OW 2011   2.885   5.010   1.037
  371SOL    HW1 2012   2.894   5.007   0.938
  371SOL    HW2 2013   2.789   5.023   1.062
  372SOL     OW 2014   2.695   5.784   5.931
  372SOL    HW1 2015   2.737   5.830   6.009
  372SOL    HW2 2016   2.651   5.700   5.962
  373SOL     OW 2017   5.380   4.363   2.936
  373SOL    HW1 2018   5.437   4.312   2.871
  373SOL    HW2 2019   5.410   4.459   2.939
  374SOL     OW 2020   2.236   2.871   2.007
  374SOL    HW1 2021   2.250   2.781   2.047
  374SOL    HW2 2022   2.284   2.877   1.920
  375SOL     OW 2023   0.090   5.166   4.347
  375SOL    HW1 2024   0.055   5.113   4.424
  375SOL    HW2 2025   0.074   5.264   4.363
  376SOL     OW 2026   5.178   0.003   3.647
  376SOL    HW1 2027   5.139   0.014   3.556
  376SOL    HW2 2028   5.146   6.933   3.687
  377SOL     OW 2029   2.668   3.376   6.293
  377SOL    HW1 2030   2.589   3.357   6.236
  377SOL    HW2 2031   2.666   3.472   6.321
  378SOL     OW 2032   4.037   1.114   1.257
  378SOL    HW1 2033   4.123   1.097   1.305
  378SOL    HW2 2034   4.014   1.035   1.200
  379SOL     OW 2035   3.001   3.762   0.932
  379SOL    HW1 2036   3.012   3.827   1.007
  379SOL    HW2 2037   3.084   3.706   0.924
  380SOL     OW 2038   5.431   1.666   6.770
  380SOL    HW1 2039   5.435   1.725   6.851
  380SOL    HW2 2040   5.335   1.650   6.746
  381SOL     OW 2041   0.229   3.349   2.263
  381SOL    HW1 2042   0.184   3.260   2.274
  381SOL    HW2 2043   0.328   3.334   2.252
  382SOL     OW 2044   6.299   0.004   0.976
  382SOL    HW1 2045   6.374   7.008   0.910
  382SOL    HW2 2046   6.263   6.930   1.001
  383SOL     OW 2047   5.370   3.199   1.253
  383SOL    HW1 2048   5.321   3.124   1.295
  383SOL    HW2 2049   5.330   3.286   1.283
  384SOL     OW 2050   1.470   2.782   4.560
  384SOL    HW1 2051   1.417   2.700   4.537
  384SOL    HW2 2052   1.435   2.859   4.507
  385SOL     OW 2053   4.792   2.971   0.046
  385SOL    HW1 2054   4.809   2.990   6.965
  385SOL    HW2 2055   4.745   3.050   0.087
  386SOL     OW 2056   3.273   6.084   5.738
  386SOL    HW1 2057   3.242   6.045   5.824
  386SOL    HW2 2058   3.249   6.181   5.734
  387SOL     OW 2059   1.727   6.638   3.584
  387SOL    HW1 2060   1.677   6.613   3.501
  387SOL    HW2 2061   1.816   6.594   3.583
  388SOL     OW 2062   1.730   5.539   5.713
  388SOL    HW1 2063   1.726   5.446   5.750
  388SOL    HW2 2064   1.784   5.539   5.629
  389SOL     OW 2065   4.014   2.291   6.804
  389SOL    HW1 2066   4.105   2.301   6.844
  389SOL    HW2 2067   4.022   2.288   6.704
  390SOL     OW 2068   3.476   1.659   3.711
  390SOL    HW1 2069   3.381   1.674   3.681
  390SOL    HW2 2070   3.538   1.672   3.634
  391SOL     OW 2071   0.548   0.815   0.519
  391SOL    HW1 2072   0.610   0.788   0.446
  391SOL    HW2 2073   0.524   0.911   0.509
  392SOL     OW 2074   4.290   5.378   3.889
  392SOL    HW1 2075   4.330   5.434   3.961
  392SOL    HW2 2076   4.197   5.409   3.869
  393SOL     OW 2077   5.573   2.685   5.559
  393SOL    HW1 2078   5.571   2.621   5.636
  393SOL    HW2 2079   5.481   2.693   5.521
  394SOL     OW 2080   2.327   1.190   6.800
  394SOL    HW1 2081   2.284   1.278   6.815
  394SOL    HW2 2082   2.382   1.165   6.880
  395SOL     OW 2083   0.147   3.116   0.958
  395SOL    HW1 2084   0.222   3.077   0.905
  395SOL    HW2 2085   0.180   3.142   1.048
  396SOL     OW 2086   3.985   2.427   5.749
  396SOL    HW1 2087   4.009   2.522   5.768
  396SOL    HW2 2088   4.021   2.369   5.822
  397SOL     OW 2089   4.574   6.959   6.584
  397SOL    HW1 2090   4.561   0.042   6.584
  397SOL    HW2 2091   4.592   6.927   6.677
  398SOL     OW 2092   5.979   3.939   2.504
  398SOL    HW1 2093   5.965   3.875   2.429
  398SOL    HW2 2094   5.890   3.972   2.537
  399SOL     OW 2095   2.452   5.887   1.492
  399SOL    HW1 2096   2.462   5.787   1.492
  399SOL    HW2 2097   2.488   5.924   1.577
  400SOL     OW 2098   2.272   4.744   5.708
  400SOL    HW1 2099   2.244   4.658   5.751
  400SOL    HW2 2100   2.366   4.765   5.734
  401SOL     OW 2101   6.210   1.237   1.202
  401SOL    HW1 2102   6.274   1.212   1.275
  401SOL    HW2 2103   6.118   1.249   1.242
  402SOL     OW 2104   0.340   5.570   0.793
  402SOL    HW1 2105   0.279   5.642   0.760
  402SOL    HW2 2106   0.409   5.610   0.853
  403SOL     OW 2107   5.529   4.131   0.491
  403SOL    HW1 2108   5.624   4.099   0.491
  403SOL    HW2 2109   5.468   4.053   0.498
  404SOL     OW 2110   6.468   5.770   4.562
  404SOL    HW1 2111   6.461   5.848   4.500
  404SOL    HW2 2112   6.547   5.714   4.537
  405SOL     OW 2113   1.564   1.472   1.796
  405SOL    HW1 2114   1.616   1.511   1.872
  405SOL    HW2 2115   1.484   1.424   1.831
  406SOL     OW 2116   1.225   2.922   3.972
  406SOL    HW1 2117   1.206   2.923   3.874
  406SOL    HW2 2118   1.316   2.961   3.989
  407SOL     OW 2119   3.179   2.029   3.711
  407SOL    HW1 2120   3.201   2.081   3.793
  407SOL    HW2 2121   3.190   1.931   3.730
  408SOL     OW 2122   2.189   0.143   3.981
  408SOL    HW1 2123   2.161   0.221   4.037
  408SOL    HW2 2124   2.286   0.151   3.960
  409SOL     OW 2125   0.351   5.134   4.608
  409SOL    HW1 2126   0.251   5.127   4.607
  409SOL    HW2 2127   0.390   5.053   4.566
  410SOL     OW 2128   2.629   6.626   6.454
  410SOL    HW1 2129   2.719   6.653   6.423
  410SOL    HW2 2130   2.564   6.629   6.378
  411SOL     OW 2131   0.447   4.358   5.381
  411SOL    HW1 2132   0.427   4.445   5.335
  411SOL    HW2 2133   0.427   4.282   5.319
  412SOL     OW 2134   3.766   6.261   3.549
  412SOL    HW1 2135   3.831   6.308   3.488
  412SOL    HW2 2136   3.675   6.262   3.508
  413SOL     OW 2137   2.436   0.478   1.431
  413SOL    HW1 2138   2.431   0.385   1.395
  413SOL    HW2 2139   2.345   0.520   1.428
  414SOL     OW 2140   4.658   4.843   0.836
  414SOL    HW1 2141   4.751   4.847   0.874
  414SOL    HW2 2142   4.607   4.769   0.880
  415SOL     OW 2143   3.719   6.732   3.013
  415SOL    HW1 2144   3.756   6.796   2.947
  415SOL    HW2 2145   3.622   6.750   3.028
  416SOL     OW 2146   3.895   5.590   0.238
  416SOL    HW1 2147   3.879   5.681   0.277
  416SOL    HW2 2148   3.972   5.547   0.284
  417SOL     OW 2149   5.443   5.330   1.370
  417SOL    HW1 2150   5.452   5.369   1.279
  417SOL    HW2 2151   5.368   5.263   1.371
  418SOL     OW 2152   0.344   4.977   6.257
  418SOL    HW1 2153   0.436   4.973   6.296
  418SOL    HW2 2154   0.347   4.952   6.160
  419SOL     OW 2155   5.008   5.657   6.244
  419SOL    HW1 2156   4.920   5.612   6.229
  419SOL    HW2 2157   5.077   5.587   6.263
  420SOL     OW 2158   5.831   3.599   6.882
  420SOL    HW1 2159   5.740   3.593   6.922
  420SOL    HW2 2160   5.882   3.673   6.926
  421SOL     OW 2161   1.491   6.139   6.248
  421SOL    HW1 2162   1.432   6.072   6.203
  421SOL    HW2 2163   1.578   6.096   6.274
  422SOL     OW 2164   6.346   3.637   0.388
  422SOL    HW1 2165   6.339   3.598   0.297
  422SOL    HW2 2166   6.296   3.580   0.453
  423SOL     OW 2167   1.541   3.203   6.374
  423SOL    HW1 2168   1.636   3.204   6.404
  423SOL    HW2 2169   1.504   3.296   6.377
  424SOL     OW 2170   2.319   4.284   5.959
  424SOL    HW1 2171   2.298   4.190   5.930
  424SOL    HW2 2172   2.274   4.302   6.047
  425SOL     OW 2173   2.596   0.673   0.536
  425SOL    HW1 2174   2.549   0.634   0.457
  425SOL    HW2 2175   2.613   0.601   0.603
  426SOL     OW 2176   0.725   3.335   6.719
  426SOL    HW1 2177   0.640   3.281   6.714
  426SOL    HW2 2178   0.803   3.274   6.725
  427SOL     OW 2179   4.076   3.053   0.281
  427SOL    HW1 2180   4.107   3.125   0.343
  427SOL    HW2 2181   4.098   3.078   0.187
  428SOL     OW 2182   3.484   1.036   4.386
  428SOL    HW1 2183   3.480   1.101   4.461
  428SOL    HW2 2184   3.430   1.070   4.309
  429SOL     OW 2185   3.726   5.944   0.116
  429SOL    HW1 2186   3.806   5.904   0.160
  429SOL    HW2 2187   3.726   6.043   0.129
  430SOL     OW 2188   2.840   0.718   4.409
  430SOL    HW1 2189   2.856   0.626   4.444
  430SOL    HW2 2190   2.920   0.749   4.358
  431SOL     OW 2191   3.780   0.812   6.142
  431SOL    HW1 2192   3.692   0.788   6.101
  431SOL    HW2 2193   3.790   0.763   6.229
  432SOL     OW 2194   6.503   1.097   1.052
  432SOL    HW1 2195   6.409   1.086   1.018
  432SOL    HW2 2196   6.513   1.186   1.096
  433SOL     OW 2197   3.794   6.251   4.850
  433SOL    HW1 2198   3.868   6.315   4.871
  433SOL    HW2 2199   3.826   6.185   4.782
  434SOL     OW 2200   6.713   3.362   0.632
  434SOL    HW1 2201   6.760   3.274   0.637
  434SOL    HW2 2202   6.774   3.434   0.665
  435SOL     OW 2203   3.647   3.232   0.632
  435SOL    HW1 2204   3.728   3.175   0.618
  435SOL    HW2 2205   3.565   3.177   0.615
  436SOL     OW 2206   2.481   1.440   1.106
  436SOL    HW1 2207   2.399   1.496   1.113
  436SOL    HW2 2208   2.560   1.499   1.086
  437SOL     OW 2209   6.313   6.641   6.185
  437SOL    HW1 2210   6.400   6.671   6.225
  437SOL    HW2 2211   6.238   6.668   6.245
  438SOL     OW 2212   0.873   3.552   1.110
  438SOL    HW1 2213   0.861   3.546   1.011
  438SOL    HW2 2214   0.886   3.460   1.147
  439SOL     OW 2215   6.003   4.897   1.710
  439SOL    HW1 2216   5.993   4.860   1.618
  439SOL    HW2 2217   5.955   4.984   1.717
  440SOL     OW 2218   1.280   3.087   2.704
  440SOL    HW1 2219   1.323   3.163   2.655
  440SOL    HW2 2220   1.307   3.090   2.800
  441SOL     OW 2221   6.961   1.507   2.931
  441SOL    HW1 2222   0.007   1.576   2.893
  441SOL    HW2 2223   6.948   1.525   3.028
  442SOL     OW 2224   1.340   4.973   6.530
  442SOL    HW1 2225   1.395   5.055   6.545
  442SOL    HW2 2226   1.400   4.896   6.507
  443SOL     OW 2227   0.280   5.566   5.906
  443SOL    HW1 2228   0.242   5.616   5.983
  443SOL    HW2 2229   0.370   5.530   5.932
  444SOL     OW 2230   5.674   3.003   6.535
  444SOL    HW1 2231   5.680   2.935   6.461
  444SOL    HW2 2232   5.652   2.957   6.621
  445SOL     OW 2233   2.071   3.999   3.345
  445SOL    HW1 2234   1.992   3.946   3.377
  445SOL    HW2 2235   2.129   3.941   3.288
  446SOL     OW 2236   1.592   5.160   4.740
  446SOL    HW1 2237   1.677   5.210   4.721
  446SOL    HW2 2238   1.610   5.086   4.804
  447SOL     OW 2239   0.877   5.937   0.487
  447SOL    HW1 2240   0.921   5.921   0.576
  447SOL    HW2 2241   0.824   6.022   0.490
  448SOL     OW 2242   4.463   0.671   5.223
  448SOL    HW1 2243   4.502   0.698   5.311
  448SOL    HW2 2244   4.463   0.750   5.162
  449SOL     OW 2245   6.122   0.596   4.600
  449SOL    HW1 2246   6.138   0.497   4.596
  449SOL    HW2 2247   6.152   0.631   4.688
  450SOL     OW 2248   6.950   5.974   2.914
  450SOL    HW1 2249   6.982   5.883   2.939
  450SOL    HW2 2250   6.998   6.005   2.833
  451SOL     OW 2251   5.775   3.555   4.060
  451SOL    HW1 2252   5.737   3.497   4.132
  451SOL    HW2 2253   5.874   3.563   4.071
  452SOL     OW 2254   6.381   4.754   6.248
  452SOL    HW1 2255   6.284   4.759   6.225
  452SOL    HW2 2256   6.395   4.685   6.318
  453SOL     OW 2257   3.960   1.457   6.269
  453SOL    HW1 2258   4.013   1.416   6.196
  453SOL    HW2 2259   3.990   1.420   6.357
  454SOL     OW 2260   0.600   6.039   6.835
  454SOL    HW1 2261   0.520   6.092   6.807
  454SOL    HW2 2262   0.572   5.972   6.905
  455SOL     OW 2263   5.489   2.026   5.074
  455SOL    HW1 2264   5.451   2.108   5.117
  455SOL    HW2 2265   5.440   2.007   4.990
  456SOL     OW 2266   4.378   5.971   1.110
  456SOL    HW1 2267   4.422   5.882   1.118
  456SOL    HW2 2268   4.326   5.990   1.193
  457SOL     OW 2269   0.430   4.340   1.649
  457SOL    HW1 2270   0.462   4.284   1.573
  457SOL    HW2 2271   0.507   4.363   1.709
  458SOL     OW 2272   1.061   6.881   5.792
  458SOL    HW1 2273   1.135   6.827   5.749
  458SOL    HW2 2274   1.027   6.831   5.871
  459SOL     OW 2275   1.696   0.940   3.410
  459SOL    HW1 2276   1.687   0.878   3.487
  459SOL    HW2 2277   1.649   0.902   3.330
  460SOL     OW 2278   6.458   2.329   3.271
  460SOL    HW1 2279   6.477   2.368   3.361
  460SOL    HW2 2280   6.364   2.351   3.245
  461SOL     OW 2281   5.049   4.790   6.159
  461SOL    HW1 2282   5.007   4.736   6.086
  461SOL    HW2 2283   5.128   4.741   6.195
  462SOL     OW 2284   3.539   2.646   0.414
  462SOL    HW1 2285   3.565   2.568   0.355
  462SOL    HW2 2286   3.501   2.719   0.358
  463SOL     OW 2287   6.361   6.149   1.251
  463SOL    HW1 2288   6.302   6.071   1.274
  463SOL    HW2 2289   6.440   6.116   1.200
  464SOL     OW 2290   1.858   2.156   5.674
  464SOL    HW1 2291   1.899   2.159   5.583
  464SOL    HW2 2292   1.862   2.247   5.715
  465SOL     OW 2293   0.692   3.416   6.003
  465SOL    HW1 2294   0.746   3.495   5.976
  465SOL    HW2 2295   0.647   3.376   5.923
  466SOL     OW 2296   1.455   0.618   3.216
  466SOL    HW1 2297   1.498   0.554   3.279
  466SOL    HW2 2298   1.366   0.583   3.187
  467SOL     OW 2299   1.653   1.408   4.988
  467SOL    HW1 2300   1.747   1.400   4.955
  467SOL    HW2 2301   1.650   1.475   5.062
  468SOL     OW 2302   3.379   3.798   3.575
  468SOL    HW1 2303   3.403   3.722   3.635
  468SOL    HW2 2304   3.295   3.777   3.526
  469SOL     OW 2305   3.706   0.384   6.641
  469SOL    HW1 2306   3.618   0.432   6.644
  469SOL    HW2 2307   3.777   0.442   6.682
  470SOL     OW 2308   4.290   6.839   2.963
  470SOL    HW1 2309   4.370   6.779   2.957
  470SOL    HW2 2310   4.292   6.891   3.048
  471SOL     OW 2311   2.726   2.294   3.728
  471SOL    HW1 2312   2.693   2.276   3.821
  471SOL    HW2 2313   2.815   2.252   3.716
  472SOL     OW 2314   3.606   4.359   5.208
  472SOL    HW1 2315   3.686   4.308   5.241
  472SOL    HW2 2316   3.575   4.320   5.122
  473SOL     OW 2317   0.122   4.656   4.101
  473SOL    HW1 2318   0.215   4.622   4.088
  473SOL    HW2 2319   0.106   4.674   4.198
  474SOL     OW 2320   5.259   5.029   5.204
  474SOL    HW1 2321   5.203   5.086   5.144
  474SOL    HW2 2322   5.351   5.068   5.212
  475SOL     OW 2323   2.541   6.967   0.452
  475SOL    HW1 2324   2.508   0.029   0.398
  475SOL    HW2 2325   2.523   6.983   0.549
  476SOL     OW 2326   6.778   5.715   2.983
  476SOL    HW1 2327   6.689   5.759   2.981
  476SOL    HW2 2328   6.800   5.679   2.892
  477SOL     OW 2329   1.741   4.946   3.835
  477SOL    HW1 2330   1.766   4.916   3.927
  477SOL    HW2 2331   1.668   4.887   3.800
  478SOL     OW 2332   1.493   5.023   3.596
  478SOL    HW1 2333   1.542   5.088   3.654
  478SOL    HW2 2334   1.494   4.933   3.639
  479SOL     OW 2335   4.333   1.821   2.196
  479SOL    HW1 2336   4.311   1.892   2.129
  479SOL    HW2 2337   4.258   1.755   2.202
  480SOL     OW 2338   1.532   6.316   3.873
  480SOL    HW1 2339   1.478   6.278   3.948
  480SOL    HW2 2340   1.628   6.316   3.898
  481SOL     OW 2341   2.043   0.380   1.015
  481SOL    HW1 2342   2.068   0.404   0.921
  481SOL    HW2 2343   2.118   0.403   1.076
  482SOL     OW 2344   5.603   5.831   0.739
  482SOL    HW1 2345   5.658   5.772   0.680
  482SOL    HW2 2346   5.564   5.778   0.813
  483SOL     OW 2347   5.219   1.405   3.448
  483SOL    HW1 2348   5.201   1.307   3.450
  483SOL    HW2 2349   5.135   1.454   3.423
  484SOL     OW 2350   6.190   1.768   3.551
  484SOL    HW1 2351   6.276   1.804   3.588
  484SOL    HW2 2352   6.115   1.792   3.612
  485SOL     OW 2353   2.773   6.181   0.491
  485SOL    HW1 2354   2.809   6.094   0.525
  485SOL    HW2 2355   2.849   6.239   0.461
  486SOL     OW 2356   6.545   0.644   5.684
  486SOL    HW1 2357   6.580   0.713   5.620
  486SOL    HW2 2358   6.475   0.589   5.638
  487SOL     OW 2359   6.584   2.202   6.864
  487SOL    HW1 2360   6.580   2.234   6.958
  487SOL    HW2 2361   6.491   2.194   6.827
  488SOL     OW 2362   1.106   4.849   3.537
  488SOL    HW1 2363   1.050   4.771   3.508
  488SOL    HW2 2364   1.055   4.934   3.522
  489SOL     OW 2365   3.740   5.044   6.136
  489SOL    HW1 2366   3.702   5.020   6.225
  489SOL    HW2 2367   3.742   5.143   6.126
  490SOL     OW 2368   5.036   0.907   4.509
  490SOL    HW1 2369   5.012   0.955   4.593
  490SOL    HW2 2370   4.955   0.861   4.472
  491SOL     OW 2371   0.485   3.378   3.579
  491SOL    HW1 2372   0.414   3.313   3.551
  491SOL    HW2 2373   0.483   3.389   3.678
  492SOL     OW 2374   1.449   1.472   4.548
  492SOL    HW1 2375   1.527   1.414   4.522
  492SOL    HW2 2376   1.463   1.564   4.513
  493SOL     OW 2377   5.683   3.895   4.892
  493SOL    HW1 2378   5.782   3.885   4.886
  493SOL    HW2 2379   5.660   3.989   4.915
  494SOL     OW 2380   5.633   0.776   6.520
  494SOL    HW1 2381   5.622   0.824   6.608
  494SOL    HW2 2382   5.722   0.731   6.518
  495SOL     OW 2383   5.776   4.481   0.039
  495SOL    HW1 2384   5.823   4.496   6.968
  495SOL    HW2 2385   5.753   4.569   0.081
  496SOL     OW 2386   6.172   3.540   2.872
  496SOL    HW1 2387   6.125   3.579   2.952
  496SOL    HW2 2388   6.151   3.595   2.791
  497SOL     OW 2389   4.338   0.150   4.269
  497SOL    HW1 2390   4.401   0.088   4.223
  497SOL    HW2 2391   4.244   0.130   4.241
  498SOL     OW 2392   1.668   3.389   1.363
  498SOL    HW1 2393   1.587   3.407   1.307
  498SOL    HW2 2394   1.751   3.406   1.308
  499SOL     OW 2395   3.603   1.723   5.199
  499SOL    HW1 2396   3.683   1.770   5.162
  499SOL    HW2 2397   3.521   1.753   5.150
  500SOL     OW 2398   1.080   4.624   2.851
  500SOL    HW1 2399   1.064   4.693   2.781
  500SOL    HW2 2400   0.999   4.566   2.860
  501SOL     OW 2401   1.070   4.753   6.279
  501SOL    HW1 2402   1.010   4.702   6.218
  501SOL    HW2 2403   1.136   4.690   6.320
  502SOL     OW 2404   2.483   4.816   5.844
  502SOL    HW1 2405   2.463   4.831   5.940
  502SOL    HW2 2406   2.517   4.901   5.803
  503SOL     OW 2407   6.797   5.187   4.563
  503SOL    HW1 2408   6.735   5.114   4.591
  503SOL    HW2 2409   6.799   5.258   4.634
  504SOL     OW 2410   1.504   5.005   4.423
  504SOL    HW1 2411   1.579   4.958   4.468
  504SOL    HW2 2412   1.503   4.981   4.326
  505SOL     OW 2413   3.611   6.429   4.509
  505SOL    HW1 2414   3.548   6.484   4.454
  505SOL    HW2 2415   3.594   6.332   4.492
  506SOL     OW 2416   2.171   3.312   0.525
  506SOL    HW1 2417   2.090   3.254   0.514
  506SOL    HW2 2418   2.156   3.377   0.599
  507SOL     OW 2419   4.153   1.913   4.169
  507SOL    HW1 2420   4.162   1.982   4.241
  507SOL    HW2 2421   4.228   1.848   4.176
  508SOL     OW 2422   5.688   5.348   4.486
  508SOL    HW1 2423   5.743   5.411   4.540
  508SOL    HW2 2424   5.615   5.399   4.440
  509SOL     OW 2425   4.745   3.235   1.703
  509SOL    HW1 2426   4.722   3.166   1.772
  509SOL    HW2 2427   4.739   3.194   1.612
  510SOL     OW 2428   0.805   3.731   4.317
  510SOL    HW1 2429   0.837   3.825   4.333
  510SOL    HW2 2430   0.857   3.691   4.241
  511SOL     OW 2431   0.356   6.014   1.511
  511SOL    HW1 2432   0.323   6.068   1.434
  511SOL    HW2 2433   0.445   6.049   1.541
  512SOL     OW 2434   2.002   3.983   5.734
  512SOL    HW1 2435   2.028   3.914   5.666
  512SOL    HW2 2436   1.944   4.052   5.691
  513SOL     OW 2437   0.482   5.405   4.544
  513SOL    HW1 2438   0.431   5.428   4.461
  513SOL    HW2 2439   0.455   5.313   4.575
  514SOL     OW 2440   5.265   1.672   3.618
  514SOL    HW1 2441   5.183   1.728   3.611
  514SOL    HW2 2442   5.320   1.682   3.535
  515SOL     OW 2443   3.034   6.075   0.132
  515SOL    HW1 2444   3.026   6.035   0.041
  515SOL    HW2 2445   3.087   6.014   0.190
  516SOL     OW 2446   1.810   4.960   3.502
  516SOL    HW1 2447   1.789   4.873   3.546
  516SOL    HW2 2448   1.728   5.018   3.502
  517SOL     OW 2449   4.793   0.348   5.852
  517SOL    HW1 2450   4.876   0.339   5.797
  517SOL    HW2 2451   4.724   0.284   5.818
  518SOL     OW 2452   2.205   1.442   6.817
  518SOL    HW1 2453   2.177   1.511   6.750
  518SOL    HW2 2454   2.209   1.484   6.908
  519SOL     OW 2455   0.827   6.861   0.228
  519SOL    HW1 2456   0.729   6.838   0.228
  519SOL    HW2 2457   0.839   6.956   0.198
  520SOL     OW 2458   6.162   4.262   5.136
  520SOL    HW1 2459   6.182   4.170   5.170
  520SOL    HW2 2460   6.090   4.257   5.066
  521SOL     OW 2461   6.536   0.840   0.244
  521SOL    HW1 2462   6.495   0.792   0.166
  521SOL    HW2 2463   6.511   0.937   0.241
  522SOL     OW 2464   3.215   4.293   5.472
  522SOL    HW1 2465   3.131   4.299   5.419
  522SOL    HW2 2466   3.194   4.266   5.566
  523SOL     OW 2467   6.480   7.015   3.269
  523SOL    HW1 2468   6.529   0.061   3.207
  523SOL    HW2 2469   6.528   6.928   3.273
  524SOL     OW 2470   4.214   0.614   4.545
  524SOL    HW1 2471   4.265   0.577   4.622
  524SOL    HW2 2472   4.252   0.580   4.459
  525SOL     OW 2473   3.718   2.949   6.769
  525SOL    HW1 2474   3.746   2.961   6.865
  525SOL    HW2 2475   3.634   3.000   6.752
  526SOL     OW 2476   4.342   0.019   4.525
  526SOL    HW1 2477   4.290   0.056   4.602
  526SOL    HW2 2478   4.327   0.077   4.445
  527SOL     OW 2479   1.028   1.367   0.197
  527SOL    HW1 2480   1.021   1.272   0.228
  527SOL    HW2 2481   1.007   1.428   0.273
  528SOL     OW 2482   1.423   1.908   6.536
  528SOL    HW1 2483   1.413   2.006   6.552
  528SOL    HW2 2484   1.498   1.872   6.592
  529SOL     OW 2485   0.075   5.070   4.619
  529SOL    HW1 2486   0.018   4.987   4.620
  529SOL    HW2 2487   0.028   5.143   4.668
  530SOL     OW 2488   0.011   3.077   5.436
  530SOL    HW1 2489   6.931   3.093   5.460
  530SOL    HW2 2490   0.020   3.069   5.337
  531SOL     OW 2491   0.152   6.853   0.184
  531SOL    HW1 2492   0.111   6.773   0.140
  531SOL    HW2 2493   0.222   6.891   0.124
  532SOL     OW 2494   2.040   1.310   5.681
  532SOL    HW1 2495   2.123   1.358   5.709
  532SOL    HW2 2496   2.024   1.234   5.744
  533SOL     OW 2497   4.627   0.574   5.510
  533SOL    HW1 2498   4.600   0.630   5.589
  533SOL    HW2 2499   4.700   0.512   5.538
  534SOL     OW 2500   2.652   5.918   3.619
  534SOL    HW1 2501   2.709   5.992   3.584
  534SOL    HW2 2502   2.699   5.831   3.605
  535SOL     OW 2503   6.898   3.881   2.451
  535SOL    HW1 2504   6.886   3.862   2.548
  535SOL    HW2 2505   6.858   3.807   2.397
  536SOL     OW 2506   1.872   6.148   1.108
  536SOL    HW1 2507   1.871   6.099   1.021
  536SOL    HW2 2508   1.963   6.185   1.125
  537SOL     OW 2509   2.586   0.187   3.001
  537SOL    HW1 2510   2.600   0.099   2.955
  537SOL    HW2 2511   2.661   0.249   2.978
  538SOL     OW 2512   1.444   5.384   4.196
  538SOL    HW1 2513   1.487   5.345   4.114
  538SOL    HW2 2514   1.395   5.467   4.172
  539SOL     OW 2515   1.475   5.177   1.473
  539SOL    HW1 2516   1.574   5.187   1.466
  539SOL    HW2 2517   1.432   5.209   1.388
  540SOL     OW 2518   3.174   2.471   0.855
  540SOL    HW1 2519   3.265   2.446   0.889
  540SOL    HW2 2520   3.105   2.424   0.910
  541SOL     OW 2521   5.081   6.048   5.127
  541SOL    HW1 2522   5.024   6.026   5.048
  541SOL    HW2 2523   5.085   6.147   5.139
  542SOL     OW 2524   6.008   0.149   6.084
  542SOL    HW1 2525   5.972   0.230   6.128
  542SOL    HW2 2526   6.052   0.175   5.998
  543SOL     OW 2527   6.555   0.218   2.384
  543SOL    HW1 2528   6.530   0.315   2.375
  543SOL    HW2 2529   6.488   0.162   2.335
  544SOL     OW 2530   0.683   5.499   0.788
  544SOL    HW1 2531   0.768   5.495   0.735
  544SOL    HW2 2532   0.672   5.590   0.826
  545SOL     OW 2533   2.919   1.792   4.029
  545SOL    HW1 2534   2.902   1.858   3.956
  545SOL    HW2 2535   2.886   1.828   4.116
  546SOL     OW 2536   1.397   2.533   6.369
  546SOL    HW1 2537   1.370   2.541   6.465
  546SOL    HW2 2538   1.474   2.469   6.362
  547SOL     OW 2539   3.294   1.874   0.737
  547SOL    HW1 2540   3.393   1.887   0.741
  547SOL    HW2 2541   3.267   1.804   0.803
  548SOL     OW 2542   3.277   3.672   6.038
  548SOL    HW1 2543   3.207   3.608   6.004
  548SOL    HW2 2544   3.356   3.620   6.071
  549SOL     OW 2545   0.119   4.447   1.257
  549SOL    HW1 2546   0.046   4.388   1.293
  549SOL    HW2 2547   0.081   4.506   1.185
  550SOL     OW 2548   6.769   4.113   1.040
  550SOL    HW1 2549   6.762   4.029   0.986
  550SOL    HW2 2550   6.855   4.160   1.018
  551SOL     OW 2551   0.487   0.106   0.485
  551SOL    HW1 2552   0.487   0.188   0.427
  551SOL    HW2 2553   0.556   0.117   0.557
  552SOL     OW 2554   4.383   5.240   0.531
  552SOL    HW1 2555   4.480   5.248   0.510
  552SOL    HW2 2556   4.354   5.315   0.590
  553SOL     OW 2557   1.152   2.100   1.253
  553SOL    HW1 2558   1.176   2.180   1.199
  553SOL    HW2 2559   1.093   2.127   1.329
  554SOL     OW 2560   4.370   5.405   4.827
  554SOL    HW1 2561   4.323   5.429   4.913
  554SOL    HW2 2562   4.356   5.308   4.808
  555SOL     OW 2563   1.865   4.178   5.606
  555SOL    HW1 2564   1.853   4.199   5.509
  555SOL    HW2 2565   1.886   4.261   5.656
  556SOL     OW 2566   6.267   3.815   3.076
  556SOL    HW1 2567   6.202   3.809   3.001
  556SOL    HW2 2568   6.221   3.790   3.162
  557SOL     OW 2569   6.360   5.201   5.839
  557SOL    HW1 2570   6.440   5.144   5.859
  557SOL    HW2 2571   6.383   5.297   5.850
  558SOL     OW 2572   3.776   3.889   5.537
  558SOL    HW1 2573   3.793   3.875   5.634
  558SOL    HW2 2574   3.690   3.844   5.511
  559SOL     OW 2575   5.106   5.042   6.588
  559SOL    HW1 2576   5.101   5.115   6.657
  559SOL    HW2 2577   5.018   4.995   6.582
  560SOL     OW 2578   4.762   6.788   0.815
  560SOL    HW1 2579   4.697   6.748   0.750
  560SOL    HW2 2580   4.836   6.833   0.766
  561SOL     OW 2581   4.652   6.768   2.766
  561SOL    HW1 2582   4.610   6.720   2.843
  561SOL    HW2 2583   4.682   6.859   2.796
  562SOL     OW 2584   5.646   0.344   1.473
  562SOL    HW1 2585   5.673   0.301   1.386
  562SOL    HW2 2586   5.685   0.435   1.478
  563SOL     OW 2587   2.897   0.447   5.019
  563SOL    HW1 2588   2.808   0.433   4.976
  563SOL    HW2 2589   2.967   0.459   4.949
  564SOL     OW 2590   0.496   1.297   5.115
  564SOL    HW1 2591   0.535   1.226   5.057
  564SOL    HW2 2592   0.537   1.291   5.206
  565SOL     OW 2593   4.106   3.284   5.601
  565SOL    HW1 2594   4.162   3.219   5.654
  565SOL    HW2 2595   4.163   3.357   5.565
  566SOL     OW 2596   6.744   4.503   2.295
  566SOL    HW1 2597   6.769   4.407   2.282
  566SOL    HW2 2598   6.789   4.559   2.225
  567SOL     OW 2599   4.144   3.470   6.272
  567SOL    HW1 2600   4.061   3.526   6.278
  567SOL    HW2 2601   4.215   3.521   6.224
  568SOL     OW 2602   2.688   1.011   6.293
  568SOL    HW1 2603   2.681   1.064   6.378
  568SOL    HW2 2604   2.596   0.986   6.263
  569SOL     OW 2605   2.131   4.197   6.537
  569SOL    HW1 2606   2.053   4.217   6.596
  569SOL    HW2 2607   2.184   4.122   6.577
  570SOL     OW 2608   0.544   5.056   6.700
  570SOL    HW1 2609   0.525   5.154   6.708
  570SOL    HW2 2610   0.476   5.014   6.640
  571SOL     OW 2611   4.702   6.041   2.574
  571SOL    HW1 2612   4.734   5.947   2.586
  571SOL    HW2 2613   4.779   6.104   2.581
  572SOL     OW 2614   1.969   4.357   3.882
  572SOL    HW1 2615   1.909   4.436   3.894
  572SOL    HW2 2616   2.050   4.368   3.940
  573SOL     OW 2617   4.301   2.391   6.849
  573SOL    HW1 2618   4.343   2.303   6.828
  573SOL    HW2 2619   4.357   2.440   6.916
  574SOL     OW 2620   2.940   2.218   3.377
  574SOL    HW1 2621   2.892   2.159   3.313
  574SOL    HW2 2622   3.039   2.207   3.366
  575SOL     OW 2623   4.686   2.424   5.578
  575SOL    HW1 2624   4.609   2.469   5.623
  575SOL    HW2 2625   4.661   2.330   5.557
  576SOL     OW 2626   0.393   3.712   3.546
  576SOL    HW1 2627   0.331   3.777   3.503
  576SOL    HW2 2628   0.393   3.627   3.494
  577SOL     OW 2629   3.921   1.853   3.380
  577SOL    HW1 2630   3.872   1.766   3.395
  577SOL    HW2 2631   3.857   1.921   3.346
  578SOL     OW 2632   6.580   3.231   4.767
  578SOL    HW1 2633   6.486   3.240   4.801
  578SOL    HW2 2634   6.643   3.227   4.845
  579SOL     OW 2635   4.308   3.424   0.836
  579SOL    HW1 2636   4.389   3.367   0.850
  579SOL    HW2 2637   4.233   3.366   0.803
  580SOL     OW 2638   0.096   0.039   6.933
  580SOL    HW1 2639   0.003   0.017   6.962
  580SOL    HW2 2640   0.094   0.077   6.840
  581SOL     OW 2641   3.846   3.167   3.321
  581SOL    HW1 2642   3.767   3.178   3.381
  581SOL    HW2 2643   3.828   3.093   3.256
  582SOL     OW 2644   0.091   3.824   0.439
  582SOL    HW1 2645   0.098   3.724   0.447
  582SOL    HW2 2646   0.024   3.858   0.506
  583SOL     OW 2647   2.944   6.863   6.944
  583SOL    HW1 2648   2.979   6.797   6.877
  583SOL    HW2 2649   2.854   6.833   6.977
  584SOL     OW 2650   1.887   5.281   4.648
  584SOL    HW1 2651   1.949   5.208   4.619
  584SOL    HW2 2652   1.910   5.309   4.741
  585SOL     OW 2653   5.359   1.974   5.514
  585SOL    HW1 2654   5.422   2.047   5.489
  585SOL    HW2 2655   5.319   1.935   5.430
  586SOL     OW 2656   3.541   5.290   1.155
  586SOL    HW1 2657   3.599   5.294   1.236
  586SOL    HW2 2658   3.548   5.200   1.113
  587SOL     OW 2659   2.620   3.021   6.477
  587SOL    HW1 2660   2.531   3.059   6.450
  587SOL    HW2 2661   2.693   3.071   6.431
  588SOL     OW 2662   2.151   0.302   1.803
  588SOL    HW1 2663   2.103   0.262   1.725
  588SOL    HW2 2664   2.191   0.229   1.858
  589SOL     OW 2665   4.728   5.307   2.286
  589SOL    HW1 2666   4.702   5.218   2.323
  589SOL    HW2 2667   4.766   5.294   2.194
  590SOL     OW 2668   0.623   4.350   1.888
  590SOL    HW1 2669   0.705   4.400   1.914
  590SOL    HW2 2670   0.555   4.358   1.961
  591SOL     OW 2671   2.366   0.267   2.847
  591SOL    HW1 2672   2.408   0.263   2.756
  591SOL    HW2 2673   2.436   0.252   2.916
  592SOL     OW 2674   4.977   0.047   6.764
  592SOL    HW1 2675   4.926   0.124   6.724
  592SOL    HW2 2676   5.017   0.076   6.851
  593SOL     OW 2677   0.385   0.840   4.447
  593SOL    HW1 2678   0.462   0.778   4.456
  593SOL    HW2 2679   0.303   0.799   4.487
  594SOL     OW 2680   5.207   2.285   1.232
  594SOL    HW1 2681   5.172   2.215   1.295
  594SOL    HW2 2682   5.146   2.364   1.234
  595SOL     OW 2683   2.769   6.751   3.794
  595SOL    HW1 2684   2.772   6.725   3.890
  595SOL    HW2 2685   2.854   6.724   3.749
  596SOL     OW 2686   0.691   4.863   2.933
  596SOL    HW1 2687   0.638   4.900   3.010
  596SOL    HW2 2688   0.774   4.820   2.967
  597SOL     OW 2689   4.596   2.231   5.378
  597SOL    HW1 2690   4.515   2.243   5.435
  597SOL    HW2 2691   4.614   2.133   5.365
  598SOL     OW 2692   3.941   3.817   1.689
  598SOL    HW1 2693   3.989   3.730   1.695
  598SOL    HW2 2694   3.891   3.834   1.775
  599SOL     OW 2695   5.775   5.584   3.492
  599SOL    HW1 2696   5.675   5.590   3.489
  599SOL    HW2 2697   5.804   5.548   3.581
  600SOL     OW 2698   3.172   1.989   0.519
  600SOL    HW1 2699   3.216   1.946   0.598
  600SOL    HW2 2700   3.232   2.061   0.483
  601SOL     OW 2701   1.526   4.898   1.802
  601SOL    HW1 2702   1.462   4.900   1.726
  601SOL    HW2 2703   1.537   4.804   1.834
  602SOL     OW 2704   0.384   1.108   2.721
  602SOL    HW1 2705   0.307   1.076   2.666
  602SOL    HW2 2706   0.355   1.181   2.782
  603SOL     OW 2707   4.315   1.785   3.002
  603SOL    HW1 2708   4.238   1.751   3.056
  603SOL    HW2 2709   4.289   1.789   2.906
  604SOL     OW 2710   1.866   2.927   5.854
  604SOL    HW1 2711   1.949   2.982   5.848
  604SOL    HW2 2712   1.793   2.981   5.897
  605SOL     OW 2713   5.095   0.077   4.365
  605SOL    HW1 2714   5.147   0.159   4.390
  605SOL    HW2 2715   5.106   0.060   4.267
  606SOL     OW 2716   2.195   6.828   2.118
  606SOL    HW1 2717   2.215   6.744   2.068
  606SOL    HW2 2718   2.130   6.809   2.191
  607SOL     OW 2719   3.840   6.671   4.393
  607SOL    HW1 2720   3.752   6.681   4.348
  607SOL    HW2 2721   3.848   6.578   4.431
  608SOL     OW 2722   6.638   2.882   1.053
  608SOL    HW1 2723   6.649   2.938   0.970
  608SOL    HW2 2724   6.571   2.925   1.113
  609SOL     OW 2725   3.438   4.204   5.027
  609SOL    HW1 2726   3.348   4.182   5.063
  609SOL    HW2 2727   3.433   4.213   4.927
  610SOL     OW 2728   6.934   2.101   5.275
  610SOL    HW1 2729   6.947   2.009   5.313
  610SOL    HW2 2730   0.005   2.149   5.273
  611SOL     OW 2731   6.673   0.131   0.481
  611SOL    HW1 2732   6.702   0.214   0.433
  611SOL    HW2 2733   6.588   0.149   0.530
  612SOL     OW 2734   1.697   4.375   6.436
  612SOL    HW1 2735   1.709   4.276   6.447
  612SOL    HW2 2736   1.673   4.415   6.525
  613SOL     OW 2737   3.944   1.555   6.740
  613SOL    HW1 2738   3.910   1.548   6.834
  613SOL    HW2 2739   3.869   1.579   6.679
  614SOL     OW 2740   5.150   2.642   0.619
  614SOL    HW1 2741   5.193   2.566   0.571
  614SOL    HW2 2742   5.149   2.723   0.560
  615SOL     OW 2743   5.973   5.502   0.936
  615SOL    HW1 2744   5.982   5.600   0.918
  615SOL    HW2 2745   6.054   5.454   0.902
  616SOL     OW 2746   5.229   1.215   4.755
  616SOL    HW1 2747   5.174   1.290   4.793
  616SOL    HW2 2748   5.296   1.251   4.691
  617SOL     OW 2749   6.401   0.193   5.157
  617SOL    HW1 2750   6.430   0.156   5.245
  617SOL    HW2 2751   6.332   0.264   5.172
  618SOL     OW 2752   5.321   4.487   1.011
  618SOL    HW1 2753   5.378   4.412   0.977
  618SOL    HW2 2754   5.232   4.452   1.040
  619SOL     OW 2755   1.312   0.097   0.271
  619SOL    HW1 2756   1.304   0.184   0.224
  619SOL    HW2 2757   1.220   0.065   0.297
  620SOL     OW 2758   4.763   2.009   1.469
  620SOL    HW1 2759   4.855   1.969   1.466
  620SOL    HW2 2760   4.698   1.945   1.429
  621SOL     OW 2761   1.867   6.407   6.288
  621SOL    HW1 2762   1.816   6.373   6.209
  621SOL    HW2 2763   1.822   6.377   6.372
  622SOL     OW 2764   0.650   2.875   5.764
  622SOL    HW1 2765   0.628   2.951   5.826
  622SOL    HW2 2766   0.749   2.871   5.750
  623SOL     OW 2767   6.419   1.261   2.689
  623SOL    HW1 2768   6.387   1.169   2.711
  623SOL    HW2 2769   6.439   1.311   2.773
  624SOL     OW 2770   5.922   0.434   5.854
  624SOL    HW1 2771   5.902   0.361   5.789
  624SOL    HW2 2772   5.868   0.420   5.937
  625SOL     OW 2773   3.270   0.960   1.170
  625SOL    HW1 2774   3.185   0.909   1.186
  625SOL    HW2 2775   3.267   1.045   1.224
  626SOL     OW 2776   6.943   0.129   4.012
  626SOL    HW1 2777   0.025   0.127   3.997
  626SOL    HW2 2778   6.905   0.214   3.977
  627SOL     OW 2779   6.229   4.003   5.854
  627SOL    HW1 2780   6.285   4.063   5.797
  627SOL    HW2 2781   6.133   4.014   5.830
  628SOL     OW 2782   3.595   4.630   6.928
  628SOL    HW1 2783   3.592   4.602   6.832
  628SOL    HW2 2784   3.520   4.694   6.946
  629SOL     OW 2785   2.173   6.891   6.980
  629SOL    HW1 2786   2.107   6.893   6.905
  629SOL    HW2 2787   2.228   6.975   6.979
  630SOL     OW 2788   6.529   2.191   0.554
  630SOL    HW1 2789   6.622   2.208   0.587
  630SOL    HW2 2790   6.485   2.279   0.533
  631SOL     OW 2791   1.840   3.838   2.086
  631SOL    HW1 2792   1.847   3.860   2.184
  631SOL    HW2 2793   1.931   3.822   2.049
  632SOL     OW 2794   3.786   4.827   1.075
  632SOL    HW1 2795   3.850   4.751   1.059
  632SOL    HW2 2796   3.772   4.838   1.174
  633SOL     OW 2797   1.661   6.061   6.641
  633SOL    HW1 2798   1.719   6.037   6.719
  633SOL    HW2 2799   1.571   6.019   6.653
  634SOL     OW 2800   2.155   3.714   5.337
  634SOL    HW1 2801   2.190   3.800   5.374
  634SOL    HW2 2802   2.232   3.659   5.303
  635SOL     OW 2803   0.417   5.797   6.589
  635SOL    HW1 2804   0.353   5.872   6.607
  635SOL    HW2 2805   0.511   5.831   6.601
  636SOL     OW 2806   1.378   2.120   4.925
  636SOL    HW1 2807   1.367   2.198   4.986
  636SOL    HW2 2808   1.458   2.134   4.868
  637SOL     OW 2809   6.209   1.345   1.634
  637SOL    HW1 2810   6.258   1.269   1.676
  637SOL    HW2 2811   6.111   1.327   1.635
  638SOL     OW 2812   0.302   3.729   5.634
  638SOL    HW1 2813   0.314   3.759   5.729
  638SOL    HW2 2814   0.228   3.780   5.592
  639SOL     OW 2815   5.868   3.606   0.952
  639SOL    HW1 2816   5.854   3.532   1.018
  639SOL    HW2 2817   5.813   3.589   0.870
  640SOL     OW 2818   6.344   4.086   2.478
  640SOL    HW1 2819   6.296   4.033   2.407
  640SOL    HW2 2820   6.374   4.024   2.551
  641SOL     OW 2821   2.397   5.824   4.430
  641SOL    HW1 2822   2.375   5.726   4.430
  641SOL    HW2 2823   2.480   5.841   4.377
  642SOL     OW 2824   0.970   5.447   4.294
  642SOL    HW1 2825   1.044   5.383   4.316
  642SOL    HW2 2826   0.911   5.459   4.373
  643SOL     OW 2827   3.804   4.848   0.108
  643SOL    HW1 2828   3.759   4.759   0.116
  643SOL    HW2 2829   3.868   4.860   0.183
  644SOL     OW 2830   5.582   0.645   4.712
  644SOL    HW1 2831   5.540   0.695   4.787
  644SOL    HW2 2832   5.678   0.626   4.733
  645SOL     OW 2833   3.946   5.991   2.461
  645SOL    HW1 2834   3.958   6.088   2.438
  645SOL    HW2 2835   3.984   5.974   2.552
  646SOL     OW 2836   3.394   0.754   5.441
  646SOL    HW1 2837   3.492   0.757   5.422
  646SOL    HW2 2838   3.346   0.713   5.364
  647SOL     OW 2839   1.843   2.125   6.723
  647SOL    HW1 2840   1.845   2.222   6.747
  647SOL    HW2 2841   1.782   2.076   6.785
  648SOL     OW 2842   5.082   2.418   3.863
  648SOL    HW1 2843   5.178   2.413   3.836
  648SOL    HW2 2844   5.074   2.419   3.962
  649SOL     OW 2845   3.784   6.341   1.117
  649SOL    HW1 2846   3.843   6.260   1.116
  649SOL    HW2 2847   3.841   6.423   1.109
  650SOL     OW 2848   2.253   3.623   1.642
  650SOL    HW1 2849   2.232   3.712   1.682
  650SOL    HW2 2850   2.300   3.567   1.711
  651SOL     OW 2851   0.029   1.595   3.292
  651SOL    HW1 2852   0.118   1.641   3.291
  651SOL    HW2 2853   0.041   1.500   3.264
  652SOL     OW 2854   3.926   6.319   0.706
  652SOL    HW1 2855   3.992   6.246   0.687
  652SOL    HW2 2856   3.851   6.283   0.760
  653SOL     OW 2857   1.663   0.389   3.009
  653SOL    HW1 2858   1.644   0.321   3.080
  653SOL    HW2 2859   1.747   0.439   3.032
  654SOL     OW 2860   1.490   0.247   6.059
  654SOL    HW1 2861   1.453   0.250   6.152
  654SOL    HW2 2862   1.432   0.190   6.002
  655SOL     OW 2863   1.422   4.051   1.890
  655SOL    HW1 2864   1.521   4.053   1.875
  655SOL    HW2 2865   1.397   3.965   1.934
  656SOL     OW 2866   2.410   0.680   6.819
  656SOL    HW1 2867   2.311   0.674   6.822
  656SOL    HW2 2868   2.437   0.734   6.739
  657SOL     OW 2869   3.282   3.403   4.310
  657SOL    HW1 2870   3.294   3.427   4.214
  657SOL    HW2 2871   3.190   3.366   4.324
  658SOL     OW 2872   2.559   0.118   5.196
  658SOL    HW1 2873   2.571   0.086   5.102
  658SOL    HW2 2874   2.615   0.062   5.257
  659SOL     OW 2875   1.620   4.445   6.688
  659SOL    HW1 2876   1.538   4.501   6.699
  659SOL    HW2 2877   1.642   4.400   6.774
  660SOL     OW 2878   5.803   3.314   2.494
  660SOL    HW1 2879   5.773   3.311   2.590
  660SOL    HW2 2880   5.812   3.221   2.458
  661SOL     OW 2881   4.631   5.403   3.928
  661SOL    HW1 2882   4.550   5.452   3.960
  661SOL    HW2 2883   4.671   5.353   4.004
  662SOL     OW 2884   0.197   3.065   0.205
  662SOL    HW1 2885   0.251   2.982   0.190
  662SOL    HW2 2886   0.172   3.105   0.116
  663SOL     OW 2887   1.743   4.332   5.982
  663SOL    HW1 2888   1.691   4.321   6.067
  663SOL    HW2 2889   1.694   4.394   5.921
  664SOL     OW 2890   2.262   0.070   5.772
  664SOL    HW1 2891   2.355   0.053   5.741
  664SOL    HW2 2892   2.243   0.013   5.852
  665SOL     OW 2893   2.414   4.438   3.683
  665SOL    HW1 2894   2.505   4.452   3.646
  665SOL    HW2 2895   2.351   4.507   3.646
  666SOL     OW 2896   2.988   0.422   0.201
  666SOL    HW1 2897   3.065   0.416   0.137
  666SOL    HW2 2898   2.921   0.488   0.167
  667SOL     OW 2899   2.151   3.161   2.293
  667SOL    HW1 2900   2.245   3.158   2.259
  667SOL    HW2 2901   2.151   3.143   2.391
  668SOL     OW 2902   5.087   0.071   0.427
  668SOL    HW1 2903   5.060   6.992   0.410
  668SOL    HW2 2904   5.138   0.076   0.513
  669SOL     OW 2905   6.385   5.712   2.211
  669SOL    HW1 2906   6.462   5.669   2.165
  669SOL    HW2 2907   6.303   5.703   2.154
  670SOL     OW 2908   3.431   4.126   3.394
  670SOL    HW1 2909   3.343   4.118   3.347
  670SOL    HW2 2910   3.419   4.113   3.492
  671SOL     OW 2911   1.295   0.407   6.946
  671SOL    HW1 2912   1.331   0.365   0.013
  671SOL    HW2 2913   1.367   0.462   6.903
  672SOL     OW 2914   0.579   2.446   2.672
  672SOL    HW1 2915   0.616   2.537   2.656
  672SOL    HW2 2916   0.654   2.380   2.678
  673SOL     OW 2917   4.811   0.752   6.389
  673SOL    HW1 2918   4.813   0.653   6.379
  673SOL    HW2 2919   4.878   0.780   6.458
  674SOL     OW 2920   6.612   2.788   4.234
  674SOL    HW1 2921   6.608   2.870   4.177
  674SOL    HW2 2922   6.626   2.815   4.330
  675SOL     OW 2923   5.998   6.936   3.716
  675SOL    HW1 2924   6.083   6.919   3.665
  675SOL    HW2 2925   5.920   6.922   3.656
  676SOL     OW 2926   3.354   4.745   5.275
  676SOL    HW1 2927   3.257   4.737   5.254
  676SOL    HW2 2928   3.385   4.662   5.322
  677SOL     OW 2929   5.015   6.574   0.679
  677SOL    HW1 2930   5.097   6.631   0.670
  677SOL    HW2 2931   4.955   6.610   0.750
  678SOL     OW 2932   2.227   0.253   6.403
  678SOL    HW1 2933   2.138   0.253   6.357
  678SOL    HW2 2934   2.300   0.252   6.335
  679SOL     OW 2935   0.255   0.084   2.428
  679SOL    HW1 2936   0.292   7.014   2.464
  679SOL    HW2 2937   0.163   0.068   2.391
  680SOL     OW 2938   6.164   3.269   3.787
  680SOL    HW1 2939   6.185   3.173   3.766
  680SOL    HW2 2940   6.193   3.326   3.711
  681SOL     OW 2941   0.726   5.461   3.436
  681SOL    HW1 2942   0.743   5.428   3.529
  681SOL    HW2 2943   0.809   5.450   3.381
  682SOL     OW 2944   0.564   6.961   5.491
  682SOL    HW1 2945   0.553   0.013   5.418
  682SOL    HW2 2946   0.632   6.995   5.556
  683SOL     OW 2947   5.056   1.483   1.294
  683SOL    HW1 2948   5.109   1.567   1.301
  683SOL    HW2 2949   4.959   1.503   1.313
  684SOL     OW 2950   6.797   5.604   6.392
  684SOL    HW1 2951   6.704   5.579   6.419
  684SOL    HW2 2952   6.793   5.674   6.321
  685SOL     OW 2953   6.075   0.306   4.780
  685SOL    HW1 2954   6.118   0.368   4.846
  685SOL    HW2 2955   5.994   0.264   4.821
  686SOL     OW 2956   5.601   4.272   0.779
  686SOL    HW1 2957   5.615   4.174   0.785
  686SOL    HW2 2958   5.622   4.314   0.867
  687SOL     OW 2959   5.247   2.969   6.771
  687SOL    HW1 2960   5.306   3.037   6.726
  687SOL    HW2 2961   5.212   3.007   6.857
  688SOL     OW 2962   0.159   2.725   4.938
  688SOL    HW1 2963   0.166   2.626   4.954
  688SOL    HW2 2964   0.118   2.769   5.019
  689SOL     OW 2965   5.527   4.861   4.290
  689SOL    HW1 2966   5.508   4.798   4.365
  689SOL    HW2 2967   5.469   4.942   4.298
  690SOL     OW 2968   0.038   2.444   4.195
  690SOL    HW1 2969   0.001   2.356   4.225
  690SOL    HW2 2970   7.014   2.469   4.107
  691SOL     OW 2971   1.332   3.083   6.467
  691SOL    HW1 2972   1.328   2.987   6.439
  691SOL    HW2 2973   1.415   3.125   6.431
  692SOL     OW 2974   2.340   0.380   4.064
  692SOL    HW1 2975   2.358   0.419   3.973
  692SOL    HW2 2976   2.248   0.406   4.093
  693SOL     OW 2977   5.870   1.177   3.346
  693SOL    HW1 2978   5.858   1.104   3.413
  693SOL    HW2 2979   5.846   1.264   3.387
  694SOL     OW 2980   1.204   0.350   2.589
  694SOL    HW1 2981   1.224   0.278   2.656
  694SOL    HW2 2982   1.275   0.350   2.519
  695SOL     OW 2983   4.400   5.758   6.496
  695SOL    HW1 2984   4.321   5.752   6.436
  695SOL    HW2 2985   4.389   5.695   6.573
  696SOL     OW 2986   5.699   5.832   2.623
  696SOL    HW1 2987   5.605   5.822   2.590
  696SOL    HW2 2988   5.763   5.823   2.547
  697SOL     OW 2989   1.324   4.393   3.194
  697SOL    HW1 2990   1.369   4.476   3.226
  697SOL    HW2 2991   1.380   4.348   3.125
  698SOL     OW 2992   4.905   6.825   3.981
  698SOL    HW1 2993   4.919   6.844   4.078
  698SOL    HW2 2994   4.807   6.831   3.960
  699SOL     OW 2995   2.047   5.809   6.286
  699SOL    HW1 2996   2.076   5.734   6.345
  699SOL    HW2 2997   1.947   5.810   6.281
  700SOL     OW 2998   1.435   2.351   5.125
  700SOL    HW1 2999   1.454   2.450   5.128
  700SOL    HW2 3000   1.433   2.315   5.218
  701SOL     OW 3001   0.892   4.956   6.406
  701SOL    HW1 3002   0.914   4.933   6.501
  701SOL    HW2 3003   0.960   4.916   6.345
  702SOL     OW 3004   5.624   6.245   5.790
  702SOL    HW1 3005   5.559   6.187   5.740
  702SOL    HW2 3006   5.715   6.236   5.748
  703SOL     OW 3007   6.228   3.609   6.106
  703SOL    HW1 3008   6.271   3.522   6.081
  703SOL    HW2 3009   6.131   3.594   6.125
  704SOL     OW 3010   2.263   0.093   1.955
  704SOL    HW1 3011   2.341   0.136   2.001
  704SOL    HW2 3012   2.200   0.057   2.023
  705SOL     OW 3013   1.363   1.847   4.643
  705SOL    HW1 3014   1.443   1.907   4.643
  705SOL    HW2 3015   1.377   1.772   4.708
  706SOL     OW 3016   5.888   3.538   3.275
  706SOL    HW1 3017   5.818   3.468   3.263
  706SOL    HW2 3018   5.967   3.499   3.323
  707SOL     OW 3019   4.972   3.215   2.983
  707SOL    HW1 3020   4.973   3.272   2.900
  707SOL    HW2 3021   4.926   3.265   3.057
  708SOL     OW 3022   5.175   0.972   1.807
  708SOL    HW1 3023   5.085   0.953   1.846
  708SOL    HW2 3024   5.186   1.070   1.794
  709SOL     OW 3025   1.624   3.696   6.393
  709SOL    HW1 3026   1.638   3.617   6.453
  709SOL    HW2 3027   1.548   3.751   6.427
  710SOL     OW 3028   3.350   3.308   3.920
  710SOL    HW1 3029   3.283   3.379   3.943
  710SOL    HW2 3030   3.305   3.235   3.869
  711SOL     OW 3031   1.490   1.159   3.836
  711SOL    HW1 3032   1.485   1.166   3.736
  711SOL    HW2 3033   1.412   1.206   3.876
  712SOL     OW 3034   0.159   5.060   3.877
  712SOL    HW1 3035   0.197   5.008   3.800
  712SOL    HW2 3036   0.218   5.047   3.957
  713SOL     OW 3037   2.418   3.930   5.618
  713SOL    HW1 3038   2.355   3.960   5.546
  713SOL    HW2 3039   2.512   3.932   5.583
  714SOL     OW 3040   4.984   4.856   4.525
  714SOL    HW1 3041   5.042   4.787   4.482
  714SOL    HW2 3042   4.891   4.851   4.487
  715SOL     OW 3043   6.571   0.481   5.925
  715SOL    HW1 3044   6.662   0.443   5.942
  715SOL    HW2 3045   6.575   0.540   5.844
  716SOL     OW 3046   6.437   5.604   6.956
  716SOL    HW1 3047   6.371   5.535   6.925
  716SOL    HW2 3048   6.398   5.695   6.944
  717SOL     OW 3049   6.065   2.921   5.801
  717SOL    HW1 3050   6.136   2.863   5.839
  717SOL    HW2 3051   5.977   2.875   5.808
  718SOL     OW 3052   3.453   3.316   0.841
  718SOL    HW1 3053   3.546   3.317   0.804
  718SOL    HW2 3054   3.389   3.349   0.771
  719SOL     OW 3055   6.767   4.286   0.111
  719SOL    HW1 3056   6.825   4.224   0.164
  719SOL    HW2 3057   6.818   4.368   0.086
  720SOL     OW 3058   4.024   0.746   5.682
  720SOL    HW1 3059   4.048   0.659   5.638
  720SOL    HW2 3060   4.056   0.822   5.625
  721SOL     OW 3061   1.805   0.501   4.929
  721SOL    HW1 3062   1.868   0.516   4.852
  721SOL    HW2 3063   1.731   0.569   4.924
  722SOL     OW 3064   4.638   1.637   5.271
  722SOL    HW1 3065   4.607   1.615   5.178
  722SOL    HW2 3066   4.705   1.711   5.267
  723SOL     OW 3067   0.294   4.021   1.915
  723SOL    HW1 3068   0.218   3.961   1.938
  723SOL    HW2 3069   0.339   3.989   1.832
  724SOL     OW 3070   0.420   2.642   4.371
  724SOL    HW1 3071   0.467   2.584   4.437
  724SOL    HW2 3072   0.439   2.738   4.391
  725SOL     OW 3073   2.420   5.296   2.118
  725SOL    HW1 3074   2.477   5.364   2.071
  725SOL    HW2 3075   2.359   5.252   2.052
  726SOL     OW 3076   5.190   6.118   6.964
  726SOL    HW1 3077   5.222   6.177   0.021
  726SOL    HW2 3078   5.177   6.025   6.998
  727SOL     OW 3079   1.206   4.744   4.582
  727SOL    HW1 3080   1.268   4.688   4.527
  727SOL    HW2 3081   1.258   4.817   4.626
  728SOL     OW 3082   6.662   2.127   6.451
  728SOL    HW1 3083   6.687   2.118   6.354
  728SOL    HW2 3084   6.562   2.122   6.460
  729SOL     OW 3085   3.977   1.343   0.655
  729SOL    HW1 3086   3.971   1.438   0.687
  729SOL    HW2 3087   3.917   1.332   0.575
  730SOL     OW 3088   5.967   1.268   3.853
  730SOL    HW1 3089   5.983   1.228   3.943
  730SOL    HW2 3090   5.881   1.232   3.815
  731SOL     OW 3091   0.517   2.061   3.299
  731SOL    HW1 3092   0.464   2.055   3.214
  731SOL    HW2 3093   0.591   2.128   3.287
  732SOL     OW 3094   0.298   4.331   3.935
  732SOL    HW1 3095   0.335   4.405   3.991
  732SOL    HW2 3096   0.207   4.356   3.902
  733SOL     OW 3097   5.282   4.583   4.757
  733SOL    HW1 3098   5.376   4.616   4.752
  733SOL    HW2 3099   5.281   4.488   4.787
  734SOL     OW 3100   0.888   0.033   0.028
  734SOL    HW1 3101   0.902   0.084   6.959
  734SOL    HW2 3102   0.969   6.992   0.046
  735SOL     OW 3103   3.185   4.583   0.160
  735SOL    HW1 3104   3.134   4.500   0.139
  735SOL    HW2 3105   3.273   4.559   0.201
  736SOL     OW 3106   5.753   1.597   2.294
  736SOL    HW1 3107   5.777   1.502   2.314
  736SOL    HW2 3108   5.653   1.605   2.290
  737SOL     OW 3109   5.180   3.761   0.125
  737SOL    HW1 3110   5.125   3.808   0.194
  737SOL    HW2 3111   5.136   3.772   0.036
  738SOL     OW 3112   6.688   3.489   4.216
  738SOL    HW1 3113   6.655   3.501   4.310
  738SOL    HW2 3114   6.772   3.541   4.203
  739SOL     OW 3115   4.681   5.808   6.410
  739SOL    HW1 3116   4.591   5.786   6.447
  739SOL    HW2 3117   4.739   5.845   6.483
  740SOL     OW 3118   5.604   6.929   0.358
  740SOL    HW1 3119   5.566   7.001   0.300
  740SOL    HW2 3120   5.704   6.938   0.362
  741SOL     OW 3121   1.564   0.432   3.368
  741SOL    HW1 3122   1.643   0.445   3.428
  741SOL    HW2 3123   1.570   0.344   3.322
  742SOL     OW 3124   1.077   6.012   2.332
  742SOL    HW1 3125   1.010   6.010   2.258
  742SOL    HW2 3126   1.103   5.918   2.356
  743SOL     OW 3127   1.390   3.275   2.541
  743SOL    HW1 3128   1.469   3.268   2.603
  743SOL    HW2 3129   1.417   3.243   2.450
  744SOL     OW 3130   6.834   5.240   0.978
  744SOL    HW1 3131   6.900   5.219   1.050
  744SOL    HW2 3132   6.860   5.191   0.895
  745SOL     OW 3133   1.137   6.779   1.925
  745SOL    HW1 3134   1.213   6.717   1.906
  745SOL    HW2 3135   1.135   6.852   1.856
  746SOL     OW 3136   2.951   0.085   3.072
  746SOL    HW1 3137   3.043   0.049   3.087
  746SOL    HW2 3138   2.904   0.028   3.004
  747SOL     OW 3139   0.375   3.913   0.507
  747SOL    HW1 3140   0.333   3.916   0.598
  747SOL    HW2 3141   0.317   3.859   0.446
  748SOL     OW 3142   3.176   3.741   3.390
  748SOL    HW1 3143   3.130   3.827   3.412
  748SOL    HW2 3144   3.108   3.674   3.358
  749SOL     OW 3145   5.124   3.113   5.714
  749SOL    HW1 3146   5.033   3.110   5.754
  749SOL    HW2 3147   5.127   3.057   5.632
  750SOL     OW 3148   2.792   3.217   1.871
  750SOL    HW1 3149   2.800   3.253   1.964
  750SOL    HW2 3150   2.821   3.287   1.806
  751SOL     OW 3151   5.738   1.311   0.373
  751SOL    HW1 3152   5.688   1.248   0.434
  751SOL    HW2 3153   5.823   1.268   0.344
  752SOL     OW 3154   4.278   0.744   2.360
  752SOL    HW1 3155   4.280   0.678   2.435
  752SOL    HW2 3156   4.189   0.790   2.358
  753SOL     OW 3157   3.299   1.807   1.960
  753SOL    HW1 3158   3.221   1.751   1.988
  753SOL    HW2 3159   3.372   1.748   1.927
  754SOL     OW 3160   5.116   5.232   6.825
  754SOL    HW1 3161   5.199   5.228   6.881
  754SOL    HW2 3162   5.113   5.318   6.774
  755SOL     OW 3163   5.849   4.882   2.208
  755SOL    HW1 3164   5.763   4.932   2.218
  755SOL    HW2 3165   5.830   4.785   2.192
  756SOL     OW 3166   2.524   6.871   4.589
  756SOL    HW1 3167   2.479   6.818   4.517
  756SOL    HW2 3168   2.528   6.967   4.562
  757SOL     OW 3169   6.864   0.796   4.066
  757SOL    HW1 3170   6.920   0.868   4.107
  757SOL    HW2 3171   6.779   0.786   4.117
  758SOL     OW 3172   4.081   1.965   0.430
  758SOL    HW1 3173   4.157   1.985   0.493
  758SOL    HW2 3174   4.110   1.984   0.336
  759SOL     OW 3175   2.253   0.471   1.170
  759SOL    HW1 3176   2.286   0.399   1.231
  759SOL    HW2 3177   2.328   0.502   1.111
  760SOL     OW 3178   4.662   1.411   5.840
  760SOL    HW1 3179   4.648   1.363   5.926
  760SOL    HW2 3180   4.695   1.346   5.771
  761SOL     OW 3181   5.034   0.552   6.667
  761SOL    HW1 3182   5.061   0.630   6.611
  761SOL    HW2 3183   5.051   0.467   6.616
  762SOL     OW 3184   2.349   4.496   4.680
  762SOL    HW1 3185   2.261   4.543   4.671
  762SOL    HW2 3186   2.334   4.404   4.716
  763SOL     OW 3187   0.607   4.355   0.945
  763SOL    HW1 3188   0.671   4.428   0.967
  763SOL    HW2 3189   0.517   4.393   0.926
  764SOL     OW 3190   5.975   1.240   2.540
  764SOL    HW1 3191   6.016   1.191   2.617
  764SOL    HW2 3192   6.045   1.295   2.494
  765SOL     OW 3193   1.211   6.442   2.972
  765SOL    HW1 3194   1.203   6.540   2.985
  765SOL    HW2 3195   1.190   6.418   2.878
  766SOL     OW 3196   0.484   5.845   7.011
  766SOL    HW1 3197   0.455   5.755   6.981
  766SOL    HW2 3198   0.427   5.874   0.073
  767SOL     OW 3199   5.736   6.224   1.218
  767SOL    HW1 3200   5.730   6.139   1.271
  767SOL    HW2 3201   5.754   6.301   1.279
  768SOL     OW 3202   2.820   6.195   4.748
  768SOL    HW1 3203   2.814   6.127   4.821
  768SOL    HW2 3204   2.739   6.188   4.689
  769SOL     OW 3205   3.373   0.525   0.348
  769SOL    HW1 3206   3.313   0.476   0.412
  769SOL    HW2 3207   3.440   0.578   0.400
  770SOL     OW 3208   3.922   5.394   5.042
  770SOL    HW1 3209   3.890   5.324   5.106
  770SOL    HW2 3210   3.844   5.443   5.003
  771SOL     OW 3211   0.368   6.828   4.554
  771SOL    HW1 3212   0.309   6.899   4.514
  771SOL    HW2 3213   0.425   6.788   4.483
  772SOL     OW 3214   0.777   3.277   6.314
  772SOL    HW1 3215   0.830   3.252   6.395
  772SOL    HW2 3216   0.703   3.339   6.341
  773SOL     OW 3217   0.065   3.294   1.968
  773SOL    HW1 3218   0.016   3.241   1.899
  773SOL    HW2 3219   0.053   3.251   2.057
  774SOL     OW 3220   1.406   1.807   1.958
  774SOL    HW1 3221   1.449   1.769   2.040
  774SOL    HW2 3222   1.469   1.801   1.881
  775SOL     OW 3223   1.825   2.552   4.143
  775SOL    HW1 3224   1.880   2.506   4.214
  775SOL    HW2 3225   1.742   2.589   4.185
  776SOL     OW 3226   2.271   1.344   4.881
  776SOL    HW1 3227   2.177   1.376   4.868
  776SOL    HW2 3228   2.271   1.267   4.945
  777SOL     OW 3229   4.329   0.564   6.904
  777SOL    HW1 3230   4.412   0.514   6.925
  777SOL    HW2 3231   4.347   0.631   6.831
  778SOL     OW 3232   5.008   5.835   5.302
  778SOL    HW1 3233   5.062   5.752   5.289
  778SOL    HW2 3234   5.052   5.911   5.254
  779SOL     OW 3235   0.373   0.206   2.181
  779SOL    HW1 3236   0.350   0.160   2.267
  779SOL    HW2 3237   0.294   0.259   2.150
  780SOL     OW 3238   5.944   2.343   5.135
  780SOL    HW1 3239   5.879   2.267   5.123
  780SOL    HW2 3240   5.899   2.417   5.185
  781SOL     OW 3241   1.148   4.086   0.245
  781SOL    HW1 3242   1.121   4.182   0.252
  781SOL    HW2 3243   1.232   4.080   0.191
  782SOL     OW 3244   0.215   5.164   0.524
  782SOL    HW1 3245   0.266   5.091   0.570
  782SOL    HW2 3246   0.276   5.242   0.509
  783SOL     OW 3247   1.335   5.680   1.083
  783SOL    HW1 3248   1.432   5.702   1.082
  783SOL    HW2 3249   1.322   5.587   1.119
  784SOL     OW 3250   5.024   5.294   3.115
  784SOL    HW1 3251   5.058   5.201   3.130
  784SOL    HW2 3252   5.058   5.354   3.187
  785SOL     OW 3253   6.272   2.685   3.308
  785SOL    HW1 3254   6.353   2.735   3.337
  785SOL    HW2 3255   6.276   2.668   3.210
  786SOL     OW 3256   6.167   6.705   1.283
  786SOL    HW1 3257   6.187   6.699   1.381
  786SOL    HW2 3258   6.246   6.670   1.232
  787SOL     OW 3259   4.445   1.036   5.983
  787SOL    HW1 3260   4.421   1.095   5.907
  787SOL    HW2 3261   4.388   0.953   5.981
  788SOL     OW 3262   6.369   4.762   3.235
  788SOL    HW1 3263   6.405   4.728   3.322
  788SOL    HW2 3264   6.286   4.711   3.211
  789SOL     OW 3265   6.135   2.853   0.292
  789SOL    HW1 3266   6.122   2.940   0.338
  789SOL    HW2 3267   6.188   2.792   0.350
  790SOL     OW 3268   2.685   0.454   4.264
  790SOL    HW1 3269   2.605   0.499   4.304
  790SOL    HW2 3270   2.677   0.355   4.277
  791SOL     OW 3271   3.412   1.219   3.798
  791SOL    HW1 3272   3.376   1.192   3.888
  791SOL    HW2 3273   3.486   1.284   3.810
  792SOL     OW 3274   5.125   0.806   3.884
  792SOL    HW1 3275   5.182   0.888   3.893
  792SOL    HW2 3276   5.084   0.804   3.793
  793SOL     OW 3277   0.469   6.756   6.588
  793SOL    HW1 3278   0.531   6.686   6.624
  793SOL    HW2 3279   0.399   6.713   6.531
  794SOL     OW 3280   3.577   5.175   4.844
  794SOL    HW1 3281   3.588   5.273   4.827
  794SOL    HW2 3282   3.662   5.137   4.879
  795SOL     OW 3283   5.017   5.507   6.799
  795SOL    HW1 3284   5.058   5.524   6.889
  795SOL    HW2 3285   4.952   5.580   6.778
  796SOL     OW 3286   1.305   2.006   6.155
  796SOL    HW1 3287   1.380   2.063   6.187
  796SOL    HW2 3288   1.317   1.986   6.058
  797SOL     OW 3289   6.152   3.120   5.651
  797SOL    HW1 3290   6.074   3.183   5.654
  797SOL    HW2 3291   6.131   3.038   5.705
  798SOL     OW 3292   6.147   0.484   4.301
  798SOL    HW1 3293   6.240   0.514   4.281
  798SOL    HW2 3294   6.147   0.428   4.384
  799SOL     OW 3295   6.637   4.029   3.941
  799SOL    HW1 3296   6.592   4.099   3.885
  799SOL    HW2 3297   6.713   3.990   3.890
  800SOL     OW 3298   0.370   2.595   2.177
  800SOL    HW1 3299   0.360   2.499   2.204
  800SOL    HW2 3300   0.316   2.653   2.238
  801SOL     OW 3301   0.209   3.952   3.428
  801SOL    HW1 3302   0.207   4.034   3.484
  801SOL    HW2 3303   0.115   3.929   3.400
  802SOL     OW 3304   6.403   0.788   0.647
  802SOL    HW1 3305   6.307   0.814   0.655
  802SOL    HW2 3306   6.461   0.869   0.660
  803SOL     OW 3307   2.402   6.539   4.639
  803SOL    HW1 3308   2.331   6.608   4.649
  803SOL    HW2 3309   2.482   6.565   4.692
  804SOL     OW 3310   5.725   5.667   0.568
  804SOL    HW1 3311   5.824   5.668   0.581
  804SOL    HW2 3312   5.687   5.584   0.610
  805SOL     OW 3313   2.378   2.639   6.146
  805SOL    HW1 3314   2.443   2.608   6.215
  805SOL    HW2 3315   2.287   2.649   6.188
  806SOL     OW 3316   4.020   6.636   0.164
  806SOL    HW1 3317   3.980   6.550   0.133
  806SOL    HW2 3318   3.964   6.673   0.239
  807SOL     OW 3319   6.680   0.889   3.167
  807SOL    HW1 3320   6.721   0.960   3.111
  807SOL    HW2 3321   6.750   0.823   3.195
  808SOL     OW 3322   5.481   3.483   5.177
  808SOL    HW1 3323   5.538   3.558   5.144
  808SOL    HW2 3324   5.531   3.431   5.246
  809SOL     OW 3325   0.076   5.673   5.388
  809SOL    HW1 3326   7.001   5.643   5.419
  809SOL    HW2 3327   0.127   5.708   5.466
  810SOL     OW 3328   5.799   4.797   6.127
  810SOL    HW1 3329   5.753   4.845   6.052
  810SOL    HW2 3330   5.745   4.718   6.154
  811SOL     OW 3331   2.611   4.755   2.364
  811SOL    HW1 3332   2.516   4.762   2.334
  811SOL    HW2 3333   2.672   4.781   2.289
  812SOL     OW 3334   6.917   0.525   2.970
  812SOL    HW1 3335   6.965   0.603   2.932
  812SOL    HW2 3336   6.955   0.440   2.932
  813SOL     OW 3337   4.973   4.722   1.800
  813SOL    HW1 3338   4.878   4.729   1.830
  813SOL    HW2 3339   4.999   4.626   1.792
  814SOL     OW 3340   5.359   4.977   1.720
  814SOL    HW1 3341   5.400   4.932   1.640
  814SOL    HW2 3342   5.304   4.910   1.770
  815SOL     OW 3343   0.966   1.288   1.217
  815SOL    HW1 3344   0.886   1.342   1.245
  815SOL    HW2 3345   0.952   1.192   1.241
  816SOL     OW 3346   6.088   0.521   1.390
  816SOL    HW1 3347   6.118   0.498   1.483
  816SOL    HW2 3348   6.074   0.619   1.383
  817SOL     OW 3349   0.475   2.238   2.445
  817SOL    HW1 3350   0.493   2.140   2.440
  817SOL    HW2 3351   0.507   2.273   2.533
  818SOL     OW 3352   5.548   1.597   3.163
  818SOL    HW1 3353   5.597   1.553   3.087
  818SOL    HW2 3354   5.460   1.631   3.130
  819SOL     OW 3355   0.395   5.038   2.857
  819SOL    HW1 3356   0.343   5.122   2.838
  819SOL    HW2 3357   0.493   5.057   2.846
  820SOL     OW 3358   2.518   3.329   5.896
  820SOL    HW1 3359   2.516   3.329   5.996
  820SOL    HW2 3360   2.428   3.303   5.861
  821SOL     OW 3361   1.048   4.246   0.512
  821SOL    HW1 3362   1.021   4.306   0.437
  821SOL    HW2 3363   1.148   4.241   0.515
  822SOL     OW 3364   0.661   3.220   5.432
  822SOL    HW1 3365   0.716   3.262   5.504
  822SOL    HW2 3366   0.718   3.161   5.376
  823SOL     OW 3367   4.420   4.199   1.374
  823SOL    HW1 3368   4.345   4.244   1.423
  823SOL    HW2 3369   4.501   4.258   1.376
  824SOL     OW 3370   6.538   3.796   6.659
  824SOL    HW1 3371   6.551   3.883   6.611
  824SOL    HW2 3372   6.626   3.760   6.688
  825SOL     OW 3373   2.341   2.843   1.408
  825SOL    HW1 3374   2.339   2.916   1.340
  825SOL    HW2 3375   2.425   2.790   1.398
  826SOL     OW 3376   1.039   1.624   6.694
  826SOL    HW1 3377   1.041   1.543   6.635
  826SOL    HW2 3378   1.076   1.702   6.644
  827SOL     OW 3379   3.931   4.474   0.947
  827SOL    HW1 3380   3.969   4.563   0.920
  827SOL    HW2 3381   3.832   4.482   0.955
  828SOL     OW 3382   5.703   1.304   5.432
  828SOL    HW1 3383   5.709   1.265   5.340
  828SOL    HW2 3384   5.652   1.390   5.429
  829SOL     OW 3385   4.443   4.461   5.684
  829SOL    HW1 3386   4.454   4.364   5.706
  829SOL    HW2 3387   4.367   4.473   5.620
  830SOL     OW 3388   4.425   3.446   6.388
  830SOL    HW1 3389   4.481   3.495   6.321
  830SOL    HW2 3390   4.344   3.501   6.410
  831SOL     OW 3391   5.247   2.039   5.747
  831SOL    HW1 3392   5.186   2.109   5.711
  831SOL    HW2 3393   5.285   1.985   5.671
  832SOL     OW 3394   3.143   1.646   5.532
  832SOL    HW1 3395   3.188   1.725   5.574
  832SOL    HW2 3396   3.074   1.678   5.468
  833SOL     OW 3397   1.302   0.668   5.204
  833SOL    HW1 3398   1.206   0.643   5.200
  833SOL    HW2 3399   1.356   0.604   5.148
  834SOL     OW 3400   3.118   4.787   5.643
  834SOL    HW1 3401   3.181   4.815   5.570
  834SOL    HW2 3402   3.098   4.690   5.633
  835SOL     OW 3403   3.910   1.768   2.839
  835SOL    HW1 3404   3.916   1.834   2.913
  835SOL    HW2 3405   3.950   1.681   2.868
  836SOL     OW 3406   2.096   1.253   5.385
  836SOL    HW1 3407   2.176   1.200   5.360
  836SOL    HW2 3408   2.086   1.254   5.485
  837SOL     OW 3409   3.987   1.375   4.432
  837SOL    HW1 3410   4.072   1.332   4.402
  837SOL    HW2 3411   3.910   1.334   4.383
  838SOL     OW 3412   0.602   6.300   2.197
  838SOL    HW1 3413   0.608   6.245   2.281
  838SOL    HW2 3414   0.521   6.272   2.145
  839SOL     OW 3415   2.172   1.839   2.318
  839SOL    HW1 3416   2.078   1.838   2.283
  839SOL    HW2 3417   2.216   1.752   2.298
  840SOL     OW 3418   2.129   0.785   4.858
  840SOL    HW1 3419   2.199   0.794   4.929
  840SOL    HW2 3420   2.045   0.832   4.887
  841SOL     OW 3421   0.435   3.226   0.410
  841SOL    HW1 3422   0.512   3.257   0.466
  841SOL    HW2 3423   0.366   3.183   0.469
  842SOL     OW 3424   3.856   5.080   4.275
  842SOL    HW1 3425   3.786   5.032   4.222
  842SOL    HW2 3426   3.817   5.113   4.361
  843SOL     OW 3427   7.008   2.570   1.109
  843SOL    HW1 3428   6.971   2.662   1.120
  843SOL    HW2 3429   0.073   2.560   1.167
  844SOL     OW 3430   5.704   4.529   6.229
  844SOL    HW1 3431   5.679   4.441   6.269
  844SOL    HW2 3432   5.622   4.587   6.223
  845SOL     OW 3433   2.138   4.839   5.493
  845SOL    HW1 3434   2.204   4.815   5.564
  845SOL    HW2 3435   2.180   4.828   5.403
  846SOL     OW 3436   4.998   2.041   0.165
  846SOL    HW1 3437   5.049   1.969   0.213
  846SOL    HW2 3438   4.908   2.051   0.207
  847SOL     OW 3439   5.270   3.973   2.010
  847SOL    HW1 3440   5.353   3.916   2.007
  847SOL    HW2 3441   5.295   4.067   2.030
  848SOL     OW 3442   5.552   6.914   5.864
  848SOL    HW1 3443   5.597   6.926   5.776
  848SOL    HW2 3444   5.550   7.002   5.912
  849SOL     OW 3445   0.863   0.039   3.613
  849SOL    HW1 3446   0.858   0.131   3.652
  849SOL    HW2 3447   0.799   6.995   3.661
  850SOL     OW 3448   2.601   0.843   2.763
  850SOL    HW1 3449   2.668   0.870   2.695
  850SOL    HW2 3450   2.555   0.925   2.798
  851SOL     OW 3451   6.770   1.560   6.161
  851SOL    HW1 3452   6.784   1.513   6.074
  851SOL    HW2 3453   6.851   1.549   6.219
  852SOL     OW 3454   3.742   5.175   4.505
  852SOL    HW1 3455   3.679   5.118   4.558
  852SOL    HW2 3456   3.755   5.262   4.552
  853SOL     OW 3457   1.009   3.881   0.842
  853SOL    HW1 3458   0.935   3.940   0.812
  853SOL    HW2 3459   1.019   3.804   0.779
  854SOL     OW 3460   6.623   4.799   1.110
  854SOL    HW1 3461   6.590   4.894   1.108
  854SOL    HW2 3462   6.545   4.737   1.109
  855SOL     OW 3463   4.766   0.392   0.166
  855SOL    HW1 3464   4.684   0.337   0.183
  855SOL    HW2 3465   4.847   0.340   0.192
  856SOL     OW 3466   1.786   1.091   5.136
  856SOL    HW1 3467   1.692   1.125   5.135
  856SOL    HW2 3468   1.849   1.169   5.134
  857SOL     OW 3469   6.327   4.471   2.370
  857SOL    HW1 3470   6.286   4.541   2.428
  857SOL    HW2 3471   6.403   4.427   2.418
  858SOL     OW 3472   3.999   3.513   2.171
  858SOL    HW1 3473   3.964   3.425   2.138
  858SOL    HW2 3474   3.924   3.570   2.203
  859SOL     OW 3475   6.425   4.189   1.482
  859SOL    HW1 3476   6.464   4.275   1.516
  859SOL    HW2 3477   6.411   4.196   1.383
  860SOL     OW 3478   1.564   4.035   6.297
  860SOL    HW1 3479   1.562   4.010   6.200
  860SOL    HW2 3480   1.491   4.101   6.315
  861SOL     OW 3481   4.366   4.638   6.416
  861SOL    HW1 3482   4.359   4.664   6.320
  861SOL    HW2 3483   4.276   4.608   6.449
  862SOL     OW 3484   4.113   4.834   3.706
  862SOL    HW1 3485   4.120   4.784   3.619
  862SOL    HW2 3486   4.095   4.930   3.688
  863SOL     OW 3487   6.757   3.202   1.355
  863SOL    HW1 3488   6.754   3.281   1.416
  863SOL    HW2 3489   6.724   3.228   1.264
  864SOL     OW 3490   0.933   6.620   1.732
  864SOL    HW1 3491   0.980   6.683   1.793
  864SOL    HW2 3492   0.838   6.648   1.721
  865SOL     OW 3493   1.057   1.361   3.848
  865SOL    HW1 3494   1.009   1.449   3.848
  865SOL    HW2 3495   1.038   1.314   3.935
  866SOL     OW 3496   3.943   0.888   1.970
  866SOL    HW1 3497   3.953   0.987   1.980
  866SOL    HW2 3498   4.029   0.843   1.992
  867SOL     OW 3499   3.082   1.460   6.156
  867SOL    HW1 3500   3.007   1.406   6.195
  867SOL    HW2 3501   3.139   1.497   6.230
  868SOL     OW 3502   4.855   1.853   3.273
  868SOL    HW1 3503   4.877   1.785   3.203
  868SOL    HW2 3504   4.765   1.892   3.255
  869SOL     OW 3505   6.462   3.581   0.968
  869SOL    HW1 3506   6.478   3.540   0.878
  869SOL    HW2 3507   6.453   3.680   0.958
  870SOL     OW 3508   6.227   1.746   0.773
  870SOL    HW1 3509   6.296   1.818   0.769
  870SOL    HW2 3510   6.270   1.657   0.760
  871SOL     OW 3511   6.957   4.413   0.833
  871SOL    HW1 3512   6.868   4.448   0.864
  871SOL    HW2 3513   6.985   4.337   0.892
  872SOL     OW 3514   6.701   1.877   1.855
  872SOL    HW1 3515   6.711   1.976   1.844
  872SOL    HW2 3516   6.607   1.850   1.831
  873SOL     OW 3517   4.049   0.153   4.138
  873SOL    HW1 3518   4.102   0.116   4.061
  873SOL    HW2 3519   3.998   0.079   4.181
  874SOL     OW 3520   1.290   3.414   6.261
  874SOL    HW1 3521   1.315   3.505   6.227
  874SOL    HW2 3522   1.199   3.417   6.302
  875SOL     OW 3523   5.790   6.105   6.747
  875SOL    HW1 3524   5.888   6.125   6.752
  875SOL    HW2 3525   5.738   6.190   6.760
  876SOL     OW 3526   2.799   2.381   1.677
  876SOL    HW1 3527   2.866   2.382   1.751
  876SOL    HW2 3528   2.788   2.287   1.644
  877SOL     OW 3529   6.223   5.492   5.934
  877SOL    HW1 3530   6.133   5.460   5.906
  877SOL    HW2 3531   6.217   5.588   5.963
  878SOL     OW 3532   4.487   3.020   1.242
  878SOL    HW1 3533   4.427   2.985   1.313
  878SOL    HW2 3534   4.435   3.037   1.159
  879SOL     OW 3535   5.294   3.099   3.273
  879SOL    HW1 3536   5.314   3.107   3.175
  879SOL    HW2 3537   5.225   3.028   3.287
  880SOL     OW 3538   4.338   0.054   1.385
  880SOL    HW1 3539   4.310   0.059   1.289
  880SOL    HW2 3540   4.370   0.145   1.415
  881SOL     OW 3541   4.762   5.510   3.392
  881SOL    HW1 3542   4.674   5.534   3.351
  881SOL    HW2 3543   4.754   5.514   3.492
  882SOL     OW 3544   0.528   2.299   5.334
  882SOL    HW1 3545   0.438   2.334   5.361
  882SOL    HW2 3546   0.530   2.288   5.234
  883SOL     OW 3547   3.023   4.878   6.864
  883SOL    HW1 3548   3.041   4.780   6.861
  883SOL    HW2 3549   3.059   4.916   6.949
  884SOL     OW 3550   4.515   4.683   1.211
  884SOL    HW1 3551   4.582   4.697   1.284
  884SOL    HW2 3552   4.435   4.637   1.249
  885SOL     OW 3553   3.783   5.682   6.814
  885SOL    HW1 3554   3.745   5.591   6.795
  885SOL    HW2 3555   3.712   5.751   6.800
  886SOL     OW 3556   3.977   2.525   6.420
  886SOL    HW1 3557   3.893   2.477   6.393
  886SOL    HW2 3558   3.955   2.599   6.483
  887SOL     OW 3559   6.158   6.546   4.821
  887SOL    HW1 3560   6.186   6.468   4.878
  887SOL    HW2 3561   6.225   6.619   4.831
  888SOL     OW 3562   6.267   1.300   3.509
  888SOL    HW1 3563   6.233   1.392   3.489
  888SOL    HW2 3564   6.336   1.275   3.442
  889SOL     OW 3565   0.714   0.331   4.712
  889SOL    HW1 3566   0.748   0.313   4.805
  889SOL    HW2 3567   0.758   0.413   4.676
  890SOL     OW 3568   2.493   3.556   0.540
  890SOL    HW1 3569   2.520   3.511   0.454
  890SOL    HW2 3570   2.394   3.551   0.550
  891SOL     OW 3571   6.488   3.008   5.440
  891SOL    HW1 3572   6.412   2.959   5.398
  891SOL    HW2 3573   6.495   2.983   5.537
  892SOL     OW 3574   2.211   4.664   2.011
  892SOL    HW1 3575   2.203   4.742   2.074
  892SOL    HW2 3576   2.295   4.673   1.957
  893SOL     OW 3577   1.976   0.584   1.721
  893SOL    HW1 3578   1.918   0.664   1.734
  893SOL    HW2 3579   1.952   0.539   1.635
  894SOL     OW 3580   1.212   5.478   3.902
  894SOL    HW1 3581   1.282   5.509   3.837
  894SOL    HW2 3582   1.213   5.378   3.907
  895SOL     OW 3583   2.779   1.161   4.348
  895SOL    HW1 3584   2.686   1.131   4.366
  895SOL    HW2 3585   2.795   1.165   4.249
  896SOL     OW 3586   4.730   0.156   3.354
  896SOL    HW1 3587   4.640   0.197   3.369
  896SOL    HW2 3588   4.739   0.075   3.413
  897SOL     OW 3589   6.476   1.215   6.847
  897SOL    HW1 3590   6.517   1.181   6.932
  897SOL    HW2 3591   6.543   1.211   6.773
  898SOL     OW 3592   5.462   5.774   3.590
  898SOL    HW1 3593   5.409   5.859   3.595
  898SOL    HW2 3594   5.476   5.750   3.494
  899SOL     OW 3595   1.371   4.676   0.014
  899SOL    HW1 3596   1.455   4.720   0.045
  899SOL    HW2 3597   1.391   4.583   7.000
  900SOL     OW 3598   0.023   5.829   3.385
  900SOL    HW1 3599   0.116   5.794   3.393
  900SOL    HW2 3600   7.005   5.813   3.292
  901SOL     OW 3601   6.400   2.072   3.545
  901SOL    HW1 3602   6.425   1.977   3.560
  901SOL    HW2 3603   6.355   2.081   3.456
  902SOL     OW 3604   1.314   5.747   0.124
  902SOL    HW1 3605   1.253   5.684   0.172
  902SOL    HW2 3606   1.408   5.732   0.154
  903SOL     OW 3607   1.200   4.634   6.756
  903SOL    HW1 3608   1.266   4.641   6.680
  903SOL    HW2 3609   1.109   4.658   6.723
  904SOL     OW 3610   1.335   2.214   4.423
  904SOL    HW1 3611   1.249   2.184   4.465
  904SOL    HW2 3612   1.319   2.238   4.327
  905SOL     OW 3613   6.588   3.724   3.417
  905SOL    HW1 3614   6.548   3.643   3.457
  905SOL    HW2 3615   6.543   3.745   3.330
  906SOL     OW 3616   0.013   3.386   5.494
  906SOL    HW1 3617   0.079   3.415   5.563
  906SOL    HW2 3618   0.004   3.287   5.496
  907SOL     OW 3619   6.766   4.625   2.986
  907SOL    HW1 3620   6.762   4.535   3.030
  907SOL    HW2 3621   6.704   4.627   2.908
  908SOL     OW 3622   2.509   1.161   3.297
  908SOL    HW1 3623   2.414   1.181   3.321
  908SOL    HW2 3624   2.548   1.238   3.246
  909SOL     OW 3625   3.059   6.684   2.366
  909SOL    HW1 3626   3.036   6.703   2.271
  909SOL    HW2 3627   2.996   6.735   2.426
  910SOL     OW 3628   1.319   0.649   1.925
  910SOL    HW1 3629   1.258   0.585   1.878
  910SOL    HW2 3630   1.394   0.599   1.967
  911SOL     OW 3631   1.130   2.737   1.012
  911SOL    HW1 3632   1.217   2.778   0.985
  911SOL    HW2 3633   1.055   2.788   0.971
  912SOL     OW 3634   2.485   0.879   1.212
  912SOL    HW1 3635   2.556   0.820   1.173
  912SOL    HW2 3636   2.508   0.975   1.194
  913SOL     OW 3637   2.261   0.671   1.730
  913SOL    HW1 3638   2.167   0.638   1.733
  913SOL    HW2 3639   2.324   0.595   1.743
  914SOL     OW 3640   3.309   4.915   2.436
  914SOL    HW1 3641   3.398   4.958   2.451
  914SOL    HW2 3642   3.271   4.948   2.350
  915SOL     OW 3643   3.542   2.174   1.387
  915SOL    HW1 3644   3.542   2.125   1.474
  915SOL    HW2 3645   3.596   2.258   1.397
  916SOL     OW 3646   0.268   4.089   2.640
  916SOL    HW1 3647   0.186   4.146   2.639
  916SOL    HW2 3648   0.293   4.065   2.546
  917SOL     OW 3649   4.181   0.585   5.155
  917SOL    HW1 3650   4.274   0.614   5.177
  917SOL    HW2 3651   4.117   0.625   5.221
  918SOL     OW 3652   0.199   2.475   5.053
  918SOL    HW1 3653   0.285   2.525   5.057
  918SOL    HW2 3654   0.215   2.379   5.078
  919SOL     OW 3655   0.805   0.251   0.879
  919SOL    HW1 3656   0.782   0.204   0.964
  919SOL    HW2 3657   0.833   0.345   0.900
  920SOL     OW 3658   1.074   2.002   2.737
  920SOL    HW1 3659   1.049   2.014   2.641
  920SOL    HW2 3660   1.152   2.060   2.759
  921SOL     OW 3661   4.270   4.454   0.017
  921SOL    HW1 3662   4.266   4.398   0.100
  921SOL    HW2 3663   4.215   4.411   6.961
  922SOL     OW 3664   2.342   5.577   6.569
  922SOL    HW1 3665   2.336   5.647   6.498
  922SOL    HW2 3666   2.319   5.488   6.529
  923SOL     OW 3667   3.438   0.983   0.108
  923SOL    HW1 3668   3.451   1.082   0.119
  923SOL    HW2 3669   3.498   0.934   0.171
  924SOL     OW 3670   5.193   5.194   1.454
  924SOL    HW1 3671   5.147   5.240   1.530
  924SOL    HW2 3672   5.226   5.104   1.484
  925SOL     OW 3673   5.620   1.973   1.487
  925SOL    HW1 3674   5.648   2.030   1.410
  925SOL    HW2 3675   5.522   1.984   1.502
  926SOL     OW 3676   4.281   5.769   1.781
  926SOL    HW1 3677   4.249   5.829   1.707
  926SOL    HW2 3678   4.262   5.812   1.869
  927SOL     OW 3679   5.357   5.259   5.747
  927SOL    HW1 3680   5.341   5.229   5.653
  927SOL    HW2 3681   5.279   5.234   5.804
  928SOL     OW 3682   6.761   1.373   2.017
  928SOL    HW1 3683   6.705   1.300   2.056
  928SOL    HW2 3684   6.854   1.339   2.000
  929SOL     OW 3685   6.529   2.020   2.633
  929SOL    HW1 3686   6.450   1.958   2.627
  929SOL    HW2 3687   6.551   2.053   2.541
  930SOL     OW 3688   5.932   4.272   2.687
  930SOL    HW1 3689   5.849   4.310   2.645
  930SOL    HW2 3690   6.012   4.296   2.633
  931SOL     OW 3691   0.304   2.623   0.790
  931SOL    HW1 3692   0.335   2.565   0.715
  931SOL    HW2 3693   0.205   2.610   0.804
  932SOL     OW 3694   4.243   6.505   0.301
  932SOL    HW1 3695   4.249   6.524   0.399
  932SOL    HW2 3696   4.193   6.579   0.256
  933SOL     OW 3697   0.564   6.750   3.170
  933SOL    HW1 3698   0.518   6.718   3.252
  933SOL    HW2 3699   0.659   6.717   3.169
  934SOL     OW 3700   4.421   1.887   5.012
  934SOL    HW1 3701   4.363   1.806   5.006
  934SOL    HW2 3702   4.388   1.956   4.946
  935SOL     OW 3703   0.872   4.003   4.204
  935SOL    HW1 3704   0.861   4.103   4.209
  935SOL    HW2 3705   0.810   3.966   4.135
  936SOL     OW 3706   1.035   0.990   1.261
  936SOL    HW1 3707   1.085   0.938   1.330
  936SOL    HW2 3708   1.069   0.965   1.170
  937SOL     OW 3709   4.759   1.711   2.982
  937SOL    HW1 3710   4.735   1.730   2.886
  937SOL    HW2 3711   4.854   1.682   2.987
  938SOL     OW 3712   0.497   0.877   5.969
  938SOL    HW1 3713   0.409   0.830   5.968
  938SOL    HW2 3714   0.570   0.811   5.989
  939SOL     OW 3715   0.159   1.046   4.568
  939SOL    HW1 3716   0.119   1.085   4.650
  939SOL    HW2 3717   0.257   1.032   4.582
  940SOL     OW 3718   6.123   0.121   3.411
  940SOL    HW1 3719   6.211   0.151   3.377
  940SOL    HW2 3720   6.125   0.117   3.511
  941SOL     OW 3721   5.743   2.590   4.695
  941SOL    HW1 3722   5.676   2.569   4.766
  941SOL    HW2 3723   5.697   2.611   4.609
  942SOL     OW 3724   4.116   6.554   6.114
  942SOL    HW1 3725   4.075   6.486   6.174
  942SOL    HW2 3726   4.167   6.621   6.169
  943SOL     OW 3727   5.000   1.830   6.646
  943SOL    HW1 3728   4.903   1.847   6.631
  943SOL    HW2 3729   5.053   1.905   6.605
  944SOL     OW 3730   5.518   4.631   4.067
  944SOL    HW1 3731   5.592   4.576   4.105
  944SOL    HW2 3732   5.523   4.724   4.102
  945SOL     OW 3733   6.227   3.041   6.093
  945SOL    HW1 3734   6.167   3.059   6.015
  945SOL    HW2 3735   6.244   3.127   6.141
  946SOL     OW 3736   6.157   2.900   6.314
  946SOL    HW1 3737   6.173   2.956   6.234
  946SOL    HW2 3738   6.073   2.931   6.360
  947SOL     OW 3739   1.434   1.774   6.286
  947SOL    HW1 3740   1.449   1.824   6.370
  947SOL    HW2 3741   1.346   1.801   6.246
  948SOL     OW 3742   3.568   1.749   1.511
  948SOL    HW1 3743   3.563   1.849   1.518
  948SOL    HW2 3744   3.664   1.721   1.511
  949SOL     OW 3745   5.158   4.917   5.802
  949SOL    HW1 3746   5.142   4.972   5.719
  949SOL    HW2 3747   5.097   4.948   5.874
  950SOL     OW 3748   3.826   5.286   0.958
  950SOL    HW1 3749   3.880   5.265   1.039
  950SOL    HW2 3750   3.861   5.369   0.915
  951SOL     OW 3751   0.377   3.624   2.944
  951SOL    HW1 3752   0.407   3.585   3.031
  951SOL    HW2 3753   0.457   3.649   2.889
  952SOL     OW 3754   4.250   1.342   0.965
  952SOL    HW1 3755   4.256   1.430   0.917
  952SOL    HW2 3756   4.313   1.342   1.042
  953SOL     OW 3757   4.423   6.533   5.898
  953SOL    HW1 3758   4.337   6.580   5.876
  953SOL    HW2 3759   4.447   6.552   5.994
  954SOL     OW 3760   6.676   6.394   1.472
  954SOL    HW1 3761   6.738   6.375   1.396
  954SOL    HW2 3762   6.582   6.394   1.438
  955SOL     OW 3763   1.497   6.577   3.755
  955SOL    HW1 3764   1.580   6.557   3.702
  955SOL    HW2 3765   1.482   6.505   3.822
  956SOL     OW 3766   1.767   3.027   0.855
  956SOL    HW1 3767   1.701   3.043   0.929
  956SOL    HW2 3768   1.830   2.954   0.883
  957SOL     OW 3769   2.544   6.184   4.322
  957SOL    HW1 3770   2.461   6.140   4.289
  957SOL    HW2 3771   2.561   6.158   4.417
  958SOL     OW 3772   4.260   2.120   6.594
  958SOL    HW1 3773   4.280   2.114   6.692
  958SOL    HW2 3774   4.198   2.196   6.577
  959SOL     OW 3775   1.487   4.341   0.290
  959SOL    HW1 3776   1.587   4.339   0.282
  959SOL    HW2 3777   1.449   4.256   0.255
  960SOL     OW 3778   1.703   3.901   5.440
  960SOL    HW1 3779   1.704   3.932   5.535
  960SOL    HW2 3780   1.677   3.804   5.438
  961SOL     OW 3781   3.760   6.630   6.500
  961SOL    HW1 3782   3.819   6.708   6.518
  961SOL    HW2 3783   3.815   6.547   6.495
  962SOL     OW 3784   0.188   0.162   3.955
  962SOL    HW1 3785   0.252   0.085   3.960
  962SOL    HW2 3786   0.183   0.195   3.861
  963SOL     OW 3787   5.731   0.222   3.288
  963SOL    HW1 3788   5.637   0.195   3.310
  963SOL    HW2 3789   5.790   0.141   3.290
  964SOL     OW 3790   5.925   4.216   1.812
  964SOL    HW1 3791   6.000   4.157   1.782
  964SOL    HW2 3792   5.958   4.310   1.821
  965SOL     OW 3793   1.946   2.231   0.178
  965SOL    HW1 3794   1.865   2.288   0.190
  965SOL    HW2 3795   1.918   2.138   0.152
  966SOL     OW 3796   5.268   2.044   1.902
  966SOL    HW1 3797   5.273   1.955   1.948
  966SOL    HW2 3798   5.200   2.101   1.948
  967SOL     OW 3799   0.622   5.721   2.977
  967SOL    HW1 3800   0.627   5.812   3.018
  967SOL    HW2 3801   0.535   5.712   2.927
  968SOL     OW 3802   0.291   4.242   0.942
  968SOL    HW1 3803   0.312   4.339   0.946
  968SOL    HW2 3804   0.197   4.227   0.972
  969SOL     OW 3805   3.435   6.945   6.446
  969SOL    HW1 3806   3.438   6.890   6.530
  969SOL    HW2 3807   3.480   0.017   6.463
  970SOL     OW 3808   5.421   3.933   6.311
  970SOL    HW1 3809   5.388   3.969   6.224
  970SOL    HW2 3810   5.389   3.839   6.322
  971SOL     OW 3811   0.676   1.620   7.014
  971SOL    HW1 3812   0.752   1.648   6.955
  971SOL    HW2 3813   0.687   1.663   0.088
  972SOL     OW 3814   3.612   0.139   6.473
  972SOL    HW1 3815   3.645   0.207   6.539
  972SOL    HW2 3816   3.604   0.181   6.383
  973SOL     OW 3817   6.408   3.283   6.186
  973SOL    HW1 3818   6.506   3.286   6.202
  973SOL    HW2 3819   6.360   3.293   6.274
  974SOL     OW 3820   2.315   0.773   4.016
  974SOL    HW1 3821   2.407   0.777   4.056
  974SOL    HW2 3822   2.297   0.680   3.984
  975SOL     OW 3823   2.863   6.453   4.007
  975SOL    HW1 3824   2.953   6.411   4.002
  975SOL    HW2 3825   2.793   6.382   4.011
  976SOL     OW 3826   0.436   5.272   4.846
  976SOL    HW1 3827   0.389   5.217   4.777
  976SOL    HW2 3828   0.534   5.276   4.826
  977SOL     OW 3829   0.636   2.110   1.997
  977SOL    HW1 3830   0.608   2.020   1.963
  977SOL    HW2 3831   0.578   2.181   1.958
  978SOL     OW 3832   5.963   2.507   3.738
  978SOL    HW1 3833   6.001   2.536   3.826
  978SOL    HW2 3834   6.032   2.520   3.667
  979SOL     OW 3835   5.549   1.465   2.584
  979SOL    HW1 3836   5.614   1.449   2.510
  979SOL    HW2 3837   5.517   1.378   2.622
  980SOL     OW 3838   6.001   6.032   5.166
  980SOL    HW1 3839   6.031   6.105   5.228
  980SOL    HW2 3840   6.071   6.018   5.095
  981SOL     OW 3841   6.392   2.939   6.863
  981SOL    HW1 3842   6.324   2.997   6.818
  981SOL    HW2 3843   6.442   2.887   6.793
  982SOL     OW 3844   1.358   4.449   6.884
  982SOL    HW1 3845   1.327   4.357   6.907
  982SOL    HW2 3846   1.282   4.501   6.845
  983SOL     OW 3847   5.512   1.302   3.463
  983SOL    HW1 3848   5.495   1.298   3.364
  983SOL    HW2 3849   5.611   1.308   3.479
  984SOL     OW 3850   4.910   3.364   5.174
  984SOL    HW1 3851   4.943   3.373   5.268
  984SOL    HW2 3852   4.845   3.438   5.155
  985SOL     OW 3853   1.750   4.233   0.206
  985SOL    HW1 3854   1.759   4.319   0.156
  985SOL    HW2 3855   1.815   4.231   0.282
  986SOL     OW 3856   5.693   4.504   4.960
  986SOL    HW1 3857   5.695   4.405   4.943
  986SOL    HW2 3858   5.777   4.532   5.007
  987SOL     OW 3859   2.440   1.327   2.899
  987SOL    HW1 3860   2.393   1.402   2.853
  987SOL    HW2 3861   2.506   1.365   2.964
  988SOL     OW 3862   3.785   3.553   1.424
  988SOL    HW1 3863   3.788   3.614   1.345
  988SOL    HW2 3864   3.705   3.575   1.481
  989SOL     OW 3865   1.140   0.986   5.195
  989SOL    HW1 3866   1.193   0.965   5.278
  989SOL    HW2 3867   1.090   0.904   5.167
  990SOL     OW 3868   4.369   6.065   2.193
  990SOL    HW1 3869   4.296   6.053   2.260
  990SOL    HW2 3870   4.457   6.070   2.240
  991SOL     OW 3871   6.161   1.579   6.081
  991SOL    HW1 3872   6.098   1.529   6.141
  991SOL    HW2 3873   6.255   1.564   6.112
  992SOL     OW 3874   0.417   2.714   0.454
  992SOL    HW1 3875   0.330   2.742   0.494
  992SOL    HW2 3876   0.492   2.763   0.499
  993SOL     OW 3877   4.070   6.693   4.235
  993SOL    HW1 3878   4.067   6.608   4.181
  993SOL    HW2 3879   3.993   6.694   4.298
  994SOL     OW 3880   3.068   3.945   3.761
  994SOL    HW1 3881   3.108   3.976   3.675
  994SOL    HW2 3882   3.054   3.846   3.758
  995SOL     OW 3883   1.325   1.576   5.068
  995SOL    HW1 3884   1.279   1.488   5.061
  995SOL    HW2 3885   1.414   1.564   5.113
  996SOL     OW 3886   2.428   3.211   0.565
  996SOL    HW1 3887   2.333   3.242   0.562
  996SOL    HW2 3888   2.470   3.239   0.651
  997SOL     OW 3889   6.790   1.135   0.561
  997SOL    HW1 3890   6.724   1.203   0.529
  997SOL    HW2 3891   6.767   1.045   0.525
  998SOL     OW 3892   4.696   6.776   3.736
  998SOL    HW1 3893   4.773   6.836   3.715
  998SOL    HW2 3894   4.617   6.831   3.765
  999SOL     OW 3895   0.165   4.620   6.402
  999SOL    HW1 3896   0.175   4.655   6.308
  999SOL    HW2 3897   0.077   4.574   6.411
 1000SOL     OW 3898   3.524   1.967   5.456
 1000SOL    HW1 3899   3.467   1.954   5.375
 1000SOL    HW2 3900   3.620   1.970   5.430
 1001SOL     OW 3901   5.299   0.813   4.634
 1001SOL    HW1 3902   5.373   0.794   4.569
 1001SOL    HW2 3903   5.228   0.867   4.588
 1002SOL     OW 3904   0.197   1.205   0.530
 1002SOL    HW1 3905   0.125   1.148   0.491
 1002SOL    HW2 3906   0.169   1.235   0.621
 1003SOL     OW 3907   4.619   5.049   2.337
 1003SOL    HW1 3908   4.556   5.061   2.414
 1003SOL    HW2 3909   4.581   4.982   2.273
 1004SOL     OW 3910   5.980   5.688   6.933
 1004SOL    HW1 3911   6.018   5.734   6.853
 1004SOL    HW2 3912   6.025   5.723   7.015
 1005SOL     OW 3913   5.234   6.436   2.730
 1005SOL    HW1 3914   5.246   6.350   2.779
 1005SOL    HW2 3915   5.181   6.420   2.646
 1006SOL     OW 3916   1.567   5.725   0.248
 1006SOL    HW1 3917   1.563   5.628   0.275
 1006SOL    HW2 3918   1.641   5.739   0.183
 1007SOL     OW 3919   6.120   2.014   2.573
 1007SOL    HW1 3920   6.036   1.992   2.522
 1007SOL    HW2 3921   6.095   2.058   2.659
 1008SOL     OW 3922   3.579   1.146   5.439
 1008SOL    HW1 3923   3.521   1.223   5.467
 1008SOL    HW2 3924   3.537   1.100   5.361
 1009SOL     OW 3925   3.636   6.226   5.840
 1009SOL    HW1 3926   3.582   6.279   5.906
 1009SOL    HW2 3927   3.720   6.275   5.819
 1010SOL     OW 3928   4.848   6.299   5.709
 1010SOL    HW1 3929   4.834   6.299   5.610
 1010SOL    HW2 3930   4.865   6.392   5.741
 1011SOL     OW 3931   2.404   5.237   4.677
 1011SOL    HW1 3932   2.496   5.211   4.648
 1011SOL    HW2 3933   2.396   5.226   4.776
 1012SOL     OW 3934   2.913   6.022   0.684
 1012SOL    HW1 3935   3.012   6.033   0.695
 1012SOL    HW2 3936   2.879   5.955   0.751
 1013SOL     OW 3937   0.829   0.206   0.237
 1013SOL    HW1 3938   0.843   0.147   0.158
 1013SOL    HW2 3939   0.741   0.253   0.229
 1014SOL     OW 3940   6.190   6.474   6.826
 1014SOL    HW1 3941   6.257   6.425   6.882
 1014SOL    HW2 3942   6.164   6.416   6.748
 1015SOL     OW 3943   2.513   0.146   4.573
 1015SOL    HW1 3944   2.587   0.185   4.627
 1015SOL    HW2 3945   2.469   0.219   4.520
 1016SOL     OW 3946   4.322   3.515   1.726
 1016SOL    HW1 3947   4.232   3.516   1.684
 1016SOL    HW2 3948   4.345   3.421   1.753
 1017SOL     OW 3949   4.977   6.744   6.361
 1017SOL    HW1 3950   4.909   6.671   6.354
 1017SOL    HW2 3951   4.961   6.812   6.289
 1018SOL     OW 3952   1.230   1.766   1.487
 1018SOL    HW1 3953   1.275   1.730   1.569
 1018SOL    HW2 3954   1.142   1.806   1.512
 1019SOL     OW 3955   5.814   0.470   0.440
 1019SOL    HW1 3956   5.906   0.452   0.475
 1019SOL    HW2 3957   5.817   0.484   0.341
 1020SOL     OW 3958   4.089   1.905   1.445
 1020SOL    HW1 3959   4.105   1.852   1.527
 1020SOL    HW2 3960   4.108   2.002   1.463
 1021SOL     OW 3961   5.129   1.234   1.334
 1021SOL    HW1 3962   5.045   1.181   1.336
 1021SOL    HW2 3963   5.108   1.332   1.329
 1022SOL     OW 3964   2.595   3.647   6.830
 1022SOL    HW1 3965   2.573   3.635   6.926
 1022SOL    HW2 3966   2.681   3.697   6.821
 1023SOL     OW 3967   6.587   1.209   4.107
 1023SOL    HW1 3968   6.602   1.305   4.133
 1023SOL    HW2 3969   6.596   1.201   4.008
 1024SOL     OW 3970   6.552   2.513   4.244
 1024SOL    HW1 3971   6.572   2.610   4.227
 1024SOL    HW2 3972   6.567   2.461   4.160
 1025SOL     OW 3973   2.286   4.326   1.455
 1025SOL    HW1 3974   2.256   4.258   1.389
 1025SOL    HW2 3975   2.349   4.390   1.412
 1026SOL     OW 3976   0.308   3.287   6.839
 1026SOL    HW1 3977   0.371   3.349   6.887
 1026SOL    HW2 3978   0.219   3.331   6.829
 1027SOL     OW 3979   1.865   4.786   1.139
 1027SOL    HW1 3980   1.942   4.789   1.203
 1027SOL    HW2 3981   1.780   4.771   1.190
 1028SOL     OW 3982   0.346   5.057   6.985
 1028SOL    HW1 3983   0.417   4.994   7.016
 1028SOL    HW2 3984   0.371   5.151   7.010
 1029SOL     OW 3985   3.977   0.458   4.746
 1029SOL    HW1 3986   4.054   0.468   4.683
 1029SOL    HW2 3987   3.894   0.494   4.702
 1030SOL     OW 3988   4.351   4.817   4.753
 1030SOL    HW1 3989   4.324   4.874   4.675
 1030SOL    HW2 3990   4.356   4.721   4.724
 1031SOL     OW 3991   2.586   5.779   1.056
 1031SOL    HW1 3992   2.651   5.842   1.013
 1031SOL    HW2 3993   2.495   5.822   1.057
 1032SOL     OW 3994   1.211   2.509   5.090
 1032SOL    HW1 3995   1.241   2.419   5.059
 1032SOL    HW2 3996   1.258   2.580   5.037
 1033SOL     OW 3997   2.729   0.005   2.294
 1033SOL    HW1 3998   2.752   6.998   2.200
 1033SOL    HW2 3999   2.779   0.088   2.321
 1034SOL     OW 4000   0.210   5.286   2.775
 1034SOL    HW1 4001   0.285   5.343   2.741
 1034SOL    HW2 4002   0.179   5.320   2.864
 1035SOL     OW 4003   3.173   2.091   3.291
 1035SOL    HW1 4004   3.201   2.096   3.195
 1035SOL    HW2 4005   3.128   2.003   3.307
 1036SOL     OW 4006   4.638   6.451   6.746
 1036SOL    HW1 4007   4.717   6.511   6.756
 1036SOL    HW2 4008   4.648   6.373   6.808
 1037SOL     OW 4009   3.740   1.160   6.074
 1037SOL    HW1 4010   3.707   1.246   6.034
 1037SOL    HW2 4011   3.831   1.174   6.111
 1038SOL     OW 4012   3.305   1.507   4.725
 1038SOL    HW1 4013   3.234   1.506   4.796
 1038SOL    HW2 4014   3.280   1.573   4.654
 1039SOL     OW 4015   5.270   1.654   1.874
 1039SOL    HW1 4016   5.360   1.620   1.900
 1039SOL    HW2 4017   5.233   1.711   1.947
 1040SOL     OW 4018   6.336   4.821   4.887
 1040SOL    HW1 4019   6.383   4.909   4.879
 1040SOL    HW2 4020   6.348   4.785   4.980
 1041SOL     OW 4021   1.159   6.835   4.685
 1041SOL    HW1 4022   1.075   6.806   4.731
 1041SOL    HW2 4023   1.188   6.924   4.720
 1042SOL     OW 4024   4.256   4.691   0.297
 1042SOL    HW1 4025   4.289   4.776   0.338
 1042SOL    HW2 4026   4.332   4.627   0.288
 1043SOL     OW 4027   4.652   0.242   6.304
 1043SOL    HW1 4028   4.576   0.186   6.272
 1043SOL    HW2 4029   4.716   0.185   6.355
 1044SOL     OW 4030   4.054   3.367   4.200
 1044SOL    HW1 4031   4.008   3.280   4.182
 1044SOL    HW2 4032   4.085   3.370   4.295
 1045SOL     OW 4033   1.750   1.612   2.650
 1045SOL    HW1 4034   1.781   1.631   2.743
 1045SOL    HW2 4035   1.752   1.513   2.635
 1046SOL     OW 4036   2.720   0.993   2.246
 1046SOL    HW1 4037   2.683   1.086   2.240
 1046SOL    HW2 4038   2.815   0.998   2.277
 1047SOL     OW 4039   0.574   6.204   2.456
 1047SOL    HW1 4040   0.513   6.273   2.495
 1047SOL    HW2 4041   0.530   6.114   2.461
 1048SOL     OW 4042   0.182   3.841   5.153
 1048SOL    HW1 4043   0.115   3.769   5.174
 1048SOL    HW2 4044   0.275   3.805   5.167
 1049SOL     OW 4045   0.568   3.939   5.380
 1049SOL    HW1 4046   0.634   3.867   5.402
 1049SOL    HW2 4047   0.517   3.964   5.462
 1050SOL     OW 4048   3.288   0.704   1.641
 1050SOL    HW1 4049   3.191   0.680   1.630
 1050SOL    HW2 4050   3.334   0.630   1.690
 1051SOL     OW 4051   5.087   3.219   2.001
 1051SOL    HW1 4052   5.088   3.177   2.091
 1051SOL    HW2 4053   5.009   3.281   1.994
 1052SOL     OW 4054   2.313   6.280   3.783
 1052SOL    HW1 4055   2.401   6.319   3.754
 1052SOL    HW2 4056   2.304   6.291   3.882
 1053SOL     OW 4057   3.231   5.645   3.207
 1053SOL    HW1 4058   3.173   5.698   3.268
 1053SOL    HW2 4059   3.324   5.680   3.210
 1054SOL     OW 4060   3.512   6.117   5.620
 1054SOL    HW1 4061   3.563   6.149   5.700
 1054SOL    HW2 4062   3.420   6.090   5.648
 1055SOL     OW 4063   3.429   4.948   4.796
 1055SOL    HW1 4064   3.445   4.879   4.866
 1055SOL    HW2 4065   3.467   5.035   4.826
 1056SOL     OW 4066   2.792   5.926   0.086
 1056SOL    HW1 4067   2.855   5.998   0.117
 1056SOL    HW2 4068   2.826   5.837   0.119
 1057SOL     OW 4069   3.550   3.853   1.245
 1057SOL    HW1 4070   3.610   3.776   1.224
 1057SOL    HW2 4071   3.454   3.824   1.238
 1058SOL     OW 4072   2.247   0.159   2.342
 1058SOL    HW1 4073   2.165   0.101   2.346
 1058SOL    HW2 4074   2.245   0.226   2.415
 1059SOL     OW 4075   3.886   0.494   0.424
 1059SOL    HW1 4076   3.974   0.490   0.471
 1059SOL    HW2 4077   3.813   0.468   0.488
 1060SOL     OW 4078   3.725   1.662   4.147
 1060SOL    HW1 4079   3.656   1.618   4.204
 1060SOL    HW2 4080   3.798   1.698   4.206
 1061SOL     OW 4081   2.681   5.352   1.229
 1061SOL    HW1 4082   2.688   5.363   1.130
 1061SOL    HW2 4083   2.588   5.326   1.253
 1062SOL     OW 4084   5.491   4.143   5.308
 1062SOL    HW1 4085   5.459   4.076   5.241
 1062SOL    HW2 4086   5.517   4.228   5.260
 1063SOL     OW 4087   4.115   2.031   5.848
 1063SOL    HW1 4088   4.027   1.988   5.827
 1063SOL    HW2 4089   4.162   1.977   5.918
 1064SOL     OW 4090   0.688   3.127   2.479
 1064SOL    HW1 4091   0.616   3.152   2.544
 1064SOL    HW2 4092   0.653   3.056   2.418
 1065SOL     OW 4093   3.974   5.879   0.260
 1065SOL    HW1 4094   3.966   5.912   0.354
 1065SOL    HW2 4095   4.066   5.844   0.244
 1066SOL     OW 4096   5.476   6.297   3.157
 1066SOL    HW1 4097   5.396   6.283   3.097
 1066SOL    HW2 4098   5.453   6.363   3.228
 1067SOL     OW 4099   3.282   4.317   0.895
 1067SOL    HW1 4100   3.358   4.341   0.956
 1067SOL    HW2 4101   3.202   4.293   0.949
 1068SOL     OW 4102   1.518   5.139   2.339
 1068SOL    HW1 4103   1.587   5.104   2.403
 1068SOL    HW2 4104   1.559   5.210   2.282
 1069SOL     OW 4105   4.053   3.831   3.056
 1069SOL    HW1 4106   4.010   3.918   3.082
 1069SOL    HW2 4107   4.114   3.847   2.978
 1070SOL     OW 4108   1.224   6.343   0.073
 1070SOL    HW1 4109   1.272   6.256   0.077
 1070SOL    HW2 4110   1.180   6.361   0.161
 1071SOL     OW 4111   4.350   5.001   3.515
 1071SOL    HW1 4112   4.272   5.029   3.459
 1071SOL    HW2 4113   4.334   5.031   3.610
 1072SOL     OW 4114   4.091   5.300   3.427
 1072SOL    HW1 4115   4.143   5.331   3.507
 1072SOL    HW2 4116   4.153   5.261   3.360
 1073SOL     OW 4117   2.815   5.656   4.110
 1073SOL    HW1 4118   2.882   5.652   4.036
 1073SOL    HW2 4119   2.763   5.741   4.105
 1074SOL     OW 4120   2.497   5.410   4.022
 1074SOL    HW1 4121   2.400   5.426   4.041
 1074SOL    HW2 4122   2.550   5.423   4.106
 1075SOL     OW 4123   0.947   4.332   2.985
 1075SOL    HW1 4124   0.968   4.379   3.071
 1075SOL    HW2 4125   1.027   4.280   2.956
 1076SOL     OW 4126   5.076   3.900   3.478
 1076SOL    HW1 4127   5.129   3.833   3.531
 1076SOL    HW2 4128   4.982   3.903   3.512
 1077SOL     OW 4129   3.858   0.693   2.231
 1077SOL    HW1 4130   3.772   0.741   2.214
 1077SOL    HW2 4131   3.921   0.753   2.280
 1078SOL     OW 4132   6.089   2.436   1.816
 1078SOL    HW1 4133   6.113   2.460   1.910
 1078SOL    HW2 4134   6.063   2.339   1.812
 1079SOL     OW 4135   1.729   4.997   2.880
 1079SOL    HW1 4136   1.759   4.902   2.864
 1079SOL    HW2 4137   1.807   5.051   2.912
 1080SOL     OW 4138   2.255   5.301   4.128
 1080SOL    HW1 4139   2.293   5.274   4.217
 1080SOL    HW2 4140   2.175   5.359   4.142
 1081SOL     OW 4141   1.227   0.549   0.538
 1081SOL    HW1 4142   1.139   0.589   0.566
 1081SOL    HW2 4143   1.212   0.455   0.506
 1082SOL     OW 4144   2.220   0.876   1.355
 1082SOL    HW1 4145   2.312   0.853   1.324
 1082SOL    HW2 4146   2.226   0.926   1.442
 1083SOL     OW 4147   3.531   4.026   2.104
 1083SOL    HW1 4148   3.447   4.006   2.054
 1083SOL    HW2 4149   3.597   4.068   2.042
 1084SOL     OW 4150   5.885   4.448   1.578
 1084SOL    HW1 4151   5.975   4.490   1.586
 1084SOL    HW2 4152   5.814   4.518   1.586
 1085SOL     OW 4153   1.722   6.326   3.587
 1085SOL    HW1 4154   1.751   6.312   3.681
 1085SOL    HW2 4155   1.779   6.270   3.526
 1086SOL     OW 4156   3.023   6.395   2.665
 1086SOL    HW1 4157   3.031   6.405   2.566
 1086SOL    HW2 4158   2.932   6.360   2.688
 1087SOL     OW 4159   3.636   3.132   5.380
 1087SOL    HW1 4160   3.643   3.058   5.314
 1087SOL    HW2 4161   3.568   3.108   5.450
 1088SOL     OW 4162   6.680   5.360   2.569
 1088SOL    HW1 4163   6.664   5.277   2.515
 1088SOL    HW2 4164   6.636   5.351   2.658
 1089SOL     OW 4165   0.055   0.457   3.767
 1089SOL    HW1 4166   0.076   0.490   3.859
 1089SOL    HW2 4167   7.015   0.524   3.719
 1090SOL     OW 4168   3.263   1.989   6.775
 1090SOL    HW1 4169   3.308   2.078   6.769
 1090SOL    HW2 4170   3.255   1.950   6.683
 1091SOL     OW 4171   1.383   1.956   5.901
 1091SOL    HW1 4172   1.440   1.882   5.866
 1091SOL    HW2 4173   1.416   2.043   5.864
 1092SOL     OW 4174   2.946   4.679   0.967
 1092SOL    HW1 4175   2.936   4.765   0.916
 1092SOL    HW2 4176   3.038   4.643   0.954
 1093SOL     OW 4177   0.008   1.742   1.317
 1093SOL    HW1 4178   6.955   1.798   1.271
 1093SOL    HW2 4179   7.007   1.646   1.297
 1094SOL     OW 4180   0.372   5.733   2.847
 1094SOL    HW1 4181   0.432   5.755   2.770
 1094SOL    HW2 4182   0.281   5.709   2.812
 1095SOL     OW 4183   1.828   3.092   5.096
 1095SOL    HW1 4184   1.818   2.995   5.077
 1095SOL    HW2 4185   1.925   3.114   5.107
 1096SOL     OW 4186   3.514   2.809   2.062
 1096SOL    HW1 4187   3.570   2.751   2.121
 1096SOL    HW2 4188   3.470   2.753   1.992
 1097SOL     OW 4189   3.020   5.264   5.764
 1097SOL    HW1 4190   3.056   5.273   5.856
 1097SOL    HW2 4191   2.935   5.212   5.766
 1098SOL     OW 4192   2.625   0.332   2.419
 1098SOL    HW1 4193   2.608   0.363   2.326
 1098SOL    HW2 4194   2.699   0.385   2.459
 1099SOL     OW 4195   3.150   0.649   2.263
 1099SOL    HW1 4196   3.086   0.650   2.186
 1099SOL    HW2 4197   3.110   0.600   2.340
 1100SOL     OW 4198   0.049   0.501   0.562
 1100SOL    HW1 4199   0.056   0.402   0.553
 1100SOL    HW2 4200   0.136   0.544   0.536
 1101SOL     OW 4201   5.787   4.353   0.976
 1101SOL    HW1 4202   5.839   4.284   1.026
 1101SOL    HW2 4203   5.842   4.436   0.965
 1102SOL     OW 4204   6.811   4.219   4.082
 1102SOL    HW1 4205   6.874   4.167   4.139
 1102SOL    HW2 4206   6.720   4.176   4.084
 1103SOL     OW 4207   0.796   2.667   6.433
 1103SOL    HW1 4208   0.799   2.719   6.519
 1103SOL    HW2 4209   0.810   2.729   6.356
 1104SOL     OW 4210   3.096   5.148   5.518
 1104SOL    HW1 4211   3.085   5.170   5.615
 1104SOL    HW2 4212   3.173   5.085   5.506
 1105SOL     OW 4213   3.813   5.730   0.832
 1105SOL    HW1 4214   3.759   5.767   0.907
 1105SOL    HW2 4215   3.779   5.766   0.745
 1106SOL     OW 4216   1.129   2.318   6.414
 1106SOL    HW1 4217   1.031   2.320   6.435
 1106SOL    HW2 4218   1.142   2.291   6.318
 1107SOL     OW 4219   6.682   6.679   1.519
 1107SOL    HW1 4220   6.638   6.589   1.526
 1107SOL    HW2 4221   6.693   6.719   1.610
 1108SOL     OW 4222   1.484   1.123   6.933
 1108SOL    HW1 4223   1.393   1.084   6.925
 1108SOL    HW2 4224   1.480   1.221   6.911
 1109SOL     OW 4225   4.070   1.586   3.434
 1109SOL    HW1 4226   4.143   1.520   3.420
 1109SOL    HW2 4227   4.108   1.671   3.471
 1110SOL     OW 4228   3.730   3.694   3.082
 1110SOL    HW1 4229   3.707   3.791   3.095
 1110SOL    HW2 4230   3.648   3.638   3.096
 1111SOL     OW 4231   4.015   0.276   6.577
 1111SOL    HW1 4232   4.054   0.294   6.667
 1111SOL    HW2 4233   4.014   0.360   6.524
 1112SOL     OW 4234   0.824   1.361   2.642
 1112SOL    HW1 4235   0.735   1.317   2.632
 1112SOL    HW2 4236   0.840   1.383   2.738
 1113SOL     OW 4237   0.872   5.180   2.064
 1113SOL    HW1 4238   0.834   5.098   2.106
 1113SOL    HW2 4239   0.864   5.256   2.129
 1114SOL     OW 4240   5.822   0.682   5.784
 1114SOL    HW1 4241   5.836   0.592   5.825
 1114SOL    HW2 4242   5.904   0.737   5.796
 1115SOL     OW 4243   1.585   4.834   0.108
 1115SOL    HW1 4244   1.553   4.888   0.186
 1115SOL    HW2 4245   1.685   4.826   0.112
 1116SOL     OW 4246   3.098   6.750   6.201
 1116SOL    HW1 4247   3.186   6.704   6.192
 1116SOL    HW2 4248   3.105   6.824   6.268
 1117SOL     OW 4249   3.140   2.433   0.584
 1117SOL    HW1 4250   3.153   2.442   0.682
 1117SOL    HW2 4251   3.216   2.381   0.545
 1118SOL     OW 4252   1.960   2.037   1.260
 1118SOL    HW1 4253   1.920   2.048   1.351
 1118SOL    HW2 4254   1.980   1.940   1.245
 1119SOL     OW 4255   3.653   3.586   3.387
 1119SOL    HW1 4256   3.740   3.624   3.419
 1119SOL    HW2 4257   3.646   3.490   3.415
 1120SOL     OW 4258   3.050   1.310   3.369
 1120SOL    HW1 4259   3.008   1.368   3.299
 1120SOL    HW2 4260   3.112   1.364   3.425
 1121SOL     OW 4261   4.853   3.954   2.669
 1121SOL    HW1 4262   4.793   3.966   2.590
 1121SOL    HW2 4263   4.922   4.026   2.670
 1122SOL     OW 4264   4.826   4.733   6.893
 1122SOL    HW1 4265   4.892   4.661   6.914
 1122SOL    HW2 4266   4.874   4.819   6.879
 1123SOL     OW 4267   4.176   0.624   2.108
 1123SOL    HW1 4268   4.090   0.577   2.089
 1123SOL    HW2 4269   4.169   0.670   2.197
 1124SOL     OW 4270   2.887   5.065   3.328
 1124SOL    HW1 4271   2.835   5.085   3.410
 1124SOL    HW2 4272   2.873   5.138   3.261
 1125SOL     OW 4273   3.464   4.540   5.641
 1125SOL    HW1 4274   3.490   4.509   5.549
 1125SOL    HW2 4275   3.441   4.461   5.697
 1126SOL     OW 4276   6.049   0.659   1.997
 1126SOL    HW1 4277   6.042   0.667   2.097
 1126SOL    HW2 4278   6.093   0.741   1.961
 1127SOL     OW 4279   2.935   5.791   6.133
 1127SOL    HW1 4280   2.948   5.801   6.232
 1127SOL    HW2 4281   2.949   5.696   6.107
 1128SOL     OW 4282   2.514   1.463   5.520
 1128SOL    HW1 4283   2.432   1.501   5.562
 1128SOL    HW2 4284   2.496   1.445   5.423
 1129SOL     OW 4285   4.224   5.857   6.813
 1129SOL    HW1 4286   4.161   5.792   6.771
 1129SOL    HW2 4287   4.182   5.896   6.895
 1130SOL     OW 4288   1.207   4.588   5.333
 1130SOL    HW1 4289   1.134   4.559   5.395
 1130SOL    HW2 4290   1.177   4.574   5.238
 1131SOL     OW 4291   1.274   4.390   5.798
 1131SOL    HW1 4292   1.224   4.355   5.718
 1131SOL    HW2 4293   1.234   4.353   5.881
 1132SOL     OW 4294   5.483   6.665   4.739
 1132SOL    HW1 4295   5.393   6.661   4.694
 1132SOL    HW2 4296   5.544   6.721   4.684
 1133SOL     OW 4297   0.240   1.662   0.064
 1133SOL    HW1 4298   0.151   1.618   0.061
 1133SOL    HW2 4299   0.288   1.648   6.994
 1134SOL     OW 4300   0.144   3.789   5.993
 1134SOL    HW1 4301   0.100   3.717   5.938
 1134SOL    HW2 4302   0.088   3.871   5.991
 1135SOL     OW 4303   6.736   2.047   4.120
 1135SOL    HW1 4304   6.771   2.015   4.033
 1135SOL    HW2 4305   6.639   2.070   4.111
 1136SOL     OW 4306   4.020   5.625   4.088
 1136SOL    HW1 4307   3.934   5.677   4.092
 1136SOL    HW2 4308   4.000   5.528   4.100
 1137SOL     OW 4309   0.774   0.636   6.872
 1137SOL    HW1 4310   0.870   0.661   6.858
 1137SOL    HW2 4311   0.746   0.662   6.964
 1138SOL     OW 4312   0.901   2.284   5.817
 1138SOL    HW1 4313   0.869   2.237   5.899
 1138SOL    HW2 4314   0.932   2.216   5.750
 1139SOL     OW 4315   7.014   0.310   2.836
 1139SOL    HW1 4316   0.065   0.274   2.902
 1139SOL    HW2 4317   6.984   0.236   2.776
 1140SOL     OW 4318   4.299   1.996   3.267
 1140SOL    HW1 4319   4.234   1.956   3.202
 1140SOL    HW2 4320   4.309   2.094   3.247
 1141SOL     OW 4321   0.486   0.225   5.990
 1141SOL    HW1 4322   0.547   0.148   6.005
 1141SOL    HW2 4323   0.513   0.301   6.049
 1142SOL     OW 4324   5.681   6.665   5.864
 1142SOL    HW1 4325   5.633   6.623   5.786
 1142SOL    HW2 4326   5.644   6.756   5.881
 1143SOL     OW 4327   5.525   2.616   1.481
 1143SOL    HW1 4328   5.550   2.629   1.385
 1143SOL    HW2 4329   5.530   2.518   1.503
 1144SOL     OW 4330   0.914   6.362   4.475
 1144SOL    HW1 4331   0.994   6.415   4.505
 1144SOL    HW2 4332   0.858   6.419   4.414
 1145SOL     OW 4333   3.062   4.874   5.005
 1145SOL    HW1 4334   3.072   4.970   5.032
 1145SOL    HW2 4335   3.116   4.817   5.066
 1146SOL     OW 4336   5.783   2.044   2.183
 1146SOL    HW1 4337   5.730   2.035   2.099
 1146SOL    HW2 4338   5.761   2.131   2.228
 1147SOL     OW 4339   6.856   3.967   2.752
 1147SOL    HW1 4340   6.888   4.062   2.760
 1147SOL    HW2 4341   6.891   3.914   2.829
 1148SOL     OW 4342   5.919   6.571   6.222
 1148SOL    HW1 4343   5.935   6.598   6.126
 1148SOL    HW2 4344   5.955   6.643   6.282
 1149SOL     OW 4345   5.001   3.528   2.528
 1149SOL    HW1 4346   5.080   3.556   2.474
 1149SOL    HW2 4347   4.924   3.509   2.467
 1150SOL     OW 4348   2.921   5.695   5.120
 1150SOL    HW1 4349   2.827   5.675   5.090
 1150SOL    HW2 4350   2.937   5.655   5.210
 1151SOL     OW 4351   1.819   5.748   0.594
 1151SOL    HW1 4352   1.907   5.784   0.625
 1151SOL    HW2 4353   1.810   5.652   0.621
 1152SOL     OW 4354   6.613   0.932   3.699
 1152SOL    HW1 4355   6.539   0.999   3.700
 1152SOL    HW2 4356   6.623   0.895   3.606
 1153SOL     OW 4357   1.053   4.613   2.333
 1153SOL    HW1 4358   1.143   4.570   2.318
 1153SOL    HW2 4359   1.012   4.577   2.417
 1154SOL     OW 4360   1.651   3.440   2.056
 1154SOL    HW1 4361   1.601   3.400   1.980
 1154SOL    HW2 4362   1.646   3.540   2.051
 1155SOL     OW 4363   4.884   0.911   2.024
 1155SOL    HW1 4364   4.940   0.914   2.107
 1155SOL    HW2 4365   4.794   0.875   2.045
 1156SOL     OW 4366   2.968   1.333   4.065
 1156SOL    HW1 4367   2.922   1.408   4.112
 1156SOL    HW2 4368   2.912   1.251   4.070
 1157SOL     OW 4369   2.037   3.645   3.310
 1157SOL    HW1 4370   1.983   3.628   3.227
 1157SOL    HW2 4371   2.118   3.698   3.286
 1158SOL     OW 4372   4.857   5.440   5.142
 1158SOL    HW1 4373   4.786   5.422   5.074
 1158SOL    HW2 4374   4.847   5.376   5.218
 1159SOL     OW 4375   6.254   4.171   3.288
 1159SOL    HW1 4376   6.295   4.132   3.370
 1159SOL    HW2 4377   6.166   4.126   3.270
 1160SOL     OW 4378   3.260   2.115   1.295
 1160SOL    HW1 4379   3.346   2.166   1.299
 1160SOL    HW2 4380   3.210   2.127   1.380
 1161SOL     OW 4381   3.974   1.316   2.717
 1161SOL    HW1 4382   3.900   1.266   2.672
 1161SOL    HW2 4383   4.059   1.303   2.666
 1162SOL     OW 4384   3.544   4.600   1.361
 1162SOL    HW1 4385   3.485   4.534   1.316
 1162SOL    HW2 4386   3.497   4.638   1.441
 1163SOL     OW 4387   4.772   6.524   3.623
 1163SOL    HW1 4388   4.870   6.527   3.643
 1163SOL    HW2 4389   4.727   6.603   3.664
 1164SOL     OW 4390   6.455   4.072   4.382
 1164SOL    HW1 4391   6.461   4.012   4.303
 1164SOL    HW2 4392   6.452   4.168   4.352
 1165SOL     OW 4393   0.093   5.230   2.528
 1165SOL    HW1 4394   0.166   5.263   2.469
 1165SOL    HW2 4395   0.120   5.241   2.624
 1166SOL     OW 4396   2.994   1.430   5.510
 1166SOL    HW1 4397   3.008   1.353   5.572
 1166SOL    HW2 4398   3.066   1.498   5.524
 1167SOL     OW 4399   4.407   1.448   5.734
 1167SOL    HW1 4400   4.499   1.446   5.773
 1167SOL    HW2 4401   4.410   1.485   5.642
 1168SOL     OW 4402   5.721   1.317   4.072
 1168SOL    HW1 4403   5.720   1.276   3.981
 1168SOL    HW2 4404   5.694   1.413   4.065
 1169SOL     OW 4405   2.310   2.577   0.939
 1169SOL    HW1 4406   2.310   2.504   0.871
 1169SOL    HW2 4407   2.405   2.605   0.956
 1170SOL     OW 4408   2.407   1.064   2.008
 1170SOL    HW1 4409   2.438   1.015   2.089
 1170SOL    HW2 4410   2.385   1.159   2.032
 1171SOL     OW 4411   4.659   0.773   0.854
 1171SOL    HW1 4412   4.641   0.681   0.889
 1171SOL    HW2 4413   4.703   0.767   0.764
 1172SOL     OW 4414   3.495   3.449   5.706
 1172SOL    HW1 4415   3.459   3.408   5.790
 1172SOL    HW2 4416   3.582   3.406   5.683
 1173SOL     OW 4417   5.428   5.982   0.442
 1173SOL    HW1 4418   5.515   6.023   0.470
 1173SOL    HW2 4419   5.441   5.931   0.357
 1174SOL     OW 4420   4.009   6.341   6.251
 1174SOL    HW1 4421   4.066   6.311   6.328
 1174SOL    HW2 4422   3.941   6.270   6.231
 1175SOL     OW 4423   0.070   5.238   5.254
 1175SOL    HW1 4424   6.990   5.222   5.229
 1175SOL    HW2 4425   0.126   5.243   5.171
 1176SOL     OW 4426   6.227   3.034   1.388
 1176SOL    HW1 4427   6.134   3.016   1.354
 1176SOL    HW2 4428   6.283   2.952   1.378
 1177SOL     OW 4429   0.114   3.129   5.155
 1177SOL    HW1 4430   0.097   3.131   5.056
 1177SOL    HW2 4431   0.205   3.166   5.174
 1178SOL     OW 4432   4.525   4.650   2.109
 1178SOL    HW1 4433   4.514   4.629   2.012
 1178SOL    HW2 4434   4.544   4.566   2.160
 1179SOL     OW 4435   1.581   5.234   6.300
 1179SOL    HW1 4436   1.536   5.172   6.236
 1179SOL    HW2 4437   1.547   5.327   6.286
 1180SOL     OW 4438   2.138   1.249   3.984
 1180SOL    HW1 4439   2.199   1.220   4.058
 1180SOL    HW2 4440   2.044   1.249   4.016
 1181SOL     OW 4441   0.990   4.211   2.026
 1181SOL    HW1 4442   1.051   4.184   1.951
 1181SOL    HW2 4443   0.937   4.291   1.999
 1182SOL     OW 4444   6.927   3.867   3.905
 1182SOL    HW1 4445   6.992   3.894   3.976
 1182SOL    HW2 4446   6.973   3.864   3.816
 1183SOL     OW 4447   3.931   5.993   0.505
 1183SOL    HW1 4448   4.029   6.014   0.511
 1183SOL    HW2 4449   3.880   6.076   0.484
 1184SOL     OW 4450   4.158   3.476   6.571
 1184SOL    HW1 4451   4.163   3.411   6.495
 1184SOL    HW2 4452   4.116   3.433   6.650
 1185SOL     OW 4453   3.581   1.535   6.234
 1185SOL    HW1 4454   3.579   1.629   6.269
 1185SOL    HW2 4455   3.638   1.531   6.152
 1186SOL     OW 4456   4.217   6.506   5.167
 1186SOL    HW1 4457   4.184   6.588   5.213
 1186SOL    HW2 4458   4.144   6.438   5.164
 1187SOL     OW 4459   0.556   2.522   4.595
 1187SOL    HW1 4460   0.505   2.495   4.677
 1187SOL    HW2 4461   0.633   2.580   4.622
 1188SOL     OW 4462   2.591   1.197   5.137
 1188SOL    HW1 4463   2.611   1.294   5.150
 1188SOL    HW2 4464   2.497   1.186   5.105
 1189SOL     OW 4465   1.140   1.155   1.467
 1189SOL    HW1 4466   1.238   1.138   1.467
 1189SOL    HW2 4467   1.102   1.133   1.377
 1190SOL     OW 4468   3.023   6.227   1.363
 1190SOL    HW1 4469   2.980   6.299   1.417
 1190SOL    HW2 4470   3.016   6.249   1.266
 1191SOL     OW 4471   1.714   4.003   1.609
 1191SOL    HW1 4472   1.678   3.909   1.607
 1191SOL    HW2 4473   1.642   4.066   1.638
 1192SOL     OW 4474   3.696   5.666   2.302
 1192SOL    HW1 4475   3.787   5.701   2.281
 1192SOL    HW2 4476   3.650   5.641   2.217
 1193SOL     OW 4477   3.430   2.002   3.603
 1193SOL    HW1 4478   3.342   2.039   3.635
 1193SOL    HW2 4479   3.448   2.035   3.510
 1194SOL     OW 4480   6.513   2.699   2.315
 1194SOL    HW1 4481   6.426   2.749   2.310
 1194SOL    HW2 4482   6.518   2.633   2.240
 1195SOL     OW 4483   4.368   0.691   6.653
 1195SOL    HW1 4484   4.290   0.750   6.631
 1195SOL    HW2 4485   4.446   0.715   6.595
 1196SOL     OW 4486   1.422   5.804   3.390
 1196SOL    HW1 4487   1.486   5.745   3.438
 1196SOL    HW2 4488   1.373   5.862   3.456
 1197SOL     OW 4489   3.654   5.089   0.154
 1197SOL    HW1 4490   3.711   5.126   0.228
 1197SOL    HW2 4491   3.700   5.012   0.112
 1198SOL     OW 4492   3.506   1.512   3.318
 1198SOL    HW1 4493   3.523   1.414   3.312
 1198SOL    HW2 4494   3.585   1.563   3.283
 1199SOL     OW 4495   3.210   4.037   3.975
 1199SOL    HW1 4496   3.137   4.010   3.912
 1199SOL    HW2 4497   3.290   4.067   3.923
 1200SOL     OW 4498   4.863   3.912   0.947
 1200SOL    HW1 4499   4.815   3.958   1.022
 1200SOL    HW2 4500   4.938   3.971   0.915
 1201SOL     OW 4501   1.946   1.369   5.175
 1201SOL    HW1 4502   1.889   1.438   5.219
 1201SOL    HW2 4503   1.990   1.313   5.245
 1202SOL     OW 4504   5.907   6.585   4.073
 1202SOL    HW1 4505   5.875   6.569   3.980
 1202SOL    HW2 4506   5.994   6.634   4.071
 1203SOL     OW 4507   5.145   0.338   1.402
 1203SOL    HW1 4508   5.221   0.304   1.459
 1203SOL    HW2 4509   5.162   0.313   1.306
 1204SOL     OW 4510   2.744   0.559   0.158
 1204SOL    HW1 4511   2.649   0.567   0.128
 1204SOL    HW2 4512   2.761   0.627   0.230
 1205SOL     OW 4513   1.087   2.592   6.280
 1205SOL    HW1 4514   1.018   2.580   6.351
 1205SOL    HW2 4515   1.178   2.569   6.316
 1206SOL     OW 4516   6.344   1.698   5.578
 1206SOL    HW1 4517   6.353   1.626   5.647
 1206SOL    HW2 4518   6.431   1.710   5.530
 1207SOL     OW 4519   5.990   5.980   5.678
 1207SOL    HW1 4520   5.974   5.883   5.692
 1207SOL    HW2 4521   6.066   5.992   5.614
 1208SOL     OW 4522   3.620   4.159   3.635
 1208SOL    HW1 4523   3.686   4.227   3.665
 1208SOL    HW2 4524   3.658   4.106   3.560
 1209SOL     OW 4525   0.064   3.337   4.688
 1209SOL    HW1 4526   0.030   3.425   4.656
 1209SOL    HW2 4527   0.112   3.291   4.613
 1210SOL     OW 4528   2.404   0.149   4.225
 1210SOL    HW1 4529   2.428   0.106   4.138
 1210SOL    HW2 4530   2.367   0.240   4.208
 1211SOL     OW 4531   6.929   3.975   3.380
 1211SOL    HW1 4532   6.860   4.002   3.312
 1211SOL    HW2 4533   6.908   3.884   3.415
 1212SOL     OW 4534   0.963   3.927   2.570
 1212SOL    HW1 4535   1.059   3.901   2.584
 1212SOL    HW2 4536   0.919   3.860   2.510
 1213SOL     OW 4537   6.581   3.745   5.041
 1213SOL    HW1 4538   6.616   3.687   5.115
 1213SOL    HW2 4539   6.656   3.767   4.978
 1214SOL     OW 4540   0.628   1.705   0.663
 1214SOL    HW1 4541   0.560   1.751   0.719
 1214SOL    HW2 4542   0.641   1.756   0.577
 1215SOL     OW 4543   0.849   0.450   1.896
 1215SOL    HW1 4544   0.805   0.528   1.941
 1215SOL    HW2 4545   0.839   0.369   1.953
 1216SOL     OW 4546   1.808   6.933   0.789
 1216SOL    HW1 4547   1.769   0.008   0.801
 1216SOL    HW2 4548   1.807   6.909   0.692
 1217SOL     OW 4549   1.346   2.758   3.529
 1217SOL    HW1 4550   1.310   2.770   3.436
 1217SOL    HW2 4551   1.298   2.681   3.573
 1218SOL     OW 4552   6.801   4.537   3.759
 1218SOL    HW1 4553   6.858   4.595   3.819
 1218SOL    HW2 4554   6.733   4.489   3.815
 1219SOL     OW 4555   1.145   6.080   2.814
 1219SOL    HW1 4556   1.242   6.059   2.800
 1219SOL    HW2 4557   1.112   6.138   2.739
 1220SOL     OW 4558   6.328   4.471   3.245
 1220SOL    HW1 4559   6.303   4.449   3.340
 1220SOL    HW2 4560   6.276   4.414   3.182
 1221SOL     OW 4561   4.692   4.943   0.505
 1221SOL    HW1 4562   4.687   5.040   0.528
 1221SOL    HW2 4563   4.659   4.928   0.412
 1222SOL     OW 4564   6.951   4.790   1.151
 1222SOL    HW1 4565   6.859   4.752   1.148
 1222SOL    HW2 4566   6.984   4.792   1.245
 1223SOL     OW 4567   0.793   4.104   5.135
 1223SOL    HW1 4568   0.873   4.098   5.075
 1223SOL    HW2 4569   0.793   4.193   5.181
 1224SOL     OW 4570   4.055   5.127   1.978
 1224SOL    HW1 4571   4.049   5.034   1.940
 1224SOL    HW2 4572   3.964   5.159   2.003
 1225SOL     OW 4573   5.284   1.808   6.484
 1225SOL    HW1 4574   5.286   1.750   6.565
 1225SOL    HW2 4575   5.290   1.904   6.512
 1226SOL     OW 4576   5.837   5.483   1.177
 1226SOL    HW1 4577   5.890   5.485   1.093
 1226SOL    HW2 4578   5.739   5.480   1.154
 1227SOL     OW 4579   6.336   4.435   0.702
 1227SOL    HW1 4580   6.265   4.415   0.634
 1227SOL    HW2 4581   6.380   4.522   0.679
 1228SOL     OW 4582   4.187   3.828   5.198
 1228SOL    HW1 4583   4.141   3.833   5.109
 1228SOL    HW2 4584   4.150   3.751   5.250
 1229SOL     OW 4585   1.515   5.670   1.901
 1229SOL    HW1 4586   1.605   5.629   1.886
 1229SOL    HW2 4587   1.526   5.755   1.953
 1230SOL     OW 4588   5.762   4.441   0.475
 1230SOL    HW1 4589   5.664   4.453   0.491
 1230SOL    HW2 4590   5.797   4.371   0.537
 1231SOL     OW 4591   2.239   0.739   0.833
 1231SOL    HW1 4592   2.314   0.786   0.788
 1231SOL    HW2 4593   2.161   0.801   0.843
 1232SOL     OW 4594   2.226   2.079   5.807
 1232SOL    HW1 4595   2.310   2.116   5.768
 1232SOL    HW2 4596   2.182   2.019   5.740
 1233SOL     OW 4597   0.211   5.313   5.001
 1233SOL    HW1 4598   0.296   5.298   4.950
 1233SOL    HW2 4599   0.133   5.290   4.944
 1234SOL     OW 4600   6.971   4.277   5.178
 1234SOL    HW1 4601   6.957   4.345   5.250
 1234SOL    HW2 4602   0.001   4.197   5.216
 1235SOL     OW 4603   6.560   5.159   0.362
 1235SOL    HW1 4604   6.524   5.070   0.335
 1235SOL    HW2 4605   6.585   5.212   0.281
 1236SOL     OW 4606   0.293   1.343   2.843
 1236SOL    HW1 4607   0.326   1.369   2.752
 1236SOL    HW2 4608   0.232   1.414   2.878
 1237SOL     OW 4609   0.625   0.381   5.601
 1237SOL    HW1 4610   0.638   0.454   5.669
 1237SOL    HW2 4611   0.550   0.321   5.630
 1238SOL     OW 4612   0.394   0.488   4.434
 1238SOL    HW1 4613   0.468   0.436   4.393
 1238SOL    HW2 4614   0.388   0.467   4.532
 1239SOL     OW 4615   4.381   5.222   3.276
 1239SOL    HW1 4616   4.395   5.152   3.207
 1239SOL    HW2 4617   4.447   5.209   3.351
 1240SOL     OW 4618   0.992   3.945   2.245
 1240SOL    HW1 4619   1.033   3.995   2.168
 1240SOL    HW2 4620   0.896   3.927   2.225
 1241SOL     OW 4621   3.283   5.606   6.311
 1241SOL    HW1 4622   3.276   5.702   6.338
 1241SOL    HW2 4623   3.209   5.584   6.247
 1242SOL     OW 4624   2.584   5.846   0.584
 1242SOL    HW1 4625   2.553   5.869   0.492
 1242SOL    HW2 4626   2.508   5.809   0.638
 1243SOL     OW 4627   0.893   4.607   4.325
 1243SOL    HW1 4628   0.990   4.589   4.336
 1243SOL    HW2 4629   0.876   4.641   4.232
 1244SOL     OW 4630   5.949   6.285   4.957
 1244SOL    HW1 4631   6.046   6.311   4.962
 1244SOL    HW2 4632   5.893   6.366   4.971
 1245SOL     OW 4633   4.128   6.815   1.740
 1245SOL    HW1 4634   4.180   6.893   1.774
 1245SOL    HW2 4635   4.128   6.816   1.640
 1246SOL     OW 4636   4.939   1.974   2.526
 1246SOL    HW1 4637   4.939   2.024   2.613
 1246SOL    HW2 4638   5.014   2.008   2.469
 1247SOL     OW 4639   4.626   6.213   2.961
 1247SOL    HW1 4640   4.610   6.184   3.056
 1247SOL    HW2 4641   4.723   6.234   2.949
 1248SOL     OW 4642   0.256   0.660   5.082
 1248SOL    HW1 4643   0.266   0.618   5.172
 1248SOL    HW2 4644   0.262   0.590   5.011
 1249SOL     OW 4645   6.352   0.119   0.289
 1249SOL    HW1 4646   6.392   0.149   0.375
 1249SOL    HW2 4647   6.274   0.178   0.266
 1250SOL     OW 4648   0.589   4.420   4.859
 1250SOL    HW1 4649   0.509   4.474   4.886
 1250SOL    HW2 4650   0.579   4.327   4.893
 1251SOL     OW 4651   1.997   0.214   3.232
 1251SOL    HW1 4652   1.928   0.147   3.205
 1251SOL    HW2 4653   2.088   0.172   3.227
 1252SOL     OW 4654   3.234   4.915   6.520
 1252SOL    HW1 4655   3.166   4.842   6.520
 1252SOL    HW2 4656   3.209   4.984   6.588
 1253SOL     OW 4657   3.107   5.414   0.566
 1253SOL    HW1 4658   3.067   5.334   0.611
 1253SOL    HW2 4659   3.034   5.472   0.530
 1254SOL     OW 4660   6.295   0.960   3.949
 1254SOL    HW1 4661   6.220   0.899   3.920
 1254SOL    HW2 4662   6.268   1.008   4.033
 1255SOL     OW 4663   5.864   1.961   6.560
 1255SOL    HW1 4664   5.925   2.002   6.491
 1255SOL    HW2 4665   5.791   1.911   6.514
 1256SOL     OW 4666   6.677   6.291   6.281
 1256SOL    HW1 4667   6.747   6.305   6.210
 1256SOL    HW2 4668   6.587   6.290   6.238
 1257SOL     OW 4669   6.896   6.190   2.014
 1257SOL    HW1 4670   6.844   6.179   1.929
 1257SOL    HW2 4671   6.869   6.118   2.078
 1258SOL     OW 4672   5.147   5.408   6.315
 1258SOL    HW1 4673   5.167   5.420   6.413
 1258SOL    HW2 4674   5.205   5.336   6.278
 1259SOL     OW 4675   6.025   6.821   4.702
 1259SOL    HW1 4676   6.025   6.724   4.674
 1259SOL    HW2 4677   5.962   6.833   4.778
 1260SOL     OW 4678   3.158   0.594   0.872
 1260SOL    HW1 4679   3.079   0.537   0.894
 1260SOL    HW2 4680   3.242   0.544   0.897
 1261SOL     OW 4681   1.202   3.743   5.254
 1261SOL    HW1 4682   1.118   3.779   5.212
 1261SOL    HW2 4683   1.260   3.820   5.281
 1262SOL     OW 4684   4.736   6.714   0.316
 1262SOL    HW1 4685   4.739   6.622   0.277
 1262SOL    HW2 4686   4.647   6.730   0.357
 1263SOL     OW 4687   0.047   1.200   1.075
 1263SOL    HW1 4688   0.075   1.203   1.171
 1263SOL    HW2 4689   0.009   1.289   1.048
 1264SOL     OW 4690   5.990   2.567   4.439
 1264SOL    HW1 4691   5.997   2.523   4.528
 1264SOL    HW2 4692   6.042   2.515   4.371
 1265SOL     OW 4693   5.978   6.000   3.669
 1265SOL    HW1 4694   5.888   5.963   3.694
 1265SOL    HW2 4695   5.971   6.099   3.658
 1266SOL     OW 4696   2.539   1.047   4.414
 1266SOL    HW1 4697   2.472   1.017   4.347
 1266SOL    HW2 4698   2.502   1.125   4.465
 1267SOL     OW 4699   6.926   4.551   1.858
 1267SOL    HW1 4700   7.002   4.616   1.868
 1267SOL    HW2 4701   6.948   4.466   1.904
 1268SOL     OW 4702   6.509   4.474   6.325
 1268SOL    HW1 4703   6.527   4.496   6.420
 1268SOL    HW2 4704   6.428   4.416   6.319
 1269SOL     OW 4705   1.176   3.717   5.822
 1269SOL    HW1 4706   1.116   3.781   5.773
 1269SOL    HW2 4707   1.271   3.743   5.808
 1270SOL     OW 4708   1.181   2.585   3.610
 1270SOL    HW1 4709   1.220   2.493   3.609
 1270SOL    HW2 4710   1.084   2.581   3.633
 1271SOL     OW 4711   5.113   4.386   2.809
 1271SOL    HW1 4712   5.203   4.429   2.820
 1271SOL    HW2 4713   5.082   4.352   2.898
 1272SOL     OW 4714   5.779   0.047   0.704
 1272SOL    HW1 4715   5.814   0.022   0.614
 1272SOL    HW2 4716   5.829   7.014   0.775
 1273SOL     OW 4717   2.328   6.047   4.213
 1273SOL    HW1 4718   2.288   5.967   4.257
 1273SOL    HW2 4719   2.262   6.087   4.150
 1274SOL     OW 4720   5.553   2.352   1.575
 1274SOL    HW1 4721   5.455   2.345   1.558
 1274SOL    HW2 4722   5.571   2.329   1.671
 1275SOL     OW 4723   3.520   1.230   3.334
 1275SOL    HW1 4724   3.616   1.208   3.348
 1275SOL    HW2 4725   3.470   1.218   3.420
 1276SOL     OW 4726   5.128   6.665   3.416
 1276SOL    HW1 4727   5.051   6.602   3.408
 1276SOL    HW2 4728   5.211   6.614   3.437
 1277SOL     OW 4729   0.568   1.960   4.806
 1277SOL    HW1 4730   0.504   2.028   4.771
 1277SOL    HW2 4731   0.545   1.870   4.770
 1278SOL     OW 4732   2.714   1.567   4.564
 1278SOL    HW1 4733   2.789   1.629   4.545
 1278SOL    HW2 4734   2.671   1.592   4.651
 1279SOL     OW 4735   1.798   4.842   0.284
 1279SOL    HW1 4736   1.862   4.771   0.315
 1279SOL    HW2 4737   1.715   4.838   0.340
 1280SOL     OW 4738   0.676   6.729   2.761
 1280SOL    HW1 4739   0.731   6.813   2.764
 1280SOL    HW2 4740   0.735   6.652   2.737
 1281SOL     OW 4741   1.243   6.252   3.959
 1281SOL    HW1 4742   1.155   6.254   4.007
 1281SOL    HW2 4743   1.260   6.161   3.922
 1282SOL     OW 4744   1.654   6.772   2.321
 1282SOL    HW1 4745   1.589   6.698   2.340
 1282SOL    HW2 4746   1.745   6.745   2.352
 1283SOL     OW 4747   5.586   4.664   5.442
 1283SOL    HW1 4748   5.575   4.623   5.532
 1283SOL    HW2 4749   5.554   4.759   5.444
 1284SOL     OW 4750   2.647   2.305   2.997
 1284SOL    HW1 4751   2.747   2.313   2.999
 1284SOL    HW2 4752   2.621   2.223   2.946
 1285SOL     OW 4753   6.220   2.194   5.568
 1285SOL    HW1 4754   6.164   2.272   5.595
 1285SOL    HW2 4755   6.309   2.200   5.614
 1286SOL     OW 4756   4.968   5.519   1.073
 1286SOL    HW1 4757   4.924   5.566   1.150
 1286SOL    HW2 4758   5.055   5.481   1.103
 1287SOL     OW 4759   6.017   3.417   6.176
 1287SOL    HW1 4760   6.036   3.375   6.088
 1287SOL    HW2 4761   5.928   3.463   6.173
 1288SOL     OW 4762   6.762   3.128   3.163
 1288SOL    HW1 4763   6.682   3.166   3.116
 1288SOL    HW2 4764   6.776   3.034   3.133
 1289SOL     OW 4765   0.279   5.115   3.146
 1289SOL    HW1 4766   0.253   5.132   3.241
 1289SOL    HW2 4767   0.253   5.195   3.091
 1290SOL     OW 4768   6.630   6.986   2.162
 1290SOL    HW1 4769   6.712   6.933   2.184
 1290SOL    HW2 4770   6.657   0.061   2.130
 1291SOL     OW 4771   1.899   5.512   1.464
 1291SOL    HW1 4772   1.891   5.566   1.548
 1291SOL    HW2 4773   1.910   5.573   1.386
 1292SOL     OW 4774   1.515   6.947   0.469
 1292SOL    HW1 4775   1.613   6.930   0.464
 1292SOL    HW2 4776   1.474   6.934   0.378
 1293SOL     OW 4777   6.733   1.083   6.708
 1293SOL    HW1 4778   6.678   1.070   6.626
 1293SOL    HW2 4779   6.776   1.174   6.704
 1294SOL     OW 4780   0.736   1.666   4.053
 1294SOL    HW1 4781   0.726   1.567   4.048
 1294SOL    HW2 4782   0.759   1.693   4.147
 1295SOL     OW 4783   5.193   4.069   0.582
 1295SOL    HW1 4784   5.096   4.052   0.599
 1295SOL    HW2 4785   5.202   4.143   0.515
 1296SOL     OW 4786   3.794   0.929   0.507
 1296SOL    HW1 4787   3.707   0.957   0.548
 1296SOL    HW2 4788   3.845   0.875   0.574
 1297SOL     OW 4789   5.440   0.716   6.075
 1297SOL    HW1 4790   5.363   0.676   6.126
 1297SOL    HW2 4791   5.494   0.774   6.136
 1298SOL     OW 4792   5.903   2.758   2.894
 1298SOL    HW1 4793   5.921   2.660   2.907
 1298SOL    HW2 4794   5.849   2.792   2.971
 1299SOL     OW 4795   1.416   4.319   4.242
 1299SOL    HW1 4796   1.350   4.357   4.176
 1299SOL    HW2 4797   1.416   4.219   4.236
 1300SOL     OW 4798   3.444   3.484   2.902
 1300SOL    HW1 4799   3.458   3.456   2.808
 1300SOL    HW2 4800   3.444   3.584   2.907
 1301SOL     OW 4801   0.815   0.871   1.788
 1301SOL    HW1 4802   0.718   0.862   1.812
 1301SOL    HW2 4803   0.851   0.957   1.825
 1302SOL     OW 4804   2.704   5.417   5.666
 1302SOL    HW1 4805   2.789   5.461   5.696
 1302SOL    HW2 4806   2.726   5.335   5.612
 1303SOL     OW 4807   3.014   6.910   1.770
 1303SOL    HW1 4808   2.933   6.947   1.723
 1303SOL    HW2 4809   3.083   6.982   1.779
 1304SOL     OW 4810   3.656   0.725   5.395
 1304SOL    HW1 4811   3.704   0.641   5.368
 1304SOL    HW2 4812   3.689   0.755   5.484
 1305SOL     OW 4813   5.966   6.337   4.220
 1305SOL    HW1 4814   5.920   6.424   4.200
 1305SOL    HW2 4815   5.942   6.270   4.149
 1306SOL     OW 4816   1.408   5.530   3.703
 1306SOL    HW1 4817   1.499   5.567   3.681
 1306SOL    HW2 4818   1.358   5.515   3.618
 1307SOL     OW 4819   1.267   0.868   5.401
 1307SOL    HW1 4820   1.237   0.817   5.481
 1307SOL    HW2 4821   1.284   0.805   5.325
 1308SOL     OW 4822   4.460   6.444   3.872
 1308SOL    HW1 4823   4.382   6.382   3.881
 1308SOL    HW2 4824   4.514   6.419   3.791
 1309SOL     OW 4825   6.587   3.050   4.125
 1309SOL    HW1 4826   6.524   3.113   4.079
 1309SOL    HW2 4827   6.677   3.057   4.083
 1310SOL     OW 4828   5.101   3.906   5.933
 1310SOL    HW1 4829   5.147   3.963   6.002
 1310SOL    HW2 4830   5.050   3.833   5.979
 1311SOL     OW 4831   5.469   4.427   0.120
 1311SOL    HW1 4832   5.405   4.416   0.044
 1311SOL    HW2 4833   5.552   4.374   0.103
 1312SOL     OW 4834   6.436   1.612   2.182
 1312SOL    HW1 4835   6.359   1.551   2.165
 1312SOL    HW2 4836   6.488   1.624   2.098
 1313SOL     OW 4837   4.061   5.115   4.993
 1313SOL    HW1 4838   4.053   5.134   5.091
 1313SOL    HW2 4839   4.137   5.167   4.955
 1314SOL     OW 4840   0.157   1.361   6.212
 1314SOL    HW1 4841   0.121   1.270   6.191
 1314SOL    HW2 4842   0.248   1.370   6.172
 1315SOL     OW 4843   1.324   6.722   3.615
 1315SOL    HW1 4844   1.366   6.733   3.525
 1315SOL    HW2 4845   1.380   6.660   3.670
 1316SOL     OW 4846   3.251   5.700   4.332
 1316SOL    HW1 4847   3.331   5.643   4.351
 1316SOL    HW2 4848   3.242   5.770   4.402
 1317SOL     OW 4849   0.610   3.608   3.185
 1317SOL    HW1 4850   0.665   3.692   3.182
 1317SOL    HW2 4851   0.525   3.626   3.234
 1318SOL     OW 4852   0.318   6.801   2.237
 1318SOL    HW1 4853   0.245   6.844   2.182
 1318SOL    HW2 4854   0.277   6.734   2.299
 1319SOL     OW 4855   0.351   6.640   1.277
 1319SOL    HW1 4856   0.445   6.670   1.262
 1319SOL    HW2 4857   0.342   6.608   1.372
 1320SOL     OW 4858   6.045   4.656   5.297
 1320SOL    HW1 4859   5.980   4.597   5.345
 1320SOL    HW2 4860   6.006   4.748   5.291
 1321SOL     OW 4861   3.661   1.329   1.264
 1321SOL    HW1 4862   3.622   1.284   1.183
 1321SOL    HW2 4863   3.699   1.418   1.237
 1322SOL     OW 4864   5.196   0.983   6.084
 1322SOL    HW1 4865   5.221   0.900   6.135
 1322SOL    HW2 4866   5.162   1.052   6.148
 1323SOL     OW 4867   6.522   0.505   4.508
 1323SOL    HW1 4868   6.604   0.556   4.486
 1323SOL    HW2 4869   6.450   0.527   4.443
 1324SOL     OW 4870   1.473   2.734   0.686
 1324SOL    HW1 4871   1.440   2.693   0.600
 1324SOL    HW2 4872   1.570   2.756   0.678
 1325SOL     OW 4873   4.630   5.148   3.761
 1325SOL    HW1 4874   4.535   5.130   3.735
 1325SOL    HW2 4875   4.633   5.190   3.851
 1326SOL     OW 4876   5.255   3.984   4.143
 1326SOL    HW1 4877   5.163   4.010   4.170
 1326SOL    HW2 4878   5.289   4.048   4.074
 1327SOL     OW 4879   3.371   6.399   3.270
 1327SOL    HW1 4880   3.391   6.496   3.273
 1327SOL    HW2 4881   3.450   6.347   3.303
 1328SOL     OW 4882   2.459   1.747   1.573
 1328SOL    HW1 4883   2.533   1.813   1.563
 1328SOL    HW2 4884   2.374   1.786   1.536
 1329SOL     OW 4885   0.815   5.754   1.746
 1329SOL    HW1 4886   0.895   5.776   1.691
 1329SOL    HW2 4887   0.734   5.795   1.705
 1330SOL     OW 4888   6.316   6.596   1.633
 1330SOL    HW1 4889   6.361   6.580   1.720
 1330SOL    HW2 4890   6.346   6.683   1.595
 1331SOL     OW 4891   0.814   2.201   1.493
 1331SOL    HW1 4892   0.774   2.167   1.408
 1331SOL    HW2 4893   0.901   2.245   1.473
 1332SOL     OW 4894   4.548   1.847   0.230
 1332SOL    HW1 4895   4.493   1.797   0.296
 1332SOL    HW2 4896   4.495   1.923   0.193
 1333SOL     OW 4897   4.080   3.576   5.350
 1333SOL    HW1 4898   4.150   3.543   5.414
 1333SOL    HW2 4899   4.049   3.500   5.293
 1334SOL     OW 4900   2.146   3.407   3.974
 1334SOL    HW1 4901   2.143   3.355   4.060
 1334SOL    HW2 4902   2.108   3.499   3.990
 1335SOL     OW 4903   2.084   5.660   3.303
 1335SOL    HW1 4904   2.076   5.719   3.383
 1335SOL    HW2 4905   2.113   5.569   3.332
 1336SOL     OW 4906   6.955   6.550   4.545
 1336SOL    HW1 4907   6.995   6.535   4.636
 1336SOL    HW2 4908   6.886   6.623   4.551
 1337SOL     OW 4909   2.784   0.218   6.990
 1337SOL    HW1 4910   2.809   0.307   6.952
 1337SOL    HW2 4911   2.837   0.147   6.945
 1338SOL     OW 4912   3.946   4.425   0.583
 1338SOL    HW1 4913   3.897   4.507   0.554
 1338SOL    HW2 4914   3.896   4.380   0.657
 1339SOL     OW 4915   0.402   4.384   6.353
 1339SOL    HW1 4916   0.310   4.361   6.385
 1339SOL    HW2 4917   0.432   4.470   6.394
 1340SOL     OW 4918   2.730   2.373   5.889
 1340SOL    HW1 4919   2.752   2.290   5.941
 1340SOL    HW2 4920   2.761   2.362   5.795
 1341SOL     OW 4921   5.004   1.701   3.892
 1341SOL    HW1 4922   4.993   1.747   3.803
 1341SOL    HW2 4923   5.101   1.695   3.915
 1342SOL     OW 4924   0.598   5.781   0.376
 1342SOL    HW1 4925   0.565   5.852   0.439
 1342SOL    HW2 4926   0.553   5.695   0.397
 1343SOL     OW 4927   3.101   5.829   3.355
 1343SOL    HW1 4928   3.127   5.904   3.416
 1343SOL    HW2 4929   3.112   5.858   3.260
 1344SOL     OW 4930   4.516   1.469   2.350
 1344SOL    HW1 4931   4.598   1.513   2.315
 1344SOL    HW2 4932   4.436   1.525   2.327
 1345SOL     OW 4933   6.300   5.416   1.965
 1345SOL    HW1 4934   6.262   5.496   1.919
 1345SOL    HW2 4935   6.331   5.442   2.057
 1346SOL     OW 4936   6.671   1.523   3.135
 1346SOL    HW1 4937   6.626   1.537   3.047
 1346SOL    HW2 4938   6.625   1.575   3.206
 1347SOL     OW 4939   4.193   0.943   3.923
 1347SOL    HW1 4940   4.150   0.934   3.833
 1347SOL    HW2 4941   4.139   1.004   3.980
 1348SOL     OW 4942   5.668   6.445   4.800
 1348SOL    HW1 4943   5.613   6.526   4.779
 1348SOL    HW2 4944   5.762   6.459   4.770
 1349SOL     OW 4945   5.381   1.315   6.505
 1349SOL    HW1 4946   5.475   1.323   6.539
 1349SOL    HW2 4947   5.361   1.394   6.447
 1350SOL     OW 4948   4.033   1.455   4.689
 1350SOL    HW1 4949   4.057   1.369   4.735
 1350SOL    HW2 4950   3.981   1.434   4.605
 1351SOL     OW 4951   1.055   1.541   4.345
 1351SOL    HW1 4952   1.109   1.545   4.261
 1351SOL    HW2 4953   1.018   1.632   4.367
 1352SOL     OW 4954   1.390   6.299   4.451
 1352SOL    HW1 4955   1.328   6.326   4.377
 1352SOL    HW2 4956   1.353   6.218   4.497
 1353SOL     OW 4957   2.881   3.265   6.013
 1353SOL    HW1 4958   2.846   3.301   5.927
 1353SOL    HW2 4959   2.951   3.326   6.049
 1354SOL     OW 4960   0.394   6.426   6.849
 1354SOL    HW1 4961   0.353   6.507   6.889
 1354SOL    HW2 4962   0.443   6.450   6.766
 1355SOL     OW 4963   4.972   3.349   0.268
 1355SOL    HW1 4964   5.008   3.304   0.350
 1355SOL    HW2 4965   5.033   3.424   0.242
 1356SOL     OW 4966   3.830   3.395   2.873
 1356SOL    HW1 4967   3.748   3.355   2.915
 1356SOL    HW2 4968   3.885   3.439   2.944
 1357SOL     OW 4969   4.039   2.266   5.956
 1357SOL    HW1 4970   3.986   2.248   6.039
 1357SOL    HW2 4971   4.074   2.180   5.919
 1358SOL     OW 4972   1.918   3.022   4.657
 1358SOL    HW1 4973   1.943   2.936   4.700
 1358SOL    HW2 4974   2.001   3.074   4.635
 1359SOL     OW 4975   1.026   1.397   6.499
 1359SOL    HW1 4976   0.981   1.379   6.411
 1359SOL    HW2 4977   1.077   1.316   6.527
 1360SOL     OW 4978   3.028   3.468   4.739
 1360SOL    HW1 4979   3.003   3.372   4.749
 1360SOL    HW2 4980   3.068   3.502   4.824
 1361SOL     OW 4981   1.364   6.259   1.227
 1361SOL    HW1 4982   1.318   6.324   1.288
 1361SOL    HW2 4983   1.453   6.295   1.200
 1362SOL     OW 4984   3.627   0.987   6.275
 1362SOL    HW1 4985   3.666   0.897   6.255
 1362SOL    HW2 4986   3.669   1.056   6.217
 1363SOL     OW 4987   6.615   6.060   1.139
 1363SOL    HW1 4988   6.676   6.076   1.061
 1363SOL    HW2 4989   6.671   6.048   1.221
 1364SOL     OW 4990   1.275   3.171   1.029
 1364SOL    HW1 4991   1.320   3.092   1.069
 1364SOL    HW2 4992   1.180   3.148   1.007
 1365SOL     OW 4993   1.767   2.957   6.238
 1365SOL    HW1 4994   1.746   2.861   6.255
 1365SOL    HW2 4995   1.754   2.978   6.141
 1366SOL     OW 4996   3.987   1.443   1.912
 1366SOL    HW1 4997   3.893   1.437   1.947
 1366SOL    HW2 4998   3.994   1.387   1.829
 1367SOL     OW 4999   1.537   0.292   4.251
 1367SOL    HW1 5000   1.457   0.350   4.269
 1367SOL    HW2 5001   1.549   0.282   4.152
 1368SOL     OW 5002   1.992   5.669   4.851
 1368SOL    HW1 5003   1.936   5.707   4.777
 1368SOL    HW2 5004   1.985   5.569   4.850
 1369SOL     OW 5005   2.571   5.709   3.248
 1369SOL    HW1 5006   2.584   5.613   3.223
 1369SOL    HW2 5007   2.480   5.739   3.219
 1370SOL     OW 5008   6.556   3.175   2.980
 1370SOL    HW1 5009   6.492   3.106   2.946
 1370SOL    HW2 5010   6.624   3.195   2.909
 1371SOL     OW 5011   6.450   1.935   6.707
 1371SOL    HW1 5012   6.482   1.941   6.613
 1371SOL    HW2 5013   6.523   1.901   6.766
 1372SOL     OW 5014   4.944   2.014   2.138
 1372SOL    HW1 5015   4.928   2.087   2.205
 1372SOL    HW2 5016   4.857   1.986   2.098
 1373SOL     OW 5017   4.242   2.745   1.184
 1373SOL    HW1 5018   4.315   2.697   1.135
 1373SOL    HW2 5019   4.251   2.843   1.169
 1374SOL     OW 5020   3.214   3.576   3.970
 1374SOL    HW1 5021   3.235   3.662   4.017
 1374SOL    HW2 5022   3.115   3.569   3.958
 1375SOL     OW 5023   6.177   3.995   5.502
 1375SOL    HW1 5024   6.152   3.899   5.514
 1375SOL    HW2 5025   6.121   4.035   5.429
 1376SOL     OW 5026   2.957   4.676   6.059
 1376SOL    HW1 5027   3.010   4.667   6.143
 1376SOL    HW2 5028   2.940   4.773   6.042
 1377SOL     OW 5029   0.978   2.239   3.726
 1377SOL    HW1 5030   0.946   2.236   3.632
 1377SOL    HW2 5031   0.956   2.328   3.766
 1378SOL     OW 5032   5.011   2.504   3.602
 1378SOL    HW1 5033   5.078   2.570   3.568
 1378SOL    HW2 5034   5.026   2.488   3.699
 1379SOL     OW 5035   5.392   5.298   6.421
 1379SOL    HW1 5036   5.482   5.275   6.460
 1379SOL    HW2 5037   5.342   5.356   6.484
 1380SOL     OW 5038   7.008   6.738   3.954
 1380SOL    HW1 5039   0.005   6.802   3.878
 1380SOL    HW2 5040   7.000   6.790   4.039
 1381SOL     OW 5041   6.769   2.744   6.125
 1381SOL    HW1 5042   6.682   2.713   6.086
 1381SOL    HW2 5043   6.788   2.837   6.093
 1382SOL     OW 5044   4.587   2.081   5.662
 1382SOL    HW1 5045   4.532   2.099   5.743
 1382SOL    HW2 5046   4.538   2.017   5.602
 1383SOL     OW 5047   5.173   0.391   0.621
 1383SOL    HW1 5048   5.212   0.355   0.537
 1383SOL    HW2 5049   5.209   0.341   0.700
 1384SOL     OW 5050   5.479   2.009   2.498
 1384SOL    HW1 5051   5.498   2.107   2.500
 1384SOL    HW2 5052   5.471   1.975   2.592
 1385SOL     OW 5053   6.755   6.432   1.947
 1385SOL    HW1 5054   6.805   6.362   1.998
 1385SOL    HW2 5055   6.704   6.388   1.872
 1386SOL     OW 5056   1.748   0.513   4.244
 1386SOL    HW1 5057   1.704   0.425   4.228
 1386SOL    HW2 5058   1.824   0.502   4.308
 1387SOL     OW 5059   1.060   5.848   1.640
 1387SOL    HW1 5060   1.140   5.846   1.699
 1387SOL    HW2 5061   1.072   5.920   1.570
 1388SOL     OW 5062   6.298   0.721   1.435
 1388SOL    HW1 5063   6.374   0.686   1.380
 1388SOL    HW2 5064   6.235   0.772   1.377
 1389SOL     OW 5065   6.633   0.378   0.923
 1389SOL    HW1 5066   6.632   0.301   0.986
 1389SOL    HW2 5067   6.723   0.387   0.882
 1390SOL     OW 5068   1.432   1.548   4.219
 1390SOL    HW1 5069   1.447   1.640   4.255
 1390SOL    HW2 5070   1.334   1.532   4.210
 1391SOL     OW 5071   0.621   3.504   3.799
 1391SOL    HW1 5072   0.680   3.471   3.725
 1391SOL    HW2 5073   0.676   3.558   3.863
 1392SOL     OW 5074   5.235   5.361   3.902
 1392SOL    HW1 5075   5.315   5.306   3.925
 1392SOL    HW2 5076   5.263   5.455   3.883
 1393SOL     OW 5077   3.590   4.492   6.677
 1393SOL    HW1 5078   3.631   4.417   6.728
 1393SOL    HW2 5079   3.560   4.459   6.587
 1394SOL     OW 5080   1.074   6.858   6.604
 1394SOL    HW1 5081   0.995   6.804   6.575
 1394SOL    HW2 5082   1.052   6.955   6.600
 1395SOL     OW 5083   4.148   4.987   6.558
 1395SOL    HW1 5084   4.213   4.927   6.604
 1395SOL    HW2 5085   4.058   4.942   6.555
 1396SOL     OW 5086   5.103   5.964   2.667
 1396SOL    HW1 5087   5.156   5.886   2.635
 1396SOL    HW2 5088   5.039   5.935   2.738
 1397SOL     OW 5089   5.750   5.774   4.732
 1397SOL    HW1 5090   5.693   5.761   4.651
 1397SOL    HW2 5091   5.772   5.871   4.742
 1398SOL     OW 5092   1.775   0.067   5.228
 1398SOL    HW1 5093   1.780   0.143   5.293
 1398SOL    HW2 5094   1.703   0.004   5.256
 1399SOL     OW 5095   2.672   5.542   2.402
 1399SOL    HW1 5096   2.769   5.539   2.378
 1399SOL    HW2 5097   2.633   5.629   2.371
 1400SOL     OW 5098   1.373   0.455   3.560
 1400SOL    HW1 5099   1.299   0.518   3.534
 1400SOL    HW2 5100   1.445   0.459   3.491
 1401SOL     OW 5101   6.801   2.171   4.384
 1401SOL    HW1 5102   6.737   2.242   4.412
 1401SOL    HW2 5103   6.757   2.111   4.318
 1402SOL     OW 5104   5.756   2.469   6.956
 1402SOL    HW1 5105   5.753   2.492   0.038
 1402SOL    HW2 5106   5.816   2.533   6.909
 1403SOL     OW 5107   3.956   1.139   2.135
 1403SOL    HW1 5108   3.969   1.230   2.175
 1403SOL    HW2 5109   4.037   1.083   2.152
 1404SOL     OW 5110   4.791   1.374   6.439
 1404SOL    HW1 5111   4.720   1.409   6.377
 1404SOL    HW2 5112   4.787   1.425   6.525
 1405SOL     OW 5113   3.520   2.640   0.745
 1405SOL    HW1 5114   3.441   2.701   0.747
 1405SOL    HW2 5115   3.589   2.673   0.810
 1406SOL     OW 5116   0.906   3.260   1.849
 1406SOL    HW1 5117   0.897   3.201   1.930
 1406SOL    HW2 5118   0.985   3.320   1.861
 1407SOL     OW 5119   6.734   2.357   2.577
 1407SOL    HW1 5120   6.656   2.307   2.541
 1407SOL    HW2 5121   6.703   2.445   2.614
 1408SOL     OW 5122   6.642   4.555   0.003
 1408SOL    HW1 5123   6.612   4.461   0.023
 1408SOL    HW2 5124   6.667   4.561   6.922
 1409SOL     OW 5125   0.184   1.276   4.110
 1409SOL    HW1 5126   0.176   1.211   4.185
 1409SOL    HW2 5127   0.166   1.230   4.023
 1410SOL     OW 5128   0.199   1.734   6.751
 1410SOL    HW1 5129   0.288   1.721   6.795
 1410SOL    HW2 5130   0.208   1.721   6.653
 1411SOL     OW 5131   1.644   1.536   1.397
 1411SOL    HW1 5132   1.623   1.533   1.300
 1411SOL    HW2 5133   1.723   1.596   1.412
 1412SOL     OW 5134   1.885   2.122   0.830
 1412SOL    HW1 5135   1.821   2.045   0.825
 1412SOL    HW2 5136   1.921   2.141   0.738
 1413SOL     OW 5137   3.189   0.025   3.192
 1413SOL    HW1 5138   3.171   0.068   3.281
 1413SOL    HW2 5139   3.193   6.942   3.204
 1414SOL     OW 5140   1.430   1.122   2.496
 1414SOL    HW1 5141   1.486   1.193   2.454
 1414SOL    HW2 5142   1.459   1.109   2.591
 1415SOL     OW 5143   5.664   6.814   4.595
 1415SOL    HW1 5144   5.731   6.885   4.577
 1415SOL    HW2 5145   5.699   6.725   4.565
 1416SOL     OW 5146   4.719   5.593   3.735
 1416SOL    HW1 5147   4.818   5.597   3.748
 1416SOL    HW2 5148   4.678   5.537   3.806
 1417SOL     OW 5149   3.482   3.108   5.621
 1417SOL    HW1 5150   3.440   3.021   5.646
 1417SOL    HW2 5151   3.525   3.149   5.702
 1418SOL     OW 5152   3.203   4.125   4.250
 1418SOL    HW1 5153   3.303   4.130   4.252
 1418SOL    HW2 5154   3.173   4.106   4.156
 1419SOL     OW 5155   3.206   6.177   3.759
 1419SOL    HW1 5156   3.289   6.122   3.754
 1419SOL    HW2 5157   3.153   6.150   3.840
 1420SOL     OW 5158   0.368   6.795   2.814
 1420SOL    HW1 5159   0.448   6.823   2.867
 1420SOL    HW2 5160   0.355   6.696   2.822
 1421SOL     OW 5161   3.262   1.237   3.192
 1421SOL    HW1 5162   3.179   1.273   3.234
 1421SOL    HW2 5163   3.342   1.276   3.237
 1422SOL     OW 5164   2.829   5.734   0.650
 1422SOL    HW1 5165   2.735   5.758   0.625
 1422SOL    HW2 5166   2.893   5.784   0.591
 1423SOL     OW 5167   4.542   0.268   2.693
 1423SOL    HW1 5168   4.515   0.226   2.606
 1423SOL    HW2 5169   4.502   0.216   2.768
 1424SOL     OW 5170   6.409   5.324   2.256
 1424SOL    HW1 5171   6.316   5.286   2.248
 1424SOL    HW2 5172   6.475   5.249   2.253
 1425SOL     OW 5173   2.068   0.401   4.091
 1425SOL    HW1 5174   1.988   0.341   4.097
 1425SOL    HW2 5175   2.046   0.491   4.128
 1426SOL     OW 5176   1.663   1.281   5.820
 1426SOL    HW1 5177   1.656   1.304   5.723
 1426SOL    HW2 5178   1.641   1.361   5.875
 1427SOL     OW 5179   4.990   2.245   6.342
 1427SOL    HW1 5180   5.034   2.196   6.417
 1427SOL    HW2 5181   5.032   2.218   6.256
 1428SOL     OW 5182   5.698   0.504   0.823
 1428SOL    HW1 5183   5.659   0.511   0.732
 1428SOL    HW2 5184   5.716   0.596   0.859
 1429SOL     OW 5185   5.243   5.946   0.619
 1429SOL    HW1 5186   5.335   5.948   0.580
 1429SOL    HW2 5187   5.239   6.007   0.698
 1430SOL     OW 5188   2.817   4.903   2.516
 1430SOL    HW1 5189   2.750   4.851   2.461
 1430SOL    HW2 5190   2.895   4.928   2.459
 1431SOL     OW 5191   2.151   0.916   0.467
 1431SOL    HW1 5192   2.101   0.876   0.544
 1431SOL    HW2 5193   2.207   0.992   0.501
 1432SOL     OW 5194   3.399   6.869   1.486
 1432SOL    HW1 5195   3.416   6.874   1.585
 1432SOL    HW2 5196   3.461   6.931   1.438
 1433SOL     OW 5197   5.028   6.927   3.413
 1433SOL    HW1 5198   4.963   6.942   3.339
 1433SOL    HW2 5199   5.067   6.835   3.405
 1434SOL     OW 5200   0.812   1.106   5.048
 1434SOL    HW1 5201   0.764   1.155   4.976
 1434SOL    HW2 5202   0.852   1.171   5.112
 1435SOL     OW 5203   6.873   2.193   3.759
 1435SOL    HW1 5204   6.775   2.180   3.772
 1435SOL    HW2 5205   6.907   2.124   3.695
 1436SOL     OW 5206   5.086   3.374   1.531
 1436SOL    HW1 5207   5.009   3.433   1.554
 1436SOL    HW2 5208   5.122   3.332   1.614
 1437SOL     OW 5209   4.632   0.529   2.724
 1437SOL    HW1 5210   4.542   0.562   2.751
 1437SOL    HW2 5211   4.623   0.438   2.682
 1438SOL     OW 5212   2.807   6.996   2.020
 1438SOL    HW1 5213   2.804   6.935   1.941
 1438SOL    HW2 5214   2.807   0.075   1.990
 1439SOL     OW 5215   0.835   5.793   2.517
 1439SOL    HW1 5216   0.896   5.742   2.577
 1439SOL    HW2 5217   0.829   5.748   2.428
 1440SOL     OW 5218   2.611   2.737   1.366
 1440SOL    HW1 5219   2.693   2.780   1.328
 1440SOL    HW2 5220   2.637   2.658   1.421
 1441SOL     OW 5221   4.812   6.176   6.753
 1441SOL    HW1 5222   4.762   6.196   6.837
 1441SOL    HW2 5223   4.820   6.260   6.699
 1442SOL     OW 5224   4.904   5.499   1.598
 1442SOL    HW1 5225   4.914   5.595   1.624
 1442SOL    HW2 5226   4.829   5.489   1.534
 1443SOL     OW 5227   6.947   2.605   2.428
 1443SOL    HW1 5228   6.941   2.507   2.449
 1443SOL    HW2 5229   6.862   2.650   2.455
 1444SOL     OW 5230   0.469   6.791   4.904
 1444SOL    HW1 5231   0.499   6.830   4.817
 1444SOL    HW2 5232   0.530   6.715   4.929
 1445SOL     OW 5233   0.992   2.357   1.162
 1445SOL    HW1 5234   1.012   2.450   1.191
 1445SOL    HW2 5235   0.898   2.333   1.188
 1446SOL     OW 5236   6.032   5.197   1.640
 1446SOL    HW1 5237   6.024   5.254   1.722
 1446SOL    HW2 5238   6.128   5.175   1.623
 1447SOL     OW 5239   0.234   6.613   3.799
 1447SOL    HW1 5240   0.276   6.660   3.721
 1447SOL    HW2 5241   0.157   6.668   3.833
 1448SOL     OW 5242   1.939   0.948   5.317
 1448SOL    HW1 5243   1.878   0.983   5.246
 1448SOL    HW2 5244   1.908   0.980   5.407
 1449SOL     OW 5245   1.827   3.159   2.464
 1449SOL    HW1 5246   1.906   3.131   2.409
 1449SOL    HW2 5247   1.824   3.104   2.548
 1450SOL     OW 5248   3.147   2.102   2.453
 1450SOL    HW1 5249   3.128   2.111   2.355
 1450SOL    HW2 5250   3.243   2.119   2.471
 1451SOL     OW 5251   4.266   1.828   2.739
 1451SOL    HW1 5252   4.332   1.901   2.722
 1451SOL    HW2 5253   4.293   1.746   2.688
 1452SOL     OW 5254   4.281   2.974   5.337
 1452SOL    HW1 5255   4.291   2.880   5.305
 1452SOL    HW2 5256   4.184   2.996   5.347
 1453SOL     OW 5257   1.775   3.193   4.825
 1453SOL    HW1 5258   1.789   3.170   4.921
 1453SOL    HW2 5259   1.835   3.137   4.768
 1454SOL     OW 5260   3.094   2.124   2.178
 1454SOL    HW1 5261   3.077   2.030   2.147
 1454SOL    HW2 5262   3.028   2.185   2.135
 1455SOL     OW 5263   0.098   5.721   2.763
 1455SOL    HW1 5264   0.012   5.680   2.792
 1455SOL    HW2 5265   0.080   5.811   2.723
 1456SOL     OW 5266   6.415   6.166   3.582
 1456SOL    HW1 5267   6.347   6.111   3.631
 1456SOL    HW2 5268   6.464   6.224   3.648
 1457SOL     OW 5269   1.315   5.314   5.525
 1457SOL    HW1 5270   1.240   5.375   5.549
 1457SOL    HW2 5271   1.357   5.278   5.608
 1458SOL     OW 5272   6.923   5.779   4.884
 1458SOL    HW1 5273   6.974   5.737   4.959
 1458SOL    HW2 5274   6.863   5.851   4.921
 1459SOL     OW 5275   6.921   6.217   5.556
 1459SOL    HW1 5276   6.822   6.232   5.556
 1459SOL    HW2 5277   6.940   6.119   5.546
 1460SOL     OW 5278   1.505   6.183   4.821
 1460SOL    HW1 5279   1.549   6.171   4.732
 1460SOL    HW2 5280   1.569   6.227   4.885
 1461SOL     OW 5281   5.812   3.788   3.686
 1461SOL    HW1 5282   5.891   3.834   3.726
 1461SOL    HW2 5283   5.816   3.690   3.707
 1462SOL     OW 5284   1.114   2.258   2.044
 1462SOL    HW1 5285   1.153   2.209   2.123
 1462SOL    HW2 5286   1.057   2.195   1.991
 1463SOL     OW 5287   1.911   4.605   6.678
 1463SOL    HW1 5288   1.947   4.668   6.609
 1463SOL    HW2 5289   1.817   4.579   6.654
 1464SOL     OW 5290   0.964   4.089   5.468
 1464SOL    HW1 5291   0.921   4.010   5.512
 1464SOL    HW2 5292   0.899   4.164   5.464
 1465SOL     OW 5293   1.395   3.035   5.689
 1465SOL    HW1 5294   1.485   3.076   5.676
 1465SOL    HW2 5295   1.403   2.935   5.692
 1466SOL     OW 5296   5.479   1.195   2.659
 1466SOL    HW1 5297   5.392   1.163   2.620
 1466SOL    HW2 5298   5.553   1.177   2.595
 1467SOL     OW 5299   0.368   0.554   3.748
 1467SOL    HW1 5300   0.426   0.618   3.697
 1467SOL    HW2 5301   0.279   0.596   3.765
 1468SOL     OW 5302   3.388   6.756   3.909
 1468SOL    HW1 5303   3.293   6.748   3.941
 1468SOL    HW2 5304   3.402   6.696   3.831
 1469SOL     OW 5305   5.344   4.598   3.237
 1469SOL    HW1 5306   5.290   4.514   3.241
 1469SOL    HW2 5307   5.409   4.600   3.313
 1470SOL     OW 5308   6.184   1.581   1.840
 1470SOL    HW1 5309   6.163   1.543   1.749
 1470SOL    HW2 5310   6.105   1.631   1.874
 1471SOL     OW 5311   4.910   6.458   0.443
 1471SOL    HW1 5312   4.908   6.522   0.520
 1471SOL    HW2 5313   4.898   6.365   0.477
 1472SOL     OW 5314   2.745   0.656   6.676
 1472SOL    HW1 5315   2.675   0.606   6.625
 1472SOL    HW2 5316   2.785   0.595   6.745
 1473SOL     OW 5317   1.634   5.817   3.188
 1473SOL    HW1 5318   1.659   5.725   3.220
 1473SOL    HW2 5319   1.605   5.813   3.093
 1474SOL     OW 5320   1.525   4.202   1.665
 1474SOL    HW1 5321   1.468   4.188   1.745
 1474SOL    HW2 5322   1.469   4.232   1.588
 1475SOL     OW 5323   6.578   0.051   6.473
 1475SOL    HW1 5324   6.617   6.995   6.531
 1475SOL    HW2 5325   6.614   0.041   6.380
 1476SOL     OW 5326   6.036   0.154   6.561
 1476SOL    HW1 5327   6.006   0.143   6.466
 1476SOL    HW2 5328   6.088   0.073   6.589
 1477SOL     OW 5329   3.711   4.137   1.920
 1477SOL    HW1 5330   3.793   4.190   1.895
 1477SOL    HW2 5331   3.644   4.143   1.846
 1478SOL     OW 5332   4.303   3.696   6.239
 1478SOL    HW1 5333   4.242   3.768   6.270
 1478SOL    HW2 5334   4.313   3.701   6.139
 1479SOL     OW 5335   4.302   4.740   0.949
 1479SOL    HW1 5336   4.306   4.824   0.895
 1479SOL    HW2 5337   4.213   4.696   0.936
 1480SOL     OW 5338   2.914   1.782   3.538
 1480SOL    HW1 5339   2.849   1.837   3.486
 1480SOL    HW2 5340   2.877   1.690   3.553
 1481SOL     OW 5341   4.250   1.602   5.414
 1481SOL    HW1 5342   4.216   1.513   5.443
 1481SOL    HW2 5343   4.350   1.598   5.404
 1482SOL     OW 5344   6.587   1.341   1.175
 1482SOL    HW1 5345   6.546   1.420   1.221
 1482SOL    HW2 5346   6.666   1.371   1.122
 1483SOL     OW 5347   6.558   6.331   0.523
 1483SOL    HW1 5348   6.610   6.275   0.588
 1483SOL    HW2 5349   6.500   6.395   0.573
 1484SOL     OW 5350   3.215   6.334   5.806
 1484SOL    HW1 5351   3.182   6.371   5.893
 1484SOL    HW2 5352   3.193   6.397   5.732
 1485SOL     OW 5353   5.345   3.947   3.413
 1485SOL    HW1 5354   5.271   3.934   3.479
 1485SOL    HW2 5355   5.422   3.887   3.437
 1486SOL     OW 5356   5.968   6.273   4.484
 1486SOL    HW1 5357   6.005   6.342   4.546
 1486SOL    HW2 5358   5.954   6.312   4.393
 1487SOL     OW 5359   5.696   0.426   6.482
 1487SOL    HW1 5360   5.658   0.442   6.391
 1487SOL    HW2 5361   5.635   0.367   6.534
 1488SOL     OW 5362   6.741   2.753   2.478
 1488SOL    HW1 5363   6.712   2.800   2.561
 1488SOL    HW2 5364   6.662   2.737   2.419
 1489SOL     OW 5365   3.223   5.597   0.062
 1489SOL    HW1 5366   3.203   5.575   0.157
 1489SOL    HW2 5367   3.306   5.549   0.033
 1490SOL     OW 5368   5.853   2.921   2.087
 1490SOL    HW1 5369   5.812   2.961   2.004
 1490SOL    HW2 5370   5.936   2.871   2.062
 1491SOL     OW 5371   5.530   3.716   4.380
 1491SOL    HW1 5372   5.481   3.801   4.402
 1491SOL    HW2 5373   5.492   3.677   4.296
 1492SOL     OW 5374   1.470   3.065   1.965
 1492SOL    HW1 5375   1.497   2.992   1.902
 1492SOL    HW2 5376   1.431   3.142   1.913
 1493SOL     OW 5377   6.378   2.121   6.428
 1493SOL    HW1 5378   6.323   2.067   6.365
 1493SOL    HW2 5379   6.358   2.218   6.414
 1494SOL     OW 5380   1.820   3.117   6.450
 1494SOL    HW1 5381   1.908   3.087   6.487
 1494SOL    HW2 5382   1.802   3.070   6.363
 1495SOL     OW 5383   5.819   3.899   4.257
 1495SOL    HW1 5384   5.763   3.843   4.196
 1495SOL    HW2 5385   5.827   3.853   4.345
 1496SOL     OW 5386   6.757   6.104   5.848
 1496SOL    HW1 5387   6.839   6.070   5.802
 1496SOL    HW2 5388   6.686   6.034   5.844
 1497SOL     OW 5389   4.648   2.673   2.623
 1497SOL    HW1 5390   4.630   2.668   2.524
 1497SOL    HW2 5391   4.671   2.767   2.647
 1498SOL     OW 5392   3.624   4.072   0.828
 1498SOL    HW1 5393   3.559   4.012   0.784
 1498SOL    HW2 5394   3.717   4.041   0.810
 1499SOL     OW 5395   1.211   4.436   4.097
 1499SOL    HW1 5396   1.150   4.374   4.049
 1499SOL    HW2 5397   1.212   4.525   4.051
 1500SOL     OW 5398   2.562   5.597   1.487
 1500SOL    HW1 5399   2.555   5.617   1.389
 1500SOL    HW2 5400   2.473   5.565   1.520
 1501SOL     OW 5401   5.415   1.197   1.353
 1501SOL    HW1 5402   5.320   1.181   1.326
 1501SOL    HW2 5403   5.457   1.262   1.290
 1502SOL     OW 5404   0.759   6.478   6.108
 1502SOL    HW1 5405   0.716   6.499   6.195
 1502SOL    HW2 5406   0.738   6.384   6.082
 1503SOL     OW 5407   6.286   5.991   2.237
 1503SOL    HW1 5408   6.210   5.995   2.171
 1503SOL    HW2 5409   6.249   5.991   2.330
 1504SOL     OW 5410   1.689   0.076   3.824
 1504SOL    HW1 5411   1.770   0.115   3.780
 1504SOL    HW2 5412   1.652   0.003   3.766
 1505SOL     OW 5413   6.510   4.341   5.091
 1505SOL    HW1 5414   6.585   4.336   5.026
 1505SOL    HW2 5415   6.424   4.352   5.042
 1506SOL     OW 5416   1.067   1.058   0.659
 1506SOL    HW1 5417   1.028   0.966   0.651
 1506SOL    HW2 5418   1.130   1.061   0.737
 1507SOL     OW 5419   2.071   2.297   3.729
 1507SOL    HW1 5420   2.025   2.242   3.798
 1507SOL    HW2 5421   2.047   2.393   3.741
 1508SOL     OW 5422   1.408   0.739   1.542
 1508SOL    HW1 5423   1.466   0.816   1.568
 1508SOL    HW2 5424   1.323   0.774   1.503
 1509SOL     OW 5425   4.283   0.930   4.740
 1509SOL    HW1 5426   4.213   0.862   4.760
 1509SOL    HW2 5427   4.325   0.910   4.651
 1510SOL     OW 5428   2.454   6.769   5.295
 1510SOL    HW1 5429   2.416   6.797   5.207
 1510SOL    HW2 5430   2.392   6.703   5.339
 1511SOL     OW 5431   3.795   4.170   5.135
 1511SOL    HW1 5432   3.792   4.169   5.035
 1511SOL    HW2 5433   3.883   4.134   5.166
 1512SOL     OW 5434   5.431   0.189   1.133
 1512SOL    HW1 5435   5.519   0.232   1.154
 1512SOL    HW2 5436   5.427   0.169   1.035
 1513SOL     OW 5437   3.099   6.343   5.328
 1513SOL    HW1 5438   3.179   6.397   5.356
 1513SOL    HW2 5439   3.117   6.246   5.341
 1514SOL     OW 5440   2.682   1.780   0.212
 1514SOL    HW1 5441   2.775   1.745   0.199
 1514SOL    HW2 5442   2.686   1.863   0.267
 1515SOL     OW 5443   3.628   0.633   1.457
 1515SOL    HW1 5444   3.570   0.713   1.470
 1515SOL    HW2 5445   3.721   0.662   1.436
 1516SOL     OW 5446   0.169   6.731   6.652
 1516SOL    HW1 5447   0.223   6.751   6.734
 1516SOL    HW2 5448   0.155   6.632   6.644
 1517SOL     OW 5449   2.309   6.040   2.439
 1517SOL    HW1 5450   2.259   6.122   2.470
 1517SOL    HW2 5451   2.350   6.058   2.350
 1518SOL     OW 5452   2.113   2.145   6.612
 1518SOL    HW1 5453   2.032   2.129   6.669
 1518SOL    HW2 5454   2.150   2.235   6.631
 1519SOL     OW 5455   0.586   4.416   0.027
 1519SOL    HW1 5456   0.508   4.453   0.077
 1519SOL    HW2 5457   0.590   4.459   6.953
 1520SOL     OW 5458   0.135   6.618   3.136
 1520SOL    HW1 5459   0.220   6.588   3.091
 1520SOL    HW2 5460   0.138   6.595   3.233
 1521SOL     OW 5461   2.654   4.850   0.097
 1521SOL    HW1 5462   2.720   4.809   0.159
 1521SOL    HW2 5463   2.576   4.787   0.086
 1522SOL     OW 5464   6.036   6.109   4.014
 1522SOL    HW1 5465   5.947   6.136   3.976
 1522SOL    HW2 5466   6.101   6.185   4.004
 1523SOL     OW 5467   2.723   6.810   0.305
 1523SOL    HW1 5468   2.716   6.804   0.205
 1523SOL    HW2 5469   2.660   6.879   0.339
 1524SOL     OW 5470   2.031   2.430   4.321
 1524SOL    HW1 5471   2.007   2.479   4.405
 1524SOL    HW2 5472   2.059   2.336   4.344
 1525SOL     OW 5473   6.237   3.899   0.408
 1525SOL    HW1 5474   6.287   3.815   0.387
 1525SOL    HW2 5475   6.241   3.916   0.506
 1526SOL     OW 5476   0.888   1.300   1.914
 1526SOL    HW1 5477   0.908   1.262   1.824
 1526SOL    HW2 5478   0.817   1.245   1.958
 1527SOL     OW 5479   5.160   1.348   4.386
 1527SOL    HW1 5480   5.233   1.386   4.329
 1527SOL    HW2 5481   5.152   1.250   4.368
 1528SOL     OW 5482   2.815   3.372   2.154
 1528SOL    HW1 5483   2.871   3.405   2.229
 1528SOL    HW2 5484   2.722   3.405   2.164
 1529SOL     OW 5485   4.233   0.807   5.891
 1529SOL    HW1 5486   4.226   0.831   5.794
 1529SOL    HW2 5487   4.144   0.777   5.925
 1530SOL     OW 5488   2.838   6.715   1.859
 1530SOL    HW1 5489   2.912   6.764   1.813
 1530SOL    HW2 5490   2.776   6.677   1.790
 1531SOL     OW 5491   5.698   6.183   4.589
 1531SOL    HW1 5492   5.744   6.132   4.517
 1531SOL    HW2 5493   5.765   6.230   4.646
 1532SOL     OW 5494   2.816   5.352   2.205
 1532SOL    HW1 5495   2.911   5.343   2.174
 1532SOL    HW2 5496   2.800   5.446   2.236
 1533SOL     OW 5497   5.380   5.980   1.517
 1533SOL    HW1 5498   5.441   5.948   1.445
 1533SOL    HW2 5499   5.359   5.904   1.579
 1534SOL     OW 5500   2.819   4.998   6.597
 1534SOL    HW1 5501   2.768   4.977   6.681
 1534SOL    HW2 5502   2.827   4.915   6.542
 1535SOL     OW 5503   4.830   4.864   3.482
 1535SOL    HW1 5504   4.920   4.855   3.439
 1535SOL    HW2 5505   4.839   4.910   3.570
 1536SOL     OW 5506   4.092   4.657   6.477
 1536SOL    HW1 5507   4.104   4.632   6.573
 1536SOL    HW2 5508   4.023   4.598   6.436
 1537SOL     OW 5509   2.969   6.113   2.084
 1537SOL    HW1 5510   3.058   6.070   2.071
 1537SOL    HW2 5511   2.954   6.182   2.013
 1538SOL     OW 5512   2.625   1.554   0.464
 1538SOL    HW1 5513   2.711   1.596   0.433
 1538SOL    HW2 5514   2.619   1.461   0.428
 1539SOL     OW 5515   0.301   3.145   0.642
 1539SOL    HW1 5516   0.342   3.120   0.729
 1539SOL    HW2 5517   0.260   3.065   0.600
 1540SOL     OW 5518   3.505   5.709   3.631
 1540SOL    HW1 5519   3.590   5.744   3.592
 1540SOL    HW2 5520   3.505   5.609   3.626
 1541SOL     OW 5521   4.539   2.569   5.311
 1541SOL    HW1 5522   4.606   2.633   5.272
 1541SOL    HW2 5523   4.577   2.528   5.394
 1542SOL     OW 5524   0.822   4.514   2.815
 1542SOL    HW1 5525   0.860   4.432   2.858
 1542SOL    HW2 5526   0.722   4.510   2.818
 1543SOL     OW 5527   4.058   4.962   0.914
 1543SOL    HW1 5528   4.118   5.016   0.973
 1543SOL    HW2 5529   4.056   5.003   0.823
 1544SOL     OW 5530   3.713   2.894   3.410
 1544SOL    HW1 5531   3.719   2.799   3.440
 1544SOL    HW2 5532   3.762   2.905   3.323
 1545SOL     OW 5533   6.465   4.557   0.915
 1545SOL    HW1 5534   6.430   4.560   1.009
 1545SOL    HW2 5535   6.414   4.490   0.862
 1546SOL     OW 5536   6.218   6.431   5.744
 1546SOL    HW1 5537   6.131   6.390   5.772
 1546SOL    HW2 5538   6.287   6.359   5.735
 1547SOL     OW 5539   1.703   2.754   6.561
 1547SOL    HW1 5540   1.711   2.777   6.465
 1547SOL    HW2 5541   1.751   2.823   6.616
 1548SOL     OW 5542   6.967   2.563   0.430
 1548SOL    HW1 5543   7.006   2.472   0.448
 1548SOL    HW2 5544   0.019   2.620   0.385
 1549SOL     OW 5545   4.812   0.458   3.990
 1549SOL    HW1 5546   4.896   0.461   4.044
 1549SOL    HW2 5547   4.743   0.517   4.033
 1550SOL     OW 5548   3.042   3.759   4.674
 1550SOL    HW1 5549   3.034   3.661   4.690
 1550SOL    HW2 5550   2.997   3.809   4.748
 1551SOL     OW 5551   0.176   5.314   6.110
 1551SOL    HW1 5552   0.142   5.405   6.133
 1551SOL    HW2 5553   0.270   5.304   6.141
 1552SOL     OW 5554   2.387   3.960   1.165
 1552SOL    HW1 5555   2.484   3.937   1.164
 1552SOL    HW2 5556   2.348   3.940   1.254
 1553SOL     OW 5557   1.253   2.234   5.736
 1553SOL    HW1 5558   1.278   2.299   5.808
 1553SOL    HW2 5559   1.248   2.282   5.648
 1554SOL     OW 5560   4.387   1.943   3.535
 1554SOL    HW1 5561   4.327   1.995   3.476
 1554SOL    HW2 5562   4.480   1.981   3.531
 1555SOL     OW 5563   6.671   4.406   5.346
 1555SOL    HW1 5564   6.757   4.450   5.320
 1555SOL    HW2 5565   6.608   4.406   5.267
 1556SOL     OW 5566   2.294   1.054   5.349
 1556SOL    HW1 5567   2.240   0.980   5.389
 1556SOL    HW2 5568   2.363   1.085   5.414
 1557SOL     OW 5569   1.565   1.505   6.008
 1557SOL    HW1 5570   1.488   1.554   5.968
 1557SOL    HW2 5571   1.550   1.493   6.106
 1558SOL     OW 5572   6.776   6.881   4.310
 1558SOL    HW1 5573   6.687   6.869   4.265
 1558SOL    HW2 5574   6.764   6.876   4.409
 1559SOL     OW 5575   1.625   1.102   6.124
 1559SOL    HW1 5576   1.547   1.069   6.070
 1559SOL    HW2 5577   1.701   1.123   6.062
 1560SOL     OW 5578   0.159   0.353   1.462
 1560SOL    HW1 5579   0.239   0.413   1.455
 1560SOL    HW2 5580   0.082   0.405   1.499
 1561SOL     OW 5581   6.054   6.187   1.884
 1561SOL    HW1 5582   6.129   6.194   1.817
 1561SOL    HW2 5583   6.071   6.109   1.944
 1562SOL     OW 5584   5.899   6.958   4.474
 1562SOL    HW1 5585   5.954   6.949   4.557
 1562SOL    HW2 5586   5.902   6.873   4.422
 1563SOL     OW 5587   2.621   6.889   6.275
 1563SOL    HW1 5588   2.704   6.840   6.302
 1563SOL    HW2 5589   2.562   6.827   6.222
 1564SOL     OW 5590   1.689   2.924   3.183
 1564SOL    HW1 5591   1.759   2.893   3.247
 1564SOL    HW2 5592   1.726   2.923   3.090
 1565SOL     OW 5593   6.236   4.540   1.578
 1565SOL    HW1 5594   6.213   4.443   1.573
 1565SOL    HW2 5595   6.305   4.562   1.509
 1566SOL     OW 5596   5.902   4.138   2.074
 1566SOL    HW1 5597   5.845   4.195   2.133
 1566SOL    HW2 5598   5.903   4.177   1.981
 1567SOL     OW 5599   6.854   5.559   5.501
 1567SOL    HW1 5600   6.829   5.463   5.490
 1567SOL    HW2 5601   6.776   5.609   5.540
 1568SOL     OW 5602   0.325   6.276   1.083
 1568SOL    HW1 5603   0.412   6.296   1.038
 1568SOL    HW2 5604   0.255   6.337   1.047
 1569SOL     OW 5605   4.096   5.704   4.415
 1569SOL    HW1 5606   4.024   5.675   4.352
 1569SOL    HW2 5607   4.153   5.773   4.371
 1570SOL     OW 5608   2.674   2.253   1.210
 1570SOL    HW1 5609   2.730   2.185   1.162
 1570SOL    HW2 5610   2.731   2.330   1.237
 1571SOL     OW 5611   0.416   3.030   6.281
 1571SOL    HW1 5612   0.385   3.101   6.344
 1571SOL    HW2 5613   0.516   3.028   6.279
 1572SOL     OW 5614   0.477   5.728   4.419
 1572SOL    HW1 5615   0.453   5.641   4.376
 1572SOL    HW2 5616   0.395   5.784   4.430
 1573SOL     OW 5617   4.097   0.605   0.049
 1573SOL    HW1 5618   4.190   0.579   0.026
 1573SOL    HW2 5619   4.087   0.704   0.042
 1574SOL     OW 5620   4.959   3.347   2.253
 1574SOL    HW1 5621   5.057   3.353   2.237
 1574SOL    HW2 5622   4.913   3.422   2.205
 1575SOL     OW 5623   3.337   2.739   0.191
 1575SOL    HW1 5624   3.274   2.708   0.262
 1575SOL    HW2 5625   3.323   2.684   0.108
 1576SOL     OW 5626   5.951   5.071   3.016
 1576SOL    HW1 5627   5.883   5.144   3.012
 1576SOL    HW2 5628   5.953   5.032   3.108
 1577SOL     OW 5629   1.858   0.728   0.875
 1577SOL    HW1 5630   1.896   0.655   0.932
 1577SOL    HW2 5631   1.864   0.815   0.925
 1578SOL     OW 5632   5.594   6.187   4.868
 1578SOL    HW1 5633   5.662   6.126   4.908
 1578SOL    HW2 5634   5.640   6.264   4.823
 1579SOL     OW 5635   6.677   1.349   3.381
 1579SOL    HW1 5636   6.697   1.401   3.297
 1579SOL    HW2 5637   6.725   1.262   3.378
 1580SOL     OW 5638   3.207   3.714   5.649
 1580SOL    HW1 5639   3.183   3.701   5.745
 1580SOL    HW2 5640   3.243   3.628   5.612
 1581SOL     OW 5641   6.173   3.352   4.325
 1581SOL    HW1 5642   6.272   3.337   4.318
 1581SOL    HW2 5643   6.134   3.361   4.233
 1582SOL     OW 5644   6.212   6.349   3.926
 1582SOL    HW1 5645   6.210   6.409   4.006
 1582SOL    HW2 5646   6.200   6.403   3.843
 1583SOL     OW 5647   2.572   3.216   0.812
 1583SOL    HW1 5648   2.527   3.257   0.891
 1583SOL    HW2 5649   2.671   3.221   0.823
 1584SOL     OW 5650   1.528   6.825   6.706
 1584SOL    HW1 5651   1.525   6.858   6.612
 1584SOL    HW2 5652   1.614   6.777   6.722
 1585SOL     OW 5653   5.748   1.175   5.725
 1585SOL    HW1 5654   5.762   1.212   5.633
 1585SOL    HW2 5655   5.737   1.076   5.719
 1586SOL     OW 5656   4.076   3.542   2.968
 1586SOL    HW1 5657   4.089   3.596   2.885
 1586SOL    HW2 5658   4.113   3.450   2.955
 1587SOL     OW 5659   1.659   6.899   5.586
 1587SOL    HW1 5660   1.578   6.957   5.590
 1587SOL    HW2 5661   1.719   6.920   5.663
 1588SOL     OW 5662   0.085   4.030   0.690
 1588SOL    HW1 5663   7.010   4.029   0.732
 1588SOL    HW2 5664   0.089   4.101   0.621
 1589SOL     OW 5665   5.142   5.066   2.706
 1589SOL    HW1 5666   5.174   4.988   2.760
 1589SOL    HW2 5667   5.129   5.039   2.611
 1590SOL     OW 5668   2.335   6.190   4.924
 1590SOL    HW1 5669   2.426   6.228   4.906
 1590SOL    HW2 5670   2.275   6.263   4.960
 1591SOL     OW 5671   2.220   3.606   0.512
 1591SOL    HW1 5672   2.219   3.691   0.460
 1591SOL    HW2 5673   2.130   3.593   0.556
 1592SOL     OW 5674   3.717   3.727   4.164
 1592SOL    HW1 5675   3.650   3.749   4.094
 1592SOL    HW2 5676   3.689   3.644   4.212
 1593SOL     OW 5677   0.802   4.816   3.815
 1593SOL    HW1 5678   0.821   4.770   3.729
 1593SOL    HW2 5679   0.837   4.910   3.812
 1594SOL     OW 5680   0.688   5.457   2.635
 1594SOL    HW1 5681   0.769   5.484   2.688
 1594SOL    HW2 5682   0.717   5.416   2.548
 1595SOL     OW 5683   6.768   3.517   4.924
 1595SOL    HW1 5684   6.702   3.539   4.853
 1595SOL    HW2 5685   6.840   3.586   4.925
 1596SOL     OW 5686   3.562   5.149   6.419
 1596SOL    HW1 5687   3.493   5.077   6.423
 1596SOL    HW2 5688   3.517   5.238   6.428
 1597SOL     OW 5689   2.170   6.536   1.219
 1597SOL    HW1 5690   2.248   6.567   1.164
 1597SOL    HW2 5691   2.085   6.570   1.178
 1598SOL     OW 5692   6.513   5.441   1.759
 1598SOL    HW1 5693   6.442   5.444   1.829
 1598SOL    HW2 5694   6.482   5.491   1.678
 1599SOL     OW 5695   3.249   5.287   0.317
 1599SOL    HW1 5696   3.214   5.194   0.328
 1599SOL    HW2 5697   3.312   5.308   0.392
 1600SOL     OW 5698   3.544   1.647   4.848
 1600SOL    HW1 5699   3.457   1.605   4.822
 1600SOL    HW2 5700   3.617   1.579   4.838
 1601SOL     OW 5701   1.573   5.509   5.061
 1601SOL    HW1 5702   1.575   5.564   4.977
 1601SOL    HW2 5703   1.484   5.463   5.068
 1602SOL     OW 5704   6.924   3.314   1.650
 1602SOL    HW1 5705   7.005   3.256   1.638
 1602SOL    HW2 5706   6.939   3.402   1.607
 1603SOL     OW 5707   5.934   6.959   0.946
 1603SOL    HW1 5708   5.932   0.021   1.008
 1603SOL    HW2 5709   6.018   6.906   0.961
 1604SOL     OW 5710   1.136   5.309   3.641
 1604SOL    HW1 5711   1.190   5.364   3.578
 1604SOL    HW2 5712   1.193   5.238   3.682
 1605SOL     OW 5713   5.044   5.195   2.092
 1605SOL    HW1 5714   5.096   5.281   2.101
 1605SOL    HW2 5715   4.964   5.210   2.034
 1606SOL     OW 5716   6.130   5.338   4.828
 1606SOL    HW1 5717   6.190   5.336   4.748
 1606SOL    HW2 5718   6.139   5.426   4.873
 1607SOL     OW 5719   5.892   3.626   1.459
 1607SOL    HW1 5720   5.958   3.572   1.510
 1607SOL    HW2 5721   5.841   3.567   1.396
 1608SOL     OW 5722   2.033   6.953   0.960
 1608SOL    HW1 5723   1.964   6.933   0.890
 1608SOL    HW2 5724   1.989   6.963   1.049
 1609SOL     OW 5725   6.212   2.271   5.296
 1609SOL    HW1 5726   6.189   2.233   5.385
 1609SOL    HW2 5727   6.135   2.257   5.233
 1610SOL     OW 5728   4.411   6.871   3.689
 1610SOL    HW1 5729   4.382   6.801   3.753
 1610SOL    HW2 5730   4.447   6.949   3.739
 1611SOL     OW 5731   4.327   3.809   1.376
 1611SOL    HW1 5732   4.294   3.722   1.341
 1611SOL    HW2 5733   4.403   3.793   1.439
 1612SOL     OW 5734   3.131   6.821   4.391
 1612SOL    HW1 5735   3.074   6.797   4.470
 1612SOL    HW2 5736   3.131   6.920   4.379
 1613SOL     OW 5737   2.520   0.158   1.533
 1613SOL    HW1 5738   2.420   0.157   1.536
 1613SOL    HW2 5739   2.555   0.064   1.534
 1614SOL     OW 5740   6.750   1.673   5.825
 1614SOL    HW1 5741   6.846   1.646   5.817
 1614SOL    HW2 5742   6.691   1.593   5.815
 1615SOL     OW 5743   6.487   5.521   5.223
 1615SOL    HW1 5744   6.479   5.487   5.316
 1615SOL    HW2 5745   6.399   5.557   5.192
 1616SOL     OW 5746   2.222   2.344   5.170
 1616SOL    HW1 5747   2.129   2.365   5.200
 1616SOL    HW2 5748   2.228   2.247   5.145
 1617SOL     OW 5749   2.997   0.701   2.787
 1617SOL    HW1 5750   2.922   0.690   2.852
 1617SOL    HW2 5751   3.075   0.742   2.834
 1618SOL     OW 5752   5.124   2.787   1.780
 1618SOL    HW1 5753   5.089   2.842   1.856
 1618SOL    HW2 5754   5.200   2.835   1.737
 1619SOL     OW 5755   1.732   3.112   4.460
 1619SOL    HW1 5756   1.732   3.210   4.437
 1619SOL    HW2 5757   1.801   3.095   4.531
 1620SOL     OW 5758   3.661   5.924   1.331
 1620SOL    HW1 5759   3.625   5.883   1.415
 1620SOL    HW2 5760   3.636   6.021   1.327
 1621SOL     OW 5761   2.836   2.447   1.300
 1621SOL    HW1 5762   2.807   2.518   1.237
 1621SOL    HW2 5763   2.908   2.483   1.360
 1622SOL     OW 5764   2.252   2.813   5.730
 1622SOL    HW1 5765   2.312   2.751   5.679
 1622SOL    HW2 5766   2.184   2.852   5.668
 1623SOL     OW 5767   2.346   2.149   4.362
 1623SOL    HW1 5768   2.424   2.176   4.305
 1623SOL    HW2 5769   2.322   2.224   4.423
 1624SOL     OW 5770   1.812   0.698   0.387
 1624SOL    HW1 5771   1.824   0.774   0.451
 1624SOL    HW2 5772   1.718   0.698   0.352
 1625SOL     OW 5773   1.487   6.813   0.757
 1625SOL    HW1 5774   1.531   6.839   0.671
 1625SOL    HW2 5775   1.554   6.814   0.831
 1626SOL     OW 5776   2.472   3.924   5.984
 1626SOL    HW1 5777   2.427   3.969   6.060
 1626SOL    HW2 5778   2.499   3.831   6.011
 1627SOL     OW 5779   4.963   4.244   3.023
 1627SOL    HW1 5780   5.033   4.178   3.049
 1627SOL    HW2 5781   4.878   4.196   3.000
 1628SOL     OW 5782   3.851   3.281   0.266
 1628SOL    HW1 5783   3.887   3.188   0.274
 1628SOL    HW2 5784   3.754   3.278   0.242
 1629SOL     OW 5785   1.976   2.471   3.309
 1629SOL    HW1 5786   1.903   2.510   3.365
 1629SOL    HW2 5787   2.024   2.400   3.361
 1630SOL     OW 5788   5.865   4.204   4.270
 1630SOL    HW1 5789   5.772   4.217   4.303
 1630SOL    HW2 5790   5.886   4.107   4.267
 1631SOL     OW 5791   0.889   0.847   5.460
 1631SOL    HW1 5792   0.841   0.763   5.484
 1631SOL    HW2 5793   0.850   0.885   5.376
 1632SOL     OW 5794   3.954   6.829   6.570
 1632SOL    HW1 5795   4.048   6.838   6.603
 1632SOL    HW2 5796   3.926   6.914   6.527
 1633SOL     OW 5797   6.586   4.270   2.939
 1633SOL    HW1 5798   6.531   4.335   2.888
 1633SOL    HW2 5799   6.540   4.181   2.941
 1634SOL     OW 5800   3.893   0.629   1.322
 1634SOL    HW1 5801   3.874   0.711   1.268
 1634SOL    HW2 5802   3.852   0.549   1.277
 1635SOL     OW 5803   2.222   4.023   3.990
 1635SOL    HW1 5804   2.284   4.074   3.930
 1635SOL    HW2 5805   2.204   3.933   3.949
 1636SOL     OW 5806   2.229   6.841   0.767
 1636SOL    HW1 5807   2.290   6.910   0.728
 1636SOL    HW2 5808   2.204   6.868   0.860
 1637SOL     OW 5809   1.125   3.071   2.071
 1637SOL    HW1 5810   1.115   3.073   2.171
 1637SOL    HW2 5811   1.222   3.084   2.047
 1638SOL     OW 5812   0.425   2.431   5.800
 1638SOL    HW1 5813   0.501   2.403   5.742
 1638SOL    HW2 5814   0.443   2.523   5.837
 1639SOL     OW 5815   3.363   5.171   2.965
 1639SOL    HW1 5816   3.357   5.216   2.876
 1639SOL    HW2 5817   3.285   5.110   2.977
 1640SOL     OW 5818   5.524   6.924   0.631
 1640SOL    HW1 5819   5.557   6.905   0.539
 1640SOL    HW2 5820   5.588   6.986   0.678
 1641SOL     OW 5821   6.332   2.645   4.415
 1641SOL    HW1 5822   6.288   2.555   4.414
 1641SOL    HW2 5823   6.430   2.633   4.400
 1642SOL     OW 5824   0.669   2.482   1.359
 1642SOL    HW1 5825   0.694   2.493   1.263
 1642SOL    HW2 5826   0.578   2.440   1.365
 1643SOL     OW 5827   4.536   0.381   5.318
 1643SOL    HW1 5828   4.522   0.457   5.381
 1643SOL    HW2 5829   4.542   0.416   5.224
 1644SOL     OW 5830   3.834   1.577   0.971
 1644SOL    HW1 5831   3.890   1.496   0.987
 1644SOL    HW2 5832   3.778   1.595   1.052
 1645SOL     OW 5833   2.358   5.645   5.821
 1645SOL    HW1 5834   2.336   5.578   5.750
 1645SOL    HW2 5835   2.283   5.650   5.887
 1646SOL     OW 5836   2.766   3.471   0.652
 1646SOL    HW1 5837   2.815   3.518   0.579
 1646SOL    HW2 5838   2.668   3.489   0.643
 1647SOL     OW 5839   6.099   2.822   2.023
 1647SOL    HW1 5840   6.133   2.788   2.111
 1647SOL    HW2 5841   6.170   2.812   1.953
 1648SOL     OW 5842   2.596   0.587   3.867
 1648SOL    HW1 5843   2.597   0.506   3.808
 1648SOL    HW2 5844   2.573   0.667   3.813
 1649SOL     OW 5845   2.890   0.418   4.581
 1649SOL    HW1 5846   2.940   0.382   4.503
 1649SOL    HW2 5847   2.954   0.442   4.654
 1650SOL     OW 5848   2.696   6.745   4.333
 1650SOL    HW1 5849   2.740   6.826   4.372
 1650SOL    HW2 5850   2.599   6.744   4.360
 1651SOL     OW 5851   1.482   6.966   2.388
 1651SOL    HW1 5852   1.564   6.912   2.368
 1651SOL    HW2 5853   1.407   6.935   2.330
 1652SOL     OW 5854   3.961   3.240   1.016
 1652SOL    HW1 5855   3.933   3.153   0.977
 1652SOL    HW2 5856   3.887   3.276   1.073
 1653SOL     OW 5857   1.073   4.327   0.820
 1653SOL    HW1 5858   1.003   4.397   0.834
 1653SOL    HW2 5859   1.070   4.297   0.724
 1654SOL     OW 5860   0.645   2.620   3.814
 1654SOL    HW1 5861   0.579   2.560   3.769
 1654SOL    HW2 5862   0.599   2.705   3.840
 1655SOL     OW 5863   4.259   4.223   5.296
 1655SOL    HW1 5864   4.327   4.199   5.366
 1655SOL    HW2 5865   4.284   4.310   5.255
 1656SOL     OW 5866   0.051   3.139   2.212
 1656SOL    HW1 5867   0.084   3.045   2.208
 1656SOL    HW2 5868   7.008   3.150   2.293
 1657SOL     OW 5869   0.957   0.657   6.133
 1657SOL    HW1 5870   1.051   0.667   6.167
 1657SOL    HW2 5871   0.958   0.598   6.052
 1658SOL     OW 5872   5.896   7.011   3.324
 1658SOL    HW1 5873   5.916   6.939   3.257
 1658SOL    HW2 5874   5.978   0.051   3.338
 1659SOL     OW 5875   6.052   2.647   6.337
 1659SOL    HW1 5876   6.099   2.726   6.297
 1659SOL    HW2 5877   6.119   2.588   6.383
 1660SOL     OW 5878   2.513   5.619   3.819
 1660SOL    HW1 5879   2.521   5.529   3.861
 1660SOL    HW2 5880   2.552   5.617   3.727
 1661SOL     OW 5881   2.541   1.038   3.565
 1661SOL    HW1 5882   2.568   1.045   3.469
 1661SOL    HW2 5883   2.448   1.073   3.576
 1662SOL     OW 5884   0.353   1.645   3.832
 1662SOL    HW1 5885   0.402   1.730   3.847
 1662SOL    HW2 5886   0.397   1.571   3.883
 1663SOL     OW 5887   0.907   0.575   3.224
 1663SOL    HW1 5888   0.860   0.663   3.229
 1663SOL    HW2 5889   0.994   0.587   3.175
 1664SOL     OW 5890   1.792   6.216   4.096
 1664SOL    HW1 5891   1.704   6.192   4.136
 1664SOL    HW2 5892   1.865   6.167   4.144
 1665SOL     OW 5893   6.854   1.113   4.139
 1665SOL    HW1 5894   6.909   1.112   4.223
 1665SOL    HW2 5895   6.771   1.168   4.155
 1666SOL     OW 5896   6.475   1.834   0.278
 1666SOL    HW1 5897   6.396   1.774   0.266
 1666SOL    HW2 5898   6.447   1.929   0.269
 1667SOL     OW 5899   6.449   6.935   0.739
 1667SOL    HW1 5900   6.453   6.843   0.777
 1667SOL    HW2 5901   6.494   6.937   0.650
 1668SOL     OW 5902   2.369   6.898   4.808
 1668SOL    HW1 5903   2.436   6.888   4.734
 1668SOL    HW2 5904   2.291   6.951   4.776
 1669SOL     OW 5905   5.242   5.663   6.571
 1669SOL    HW1 5906   5.335   5.680   6.604
 1669SOL    HW2 5907   5.180   5.732   6.608
 1670SOL     OW 5908   6.823   3.698   6.815
 1670SOL    HW1 5909   6.848   3.728   6.723
 1670SOL    HW2 5910   6.806   3.777   6.873
 1671SOL     OW 5911   6.393   4.232   1.212
 1671SOL    HW1 5912   6.303   4.267   1.236
 1671SOL    HW2 5913   6.396   4.211   1.114
 1672SOL     OW 5914   2.314   4.437   3.144
 1672SOL    HW1 5915   2.320   4.337   3.140
 1672SOL    HW2 5916   2.234   4.467   3.091
 1673SOL     OW 5917   6.194   3.565   3.367
 1673SOL    HW1 5918   6.285   3.549   3.330
 1673SOL    HW2 5919   6.176   3.663   3.370
 1674SOL     OW 5920   2.539   5.846   0.304
 1674SOL    HW1 5921   2.543   5.891   0.215
 1674SOL    HW2 5922   2.507   5.752   0.293
 1675SOL     OW 5923   5.123   2.415   6.630
 1675SOL    HW1 5924   5.051   2.479   6.654
 1675SOL    HW2 5925   5.208   2.465   6.615
 1676SOL     OW 5926   2.837   1.765   3.181
 1676SOL    HW1 5927   2.925   1.810   3.195
 1676SOL    HW2 5928   2.771   1.799   3.248
 1677SOL     OW 5929   5.234   0.012   6.229
 1677SOL    HW1 5930   5.157   6.984   6.183
 1677SOL    HW2 5931   5.315   6.971   6.219
 1678SOL     OW 5932   4.330   6.746   2.124
 1678SOL    HW1 5933   4.385   6.710   2.048
 1678SOL    HW2 5934   4.371   6.719   2.211
 1679SOL     OW 5935   6.379   4.493   0.216
 1679SOL    HW1 5936   6.447   4.512   0.288
 1679SOL    HW2 5937   6.419   4.430   0.149
 1680SOL     OW 5938   6.971   2.168   5.900
 1680SOL    HW1 5939   0.027   2.105   5.869
 1680SOL    HW2 5940   7.013   2.256   5.925
 1681SOL     OW 5941   4.667   5.252   1.026
 1681SOL    HW1 5942   4.705   5.344   1.017
 1681SOL    HW2 5943   4.702   5.209   1.109
 1682SOL     OW 5944   0.402   3.838   5.866
 1682SOL    HW1 5945   0.501   3.827   5.864
 1682SOL    HW2 5946   0.369   3.829   5.960
 1683SOL     OW 5947   5.883   5.221   5.505
 1683SOL    HW1 5948   5.798   5.259   5.540
 1683SOL    HW2 5949   5.911   5.142   5.561
 1684SOL     OW 5950   0.614   6.731   4.402
 1684SOL    HW1 5951   0.655   6.653   4.354
 1684SOL    HW2 5952   0.681   6.805   4.408
 1685SOL     OW 5953   1.336   2.331   6.811
 1685SOL    HW1 5954   1.265   2.386   6.855
 1685SOL    HW2 5955   1.300   2.240   6.791
 1686SOL     OW 5956   1.721   0.414   6.083
 1686SOL    HW1 5957   1.811   0.371   6.084
 1686SOL    HW2 5958   1.650   0.343   6.086
 1687SOL     OW 5959   2.829   6.781   2.450
 1687SOL    HW1 5960   2.773   6.711   2.495
 1687SOL    HW2 5961   2.790   6.802   2.360
 1688SOL     OW 5962   0.464   1.928   2.788
 1688SOL    HW1 5963   0.554   1.938   2.746
 1688SOL    HW2 5964   0.417   2.016   2.787
 1689SOL     OW 5965   2.147   1.792   1.518
 1689SOL    HW1 5966   2.073   1.835   1.570
 1689SOL    HW2 5967   2.113   1.710   1.472
 1690SOL     OW 5968   1.680   1.491   0.002
 1690SOL    HW1 5969   1.665   1.462   0.097
 1690SOL    HW2 5970   1.770   1.532   7.009
 1691SOL     OW 5971   4.795   4.065   3.805
 1691SOL    HW1 5972   4.731   4.123   3.856
 1691SOL    HW2 5973   4.866   4.123   3.764
 1692SOL     OW 5974   0.380   6.218   3.990
 1692SOL    HW1 5975   0.386   6.277   4.070
 1692SOL    HW2 5976   0.384   6.274   3.907
 1693SOL     OW 5977   4.047   2.139   4.001
 1693SOL    HW1 5978   4.109   2.209   3.966
 1693SOL    HW2 5979   4.098   2.073   4.056
 1694SOL     OW 5980   6.169   6.526   5.328
 1694SOL    HW1 5981   6.141   6.562   5.416
 1694SOL    HW2 5982   6.098   6.545   5.260
 1695SOL     OW 5983   3.907   1.716   6.337
 1695SOL    HW1 5984   3.909   1.622   6.303
 1695SOL    HW2 5985   3.898   1.716   6.436
 1696SOL     OW 5986   3.377   5.687   2.328
 1696SOL    HW1 5987   3.325   5.652   2.406
 1696SOL    HW2 5988   3.471   5.707   2.356
 1697SOL     OW 5989   1.750   1.650   1.947
 1697SOL    HW1 5990   1.735   1.749   1.952
 1697SOL    HW2 5991   1.803   1.628   1.866
 1698SOL     OW 5992   5.200   1.625   6.657
 1698SOL    HW1 5993   5.174   1.529   6.646
 1698SOL    HW2 5994   5.123   1.684   6.633
 1699SOL     OW 5995   2.558   4.844   1.384
 1699SOL    HW1 5996   2.517   4.929   1.417
 1699SOL    HW2 5997   2.544   4.772   1.452
 1700SOL     OW 5998   5.730   3.347   4.696
 1700SOL    HW1 5999   5.690   3.429   4.654
 1700SOL    HW2 6000   5.659   3.296   4.745
 1701SOL     OW 6001   5.573   3.210   4.868
 1701SOL    HW1 6002   5.487   3.259   4.885
 1701SOL    HW2 6003   5.568   3.119   4.909
 1702SOL     OW 6004   5.282   2.697   1.327
 1702SOL    HW1 6005   5.375   2.698   1.290
 1702SOL    HW2 6006   5.287   2.681   1.426
 1703SOL     OW 6007   2.228   3.889   1.706
 1703SOL    HW1 6008   2.143   3.937   1.727
 1703SOL    HW2 6009   2.306   3.947   1.728
 1704SOL     OW 6010   6.700   1.767   2.291
 1704SOL    HW1 6011   6.695   1.866   2.285
 1704SOL    HW2 6012   6.656   1.726   2.211
 1705SOL     OW 6013   3.867   2.961   2.357
 1705SOL    HW1 6014   3.920   2.901   2.297
 1705SOL    HW2 6015   3.929   3.009   2.420
 1706SOL     OW 6016   2.436   0.583   6.188
 1706SOL    HW1 6017   2.455   0.486   6.170
 1706SOL    HW2 6018   2.518   0.637   6.169
 1707SOL     OW 6019   4.880   1.376   2.658
 1707SOL    HW1 6020   4.784   1.362   2.683
 1707SOL    HW2 6021   4.905   1.471   2.673
 1708SOL     OW 6022   0.438   3.947   1.024
 1708SOL    HW1 6023   0.370   4.003   1.072
 1708SOL    HW2 6024   0.521   4.000   1.009
 1709SOL     OW 6025   3.136   5.160   3.950
 1709SOL    HW1 6026   3.112   5.169   4.047
 1709SOL    HW2 6027   3.168   5.067   3.932
 1710SOL     OW 6028   6.750   4.070   4.803
 1710SOL    HW1 6029   6.727   4.149   4.860
 1710SOL    HW2 6030   6.680   4.059   4.732
 1711SOL     OW 6031   0.762   4.292   6.043
 1711SOL    HW1 6032   0.805   4.314   6.131
 1711SOL    HW2 6033   0.808   4.342   5.970
 1712SOL     OW 6034   1.822   4.269   1.882
 1712SOL    HW1 6035   1.835   4.277   1.981
 1712SOL    HW2 6036   1.882   4.334   1.836
 1713SOL     OW 6037   2.077   3.643   0.908
 1713SOL    HW1 6038   1.986   3.682   0.894
 1713SOL    HW2 6039   2.146   3.712   0.889
 1714SOL     OW 6040   4.472   1.047   0.541
 1714SOL    HW1 6041   4.502   0.997   0.622
 1714SOL    HW2 6042   4.504   1.142   0.547
 1715SOL     OW 6043   1.615   3.734   3.648
 1715SOL    HW1 6044   1.539   3.776   3.696
 1715SOL    HW2 6045   1.686   3.802   3.632
 1716SOL     OW 6046   0.051   6.836   0.551
 1716SOL    HW1 6047   0.069   6.741   0.524
 1716SOL    HW2 6048   0.133   6.891   0.536
 1717SOL     OW 6049   3.205   1.026   0.241
 1717SOL    HW1 6050   3.232   1.059   0.331
 1717SOL    HW2 6051   3.282   0.978   0.199
 1718SOL     OW 6052   1.600   4.037   5.237
 1718SOL    HW1 6053   1.629   3.976   5.311
 1718SOL    HW2 6054   1.680   4.073   5.190
 1719SOL     OW 6055   2.604   2.835   0.776
 1719SOL    HW1 6056   2.668   2.759   0.769
 1719SOL    HW2 6057   2.612   2.877   0.867
 1720SOL     OW 6058   0.373   1.977   2.317
 1720SOL    HW1 6059   0.280   1.967   2.351
 1720SOL    HW2 6060   0.371   1.996   2.218
 1721SOL     OW 6061   0.587   5.834   4.198
 1721SOL    HW1 6062   0.505   5.867   4.151
 1721SOL    HW2 6063   0.561   5.793   4.285
 1722SOL     OW 6064   4.880   0.241   1.689
 1722SOL    HW1 6065   4.856   0.212   1.596
 1722SOL    HW2 6066   4.911   0.161   1.742
 1723SOL     OW 6067   5.862   0.960   3.537
 1723SOL    HW1 6068   5.873   0.869   3.497
 1723SOL    HW2 6069   5.951   0.998   3.561
 1724SOL     OW 6070   5.082   6.957   0.154
 1724SOL    HW1 6071   5.029   6.976   0.237
 1724SOL    HW2 6072   5.145   0.017   0.137
 1725SOL     OW 6073   4.358   5.781   2.389
 1725SOL    HW1 6074   4.307   5.867   2.380
 1725SOL    HW2 6075   4.420   5.771   2.311
 1726SOL     OW 6076   6.230   4.577   5.106
 1726SOL    HW1 6077   6.184   4.602   5.191
 1726SOL    HW2 6078   6.311   4.522   5.128
 1727SOL     OW 6079   2.633   4.625   5.681
 1727SOL    HW1 6080   2.576   4.683   5.740
 1727SOL    HW2 6081   2.588   4.537   5.667
 1728SOL     OW 6082   4.885   6.007   3.807
 1728SOL    HW1 6083   4.867   6.104   3.827
 1728SOL    HW2 6084   4.798   5.957   3.804
 1729SOL     OW 6085   6.610   3.202   3.410
 1729SOL    HW1 6086   6.683   3.188   3.343
 1729SOL    HW2 6087   6.614   3.295   3.445
 1730SOL     OW 6088   4.596   2.591   4.861
 1730SOL    HW1 6089   4.605   2.511   4.922
 1730SOL    HW2 6090   4.506   2.588   4.816
 1731SOL     OW 6091   0.309   6.927   6.301
 1731SOL    HW1 6092   0.286   6.996   6.370
 1731SOL    HW2 6093   0.277   6.837   6.332
 1732SOL     OW 6094   1.315   4.332   6.525
 1732SOL    HW1 6095   1.395   4.286   6.563
 1732SOL    HW2 6096   1.324   4.431   6.539
 1733SOL     OW 6097   1.939   4.079   6.396
 1733SOL    HW1 6098   2.012   4.119   6.451
 1733SOL    HW2 6099   1.938   4.122   6.305
 1734SOL     OW 6100   5.390   3.911   0.693
 1734SOL    HW1 6101   5.347   3.825   0.721
 1734SOL    HW2 6102   5.324   3.965   0.640
 1735SOL     OW 6103   5.021   4.962   6.932
 1735SOL    HW1 6104   5.024   4.985   0.014
 1735SOL    HW2 6105   5.023   5.046   6.878
 1736SOL     OW 6106   3.849   3.392   0.544
 1736SOL    HW1 6107   3.774   3.338   0.583
 1736SOL    HW2 6108   3.868   3.359   0.452
 1737SOL     OW 6109   0.616   6.446   2.868
 1737SOL    HW1 6110   0.539   6.506   2.891
 1737SOL    HW2 6111   0.702   6.493   2.889
 1738SOL     OW 6112   0.493   1.356   2.086
 1738SOL    HW1 6113   0.540   1.362   2.174
 1738SOL    HW2 6114   0.540   1.413   2.019
 1739SOL     OW 6115   4.179   1.518   6.956
 1739SOL    HW1 6116   4.145   1.579   6.885
 1739SOL    HW2 6117   4.180   1.566   0.028
 1740SOL     OW 6118   0.758   1.773   6.716
 1740SOL    HW1 6119   0.819   1.781   6.795
 1740SOL    HW2 6120   0.744   1.676   6.694
 1741SOL     OW 6121   0.614   0.457   2.563
 1741SOL    HW1 6122   0.569   0.374   2.595
 1741SOL    HW2 6123   0.583   0.535   2.617
 1742SOL     OW 6124   6.132   6.347   3.528
 1742SOL    HW1 6125   6.074   6.395   3.463
 1742SOL    HW2 6126   6.180   6.273   3.482
 1743SOL     OW 6127   4.205   1.279   6.809
 1743SOL    HW1 6128   4.214   1.357   6.871
 1743SOL    HW2 6129   4.122   1.228   6.832
 1744SOL     OW 6130   4.060   6.290   1.556
 1744SOL    HW1 6131   4.100   6.261   1.644
 1744SOL    HW2 6132   4.019   6.381   1.567
 1745SOL     OW 6133   0.450   1.727   5.211
 1745SOL    HW1 6134   0.432   1.653   5.275
 1745SOL    HW2 6135   0.421   1.700   5.119
 1746SOL     OW 6136   3.018   1.441   0.317
 1746SOL    HW1 6137   3.111   1.406   0.321
 1746SOL    HW2 6138   2.960   1.375   0.268
 1747SOL     OW 6139   4.209   6.869   4.850
 1747SOL    HW1 6140   4.243   6.807   4.780
 1747SOL    HW2 6141   4.278   6.939   4.869
 1748SOL     OW 6142   5.632   1.077   1.819
 1748SOL    HW1 6143   5.685   1.103   1.739
 1748SOL    HW2 6144   5.549   1.029   1.790
 1749SOL     OW 6145   5.461   6.816   6.184
 1749SOL    HW1 6146   5.434   6.857   6.097
 1749SOL    HW2 6147   5.452   6.716   6.178
 1750SOL     OW 6148   3.579   1.135   3.032
 1750SOL    HW1 6149   3.634   1.057   3.003
 1750SOL    HW2 6150   3.542   1.117   3.124
 1751SOL     OW 6151   2.444   5.930   4.723
 1751SOL    HW1 6152   2.376   5.916   4.795
 1751SOL    HW2 6153   2.422   5.873   4.644
 1752SOL     OW 6154   6.722   2.109   6.175
 1752SOL    HW1 6155   6.718   2.182   6.107
 1752SOL    HW2 6156   6.771   2.031   6.137
 1753SOL     OW 6157   1.539   0.246   2.013
 1753SOL    HW1 6158   1.562   0.163   2.064
 1753SOL    HW2 6159   1.448   0.236   1.973
 1754SOL     OW 6160   2.991   3.509   3.306
 1754SOL    HW1 6161   2.953   3.560   3.229
 1754SOL    HW2 6162   3.018   3.418   3.275
 1755SOL     OW 6163   0.178   4.249   6.481
 1755SOL    HW1 6164   0.117   4.170   6.493
 1755SOL    HW2 6165   0.212   4.279   6.570
 1756SOL     OW 6166   5.603   5.229   5.858
 1756SOL    HW1 6167   5.604   5.188   5.949
 1756SOL    HW2 6168   5.513   5.269   5.840
 1757SOL     OW 6169   4.049   0.246   4.920
 1757SOL    HW1 6170   4.001   0.321   4.876
 1757SOL    HW2 6171   4.011   0.159   4.889
 1758SOL     OW 6172   2.244   1.166   3.013
 1758SOL    HW1 6173   2.326   1.190   2.961
 1758SOL    HW2 6174   2.251   1.204   3.105
 1759SOL     OW 6175   6.430   5.804   5.993
 1759SOL    HW1 6176   6.470   5.886   6.033
 1759SOL    HW2 6177   6.331   5.806   6.008
 1760SOL     OW 6178   4.685   6.292   3.713
 1760SOL    HW1 6179   4.746   6.289   3.793
 1760SOL    HW2 6180   4.712   6.368   3.654
 1761SOL     OW 6181   6.489   3.198   0.935
 1761SOL    HW1 6182   6.410   3.143   0.908
 1761SOL    HW2 6183   6.458   3.286   0.969
 1762SOL     OW 6184   6.114   2.501   0.080
 1762SOL    HW1 6185   6.146   2.420   0.129
 1762SOL    HW2 6186   6.030   2.535   0.123
 1763SOL     OW 6187   1.903   1.905   4.044
 1763SOL    HW1 6188   1.998   1.895   4.015
 1763SOL    HW2 6189   1.843   1.856   3.981
 1764SOL     OW 6190   6.800   4.355   3.378
 1764SOL    HW1 6191   6.706   4.355   3.411
 1764SOL    HW2 6192   6.799   4.350   3.278
 1765SOL     OW 6193   2.398   3.065   6.199
 1765SOL    HW1 6194   2.377   3.020   6.285
 1765SOL    HW2 6195   2.374   3.005   6.123
 1766SOL     OW 6196   6.025   4.247   6.029
 1766SOL    HW1 6197   6.106   4.258   5.971
 1766SOL    HW2 6198   6.038   4.169   6.090
 1767SOL     OW 6199   6.764   4.657   1.451
 1767SOL    HW1 6200   6.738   4.686   1.543
 1767SOL    HW2 6201   6.683   4.654   1.392
 1768SOL     OW 6202   6.587   0.379   3.220
 1768SOL    HW1 6203   6.497   0.401   3.258
 1768SOL    HW2 6204   6.579   0.303   3.156
 1769SOL     OW 6205   4.328   0.735   4.058
 1769SOL    HW1 6206   4.279   0.785   3.986
 1769SOL    HW2 6207   4.263   0.679   4.109
 1770SOL     OW 6208   3.746   5.346   6.154
 1770SOL    HW1 6209   3.733   5.348   6.253
 1770SOL    HW2 6210   3.697   5.423   6.112
 1771SOL     OW 6211   5.186   5.396   6.583
 1771SOL    HW1 6212   5.095   5.371   6.617
 1771SOL    HW2 6213   5.207   5.490   6.609
 1772SOL     OW 6214   1.999   6.099   2.003
 1772SOL    HW1 6215   2.083   6.057   2.038
 1772SOL    HW2 6216   2.023   6.167   1.933
 1773SOL     OW 6217   2.264   6.460   6.760
 1773SOL    HW1 6218   2.165   6.460   6.766
 1773SOL    HW2 6219   2.295   6.377   6.713
 1774SOL     OW 6220   2.500   5.611   1.236
 1774SOL    HW1 6221   2.483   5.536   1.173
 1774SOL    HW2 6222   2.530   5.692   1.184
 1775SOL     OW 6223   0.655   5.352   0.389
 1775SOL    HW1 6224   0.583   5.420   0.375
 1775SOL    HW2 6225   0.617   5.271   0.433
 1776SOL     OW 6226   3.080   6.073   5.354
 1776SOL    HW1 6227   3.151   6.003   5.367
 1776SOL    HW2 6228   3.004   6.033   5.302
 1777SOL     OW 6229   4.449   6.487   6.547
 1777SOL    HW1 6230   4.480   6.434   6.468
 1777SOL    HW2 6231   4.522   6.491   6.615
 1778SOL     OW 6232   0.891   3.608   5.995
 1778SOL    HW1 6233   0.981   3.596   5.953
 1778SOL    HW2 6234   0.901   3.628   6.092
 1779SOL     OW 6235   4.174   6.258   4.833
 1779SOL    HW1 6236   4.117   6.336   4.859
 1779SOL    HW2 6237   4.159   6.182   4.897
 1780SOL     OW 6238   4.068   2.295   6.531
 1780SOL    HW1 6239   4.084   2.254   6.441
 1780SOL    HW2 6240   4.034   2.388   6.520
 1781SOL     OW 6241   1.834   6.552   3.317
 1781SOL    HW1 6242   1.748   6.501   3.304
 1781SOL    HW2 6243   1.871   6.532   3.408
 1782SOL     OW 6244   3.418   1.049   5.230
 1782SOL    HW1 6245   3.410   0.950   5.219
 1782SOL    HW2 6246   3.338   1.083   5.280
 1783SOL     OW 6247   2.163   5.531   0.206
 1783SOL    HW1 6248   2.193   5.437   0.222
 1783SOL    HW2 6249   2.161   5.581   0.292
 1784SOL     OW 6250   1.252   6.405   6.096
 1784SOL    HW1 6251   1.224   6.452   6.012
 1784SOL    HW2 6252   1.300   6.470   6.156
 1785SOL     OW 6253   0.026   5.029   2.913
 1785SOL    HW1 6254   6.978   4.971   2.962
 1785SOL    HW2 6255   0.006   5.125   2.932
 1786SOL     OW 6256   4.191   2.486   1.516
 1786SOL    HW1 6257   4.262   2.438   1.465
 1786SOL    HW2 6258   4.200   2.584   1.500
 1787SOL     OW 6259   4.465   0.001   4.875
 1787SOL    HW1 6260   4.527   0.036   4.804
 1787SOL    HW2 6261   4.451   0.072   4.945
 1788SOL     OW 6262   1.628   4.920   4.856
 1788SOL    HW1 6263   1.663   4.860   4.784
 1788SOL    HW2 6264   1.639   4.876   4.945
 1789SOL     OW 6265   4.896   6.229   0.599
 1789SOL    HW1 6266   4.984   6.246   0.642
 1789SOL    HW2 6267   4.889   6.132   0.574
 1790SOL     OW 6268   2.064   6.656   2.829
 1790SOL    HW1 6269   2.143   6.606   2.863
 1790SOL    HW2 6270   1.987   6.643   2.891
 1791SOL     OW 6271   0.774   0.047   2.924
 1791SOL    HW1 6272   0.828   0.122   2.960
 1791SOL    HW2 6273   0.732   0.074   2.837
 1792SOL     OW 6274   0.249   4.073   3.935
 1792SOL    HW1 6275   0.269   4.170   3.949
 1792SOL    HW2 6276   0.166   4.064   3.880
 1793SOL     OW 6277   6.991   0.599   4.445
 1793SOL    HW1 6278   7.013   0.520   4.502
 1793SOL    HW2 6279   0.006   0.682   4.491
 1794SOL     OW 6280   4.485   6.313   6.333
 1794SOL    HW1 6281   4.498   6.313   6.234
 1794SOL    HW2 6282   4.405   6.256   6.356
 1795SOL     OW 6283   0.945   3.152   6.771
 1795SOL    HW1 6284   1.039   3.159   6.805
 1795SOL    HW2 6285   0.947   3.134   6.673
 1796SOL     OW 6286   4.033   0.127   5.306
 1796SOL    HW1 6287   4.090   0.198   5.263
 1796SOL    HW2 6288   3.937   0.152   5.297
 1797SOL     OW 6289   0.105   1.051   2.337
 1797SOL    HW1 6290   0.149   1.057   2.427
 1797SOL    HW2 6291   0.129   1.132   2.283
 1798SOL     OW 6292   5.931   1.757   3.117
 1798SOL    HW1 6293   6.010   1.718   3.164
 1798SOL    HW2 6294   5.889   1.687   3.058
 1799SOL     OW 6295   2.762   6.929   0.929
 1799SOL    HW1 6296   2.720   6.843   0.960
 1799SOL    HW2 6297   2.805   6.915   0.840
 1800SOL     OW 6298   2.800   4.754   2.174
 1800SOL    HW1 6299   2.890   4.765   2.216
 1800SOL    HW2 6300   2.799   4.668   2.122
 1801SOL     OW 6301   5.632   6.381   0.865
 1801SOL    HW1 6302   5.673   6.461   0.909
 1801SOL    HW2 6303   5.703   6.333   0.813
 1802SOL     OW 6304   5.646   5.684   4.476
 1802SOL    HW1 6305   5.734   5.638   4.490
 1802SOL    HW2 6306   5.634   5.705   4.379
 1803SOL     OW 6307   6.177   4.909   0.479
 1803SOL    HW1 6308   6.199   4.843   0.407
 1803SOL    HW2 6309   6.132   4.989   0.439
 1804SOL     OW 6310   2.948   4.025   5.988
 1804SOL    HW1 6311   2.901   4.063   6.068
 1804SOL    HW2 6312   2.923   4.077   5.907
 1805SOL     OW 6313   6.916   2.704   0.058
 1805SOL    HW1 6314   6.946   2.738   0.148
 1805SOL    HW2 6315   6.902   2.605   0.063
 1806SOL     OW 6316   6.828   6.488   0.438
 1806SOL    HW1 6317   6.888   6.502   0.517
 1806SOL    HW2 6318   6.743   6.444   0.467
 1807SOL     OW 6319   6.926   1.591   5.423
 1807SOL    HW1 6320   6.928   1.493   5.439
 1807SOL    HW2 6321   6.922   1.639   5.510
 1808SOL     OW 6322   2.253   4.972   4.190
 1808SOL    HW1 6323   2.261   5.048   4.126
 1808SOL    HW2 6324   2.322   4.903   4.168
 1809SOL     OW 6325   3.847   0.438   6.055
 1809SOL    HW1 6326   3.885   0.352   6.089
 1809SOL    HW2 6327   3.770   0.466   6.112
 1810SOL     OW 6328   3.465   6.336   3.773
 1810SOL    HW1 6329   3.368   6.321   3.790
 1810SOL    HW2 6330   3.479   6.433   3.751
 1811SOL     OW 6331   4.800   5.463   3.019
 1811SOL    HW1 6332   4.714   5.454   3.069
 1811SOL    HW2 6333   4.861   5.388   3.045
 1812SOL     OW 6334   4.751   4.519   4.981
 1812SOL    HW1 6335   4.748   4.556   4.888
 1812SOL    HW2 6336   4.846   4.501   5.006
 1813SOL     OW 6337   0.387   6.524   5.087
 1813SOL    HW1 6338   0.445   6.471   5.149
 1813SOL    HW2 6339   0.382   6.477   4.999
 1814SOL     OW 6340   4.412   6.954   2.706
 1814SOL    HW1 6341   4.502   6.915   2.686
 1814SOL    HW2 6342   4.419   0.001   2.783
 1815SOL     OW 6343   0.403   1.292   3.129
 1815SOL    HW1 6344   0.362   1.308   3.039
 1815SOL    HW2 6345   0.486   1.348   3.137
 1816SOL     OW 6346   1.168   5.346   0.492
 1816SOL    HW1 6347   1.105   5.327   0.417
 1816SOL    HW2 6348   1.252   5.293   0.479
 1817SOL     OW 6349   1.155   4.141   1.825
 1817SOL    HW1 6350   1.166   4.212   1.756
 1817SOL    HW2 6351   1.244   4.098   1.844
 1818SOL     OW 6352   0.427   2.019   3.049
 1818SOL    HW1 6353   0.373   2.063   2.978
 1818SOL    HW2 6354   0.417   1.920   3.042
 1819SOL     OW 6355   1.467   4.110   2.493
 1819SOL    HW1 6356   1.531   4.117   2.417
 1819SOL    HW2 6357   1.376   4.086   2.458
 1820SOL     OW 6358   5.411   6.713   2.098
 1820SOL    HW1 6359   5.494   6.701   2.152
 1820SOL    HW2 6360   5.357   6.788   2.136
 1821SOL     OW 6361   1.363   1.939   3.108
 1821SOL    HW1 6362   1.374   2.033   3.141
 1821SOL    HW2 6363   1.269   1.925   3.077
 1822SOL     OW 6364   3.257   3.440   2.197
 1822SOL    HW1 6365   3.187   3.410   2.132
 1822SOL    HW2 6366   3.318   3.363   2.218
 1823SOL     OW 6367   4.038   6.577   2.533
 1823SOL    HW1 6368   3.966   6.610   2.472
 1823SOL    HW2 6369   4.074   6.654   2.587
 1824SOL     OW 6370   4.832   1.338   1.950
 1824SOL    HW1 6371   4.914   1.281   1.963
 1824SOL    HW2 6372   4.818   1.395   2.031
 1825SOL     OW 6373   0.507   0.309   1.270
 1825SOL    HW1 6374   0.427   0.361   1.241
 1825SOL    HW2 6375   0.515   0.226   1.214
 1826SOL     OW 6376   2.664   5.074   6.095
 1826SOL    HW1 6377   2.626   5.075   6.002
 1826SOL    HW2 6378   2.717   5.158   6.110
 1827SOL     OW 6379   5.562   0.603   0.582
 1827SOL    HW1 6380   5.528   0.542   0.511
 1827SOL    HW2 6381   5.491   0.669   0.606
 1828SOL     OW 6382   3.140   2.645   0.378
 1828SOL    HW1 6383   3.136   2.570   0.444
 1828SOL    HW2 6384   3.113   2.731   0.423
 1829SOL     OW 6385   5.297   5.185   2.463
 1829SOL    HW1 6386   5.298   5.278   2.499
 1829SOL    HW2 6387   5.207   5.164   2.426
 1830SOL     OW 6388   4.474   0.717   4.888
 1830SOL    HW1 6389   4.541   0.733   4.816
 1830SOL    HW2 6390   4.382   0.736   4.853
 1831SOL     OW 6391   4.939   1.353   3.101
 1831SOL    HW1 6392   4.959   1.283   3.168
 1831SOL    HW2 6393   4.845   1.344   3.069
 1832SOL     OW 6394   6.017   2.766   6.596
 1832SOL    HW1 6395   6.018   2.860   6.561
 1832SOL    HW2 6396   6.028   2.702   6.520
 1833SOL     OW 6397   5.949   1.769   6.007
 1833SOL    HW1 6398   5.963   1.846   5.944
 1833SOL    HW2 6399   6.029   1.709   6.005
 1834SOL     OW 6400   2.435   4.231   6.793
 1834SOL    HW1 6401   2.497   4.275   6.728
 1834SOL    HW2 6402   2.453   4.133   6.795
 1835SOL     OW 6403   2.125   4.671   0.482
 1835SOL    HW1 6404   2.114   4.572   0.481
 1835SOL    HW2 6405   2.177   4.700   0.401
 1836SOL     OW 6406   0.596   6.471   0.560
 1836SOL    HW1 6407   0.542   6.522   0.493
 1836SOL    HW2 6408   0.543   6.393   0.594
 1837SOL     OW 6409   6.710   2.816   4.497
 1837SOL    HW1 6410   6.679   2.852   4.585
 1837SOL    HW2 6411   6.807   2.835   4.484
 1838SOL     OW 6412   0.801   2.766   4.531
 1838SOL    HW1 6413   0.871   2.749   4.600
 1838SOL    HW2 6414   0.791   2.684   4.473
 1839SOL     OW 6415   1.703   1.138   0.085
 1839SOL    HW1 6416   1.641   1.111   0.011
 1839SOL    HW2 6417   1.793   1.158   0.047
 1840SOL     OW 6418   1.041   5.313   1.401
 1840SOL    HW1 6419   1.097   5.349   1.476
 1840SOL    HW2 6420   0.973   5.249   1.437
 1841SOL     OW 6421   1.851   2.902   4.333
 1841SOL    HW1 6422   1.892   2.847   4.406
 1841SOL    HW2 6423   1.782   2.963   4.372
 1842SOL     OW 6424   1.813   5.703   6.427
 1842SOL    HW1 6425   1.784   5.657   6.343
 1842SOL    HW2 6426   1.738   5.702   6.493
 1843SOL     OW 6427   4.865   2.204   5.346
 1843SOL    HW1 6428   4.778   2.249   5.328
 1843SOL    HW2 6429   4.849   2.110   5.374
 1844SOL     OW 6430   5.570   5.013   3.622
 1844SOL    HW1 6431   5.651   5.026   3.565
 1844SOL    HW2 6432   5.496   4.975   3.567
 1845SOL     OW 6433   5.146   6.394   0.951
 1845SOL    HW1 6434   5.206   6.473   0.951
 1845SOL    HW2 6435   5.051   6.425   0.943
 1846SOL     OW 6436   3.760   1.121   5.638
 1846SOL    HW1 6437   3.711   1.091   5.720
 1846SOL    HW2 6438   3.701   1.109   5.558
 1847SOL     OW 6439   1.458   5.731   6.363
 1847SOL    HW1 6440   1.425   5.796   6.295
 1847SOL    HW2 6441   1.395   5.728   6.440
 1848SOL     OW 6442   2.120   1.731   4.418
 1848SOL    HW1 6443   2.099   1.810   4.475
 1848SOL    HW2 6444   2.163   1.761   4.333
 1849SOL     OW 6445   2.759   1.102   5.346
 1849SOL    HW1 6446   2.848   1.113   5.302
 1849SOL    HW2 6447   2.692   1.160   5.300
 1850SOL     OW 6448   5.353   2.121   1.048
 1850SOL    HW1 6449   5.299   2.177   1.110
 1850SOL    HW2 6450   5.292   2.065   0.991
 1851SOL     OW 6451   6.218   4.506   2.929
 1851SOL    HW1 6452   6.179   4.420   2.963
 1851SOL    HW2 6453   6.183   4.582   2.983
 1852SOL     OW 6454   5.535   1.764   5.534
 1852SOL    HW1 6455   5.616   1.789   5.586
 1852SOL    HW2 6456   5.494   1.846   5.494
 1853SOL     OW 6457   1.359   5.180   0.458
 1853SOL    HW1 6458   1.424   5.187   0.383
 1853SOL    HW2 6459   1.301   5.099   0.444
 1854SOL     OW 6460   2.386   5.298   4.410
 1854SOL    HW1 6461   2.373   5.293   4.509
 1854SOL    HW2 6462   2.414   5.390   4.384
 1855SOL     OW 6463   6.499   4.689   1.814
 1855SOL    HW1 6464   6.400   4.706   1.808
 1855SOL    HW2 6465   6.515   4.606   1.868
 1856SOL     OW 6466   5.489   2.966   0.298
 1856SOL    HW1 6467   5.554   3.041   0.290
 1856SOL    HW2 6468   5.399   2.997   0.268
 1857SOL     OW 6469   5.551   0.957   3.286
 1857SOL    HW1 6470   5.472   0.899   3.263
 1857SOL    HW2 6471   5.563   1.025   3.215
 1858SOL     OW 6472   5.592   3.964   2.666
 1858SOL    HW1 6473   5.640   3.913   2.737
 1858SOL    HW2 6474   5.493   3.955   2.678
 1859SOL     OW 6475   5.689   2.332   3.845
 1859SOL    HW1 6476   5.681   2.312   3.747
 1859SOL    HW2 6477   5.772   2.288   3.881
 1860SOL     OW 6478   3.613   2.040   5.073
 1860SOL    HW1 6479   3.646   1.996   4.989
 1860SOL    HW2 6480   3.523   2.003   5.096
 1861SOL     OW 6481   4.722   6.608   2.058
 1861SOL    HW1 6482   4.762   6.657   2.136
 1861SOL    HW2 6483   4.691   6.674   1.989
 1862SOL     OW 6484   3.128   2.733   0.834
 1862SOL    HW1 6485   3.195   2.755   0.763
 1862SOL    HW2 6486   3.136   2.636   0.858
 1863SOL     OW 6487   2.166   1.559   1.341
 1863SOL    HW1 6488   2.161   1.497   1.263
 1863SOL    HW2 6489   2.240   1.531   1.402
 1864SOL     OW 6490   6.848   6.544   2.930
 1864SOL    HW1 6491   6.788   6.620   2.904
 1864SOL    HW2 6492   6.887   6.561   3.020
 1865SOL     OW 6493   5.912   3.029   6.861
 1865SOL    HW1 6494   5.823   2.999   6.825
 1865SOL    HW2 6495   5.944   2.962   6.928
 1866SOL     OW 6496   5.864   5.500   1.683
 1866SOL    HW1 6497   5.795   5.455   1.627
 1866SOL    HW2 6498   5.955   5.486   1.644
 1867SOL     OW 6499   1.490   4.166   6.625
 1867SOL    HW1 6500   1.571   4.109   6.611
 1867SOL    HW2 6501   1.499   4.215   6.712
 1868SOL     OW 6502   6.117   3.941   5.200
 1868SOL    HW1 6503   6.058   3.904   5.129
 1868SOL    HW2 6504   6.212   3.940   5.168
 1869SOL     OW 6505   5.706   1.173   5.189
 1869SOL    HW1 6506   5.607   1.160   5.180
 1869SOL    HW2 6507   5.751   1.139   5.106
 1870SOL     OW 6508   2.153   3.739   4.929
 1870SOL    HW1 6509   2.215   3.814   4.952
 1870SOL    HW2 6510   2.187   3.654   4.969
 1871SOL     OW 6511   1.899   1.258   0.873
 1871SOL    HW1 6512   1.829   1.215   0.815
 1871SOL    HW2 6513   1.884   1.357   0.875
 1872SOL     OW 6514   1.487   5.478   6.234
 1872SOL    HW1 6515   1.493   5.549   6.305
 1872SOL    HW2 6516   1.396   5.436   6.238
 1873SOL     OW 6517   5.734   6.356   6.885
 1873SOL    HW1 6518   5.799   6.401   6.947
 1873SOL    HW2 6519   5.641   6.388   6.905
 1874SOL     OW 6520   0.698   4.204   3.179
 1874SOL    HW1 6521   0.631   4.134   3.203
 1874SOL    HW2 6522   0.776   4.200   3.242
 1875SOL     OW 6523   0.183   0.006   2.045
 1875SOL    HW1 6524   0.192   6.957   1.970
 1875SOL    HW2 6525   0.209   0.097   2.014
 1876SOL     OW 6526   1.895   5.818   4.134
 1876SOL    HW1 6527   1.937   5.908   4.146
 1876SOL    HW2 6528   1.856   5.787   4.220
 1877SOL     OW 6529   7.016   0.374   4.569
 1877SOL    HW1 6530   0.058   0.309   4.520
 1877SOL    HW2 6531   6.920   0.361   4.541
 1878SOL     OW 6532   6.393   3.219   5.689
 1878SOL    HW1 6533   6.295   3.213   5.667
 1878SOL    HW2 6534   6.432   3.128   5.694
 1879SOL     OW 6535   1.917   5.894   5.482
 1879SOL    HW1 6536   1.874   5.805   5.467
 1879SOL    HW2 6537   1.922   5.945   5.395
 1880SOL     OW 6538   6.764   0.281   4.268
 1880SOL    HW1 6539   6.679   0.333   4.253
 1880SOL    HW2 6540   6.815   0.277   4.182
 1881SOL     OW 6541   0.839   2.444   6.699
 1881SOL    HW1 6542   0.796   2.532   6.722
 1881SOL    HW2 6543   0.832   2.429   6.600
 1882SOL     OW 6544   0.699   6.268   0.065
 1882SOL    HW1 6545   0.678   6.293   6.987
 1882SOL    HW2 6546   0.632   6.201   0.098
 1883SOL     OW 6547   0.028   2.144   4.162
 1883SOL    HW1 6548   6.944   2.142   4.161
 1883SOL    HW2 6549   0.062   2.125   4.070
 1884SOL     OW 6550   5.946   1.621   1.278
 1884SOL    HW1 6551   6.024   1.667   1.234
 1884SOL    HW2 6552   5.871   1.612   1.213
 1885SOL     OW 6553   3.323   1.052   4.710
 1885SOL    HW1 6554   3.397   0.987   4.723
 1885SOL    HW2 6555   3.255   1.013   4.647
 1886SOL     OW 6556   0.319   6.416   3.517
 1886SOL    HW1 6557   0.359   6.326   3.503
 1886SOL    HW2 6558   0.321   6.439   3.614
 1887SOL     OW 6559   2.287   5.343   6.393
 1887SOL    HW1 6560   2.198   5.312   6.427
 1887SOL    HW2 6561   2.336   5.266   6.353
 1888SOL     OW 6562   2.143   0.399   3.622
 1888SOL    HW1 6563   2.187   0.461   3.558
 1888SOL    HW2 6564   2.060   0.362   3.582
 1889SOL     OW 6565   0.327   3.504   2.608
 1889SOL    HW1 6566   0.275   3.590   2.612
 1889SOL    HW2 6567   0.422   3.525   2.584
 1890SOL     OW 6568   1.854   5.877   4.744
 1890SOL    HW1 6569   1.799   5.902   4.823
 1890SOL    HW2 6570   1.940   5.928   4.746
 1891SOL     OW 6571   3.889   3.483   3.988
 1891SOL    HW1 6572   3.875   3.410   3.921
 1891SOL    HW2 6573   3.942   3.448   4.065
 1892SOL     OW 6574   0.155   0.985   2.592
 1892SOL    HW1 6575   0.084   1.005   2.659
 1892SOL    HW2 6576   0.169   0.886   2.588
 1893SOL     OW 6577   3.450   3.015   3.775
 1893SOL    HW1 6578   3.492   2.973   3.855
 1893SOL    HW2 6579   3.351   3.000   3.778
 1894SOL     OW 6580   3.104   2.955   5.512
 1894SOL    HW1 6581   3.022   3.011   5.525
 1894SOL    HW2 6582   3.085   2.881   5.448
 1895SOL     OW 6583   1.041   6.430   1.569
 1895SOL    HW1 6584   1.050   6.337   1.604
 1895SOL    HW2 6585   1.022   6.493   1.644
 1896SOL     OW 6586   6.613   2.625   0.832
 1896SOL    HW1 6587   6.624   2.630   0.931
 1896SOL    HW2 6588   6.696   2.585   0.792
 1897SOL     OW 6589   2.465   4.613   3.310
 1897SOL    HW1 6590   2.445   4.518   3.284
 1897SOL    HW2 6591   2.485   4.666   3.227
 1898SOL     OW 6592   2.280   5.889   2.052
 1898SOL    HW1 6593   2.304   5.845   1.965
 1898SOL    HW2 6594   2.217   5.830   2.103
 1899SOL     OW 6595   6.801   0.901   2.178
 1899SOL    HW1 6596   6.882   0.916   2.120
 1899SOL    HW2 6597   6.742   0.832   2.136
 1900SOL     OW 6598   3.048   6.296   6.418
 1900SOL    HW1 6599   3.087   6.373   6.470
 1900SOL    HW2 6600   2.984   6.246   6.476
 1901SOL     OW 6601   3.982   3.020   2.920
 1901SOL    HW1 6602   4.012   2.928   2.894
 1901SOL    HW2 6603   3.884   3.029   2.903
 1902SOL     OW 6604   1.370   6.615   5.065
 1902SOL    HW1 6605   1.301   6.624   5.137
 1902SOL    HW2 6606   1.427   6.697   5.063
 1903SOL     OW 6607   0.666   2.402   4.146
 1903SOL    HW1 6608   0.678   2.334   4.073
 1903SOL    HW2 6609   0.632   2.487   4.106
 1904SOL     OW 6610   5.652   5.596   1.942
 1904SOL    HW1 6611   5.748   5.601   1.969
 1904SOL    HW2 6612   5.642   5.623   1.847
 1905SOL     OW 6613   0.190   2.945   3.544
 1905SOL    HW1 6614   0.179   2.853   3.507
 1905SOL    HW2 6615   0.104   2.972   3.588
 1906SOL     OW 6616   0.163   6.315   3.783
 1906SOL    HW1 6617   0.211   6.402   3.786
 1906SOL    HW2 6618   0.067   6.329   3.806
 1907SOL     OW 6619   6.898   2.904   0.663
 1907SOL    HW1 6620   6.826   2.950   0.716
 1907SOL    HW2 6621   6.861   2.819   0.625
 1908SOL     OW 6622   4.530   0.669   1.653
 1908SOL    HW1 6623   4.501   0.574   1.666
 1908SOL    HW2 6624   4.450   0.727   1.639
 1909SOL     OW 6625   6.692   5.393   4.771
 1909SOL    HW1 6626   6.689   5.359   4.866
 1909SOL    HW2 6627   6.603   5.379   4.728
 1910SOL     OW 6628   0.105   6.503   4.767
 1910SOL    HW1 6629   0.194   6.459   4.779
 1910SOL    HW2 6630   0.115   6.602   4.777
 1911SOL     OW 6631   5.793   6.150   3.894
 1911SOL    HW1 6632   5.819   6.211   3.819
 1911SOL    HW2 6633   5.769   6.205   3.974
 1912SOL     OW 6634   3.726   4.857   2.313
 1912SOL    HW1 6635   3.804   4.839   2.373
 1912SOL    HW2 6636   3.644   4.871   2.368
 1913SOL     OW 6637   2.788   4.074   6.206
 1913SOL    HW1 6638   2.728   4.094   6.283
 1913SOL    HW2 6639   2.868   4.023   6.238
 1914SOL     OW 6640   4.530   4.626   0.316
 1914SOL    HW1 6641   4.523   4.721   0.284
 1914SOL    HW2 6642   4.550   4.625   0.414
 1915SOL     OW 6643   4.189   1.968   0.180
 1915SOL    HW1 6644   4.191   1.934   0.087
 1915SOL    HW2 6645   4.219   2.064   0.181
 1916SOL     OW 6646   3.497   1.807   3.058
 1916SOL    HW1 6647   3.506   1.826   3.156
 1916SOL    HW2 6648   3.411   1.758   3.042
 1917SOL     OW 6649   2.562   4.000   1.447
 1917SOL    HW1 6650   2.564   4.100   1.455
 1917SOL    HW2 6651   2.582   3.959   1.536
 1918SOL     OW 6652   5.071   3.043   4.125
 1918SOL    HW1 6653   5.145   3.108   4.109
 1918SOL    HW2 6654   5.073   2.971   4.056
 1919SOL     OW 6655   6.460   0.900   6.201
 1919SOL    HW1 6656   6.374   0.859   6.230
 1919SOL    HW2 6657   6.531   0.881   6.270
 1920SOL     OW 6658   4.846   3.593   0.437
 1920SOL    HW1 6659   4.911   3.517   0.442
 1920SOL    HW2 6660   4.770   3.567   0.378
 1921SOL     OW 6661   3.098   2.127   6.941
 1921SOL    HW1 6662   3.007   2.160   6.915
 1921SOL    HW2 6663   3.127   2.057   6.876
 1922SOL     OW 6664   3.616   3.466   4.228
 1922SOL    HW1 6665   3.605   3.404   4.306
 1922SOL    HW2 6666   3.613   3.413   4.143
 1923SOL     OW 6667   3.166   0.082   4.010
 1923SOL    HW1 6668   3.103   0.010   4.039
 1923SOL    HW2 6669   3.181   0.076   3.911
 1924SOL     OW 6670   5.337   0.809   1.253
 1924SOL    HW1 6671   5.256   0.819   1.196
 1924SOL    HW2 6672   5.316   0.752   1.332
 1925SOL     OW 6673   1.429   4.538   0.973
 1925SOL    HW1 6674   1.471   4.624   1.002
 1925SOL    HW2 6675   1.448   4.524   0.875
 1926SOL     OW 6676   2.597   6.897   1.488
 1926SOL    HW1 6677   2.526   6.840   1.449
 1926SOL    HW2 6678   2.682   6.886   1.436
 1927SOL     OW 6679   1.810   5.308   1.168
 1927SOL    HW1 6680   1.812   5.407   1.177
 1927SOL    HW2 6681   1.731   5.280   1.114
 1928SOL     OW 6682   1.401   4.183   3.015
 1928SOL    HW1 6683   1.467   4.114   3.041
 1928SOL    HW2 6684   1.433   4.233   2.934
 1929SOL     OW 6685   2.965   0.454   3.387
 1929SOL    HW1 6686   2.929   0.408   3.305
 1929SOL    HW2 6687   2.930   0.548   3.390
 1930SOL     OW 6688   3.176   3.902   0.030
 1930SOL    HW1 6689   3.187   3.976   6.980
 1930SOL    HW2 6690   3.207   3.816   7.006
 1931SOL     OW 6691   5.653   3.235   3.467
 1931SOL    HW1 6692   5.658   3.223   3.368
 1931SOL    HW2 6693   5.584   3.304   3.489
 1932SOL     OW 6694   4.861   0.980   1.764
 1932SOL    HW1 6695   4.919   1.053   1.728
 1932SOL    HW2 6696   4.885   0.964   1.860
 1933SOL     OW 6697   1.533   1.183   1.213
 1933SOL    HW1 6698   1.631   1.199   1.225
 1933SOL    HW2 6699   1.503   1.220   1.126
 1934SOL     OW 6700   6.383   0.674   0.059
 1934SOL    HW1 6701   6.305   0.648   0.115
 1934SOL    HW2 6702   6.367   0.763   0.018
 1935SOL     OW 6703   5.710   5.275   3.258
 1935SOL    HW1 6704   5.620   5.268   3.216
 1935SOL    HW2 6705   5.718   5.363   3.305
 1936SOL     OW 6706   6.043   3.065   6.648
 1936SOL    HW1 6707   5.996   3.047   6.734
 1936SOL    HW2 6708   6.008   3.150   6.608
 1937SOL     OW 6709   1.118   5.199   6.675
 1937SOL    HW1 6710   1.205   5.219   6.721
 1937SOL    HW2 6711   1.116   5.103   6.646
 1938SOL     OW 6712   6.918   1.295   6.752
 1938SOL    HW1 6713   6.936   1.331   6.844
 1938SOL    HW2 6714   6.991   1.232   6.727
 1939SOL     OW 6715   0.274   0.921   3.921
 1939SOL    HW1 6716   0.309   0.837   3.963
 1939SOL    HW2 6717   0.191   0.949   3.969
 1940SOL     OW 6718   1.118   5.398   2.157
 1940SOL    HW1 6719   1.093   5.460   2.083
 1940SOL    HW2 6720   1.123   5.305   2.122
 1941SOL     OW 6721   6.124   0.292   4.058
 1941SOL    HW1 6722   6.126   0.337   4.147
 1941SOL    HW2 6723   6.138   0.359   3.986
 1942SOL     OW 6724   0.739   6.340   1.759
 1942SOL    HW1 6725   0.789   6.427   1.757
 1942SOL    HW2 6726   0.804   6.266   1.779
 1943SOL     OW 6727   0.778   4.314   3.820
 1943SOL    HW1 6728   0.691   4.312   3.869
 1943SOL    HW2 6729   0.775   4.250   3.744
 1944SOL     OW 6730   0.052   3.821   3.637
 1944SOL    HW1 6731   0.054   3.723   3.620
 1944SOL    HW2 6732   0.119   3.866   3.578
 1945SOL     OW 6733   4.442   1.761   2.463
 1945SOL    HW1 6734   4.374   1.805   2.404
 1945SOL    HW2 6735   4.532   1.765   2.420
 1946SOL     OW 6736   6.239   4.712   6.828
 1946SOL    HW1 6737   6.267   4.664   6.744
 1946SOL    HW2 6738   6.140   4.726   6.827
 1947SOL     OW 6739   5.516   6.000   2.260
 1947SOL    HW1 6740   5.515   5.990   2.160
 1947SOL    HW2 6741   5.585   6.068   2.285
 1948SOL     OW 6742   4.912   2.944   3.032
 1948SOL    HW1 6743   4.887   2.940   3.129
 1948SOL    HW2 6744   4.932   3.039   3.008
 1949SOL     OW 6745   3.251   4.022   6.462
 1949SOL    HW1 6746   3.261   4.120   6.449
 1949SOL    HW2 6747   3.256   3.976   6.373
 1950SOL     OW 6748   4.068   3.353   4.484
 1950SOL    HW1 6749   4.122   3.357   4.568
 1950SOL    HW2 6750   3.976   3.321   4.506
 1951SOL     OW 6751   0.887   5.395   6.112
 1951SOL    HW1 6752   0.916   5.428   6.022
 1951SOL    HW2 6753   0.846   5.304   6.103
 1952SOL     OW 6754   5.552   3.711   6.978
 1952SOL    HW1 6755   5.481   3.657   6.932
 1952SOL    HW2 6756   5.554   3.803   6.938
 1953SOL     OW 6757   0.389   1.087   6.260
 1953SOL    HW1 6758   0.305   1.033   6.246
 1953SOL    HW2 6759   0.446   1.081   6.179
 1954SOL     OW 6760   4.197   6.707   3.270
 1954SOL    HW1 6761   4.237   6.652   3.196
 1954SOL    HW2 6762   4.116   6.754   3.235
 1955SOL     OW 6763   0.059   3.438   3.872
 1955SOL    HW1 6764   0.055   3.346   3.911
 1955SOL    HW2 6765   0.139   3.486   3.906
 1956SOL     OW 6766   4.634   1.268   1.482
 1956SOL    HW1 6767   4.614   1.186   1.535
 1956SOL    HW2 6768   4.575   1.343   1.513
 1957SOL     OW 6769   0.404   3.273   4.864
 1957SOL    HW1 6770   0.504   3.280   4.856
 1957SOL    HW2 6771   0.363   3.361   4.841
 1958SOL     OW 6772   5.463   1.926   0.201
 1958SOL    HW1 6773   5.384   1.967   0.246
 1958SOL    HW2 6774   5.547   1.969   0.236
 1959SOL     OW 6775   1.837   1.773   5.871
 1959SOL    HW1 6776   1.905   1.707   5.901
 1959SOL    HW2 6777   1.833   1.849   5.937
 1960SOL     OW 6778   4.689   4.441   1.933
 1960SOL    HW1 6779   4.598   4.408   1.958
 1960SOL    HW2 6780   4.757   4.402   1.994
 1961SOL     OW 6781   6.558   3.602   4.439
 1961SOL    HW1 6782   6.601   3.556   4.516
 1961SOL    HW2 6783   6.587   3.698   4.437
 1962SOL     OW 6784   0.022   0.049   2.311
 1962SOL    HW1 6785   6.959   0.109   2.321
 1962SOL    HW2 6786   0.043   0.037   2.214
 1963SOL     OW 6787   0.652   0.996   6.643
 1963SOL    HW1 6788   0.726   1.035   6.589
 1963SOL    HW2 6789   0.631   0.904   6.610
 1964SOL     OW 6790   5.387   3.312   0.393
 1964SOL    HW1 6791   5.356   3.270   0.479
 1964SOL    HW2 6792   5.389   3.411   0.404
 1965SOL     OW 6793   5.666   4.924   4.785
 1965SOL    HW1 6794   5.707   5.007   4.749
 1965SOL    HW2 6795   5.683   4.918   4.883
 1966SOL     OW 6796   1.948   5.055   6.861
 1966SOL    HW1 6797   2.023   5.119   6.845
 1966SOL    HW2 6798   1.861   5.105   6.866
 1967SOL     OW 6799   6.350   2.717   4.078
 1967SOL    HW1 6800   6.270   2.778   4.079
 1967SOL    HW2 6801   6.415   2.748   4.147
 1968SOL     OW 6802   2.767   1.532   5.597
 1968SOL    HW1 6803   2.839   1.482   5.550
 1968SOL    HW2 6804   2.678   1.494   5.572
 1969SOL     OW 6805   0.266   6.302   1.728
 1969SOL    HW1 6806   0.301   6.210   1.708
 1969SOL    HW2 6807   0.323   6.344   1.799
 1970SOL     OW 6808   5.015   4.172   2.626
 1970SOL    HW1 6809   5.021   4.248   2.561
 1970SOL    HW2 6810   5.036   4.205   2.718
 1971SOL     OW 6811   1.324   5.625   4.149
 1971SOL    HW1 6812   1.389   5.676   4.094
 1971SOL    HW2 6813   1.236   5.672   4.150
 1972SOL     OW 6814   5.368   2.284   3.761
 1972SOL    HW1 6815   5.456   2.332   3.755
 1972SOL    HW2 6816   5.344   2.246   3.672
 1973SOL     OW 6817   4.371   2.103   6.842
 1973SOL    HW1 6818   4.470   2.088   6.841
 1973SOL    HW2 6819   4.331   2.051   6.918
 1974SOL     OW 6820   2.101   6.352   4.334
 1974SOL    HW1 6821   2.081   6.285   4.405
 1974SOL    HW2 6822   2.191   6.392   4.351
 1975SOL     OW 6823   1.956   2.697   3.056
 1975SOL    HW1 6824   1.939   2.604   3.090
 1975SOL    HW2 6825   2.017   2.692   2.977
 1976SOL     OW 6826   2.607   0.409   4.633
 1976SOL    HW1 6827   2.700   0.429   4.600
 1976SOL    HW2 6828   2.541   0.459   4.578
 1977SOL     OW 6829   1.297   4.522   0.295
 1977SOL    HW1 6830   1.303   4.580   0.215
 1977SOL    HW2 6831   1.373   4.457   0.295
 1978SOL     OW 6832   2.713   0.708   2.411
 1978SOL    HW1 6833   2.662   0.670   2.489
 1978SOL    HW2 6834   2.649   0.732   2.339
 1979SOL     OW 6835   5.481   2.932   7.015
 1979SOL    HW1 6836   5.384   2.922   0.019
 1979SOL    HW2 6837   5.510   3.026   0.017
 1980SOL     OW 6838   4.188   6.836   1.464
 1980SOL    HW1 6839   4.254   6.762   1.477
 1980SOL    HW2 6840   4.237   6.923   1.460
 1981SOL     OW 6841   4.531   2.736   1.472
 1981SOL    HW1 6842   4.592   2.758   1.395
 1981SOL    HW2 6843   4.565   2.782   1.554
 1982SOL     OW 6844   2.882   1.722   6.333
 1982SOL    HW1 6845   2.927   1.667   6.262
 1982SOL    HW2 6846   2.899   1.819   6.315
 1983SOL     OW 6847   0.114   2.235   0.823
 1983SOL    HW1 6848   0.059   2.167   0.774
 1983SOL    HW2 6849   0.054   2.290   0.881
 1984SOL     OW 6850   4.829   3.089   6.240
 1984SOL    HW1 6851   4.785   3.169   6.199
 1984SOL    HW2 6852   4.765   3.011   6.238
 1985SOL     OW 6853   5.093   5.560   5.122
 1985SOL    HW1 6854   5.000   5.524   5.117
 1985SOL    HW2 6855   5.116   5.606   5.036
 1986SOL     OW 6856   3.313   3.501   3.194
 1986SOL    HW1 6857   3.336   3.494   3.097
 1986SOL    HW2 6858   3.334   3.592   3.227
 1987SOL     OW 6859   1.597   2.373   1.997
 1987SOL    HW1 6860   1.668   2.440   1.978
 1987SOL    HW2 6861   1.620   2.286   1.952
 1988SOL     OW 6862   1.333   1.576   2.318
 1988SOL    HW1 6863   1.244   1.565   2.273
 1988SOL    HW2 6864   1.332   1.529   2.406
 1989SOL     OW 6865   3.301   5.224   3.643
 1989SOL    HW1 6866   3.246   5.215   3.561
 1989SOL    HW2 6867   3.396   5.198   3.622
 1990SOL     OW 6868   4.684   0.099   0.877
 1990SOL    HW1 6869   4.637   0.135   0.958
 1990SOL    HW2 6870   4.721   0.175   0.824
 1991SOL     OW 6871   2.970   5.056   2.347
 1991SOL    HW1 6872   3.054   5.109   2.356
 1991SOL    HW2 6873   2.891   5.115   2.359
 1992SOL     OW 6874   0.621   0.807   3.017
 1992SOL    HW1 6875   0.702   0.809   3.077
 1992SOL    HW2 6876   0.612   0.716   2.977
 1993SOL     OW 6877   1.413   0.920   1.268
 1993SOL    HW1 6878   1.451   1.011   1.260
 1993SOL    HW2 6879   1.372   0.909   1.359
 1994SOL     OW 6880   2.956   3.404   1.533
 1994SOL    HW1 6881   3.010   3.487   1.517
 1994SOL    HW2 6882   2.906   3.413   1.619
 1995SOL     OW 6883   6.400   0.555   4.225
 1995SOL    HW1 6884   6.480   0.615   4.223
 1995SOL    HW2 6885   6.392   0.508   4.136
 1996SOL     OW 6886   4.347   0.370   1.127
 1996SOL    HW1 6887   4.341   0.405   1.220
 1996SOL    HW2 6888   4.411   0.292   1.125
 1997SOL     OW 6889   2.619   1.480   3.108
 1997SOL    HW1 6890   2.692   1.471   3.175
 1997SOL    HW2 6891   2.644   1.548   3.039
 1998SOL     OW 6892   2.251   3.624   1.130
 1998SOL    HW1 6893   2.204   3.595   1.214
 1998SOL    HW2 6894   2.190   3.611   1.052
 1999SOL     OW 6895   0.228   0.056   5.702
 1999SOL    HW1 6896   0.287   0.136   5.712
 1999SOL    HW2 6897   0.284   6.990   5.690
 2000SOL     OW 6898   4.232   4.282   6.405
 2000SOL    HW1 6899   4.192   4.197   6.438
 2000SOL    HW2 6900   4.245   4.276   6.306
 2001SOL     OW 6901   1.205   1.613   6.961
 2001SOL    HW1 6902   1.141   1.658   0.008
 2001SOL    HW2 6903   1.256   1.683   6.911
 2002SOL     OW 6904   5.880   4.477   6.787
 2002SOL    HW1 6905   5.841   4.465   6.696
 2002SOL    HW2 6906   5.910   4.572   6.798
 2003SOL     OW 6907   6.832   5.365   1.438
 2003SOL    HW1 6908   6.817   5.412   1.525
 2003SOL    HW2 6909   6.805   5.270   1.446
 2004SOL     OW 6910   3.228   0.808   2.910
 2004SOL    HW1 6911   3.232   0.890   2.967
 2004SOL    HW2 6912   3.240   0.727   2.966
 2005SOL     OW 6913   1.480   6.504   6.972
 2005SOL    HW1 6914   1.387   6.478   6.998
 2005SOL    HW2 6915   1.514   6.573   0.020
 2006SOL     OW 6916   6.083   0.373   1.942
 2006SOL    HW1 6917   6.066   0.470   1.954
 2006SOL    HW2 6918   5.997   0.323   1.951
 2007SOL     OW 6919   5.478   4.638   5.928
 2007SOL    HW1 6920   5.448   4.647   6.023
 2007SOL    HW2 6921   5.401   4.604   5.873
 2008SOL     OW 6922   2.150   2.960   2.775
 2008SOL    HW1 6923   2.131   3.015   2.856
 2008SOL    HW2 6924   2.136   2.863   2.796
 2009SOL     OW 6925   5.823   0.154   3.775
 2009SOL    HW1 6926   5.855   0.214   3.702
 2009SOL    HW2 6927   5.878   0.070   3.777
 2010SOL     OW 6928   6.647   1.178   1.681
 2010SOL    HW1 6929   6.679   1.225   1.599
 2010SOL    HW2 6930   6.724   1.159   1.741
 2011SOL     OW 6931   0.876   0.414   5.164
 2011SOL    HW1 6932   0.800   0.378   5.109
 2011SOL    HW2 6933   0.870   0.378   5.257
 2012SOL     OW 6934   0.557   2.295   0.268
 2012SOL    HW1 6935   0.539   2.247   0.183
 2012SOL    HW2 6936   0.475   2.345   0.297
 2013SOL     OW 6937   0.566   2.687   2.008
 2013SOL    HW1 6938   0.501   2.671   2.082
 2013SOL    HW2 6939   0.598   2.599   1.973
 2014SOL     OW 6940   4.078   2.186   2.874
 2014SOL    HW1 6941   4.163   2.222   2.912
 2014SOL    HW2 6942   4.097   2.137   2.790
 2015SOL     OW 6943   3.331   6.214   0.978
 2015SOL    HW1 6944   3.321   6.122   1.016
 2015SOL    HW2 6945   3.419   6.252   1.006
 2016SOL     OW 6946   2.195   0.507   4.438
 2016SOL    HW1 6947   2.171   0.453   4.519
 2016SOL    HW2 6948   2.121   0.572   4.418
 2017SOL     OW 6949   0.917   6.564   4.169
 2017SOL    HW1 6950   0.979   6.639   4.146
 2017SOL    HW2 6951   0.964   6.477   4.158
 2018SOL     OW 6952   0.478   1.396   4.680
 2018SOL    HW1 6953   0.521   1.485   4.697
 2018SOL    HW2 6954   0.425   1.401   4.595
 2019SOL     OW 6955   0.886   4.750   0.061
 2019SOL    HW1 6956   0.812   4.799   0.015
 2019SOL    HW2 6957   0.973   4.794   0.040
 2020SOL     OW 6958   1.954   6.792   1.357
 2020SOL    HW1 6959   2.052   6.808   1.370
 2020SOL    HW2 6960   1.920   6.851   1.284
 2021SOL     OW 6961   0.093   5.435   3.845
 2021SOL    HW1 6962   0.008   5.416   3.797
 2021SOL    HW2 6963   0.072   5.466   3.938
 2022SOL     OW 6964   2.161   3.211   4.155
 2022SOL    HW1 6965   2.139   3.114   4.150
 2022SOL    HW2 6966   2.232   3.225   4.224
 2023SOL     OW 6967   0.918   6.016   6.188
 2023SOL    HW1 6968   0.897   5.933   6.240
 2023SOL    HW2 6969   1.008   6.050   6.215
 2024SOL     OW 6970   6.181   5.371   3.026
 2024SOL    HW1 6971   6.090   5.409   3.010
 2024SOL    HW2 6972   6.186   5.333   3.118
 2025SOL     OW 6973   1.903   0.766   4.468
 2025SOL    HW1 6974   1.945   0.789   4.380
 2025SOL    HW2 6975   1.880   0.669   4.469
 2026SOL     OW 6976   1.420   6.554   5.525
 2026SOL    HW1 6977   1.406   6.456   5.509
 2026SOL    HW2 6978   1.509   6.581   5.488
 2027SOL     OW 6979   5.916   6.697   3.015
 2027SOL    HW1 6980   5.944   6.606   2.984
 2027SOL    HW2 6981   5.944   6.765   2.948
 2028SOL     OW 6982   2.217   5.835   4.847
 2028SOL    HW1 6983   2.125   5.798   4.856
 2028SOL    HW2 6984   2.241   5.887   4.929
 2029SOL     OW 6985   0.046   2.098   0.246
 2029SOL    HW1 6986   0.052   2.184   0.298
 2029SOL    HW2 6987   0.074   2.114   0.152
 2030SOL     OW 6988   1.313   6.289   2.388
 2030SOL    HW1 6989   1.378   6.312   2.460
 2030SOL    HW2 6990   1.242   6.229   2.425
 2031SOL     OW 6991   6.731   0.653   4.419
 2031SOL    HW1 6992   6.707   0.689   4.329
 2031SOL    HW2 6993   6.831   0.645   4.427
 2032SOL     OW 6994   2.983   2.659   6.255
 2032SOL    HW1 6995   2.959   2.575   6.207
 2032SOL    HW2 6996   2.938   2.736   6.212
 2033SOL     OW 6997   2.638   0.130   1.032
 2033SOL    HW1 6998   2.717   0.097   0.981
 2033SOL    HW2 6999   2.658   0.129   1.130
 2034SOL     OW 7000   0.752   3.635   4.885
 2034SOL    HW1 7001   0.792   3.725   4.869
 2034SOL    HW2 7002   0.824   3.566   4.886
 2035SOL     OW 7003   4.886   6.046   3.386
 2035SOL    HW1 7004   4.801   6.068   3.435
 2035SOL    HW2 7005   4.875   5.960   3.336
 2036SOL     OW 7006   6.925   3.756   5.756
 2036SOL    HW1 7007   6.949   3.662   5.781
 2036SOL    HW2 7008   6.829   3.774   5.779
 2037SOL     OW 7009   0.836   2.370   6.395
 2037SOL    HW1 7010   0.797   2.457   6.366
 2037SOL    HW2 7011   0.802   2.296   6.336
 2038SOL     OW 7012   2.406   0.748   5.747
 2038SOL    HW1 7013   2.455   0.746   5.660
 2038SOL    HW2 7014   2.308   0.747   5.729
 2039SOL     OW 7015   5.313   5.892   4.823
 2039SOL    HW1 7016   5.338   5.963   4.889
 2039SOL    HW2 7017   5.385   5.883   4.755
 2040SOL     OW 7018   2.914   1.522   0.587
 2040SOL    HW1 7019   2.913   1.621   0.603
 2040SOL    HW2 7020   2.953   1.503   0.497
 2041SOL     OW 7021   2.450   0.088   6.334
 2041SOL    HW1 7022   2.525   0.022   6.327
 2041SOL    HW2 7023   2.436   0.112   6.431
 2042SOL     OW 7024   0.480   0.105   5.054
 2042SOL    HW1 7025   0.422   0.063   4.985
 2042SOL    HW2 7026   0.528   0.034   5.105
 2043SOL     OW 7027   1.239   3.261   0.394
 2043SOL    HW1 7028   1.218   3.359   0.399
 2043SOL    HW2 7029   1.230   3.220   0.485
 2044SOL     OW 7030   2.582   1.572   2.371
 2044SOL    HW1 7031   2.500   1.517   2.387
 2044SOL    HW2 7032   2.663   1.518   2.394
 2045SOL     OW 7033   1.429   6.355   3.516
 2045SOL    HW1 7034   1.523   6.322   3.523
 2045SOL    HW2 7035   1.418   6.437   3.572
 2046SOL     OW 7036   0.064   2.179   5.553
 2046SOL    HW1 7037   0.096   2.258   5.605
 2046SOL    HW2 7038   0.108   2.179   5.463
 2047SOL     OW 7039   6.578   0.503   1.914
 2047SOL    HW1 7040   6.623   0.526   1.827
 2047SOL    HW2 7041   6.484   0.476   1.896
 2048SOL     OW 7042   2.238   1.008   3.616
 2048SOL    HW1 7043   2.144   1.000   3.582
 2048SOL    HW2 7044   2.246   1.091   3.671
 2049SOL     OW 7045   4.345   2.236   5.118
 2049SOL    HW1 7046   4.302   2.307   5.062
 2049SOL    HW2 7047   4.444   2.251   5.119
 2050SOL     OW 7048   7.006   0.998   2.788
 2050SOL    HW1 7049   6.996   1.096   2.807
 2050SOL    HW2 7050   6.927   0.966   2.735
 2051SOL     OW 7051   3.047   0.164   6.527
 2051SOL    HW1 7052   3.129   0.210   6.561
 2051SOL    HW2 7053   2.974   0.231   6.514
 2052SOL     OW 7054   0.647   4.081   0.916
 2052SOL    HW1 7055   0.631   4.180   0.916
 2052SOL    HW2 7056   0.746   4.063   0.916
 2053SOL     OW 7057   5.079   4.967   1.387
 2053SOL    HW1 7058   5.083   5.067   1.378
 2053SOL    HW2 7059   5.011   4.931   1.324
 2054SOL     OW 7060   2.952   3.614   4.136
 2054SOL    HW1 7061   2.973   3.700   4.088
 2054SOL    HW2 7062   2.952   3.631   4.234
 2055SOL     OW 7063   3.238   2.928   5.992
 2055SOL    HW1 7064   3.319   2.870   5.987
 2055SOL    HW2 7065   3.156   2.871   5.986
 2056SOL     OW 7066   2.992   5.296   1.683
 2056SOL    HW1 7067   2.982   5.371   1.749
 2056SOL    HW2 7068   2.931   5.221   1.709
 2057SOL     OW 7069   6.217   3.245   4.580
 2057SOL    HW1 7070   6.183   3.293   4.499
 2057SOL    HW2 7071   6.301   3.195   4.557
 2058SOL     OW 7072   5.308   0.803   3.500
 2058SOL    HW1 7073   5.390   0.770   3.547
 2058SOL    HW2 7074   5.226   0.765   3.544
 2059SOL     OW 7075   2.789   1.574   5.881
 2059SOL    HW1 7076   2.821   1.667   5.898
 2059SOL    HW2 7077   2.759   1.565   5.786
 2060SOL     OW 7078   1.608   2.343   6.441
 2060SOL    HW1 7079   1.661   2.259   6.450
 2060SOL    HW2 7080   1.650   2.416   6.496
 2061SOL     OW 7081   2.561   2.586   3.509
 2061SOL    HW1 7082   2.589   2.490   3.500
 2061SOL    HW2 7083   2.627   2.634   3.568
 2062SOL     OW 7084   4.623   4.937   4.126
 2062SOL    HW1 7085   4.560   4.888   4.187
 2062SOL    HW2 7086   4.701   4.878   4.106
 2063SOL     OW 7087   1.161   1.781   3.937
 2063SOL    HW1 7088   1.229   1.775   3.864
 2063SOL    HW2 7089   1.204   1.819   4.019
 2064SOL     OW 7090   0.100   3.862   4.436
 2064SOL    HW1 7091   7.016   3.856   4.431
 2064SOL    HW2 7092   0.140   3.796   4.372
 2065SOL     OW 7093   3.295   3.156   5.453
 2065SOL    HW1 7094   3.360   3.143   5.528
 2065SOL    HW2 7095   3.216   3.096   5.466
 2066SOL     OW 7096   2.312   2.354   4.552
 2066SOL    HW1 7097   2.382   2.419   4.522
 2066SOL    HW2 7098   2.234   2.403   4.590
 2067SOL     OW 7099   5.894   4.445   3.043
 2067SOL    HW1 7100   5.811   4.390   3.049
 2067SOL    HW2 7101   5.974   4.385   3.038
 2068SOL     OW 7102   2.860   6.510   4.312
 2068SOL    HW1 7103   2.838   6.495   4.215
 2068SOL    HW2 7104   2.814   6.593   4.344
 2069SOL     OW 7105   5.314   1.741   3.030
 2069SOL    HW1 7106   5.239   1.806   3.027
 2069SOL    HW2 7107   5.297   1.669   2.962
 2070SOL     OW 7108   0.477   5.977   1.838
 2070SOL    HW1 7109   0.496   5.929   1.752
 2070SOL    HW2 7110   0.540   6.054   1.848
 2071SOL     OW 7111   6.956   2.442   3.948
 2071SOL    HW1 7112   6.987   2.530   3.911
 2071SOL    HW2 7113   6.942   2.378   3.873
 2072SOL     OW 7114   5.493   2.901   5.823
 2072SOL    HW1 7115   5.462   2.812   5.857
 2072SOL    HW2 7116   5.424   2.939   5.761
 2073SOL     OW 7117   3.017   5.947   6.912
 2073SOL    HW1 7118   3.008   6.038   6.872
 2073SOL    HW2 7119   3.114   5.920   6.910
 2074SOL     OW 7120   3.414   4.478   5.361
 2074SOL    HW1 7121   3.490   4.435   5.313
 2074SOL    HW2 7122   3.354   4.407   5.398
 2075SOL     OW 7123   5.042   0.835   1.151
 2075SOL    HW1 7124   5.037   0.826   1.250
 2075SOL    HW2 7125   4.949   0.838   1.113
 2076SOL     OW 7126   6.575   0.154   3.042
 2076SOL    HW1 7127   6.517   0.121   2.968
 2076SOL    HW2 7128   6.672   0.140   3.018
 2077SOL     OW 7129   0.467   4.272   1.370
 2077SOL    HW1 7130   0.454   4.351   1.310
 2077SOL    HW2 7131   0.496   4.193   1.316
 2078SOL     OW 7132   0.944   2.393   0.613
 2078SOL    HW1 7133   0.899   2.380   0.525
 2078SOL    HW2 7134   0.894   2.344   0.684
 2079SOL     OW 7135   5.293   1.714   3.896
 2079SOL    HW1 7136   5.283   1.812   3.880
 2079SOL    HW2 7137   5.327   1.669   3.813
 2080SOL     OW 7138   2.052   2.712   4.504
 2080SOL    HW1 7139   2.043   2.745   4.598
 2080SOL    HW2 7140   2.142   2.736   4.469
 2081SOL     OW 7141   0.587   5.718   2.630
 2081SOL    HW1 7142   0.663   5.772   2.596
 2081SOL    HW2 7143   0.598   5.623   2.602
 2082SOL     OW 7144   6.468   6.546   4.223
 2082SOL    HW1 7145   6.370   6.538   4.205
 2082SOL    HW2 7146   6.501   6.462   4.264
 2083SOL     OW 7147   1.046   5.823   3.019
 2083SOL    HW1 7148   1.142   5.829   3.045
 2083SOL    HW2 7149   0.993   5.892   3.069
 2084SOL     OW 7150   6.039   2.270   1.331
 2084SOL    HW1 7151   6.044   2.174   1.356
 2084SOL    HW2 7152   5.955   2.310   1.368
 2085SOL     OW 7153   6.145   4.846   6.502
 2085SOL    HW1 7154   6.136   4.821   6.405
 2085SOL    HW2 7155   6.180   4.768   6.553
 2086SOL     OW 7156   5.296   1.665   5.437
 2086SOL    HW1 7157   5.384   1.713   5.429
 2086SOL    HW2 7158   5.232   1.722   5.489
 2087SOL     OW 7159   4.958   1.294   5.989
 2087SOL    HW1 7160   5.006   1.236   5.923
 2087SOL    HW2 7161   4.997   1.386   5.987
 2088SOL     OW 7162   0.624   3.513   5.682
 2088SOL    HW1 7163   0.706   3.474   5.641
 2088SOL    HW2 7164   0.543   3.487   5.628
 2089SOL     OW 7165   3.056   5.154   4.483
 2089SOL    HW1 7166   2.964   5.114   4.491
 2089SOL    HW2 7167   3.056   5.246   4.522
 2090SOL     OW 7168   5.756   2.357   5.936
 2090SOL    HW1 7169   5.780   2.434   5.995
 2090SOL    HW2 7170   5.760   2.385   5.840
 2091SOL     OW 7171   5.339   0.215   0.828
 2091SOL    HW1 7172   5.435   0.212   0.800
 2091SOL    HW2 7173   5.321   0.300   0.877
 2092SOL     OW 7174   3.741   3.279   2.627
 2092SOL    HW1 7175   3.796   3.317   2.701
 2092SOL    HW2 7176   3.647   3.268   2.658
 2093SOL     OW 7177   5.151   0.151   6.958
 2093SOL    HW1 7178   5.234   0.196   6.989
 2093SOL    HW2 7179   5.071   0.196   7.000
 2094SOL     OW 7180   4.907   2.792   0.955
 2094SOL    HW1 7181   4.975   2.793   1.028
 2094SOL    HW2 7182   4.892   2.885   0.922
 2095SOL     OW 7183   3.934   6.016   4.338
 2095SOL    HW1 7184   3.852   5.975   4.378
 2095SOL    HW2 7185   3.907   6.081   4.267
 2096SOL     OW 7186   3.657   0.625   2.699
 2096SOL    HW1 7187   3.683   0.536   2.662
 2096SOL    HW2 7188   3.563   0.647   2.672
 2097SOL     OW 7189   2.587   5.636   5.470
 2097SOL    HW1 7190   2.599   5.696   5.549
 2097SOL    HW2 7191   2.591   5.541   5.500
 2098SOL     OW 7192   1.339   6.912   4.202
 2098SOL    HW1 7193   1.419   6.855   4.221
 2098SOL    HW2 7194   1.348   6.953   4.111
 2099SOL     OW 7195   4.664   1.913   6.882
 2099SOL    HW1 7196   4.762   1.894   6.882
 2099SOL    HW2 7197   4.618   1.850   6.819
 2100SOL     OW 7198   4.764   0.353   0.782
 2100SOL    HW1 7199   4.829   0.365   0.707
 2100SOL    HW2 7200   4.808   0.380   0.868
 2101SOL     OW 7201   0.693   0.531   3.013
 2101SOL    HW1 7202   0.662   0.436   3.010
 2101SOL    HW2 7203   0.728   0.552   3.104
 2102SOL     OW 7204   3.683   2.987   2.535
 2102SOL    HW1 7205   3.716   3.070   2.579
 2102SOL    HW2 7206   3.748   2.958   2.465
 2103SOL     OW 7207   1.460   0.017   1.502
 2103SOL    HW1 7208   1.457   6.947   1.453
 2103SOL    HW2 7209   1.505   0.086   1.445
 2104SOL     OW 7210   1.162   4.838   2.464
 2104SOL    HW1 7211   1.150   4.759   2.403
 2104SOL    HW2 7212   1.252   4.833   2.507
 2105SOL     OW 7213   5.274   6.435   5.715
 2105SOL    HW1 7214   5.284   6.361   5.782
 2105SOL    HW2 7215   5.259   6.396   5.624
 2106SOL     OW 7216   3.474   3.800   0.806
 2106SOL    HW1 7217   3.421   3.727   0.762
 2106SOL    HW2 7218   3.555   3.760   0.850
 2107SOL     OW 7219   5.850   4.526   4.445
 2107SOL    HW1 7220   5.832   4.598   4.512
 2107SOL    HW2 7221   5.822   4.438   4.483
 2108SOL     OW 7222   4.076   6.174   5.586
 2108SOL    HW1 7223   4.017   6.102   5.549
 2108SOL    HW2 7224   4.104   6.149   5.678
 2109SOL     OW 7225   2.764   6.100   2.261
 2109SOL    HW1 7226   2.838   6.110   2.194
 2109SOL    HW2 7227   2.763   6.007   2.296
 2110SOL     OW 7228   3.729   5.882   0.634
 2110SOL    HW1 7229   3.818   5.903   0.594
 2110SOL    HW2 7230   3.675   5.966   0.642
 2111SOL     OW 7231   1.017   2.646   0.592
 2111SOL    HW1 7232   0.975   2.655   0.502
 2111SOL    HW2 7233   1.019   2.550   0.618
 2112SOL     OW 7234   0.693   0.614   6.264
 2112SOL    HW1 7235   0.653   0.704   6.246
 2112SOL    HW2 7236   0.776   0.603   6.210
 2113SOL     OW 7237   6.593   1.754   4.635
 2113SOL    HW1 7238   6.515   1.693   4.650
 2113SOL    HW2 7239   6.574   1.815   4.558
 2114SOL     OW 7240   2.778   0.488   5.563
 2114SOL    HW1 7241   2.757   0.544   5.643
 2114SOL    HW2 7242   2.846   0.535   5.507
 2115SOL     OW 7243   0.168   0.220   4.460
 2115SOL    HW1 7244   0.260   0.252   4.437
 2115SOL    HW2 7245   0.169   0.120   4.465
 2116SOL     OW 7246   2.766   6.612   6.787
 2116SOL    HW1 7247   2.732   6.521   6.810
 2116SOL    HW2 7248   2.714   6.681   6.838
 2117SOL     OW 7249   6.699   3.043   0.793
 2117SOL    HW1 7250   6.608   3.070   0.827
 2117SOL    HW2 7251   6.765   3.115   0.815
 2118SOL     OW 7252   0.165   3.051   2.946
 2118SOL    HW1 7253   0.239   2.984   2.953
 2118SOL    HW2 7254   0.204   3.143   2.938
 2119SOL     OW 7255   2.210   2.402   6.684
 2119SOL    HW1 7256   2.209   2.471   6.756
 2119SOL    HW2 7257   2.236   2.444   6.597
 2120SOL     OW 7258   6.390   1.519   0.782
 2120SOL    HW1 7259   6.473   1.515   0.726
 2120SOL    HW2 7260   6.414   1.508   0.879
 2121SOL     OW 7261   2.650   5.979   2.003
 2121SOL    HW1 7262   2.727   5.929   1.963
 2121SOL    HW2 7263   2.673   6.007   2.096
 2122SOL     OW 7264   0.420   1.490   5.377
 2122SOL    HW1 7265   0.380   1.445   5.456
 2122SOL    HW2 7266   0.510   1.452   5.357
 2123SOL     OW 7267   0.716   4.586   3.229
 2123SOL    HW1 7268   0.621   4.569   3.204
 2123SOL    HW2 7269   0.747   4.515   3.291
 2124SOL     OW 7270   5.661   3.371   6.403
 2124SOL    HW1 7271   5.599   3.449   6.398
 2124SOL    HW2 7272   5.663   3.324   6.315
 2125SOL     OW 7273   2.265   5.075   5.978
 2125SOL    HW1 7274   2.334   5.127   6.029
 2125SOL    HW2 7275   2.276   5.094   5.880
 2126SOL     OW 7276   2.423   5.771   1.870
 2126SOL    HW1 7277   2.460   5.767   1.963
 2126SOL    HW2 7278   2.480   5.829   1.813
 2127SOL     OW 7279   1.514   3.665   4.132
 2127SOL    HW1 7280   1.523   3.578   4.180
 2127SOL    HW2 7281   1.587   3.727   4.162
 2128SOL     OW 7282   5.158   2.975   0.886
 2128SOL    HW1 7283   5.208   2.914   0.824
 2128SOL    HW2 7284   5.070   3.000   0.845
 2129SOL     OW 7285   5.647   5.008   4.116
 2129SOL    HW1 7286   5.745   5.000   4.098
 2129SOL    HW2 7287   5.620   4.941   4.185
 2130SOL     OW 7288   2.216   0.019   2.841
 2130SOL    HW1 7289   2.255   6.966   2.779
 2130SOL    HW2 7290   2.271   0.103   2.836
 2131SOL     OW 7291   5.834   6.727   6.657
 2131SOL    HW1 7292   5.736   6.704   6.661
 2131SOL    HW2 7293   5.853   6.777   6.573
 2132SOL     OW 7294   3.212   1.634   0.490
 2132SOL    HW1 7295   3.291   1.690   0.514
 2132SOL    HW2 7296   3.138   1.692   0.458
 2133SOL     OW 7297   3.419   3.229   2.308
 2133SOL    HW1 7298   3.519   3.227   2.309
 2133SOL    HW2 7299   3.384   3.136   2.298
 2134SOL     OW 7300   2.574   6.636   4.934
 2134SOL    HW1 7301   2.506   6.593   4.994
 2134SOL    HW2 7302   2.617   6.565   4.877
 2135SOL     OW 7303   0.252   5.807   3.769
 2135SOL    HW1 7304   0.170   5.858   3.743
 2135SOL    HW2 7305   0.317   5.869   3.813
 2136SOL     OW 7306   0.119   4.736   3.690
 2136SOL    HW1 7307   0.103   4.724   3.593
 2136SOL    HW2 7308   0.200   4.794   3.704
 2137SOL     OW 7309   7.006   0.032   4.838
 2137SOL    HW1 7310   0.016   0.074   4.925
 2137SOL    HW2 7311   6.946   0.093   4.788
 2138SOL     OW 7312   1.136   1.915   0.466
 2138SOL    HW1 7313   1.127   2.012   0.490
 2138SOL    HW2 7314   1.211   1.874   0.517
 2139SOL     OW 7315   4.020   6.512   4.626
 2139SOL    HW1 7316   4.019   6.458   4.542
 2139SOL    HW2 7317   3.979   6.459   4.700
 2140SOL     OW 7318   0.961   5.655   3.529
 2140SOL    HW1 7319   0.903   5.616   3.458
 2140SOL    HW2 7320   0.930   5.622   3.619
 2141SOL     OW 7321   6.893   0.580   6.784
 2141SOL    HW1 7322   6.802   0.570   6.743
 2141SOL    HW2 7323   6.904   0.512   6.856
 2142SOL     OW 7324   3.701   1.669   3.165
 2142SOL    HW1 7325   3.641   1.727   3.110
 2142SOL    HW2 7326   3.746   1.601   3.107
 2143SOL     OW 7327   3.361   5.367   0.533
 2143SOL    HW1 7328   3.401   5.337   0.620
 2143SOL    HW2 7329   3.264   5.390   0.547
 2144SOL     OW 7330   1.110   1.496   1.989
 2144SOL    HW1 7331   1.066   1.523   2.075
 2144SOL    HW2 7332   1.045   1.444   1.933
 2145SOL     OW 7333   2.506   6.061   3.237
 2145SOL    HW1 7334   2.572   5.987   3.245
 2145SOL    HW2 7335   2.542   6.131   3.175
 2146SOL     OW 7336   2.998   1.846   1.563
 2146SOL    HW1 7337   3.050   1.777   1.613
 2146SOL    HW2 7338   2.906   1.811   1.544
 2147SOL     OW 7339   0.076   0.604   4.002
 2147SOL    HW1 7340   0.112   0.575   4.091
 2147SOL    HW2 7341   0.004   0.673   4.016
 2148SOL     OW 7342   6.663   4.429   3.965
 2148SOL    HW1 7343   6.737   4.369   3.995
 2148SOL    HW2 7344   6.581   4.375   3.947
 2149SOL     OW 7345   2.157   1.180   2.193
 2149SOL    HW1 7346   2.152   1.273   2.158
 2149SOL    HW2 7347   2.074   1.130   2.167
 2150SOL     OW 7348   5.857   0.594   3.215
 2150SOL    HW1 7349   5.840   0.672   3.154
 2150SOL    HW2 7350   5.911   0.526   3.167
 2151SOL     OW 7351   5.027   4.697   5.238
 2151SOL    HW1 7352   5.088   4.759   5.288
 2151SOL    HW2 7353   5.015   4.612   5.290
 2152SOL     OW 7354   0.051   6.277   2.499
 2152SOL    HW1 7355   0.010   6.317   2.581
 2152SOL    HW2 7356   0.015   6.322   2.417
 2153SOL     OW 7357   4.292   2.260   3.234
 2153SOL    HW1 7358   4.215   2.255   3.298
 2153SOL    HW2 7359   4.349   2.338   3.258
 2154SOL     OW 7360   4.415   0.300   3.857
 2154SOL    HW1 7361   4.343   0.297   3.786
 2154SOL    HW2 7362   4.392   0.370   3.924
 2155SOL     OW 7363   6.009   3.687   0.685
 2155SOL    HW1 7364   5.951   3.655   0.610
 2155SOL    HW2 7365   5.958   3.681   0.771
 2156SOL     OW 7366   5.961   5.510   2.459
 2156SOL    HW1 7367   5.934   5.451   2.536
 2156SOL    HW2 7368   5.920   5.600   2.471
 2157SOL     OW 7369   5.326   1.435   4.157
 2157SOL    HW1 7370   5.291   1.410   4.066
 2157SOL    HW2 7371   5.358   1.530   4.155
 2158SOL     OW 7372   4.297   1.060   3.524
 2158SOL    HW1 7373   4.350   1.137   3.559
 2158SOL    HW2 7374   4.202   1.070   3.553
 2159SOL     OW 7375   2.153   2.013   4.500
 2159SOL    HW1 7376   2.226   2.060   4.449
 2159SOL    HW2 7377   2.066   2.060   4.484
 2160SOL     OW 7378   1.926   4.110   1.023
 2160SOL    HW1 7379   1.934   4.127   1.121
 2160SOL    HW2 7380   1.917   4.198   0.975
 2161SOL     OW 7381   4.411   2.288   2.027
 2161SOL    HW1 7382   4.367   2.198   2.030
 2161SOL    HW2 7383   4.365   2.345   1.960
 2162SOL     OW 7384   1.745   1.364   2.985
 2162SOL    HW1 7385   1.843   1.346   2.995
 2162SOL    HW2 7386   1.706   1.300   2.920
 2163SOL     OW 7387   4.770   1.688   0.639
 2163SOL    HW1 7388   4.713   1.613   0.606
 2163SOL    HW2 7389   4.788   1.675   0.737
 2164SOL     OW 7390   6.363   0.081   2.248
 2164SOL    HW1 7391   6.436   0.013   2.238
 2164SOL    HW2 7392   6.287   0.057   2.187
 2165SOL     OW 7393   1.947   0.025   1.902
 2165SOL    HW1 7394   1.903   0.048   1.815
 2165SOL    HW2 7395   1.896   6.967   1.946
 2166SOL     OW 7396   5.994   2.455   4.694
 2166SOL    HW1 7397   6.039   2.477   4.781
 2166SOL    HW2 7398   5.895   2.464   4.705
 2167SOL     OW 7399   3.241   1.476   1.198
 2167SOL    HW1 7400   3.271   1.393   1.245
 2167SOL    HW2 7401   3.296   1.553   1.229
 2168SOL     OW 7402   5.802   6.755   4.265
 2168SOL    HW1 7403   5.847   6.720   4.182
 2168SOL    HW2 7404   5.739   6.685   4.299
 2169SOL     OW 7405   4.909   2.502   5.386
 2169SOL    HW1 7406   4.928   2.431   5.319
 2169SOL    HW2 7407   4.833   2.474   5.445
 2170SOL     OW 7408   4.779   5.580   4.762
 2170SOL    HW1 7409   4.854   5.624   4.712
 2170SOL    HW2 7410   4.734   5.647   4.820
 2171SOL     OW 7411   0.691   2.914   0.105
 2171SOL    HW1 7412   0.789   2.919   0.124
 2171SOL    HW2 7413   0.640   2.965   0.174
 2172SOL     OW 7414   2.670   0.637   3.161
 2172SOL    HW1 7415   2.665   0.586   3.247
 2172SOL    HW2 7416   2.644   0.732   3.177
 2173SOL     OW 7417   4.626   1.816   4.559
 2173SOL    HW1 7418   4.618   1.915   4.567
 2173SOL    HW2 7419   4.722   1.790   4.568
 2174SOL     OW 7420   1.165   6.233   5.507
 2174SOL    HW1 7421   1.202   6.237   5.600
 2174SOL    HW2 7422   1.066   6.239   5.511
 2175SOL     OW 7423   1.077   0.716   6.853
 2175SOL    HW1 7424   1.167   0.708   6.810
 2175SOL    HW2 7425   1.072   0.801   6.905
 2176SOL     OW 7426   2.365   2.333   2.263
 2176SOL    HW1 7427   2.414   2.337   2.350
 2176SOL    HW2 7428   2.337   2.239   2.244
 2177SOL     OW 7429   1.014   1.992   1.980
 2177SOL    HW1 7430   1.079   1.918   1.961
 2177SOL    HW2 7431   0.978   2.029   1.894
 2178SOL     OW 7432   6.270   5.811   0.481
 2178SOL    HW1 7433   6.353   5.837   0.432
 2178SOL    HW2 7434   6.282   5.719   0.518
 2179SOL     OW 7435   1.980   3.641   3.977
 2179SOL    HW1 7436   2.028   3.704   3.916
 2179SOL    HW2 7437   2.026   3.640   4.066
 2180SOL     OW 7438   3.003   3.278   2.916
 2180SOL    HW1 7439   3.033   3.207   2.853
 2180SOL    HW2 7440   2.906   3.296   2.902
 2181SOL     OW 7441   3.710   6.770   1.267
 2181SOL    HW1 7442   3.808   6.789   1.272
 2181SOL    HW2 7443   3.661   6.857   1.256
 2182SOL     OW 7444   4.812   4.436   0.328
 2182SOL    HW1 7445   4.729   4.468   0.284
 2182SOL    HW2 7446   4.788   4.380   0.408
 2183SOL     OW 7447   4.694   2.632   1.835
 2183SOL    HW1 7448   4.671   2.727   1.812
 2183SOL    HW2 7449   4.788   2.613   1.807
 2184SOL     OW 7450   4.482   2.599   5.762
 2184SOL    HW1 7451   4.402   2.619   5.706
 2184SOL    HW2 7452   4.464   2.518   5.817
 2185SOL     OW 7453   6.828   6.689   1.929
 2185SOL    HW1 7454   6.806   6.592   1.940
 2185SOL    HW2 7455   6.817   6.736   2.017
 2186SOL     OW 7456   6.421   4.833   2.892
 2186SOL    HW1 7457   6.463   4.749   2.857
 2186SOL    HW2 7458   6.449   4.846   2.987
 2187SOL     OW 7459   6.451   6.697   6.905
 2187SOL    HW1 7460   6.366   6.732   6.946
 2187SOL    HW2 7461   6.438   6.601   6.880
 2188SOL     OW 7462   4.827   2.709   3.363
 2188SOL    HW1 7463   4.881   2.637   3.318
 2188SOL    HW2 7464   4.790   2.675   3.449
 2189SOL     OW 7465   3.299   0.113   6.121
 2189SOL    HW1 7466   3.287   0.075   6.029
 2189SOL    HW2 7467   3.231   0.072   6.183
 2190SOL     OW 7468   5.994   3.466   1.245
 2190SOL    HW1 7469   6.061   3.418   1.301
 2190SOL    HW2 7470   6.027   3.558   1.226
 2191SOL     OW 7471   3.477   0.685   0.559
 2191SOL    HW1 7472   3.494   0.763   0.619
 2191SOL    HW2 7473   3.384   0.653   0.572
 2192SOL     OW 7474   4.068   6.726   2.108
 2192SOL    HW1 7475   4.161   6.723   2.144
 2192SOL    HW2 7476   4.060   6.665   2.029
 2193SOL     OW 7477   0.030   6.015   4.451
 2193SOL    HW1 7478   6.961   5.996   4.499
 2193SOL    HW2 7479   0.065   6.105   4.479
 2194SOL     OW 7480   2.215   6.870   3.105
 2194SOL    HW1 7481   2.210   6.774   3.130
 2194SOL    HW2 7482   2.192   6.881   3.009
 2195SOL     OW 7483   0.381   4.657   2.755
 2195SOL    HW1 7484   0.295   4.662   2.806
 2195SOL    HW2 7485   0.377   4.719   2.677
 2196SOL     OW 7486   4.753   4.029   6.612
 2196SOL    HW1 7487   4.741   3.998   6.706
 2196SOL    HW2 7488   4.664   4.030   6.566
 2197SOL     OW 7489   4.799   3.334   0.711
 2197SOL    HW1 7490   4.714   3.323   0.659
 2197SOL    HW2 7491   4.786   3.403   0.782
 2198SOL     OW 7492   0.983   4.674   6.594
 2198SOL    HW1 7493   0.885   4.694   6.600
 2198SOL    HW2 7494   1.002   4.632   6.505
 2199SOL     OW 7495   3.605   1.963   3.803
 2199SOL    HW1 7496   3.678   1.905   3.768
 2199SOL    HW2 7497   3.539   1.982   3.730
 2200SOL     OW 7498   4.115   0.623   3.854
 2200SOL    HW1 7499   4.045   0.663   3.912
 2200SOL    HW2 7500   4.075   0.550   3.798
 2201SOL     OW 7501   5.246   4.779   3.805
 2201SOL    HW1 7502   5.175   4.849   3.818
 2201SOL    HW2 7503   5.336   4.821   3.817
 2202SOL     OW 7504   4.564   5.844   4.092
 2202SOL    HW1 7505   4.564   5.820   4.189
 2202SOL    HW2 7506   4.540   5.764   4.038
 2203SOL     OW 7507   1.934   1.906   3.284
 2203SOL    HW1 7508   1.897   1.968   3.215
 2203SOL    HW2 7509   2.024   1.938   3.313
 2204SOL     OW 7510   4.121   2.363   0.853
 2204SOL    HW1 7511   4.078   2.287   0.804
 2204SOL    HW2 7512   4.137   2.336   0.948
 2205SOL     OW 7513   3.192   0.274   2.249
 2205SOL    HW1 7514   3.212   0.371   2.240
 2205SOL    HW2 7515   3.172   0.235   2.159
 2206SOL     OW 7516   1.455   4.933   6.850
 2206SOL    HW1 7517   1.444   4.864   6.921
 2206SOL    HW2 7518   1.410   4.904   6.766
 2207SOL     OW 7519   6.712   4.066   5.458
 2207SOL    HW1 7520   6.731   3.968   5.469
 2207SOL    HW2 7521   6.620   4.078   5.421
 2208SOL     OW 7522   6.673   5.140   2.382
 2208SOL    HW1 7523   6.626   5.104   2.301
 2208SOL    HW2 7524   6.765   5.101   2.386
 2209SOL     OW 7525   6.406   0.479   2.189
 2209SOL    HW1 7526   6.443   0.571   2.202
 2209SOL    HW2 7527   6.415   0.453   2.093
 2210SOL     OW 7528   2.652   4.615   3.499
 2210SOL    HW1 7529   2.738   4.665   3.485
 2210SOL    HW2 7530   2.600   4.616   3.413
 2211SOL     OW 7531   5.504   0.818   5.232
 2211SOL    HW1 7532   5.544   0.726   5.232
 2211SOL    HW2 7533   5.496   0.850   5.326
 2212SOL     OW 7534   2.304   5.832   6.436
 2212SOL    HW1 7535   2.241   5.852   6.361
 2212SOL    HW2 7536   2.286   5.893   6.513
 2213SOL     OW 7537   4.340   1.234   3.271
 2213SOL    HW1 7538   4.431   1.196   3.263
 2213SOL    HW2 7539   4.288   1.217   3.187
 2214SOL     OW 7540   4.097   0.031   3.910
 2214SOL    HW1 7541   4.096   6.949   3.889
 2214SOL    HW2 7542   4.120   0.083   3.827
 2215SOL     OW 7543   6.080   2.059   6.417
 2215SOL    HW1 7544   6.145   2.056   6.493
 2215SOL    HW2 7545   6.108   1.994   6.346
 2216SOL     OW 7546   3.116   1.417   2.470
 2216SOL    HW1 7547   3.087   1.360   2.547
 2216SOL    HW2 7548   3.192   1.476   2.499
 2217SOL     OW 7549   2.666   6.693   1.031
 2217SOL    HW1 7550   2.637   6.647   1.115
 2217SOL    HW2 7551   2.764   6.677   1.017
 2218SOL     OW 7552   6.599   1.187   2.182
 2218SOL    HW1 7553   6.534   1.195   2.258
 2218SOL    HW2 7554   6.690   1.171   2.219
 2219SOL     OW 7555   2.015   2.291   3.114
 2219SOL    HW1 7556   1.972   2.341   3.188
 2219SOL    HW2 7557   1.949   2.227   3.074
 2220SOL     OW 7558   1.908   6.167   3.358
 2220SOL    HW1 7559   1.834   6.109   3.390
 2220SOL    HW2 7560   1.992   6.144   3.407
 2221SOL     OW 7561   6.988   6.788   4.735
 2221SOL    HW1 7562   6.961   6.876   4.773
 2221SOL    HW2 7563   0.070   6.774   4.749
 2222SOL     OW 7564   5.061   5.682   3.600
 2222SOL    HW1 7565   5.124   5.616   3.641
 2222SOL    HW2 7566   5.069   5.679   3.500
 2223SOL     OW 7567   6.101   6.618   1.972
 2223SOL    HW1 7568   6.080   6.655   1.881
 2223SOL    HW2 7569   6.110   6.693   2.037
 2224SOL     OW 7570   0.231   5.576   1.447
 2224SOL    HW1 7571   0.266   5.487   1.476
 2224SOL    HW2 7572   0.160   5.563   1.378
 2225SOL     OW 7573   0.394   4.457   1.174
 2225SOL    HW1 7574   0.306   4.426   1.211
 2225SOL    HW2 7575   0.385   4.472   1.076
 2226SOL     OW 7576   3.653   4.159   3.223
 2226SOL    HW1 7577   3.588   4.142   3.296
 2226SOL    HW2 7578   3.641   4.252   3.188
 2227SOL     OW 7579   1.882   1.765   5.300
 2227SOL    HW1 7580   1.965   1.762   5.244
 2227SOL    HW2 7581   1.876   1.853   5.346
 2228SOL     OW 7582   1.107   4.720   4.095
 2228SOL    HW1 7583   1.148   4.784   4.160
 2228SOL    HW2 7584   1.009   4.741   4.086
 2229SOL     OW 7585   5.307   5.432   2.560
 2229SOL    HW1 7586   5.318   5.415   2.658
 2229SOL    HW2 7587   5.348   5.520   2.536
 2230SOL     OW 7588   1.720   5.517   2.877
 2230SOL    HW1 7589   1.707   5.442   2.942
 2230SOL    HW2 7590   1.815   5.549   2.880
 2231SOL     OW 7591   2.116   6.085   0.738
 2231SOL    HW1 7592   2.204   6.090   0.785
 2231SOL    HW2 7593   2.108   6.162   0.674
 2232SOL     OW 7594   6.155   2.522   3.518
 2232SOL    HW1 7595   6.195   2.571   3.441
 2232SOL    HW2 7596   6.217   2.447   3.544
 2233SOL     OW 7597   3.529   1.579   0.600
 2233SOL    HW1 7598   3.548   1.647   0.670
 2233SOL    HW2 7599   3.507   1.492   0.643
 2234SOL     OW 7600   4.445   2.543   1.124
 2234SOL    HW1 7601   4.451   2.517   1.220
 2234SOL    HW2 7602   4.536   2.538   1.082
 2235SOL     OW 7603   1.880   3.160   1.802
 2235SOL    HW1 7604   1.860   3.063   1.816
 2235SOL    HW2 7605   1.795   3.212   1.806
 2236SOL     OW 7606   1.613   3.676   5.063
 2236SOL    HW1 7607   1.594   3.760   5.013
 2236SOL    HW2 7608   1.688   3.627   5.019
 2237SOL     OW 7609   5.930   2.252   2.963
 2237SOL    HW1 7610   5.882   2.313   2.900
 2237SOL    HW2 7611   5.937   2.296   3.053
 2238SOL     OW 7612   4.681   6.256   6.967
 2238SOL    HW1 7613   4.764   6.269   0.005
 2238SOL    HW2 7614   4.640   6.168   6.990
 2239SOL     OW 7615   6.784   5.941   1.357
 2239SOL    HW1 7616   6.814   5.930   1.452
 2239SOL    HW2 7617   6.689   5.913   1.348
 2240SOL     OW 7618   0.591   3.847   1.920
 2240SOL    HW1 7619   0.648   3.884   1.994
 2240SOL    HW2 7620   0.618   3.888   1.833
 2241SOL     OW 7621   0.453   0.269   3.747
 2241SOL    HW1 7622   0.447   0.368   3.759
 2241SOL    HW2 7623   0.369   0.235   3.705
 2242SOL     OW 7624   2.036   1.514   3.147
 2242SOL    HW1 7625   1.959   1.576   3.156
 2242SOL    HW2 7626   2.121   1.564   3.165
 2243SOL     OW 7627   0.853   0.542   4.629
 2243SOL    HW1 7628   0.931   0.604   4.620
 2243SOL    HW2 7629   0.824   0.512   4.538
 2244SOL     OW 7630   3.195   0.778   4.285
 2244SOL    HW1 7631   3.133   0.785   4.207
 2244SOL    HW2 7632   3.158   0.830   4.362
 2245SOL     OW 7633   0.546   2.194   1.706
 2245SOL    HW1 7634   0.629   2.247   1.691
 2245SOL    HW2 7635   0.544   2.116   1.642
 2246SOL     OW 7636   0.518   4.680   4.636
 2246SOL    HW1 7637   0.425   4.664   4.671
 2246SOL    HW2 7638   0.575   4.601   4.658
 2247SOL     OW 7639   2.444   2.150   3.765
 2247SOL    HW1 7640   2.407   2.241   3.746
 2247SOL    HW2 7641   2.518   2.157   3.832
 2248SOL     OW 7642   4.903   4.007   5.741
 2248SOL    HW1 7643   4.936   4.099   5.721
 2248SOL    HW2 7644   4.937   3.979   5.831
 2249SOL     OW 7645   5.381   6.091   5.039
 2249SOL    HW1 7646   5.324   6.165   5.073
 2249SOL    HW2 7647   5.447   6.126   4.974
 2250SOL     OW 7648   4.181   4.641   2.734
 2250SOL    HW1 7649   4.173   4.621   2.636
 2250SOL    HW2 7650   4.181   4.740   2.748
 2251SOL     OW 7651   0.591   1.826   5.923
 2251SOL    HW1 7652   0.552   1.744   5.882
 2251SOL    HW2 7653   0.690   1.825   5.913
 2252SOL     OW 7654   4.093   1.388   6.020
 2252SOL    HW1 7655   4.132   1.472   5.982
 2252SOL    HW2 7656   4.060   1.330   5.946
 2253SOL     OW 7657   0.471   4.005   1.300
 2253SOL    HW1 7658   0.566   3.973   1.301
 2253SOL    HW2 7659   0.412   3.932   1.265
 2254SOL     OW 7660   1.368   5.302   5.790
 2254SOL    HW1 7661   1.296   5.292   5.859
 2254SOL    HW2 7662   1.381   5.399   5.770
 2255SOL     OW 7663   6.929   4.523   6.516
 2255SOL    HW1 7664   6.931   4.438   6.463
 2255SOL    HW2 7665   6.849   4.576   6.490
 2256SOL     OW 7666   2.652   5.913   2.669
 2256SOL    HW1 7667   2.722   5.915   2.741
 2256SOL    HW2 7668   2.566   5.881   2.708
 2257SOL     OW 7669   0.803   5.128   6.039
 2257SOL    HW1 7670   0.852   5.178   5.969
 2257SOL    HW2 7671   0.857   5.049   6.069
 2258SOL     OW 7672   2.108   6.337   6.112
 2258SOL    HW1 7673   2.021   6.303   6.149
 2258SOL    HW2 7674   2.136   6.278   6.036
 2259SOL     OW 7675   6.051   1.735   6.373
 2259SOL    HW1 7676   5.981   1.670   6.342
 2259SOL    HW2 7677   6.099   1.774   6.294
 2260SOL     OW 7678   4.703   3.073   1.464
 2260SOL    HW1 7679   4.631   3.061   1.395
 2260SOL    HW2 7680   4.790   3.089   1.418
 2261SOL     OW 7681   1.929   6.332   5.311
 2261SOL    HW1 7682   1.998   6.265   5.337
 2261SOL    HW2 7683   1.970   6.400   5.250
 2262SOL     OW 7684   2.763   1.998   4.464
 2262SOL    HW1 7685   2.669   2.030   4.455
 2262SOL    HW2 7686   2.824   2.076   4.480
 2263SOL     OW 7687   0.551   4.366   5.633
 2263SOL    HW1 7688   0.501   4.391   5.549
 2263SOL    HW2 7689   0.604   4.445   5.663
 2264SOL     OW 7690   3.225   2.959   4.370
 2264SOL    HW1 7691   3.176   3.006   4.444
 2264SOL    HW2 7692   3.298   2.903   4.409
 2265SOL     OW 7693   6.747   6.062   4.170
 2265SOL    HW1 7694   6.819   6.087   4.235
 2265SOL    HW2 7695   6.727   6.141   4.111
 2266SOL     OW 7696   0.018   0.597   5.328
 2266SOL    HW1 7697   0.093   0.532   5.343
 2266SOL    HW2 7698   0.001   0.607   5.230
 2267SOL     OW 7699   6.308   1.843   4.954
 2267SOL    HW1 7700   6.407   1.840   4.940
 2267SOL    HW2 7701   6.273   1.750   4.965
 2268SOL     OW 7702   0.501   6.733   0.497
 2268SOL    HW1 7703   0.413   6.777   0.515
 2268SOL    HW2 7704   0.555   6.732   0.581
 2269SOL     OW 7705   6.768   5.998   2.615
 2269SOL    HW1 7706   6.683   6.030   2.657
 2269SOL    HW2 7707   6.747   5.922   2.553
 2270SOL     OW 7708   2.987   3.237   3.208
 2270SOL    HW1 7709   2.994   3.250   3.109
 2270SOL    HW2 7710   3.078   3.220   3.246
 2271SOL     OW 7711   1.498   4.018   2.752
 2271SOL    HW1 7712   1.419   3.956   2.750
 2271SOL    HW2 7713   1.506   4.064   2.663
 2272SOL     OW 7714   4.630   0.735   6.164
 2272SOL    HW1 7715   4.706   0.730   6.229
 2272SOL    HW2 7716   4.618   0.646   6.120
 2273SOL     OW 7717   6.930   0.768   1.830
 2273SOL    HW1 7718   6.845   0.783   1.879
 2273SOL    HW2 7719   6.911   0.733   1.739
 2274SOL     OW 7720   6.741   4.992   3.572
 2274SOL    HW1 7721   6.737   4.892   3.573
 2274SOL    HW2 7722   6.826   5.023   3.615
 2275SOL     OW 7723   4.577   6.085   4.329
 2275SOL    HW1 7724   4.559   6.112   4.235
 2275SOL    HW2 7725   4.533   5.997   4.348
 2276SOL     OW 7726   3.411   5.943   3.464
 2276SOL    HW1 7727   3.480   5.899   3.522
 2276SOL    HW2 7728   3.398   5.889   3.381
 2277SOL     OW 7729   3.433   2.962   2.679
 2277SOL    HW1 7730   3.518   2.947   2.629
 2277SOL    HW2 7731   3.357   2.921   2.629
 2278SOL     OW 7732   4.254   5.063   1.673
 2278SOL    HW1 7733   4.166   5.077   1.628
 2278SOL    HW2 7734   4.315   5.140   1.652
 2279SOL     OW 7735   5.942   4.110   5.799
 2279SOL    HW1 7736   5.951   4.155   5.887
 2279SOL    HW2 7737   5.869   4.154   5.746
 2280SOL     OW 7738   5.668   0.921   5.719
 2280SOL    HW1 7739   5.582   0.874   5.741
 2280SOL    HW2 7740   5.744   0.859   5.736
 2281SOL     OW 7741   2.179   0.622   0.362
 2281SOL    HW1 7742   2.204   0.711   0.399
 2281SOL    HW2 7743   2.107   0.581   0.419
 2282SOL     OW 7744   3.283   0.433   2.684
 2282SOL    HW1 7745   3.289   0.399   2.778
 2282SOL    HW2 7746   3.187   0.435   2.656
 2283SOL     OW 7747   1.010   3.088   1.050
 2283SOL    HW1 7748   1.027   3.029   1.128
 2283SOL    HW2 7749   0.947   3.042   0.987
 2284SOL     OW 7750   1.522   2.390   0.757
 2284SOL    HW1 7751   1.508   2.309   0.701
 2284SOL    HW2 7752   1.489   2.471   0.708
 2285SOL     OW 7753   2.625   2.778   0.472
 2285SOL    HW1 7754   2.667   2.721   0.542
 2285SOL    HW2 7755   2.695   2.817   0.412
 2286SOL     OW 7756   6.527   5.472   4.117
 2286SOL    HW1 7757   6.489   5.527   4.043
 2286SOL    HW2 7758   6.453   5.419   4.160
 2287SOL     OW 7759   2.635   1.932   1.099
 2287SOL    HW1 7760   2.729   1.900   1.117
 2287SOL    HW2 7761   2.586   1.863   1.046
 2288SOL     OW 7762   3.252   5.547   4.680
 2288SOL    HW1 7763   3.339   5.497   4.677
 2288SOL    HW2 7764   3.269   5.645   4.683
 2289SOL     OW 7765   4.104   0.146   5.581
 2289SOL    HW1 7766   4.062   0.155   5.491
 2289SOL    HW2 7767   4.036   0.165   5.652
 2290SOL     OW 7768   2.174   3.681   6.012
 2290SOL    HW1 7769   2.214   3.707   5.924
 2290SOL    HW2 7770   2.113   3.753   6.044
 2291SOL     OW 7771   3.572   1.910   0.678
 2291SOL    HW1 7772   3.602   2.005   0.666
 2291SOL    HW2 7773   3.652   1.852   0.692
 2292SOL     OW 7774   5.069   2.343   2.728
 2292SOL    HW1 7775   5.118   2.352   2.641
 2292SOL    HW2 7776   5.002   2.417   2.736
 2293SOL     OW 7777   0.060   0.611   6.495
 2293SOL    HW1 7778   0.124   0.675   6.537
 2293SOL    HW2 7779   7.015   0.575   6.565
 2294SOL     OW 7780   0.009   2.608   5.482
 2294SOL    HW1 7781   0.099   2.640   5.510
 2294SOL    HW2 7782   6.955   2.673   5.512
 2295SOL     OW 7783   5.644   5.696   0.316
 2295SOL    HW1 7784   5.588   5.613   0.315
 2295SOL    HW2 7785   5.673   5.717   0.409
 2296SOL     OW 7786   4.093   5.921   4.635
 2296SOL    HW1 7787   4.063   5.859   4.562
 2296SOL    HW2 7788   4.133   6.003   4.596
 2297SOL     OW 7789   6.355   2.597   0.141
 2297SOL    HW1 7790   6.262   2.570   0.117
 2297SOL    HW2 7791   6.366   2.696   0.129
 2298SOL     OW 7792   2.110   3.946   4.726
 2298SOL    HW1 7793   2.179   3.980   4.789
 2298SOL    HW2 7794   2.077   3.857   4.757
 2299SOL     OW 7795   6.030   3.678   4.708
 2299SOL    HW1 7796   6.102   3.613   4.733
 2299SOL    HW2 7797   6.067   3.747   4.647
 2300SOL     OW 7798   3.674   1.127   2.669
 2300SOL    HW1 7799   3.608   1.053   2.683
 2300SOL    HW2 7800   3.634   1.197   2.610
 2301SOL     OW 7801   4.494   3.091   6.000
 2301SOL    HW1 7802   4.577   3.040   5.978
 2301SOL    HW2 7803   4.478   3.088   6.099
 2302SOL     OW 7804   0.305   3.533   4.834
 2302SOL    HW1 7805   0.375   3.571   4.893
 2302SOL    HW2 7806   0.215   3.549   4.874
 2303SOL     OW 7807   2.311   2.578   6.496
 2303SOL    HW1 7808   2.233   2.588   6.434
 2303SOL    HW2 7809   2.394   2.565   6.443
 2304SOL     OW 7810   3.635   0.152   3.468
 2304SOL    HW1 7811   3.597   0.235   3.426
 2304SOL    HW2 7812   3.559   0.092   3.496
 2305SOL     OW 7813   2.651   5.997   4.908
 2305SOL    HW1 7814   2.718   5.930   4.941
 2305SOL    HW2 7815   2.571   5.948   4.872
 2306SOL     OW 7816   0.822   4.732   5.524
 2306SOL    HW1 7817   0.889   4.788   5.476
 2306SOL    HW2 7818   0.732   4.744   5.482
 2307SOL     OW 7819   5.944   3.859   5.662
 2307SOL    HW1 7820   5.979   3.947   5.696
 2307SOL    HW2 7821   5.906   3.871   5.570
 2308SOL     OW 7822   0.924   6.422   3.034
 2308SOL    HW1 7823   0.882   6.498   3.084
 2308SOL    HW2 7824   1.024   6.434   3.035
 2309SOL     OW 7825   1.686   1.205   4.322
 2309SOL    HW1 7826   1.598   1.214   4.274
 2309SOL    HW2 7827   1.696   1.281   4.386
 2310SOL     OW 7828   4.991   5.960   0.534
 2310SOL    HW1 7829   5.083   5.958   0.574
 2310SOL    HW2 7830   4.997   5.943   0.436
 2311SOL     OW 7831   2.830   5.839   0.370
 2311SOL    HW1 7832   2.731   5.849   0.360
 2311SOL    HW2 7833   2.863   5.768   0.308
 2312SOL     OW 7834   2.602   5.095   1.553
 2312SOL    HW1 7835   2.701   5.096   1.545
 2312SOL    HW2 7836   2.576   5.091   1.649
 2313SOL     OW 7837   4.884   4.858   1.244
 2313SOL    HW1 7838   4.909   4.831   1.151
 2313SOL    HW2 7839   4.801   4.809   1.271
 2314SOL     OW 7840   2.119   4.676   2.385
 2314SOL    HW1 7841   2.092   4.742   2.455
 2314SOL    HW2 7842   2.204   4.631   2.412
 2315SOL     OW 7843   3.879   1.999   6.438
 2315SOL    HW1 7844   3.802   2.032   6.384
 2315SOL    HW2 7845   3.902   1.905   6.411
 2316SOL     OW 7846   6.151   4.064   1.720
 2316SOL    HW1 7847   6.237   4.113   1.735
 2316SOL    HW2 7848   6.168   3.966   1.715
 2317SOL     OW 7849   0.378   6.772   3.628
 2317SOL    HW1 7850   0.439   6.731   3.560
 2317SOL    HW2 7851   0.344   6.859   3.594
 2318SOL     OW 7852   6.680   1.675   3.517
 2318SOL    HW1 7853   6.654   1.593   3.568
 2318SOL    HW2 7854   6.779   1.676   3.503
 2319SOL     OW 7855   0.649   5.888   3.183
 2319SOL    HW1 7856   0.694   5.901   3.271
 2319SOL    HW2 7857   0.551   5.904   3.192
 2320SOL     OW 7858   6.743   4.710   3.540
 2320SOL    HW1 7859   6.815   4.673   3.482
 2320SOL    HW2 7860   6.746   4.666   3.630
 2321SOL     OW 7861   2.872   4.772   3.474
 2321SOL    HW1 7862   2.863   4.839   3.401
 2321SOL    HW2 7863   2.922   4.812   3.551
 2322SOL     OW 7864   2.110   1.734   5.142
 2322SOL    HW1 7865   2.196   1.785   5.146
 2322SOL    HW2 7866   2.084   1.719   5.047
 2323SOL     OW 7867   5.650   3.484   1.347
 2323SOL    HW1 7868   5.669   3.387   1.338
 2323SOL    HW2 7869   5.587   3.514   1.276
 2324SOL     OW 7870   6.989   5.470   4.107
 2324SOL    HW1 7871   6.971   5.559   4.065
 2324SOL    HW2 7872   6.941   5.464   4.194
 2325SOL     OW 7873   6.749   1.782   0.969
 2325SOL    HW1 7874   6.773   1.699   1.018
 2325SOL    HW2 7875   6.750   1.764   0.871
 2326SOL     OW 7876   0.498   5.300   0.044
 2326SOL    HW1 7877   0.507   5.307   6.961
 2326SOL    HW2 7878   0.571   5.243   0.080
 2327SOL     OW 7879   4.651   1.023   2.881
 2327SOL    HW1 7880   4.554   1.027   2.859
 2327SOL    HW2 7881   4.676   0.930   2.906
 2328SOL     OW 7882   6.051   5.434   3.746
 2328SOL    HW1 7883   6.115   5.415   3.820
 2328SOL    HW2 7884   6.040   5.533   3.737
 2329SOL     OW 7885   1.219   6.492   3.310
 2329SOL    HW1 7886   1.312   6.500   3.275
 2329SOL    HW2 7887   1.201   6.398   3.337
 2330SOL     OW 7888   1.547   3.858   6.716
 2330SOL    HW1 7889   1.505   3.769   6.737
 2330SOL    HW2 7890   1.532   3.879   6.619
 2331SOL     OW 7891   1.420   4.269   5.060
 2331SOL    HW1 7892   1.404   4.213   5.141
 2331SOL    HW2 7893   1.340   4.265   5.000
 2332SOL     OW 7894   6.635   3.526   6.894
 2332SOL    HW1 7895   6.634   3.521   6.993
 2332SOL    HW2 7896   6.698   3.598   6.865
 2333SOL     OW 7897   2.342   4.974   3.775
 2333SOL    HW1 7898   2.309   5.068   3.776
 2333SOL    HW2 7899   2.431   4.971   3.728
 2334SOL     OW 7900   1.960   0.306   6.027
 2334SOL    HW1 7901   1.953   0.335   5.932
 2334SOL    HW2 7902   2.018   0.224   6.033
 2335SOL     OW 7903   5.015   4.548   4.628
 2335SOL    HW1 7904   5.094   4.586   4.676
 2335SOL    HW2 7905   4.935   4.553   4.686
 2336SOL     OW 7906   4.353   1.167   5.756
 2336SOL    HW1 7907   4.357   1.266   5.739
 2336SOL    HW2 7908   4.271   1.129   5.713
 2337SOL     OW 7909   5.977   0.638   5.228
 2337SOL    HW1 7910   5.937   0.729   5.233
 2337SOL    HW2 7911   6.056   0.633   5.289
 2338SOL     OW 7912   1.776   0.006   0.019
 2338SOL    HW1 7913   1.849   0.071   0.042
 2338SOL    HW2 7914   1.795   6.982   6.946
 2339SOL     OW 7915   3.280   4.382   5.941
 2339SOL    HW1 7916   3.343   4.350   6.013
 2339SOL    HW2 7917   3.284   4.481   5.936
 2340SOL     OW 7918   4.322   5.184   4.181
 2340SOL    HW1 7919   4.270   5.260   4.141
 2340SOL    HW2 7920   4.358   5.127   4.107
 2341SOL     OW 7921   0.943   3.737   6.209
 2341SOL    HW1 7922   0.963   3.760   6.305
 2341SOL    HW2 7923   1.001   3.792   6.149
 2342SOL     OW 7924   4.867   1.197   5.128
 2342SOL    HW1 7925   4.838   1.248   5.047
 2342SOL    HW2 7926   4.965   1.177   5.121
 2343SOL     OW 7927   0.609   5.857   1.585
 2343SOL    HW1 7928   0.590   5.780   1.524
 2343SOL    HW2 7929   0.643   5.934   1.531
 2344SOL     OW 7930   1.689   0.233   2.794
 2344SOL    HW1 7931   1.780   0.198   2.816
 2344SOL    HW2 7932   1.670   0.315   2.849
 2345SOL     OW 7933   1.417   2.671   1.894
 2345SOL    HW1 7934   1.461   2.676   1.805
 2345SOL    HW2 7935   1.386   2.578   1.911
 2346SOL     OW 7936   5.777   2.984   4.970
 2346SOL    HW1 7937   5.826   2.960   4.886
 2346SOL    HW2 7938   5.830   3.052   5.021
 2347SOL     OW 7939   1.875   4.422   1.428
 2347SOL    HW1 7940   1.781   4.446   1.452
 2347SOL    HW2 7941   1.877   4.327   1.394
 2348SOL     OW 7942   3.268   0.081   1.784
 2348SOL    HW1 7943   3.363   0.052   1.774
 2348SOL    HW2 7944   3.252   0.162   1.727
 2349SOL     OW 7945   5.833   2.679   6.786
 2349SOL    HW1 7946   5.790   2.736   6.857
 2349SOL    HW2 7947   5.884   2.737   6.723
 2350SOL     OW 7948   2.495   5.738   5.241
 2350SOL    HW1 7949   2.519   5.834   5.232
 2350SOL    HW2 7950   2.530   5.703   5.328
 2351SOL     OW 7951   1.774   5.627   3.309
 2351SOL    HW1 7952   1.751   5.612   3.405
 2351SOL    HW2 7953   1.840   5.559   3.279
 2352SOL     OW 7954   5.971   6.092   6.196
 2352SOL    HW1 7955   5.966   6.042   6.109
 2352SOL    HW2 7956   5.901   6.057   6.258
 2353SOL     OW 7957   3.458   3.070   6.638
 2353SOL    HW1 7958   3.422   2.982   6.606
 2353SOL    HW2 7959   3.394   3.143   6.615
 2354SOL     OW 7960   3.227   1.732   2.343
 2354SOL    HW1 7961   3.179   1.720   2.257
 2354SOL    HW2 7962   3.167   1.773   2.411
 2355SOL     OW 7963   6.670   1.642   2.024
 2355SOL    HW1 7964   6.727   1.561   2.033
 2355SOL    HW2 7965   6.719   1.712   1.971
 2356SOL     OW 7966   3.710   5.270   4.000
 2356SOL    HW1 7967   3.760   5.186   3.977
 2356SOL    HW2 7968   3.626   5.275   3.946
 2357SOL     OW 7969   0.598   5.656   1.048
 2357SOL    HW1 7970   0.667   5.583   1.051
 2357SOL    HW2 7971   0.631   5.731   0.991
 2358SOL     OW 7972   2.285   1.153   5.061
 2358SOL    HW1 7973   2.281   1.138   5.160
 2358SOL    HW2 7974   2.335   1.077   5.018
 2359SOL     OW 7975   3.682   2.766   5.611
 2359SOL    HW1 7976   3.659   2.713   5.529
 2359SOL    HW2 7977   3.598   2.797   5.655
 2360SOL     OW 7978   3.693   5.100   1.907
 2360SOL    HW1 7979   3.718   5.180   1.853
 2360SOL    HW2 7980   3.685   5.021   1.846
 2361SOL     OW 7981   3.659   4.624   0.910
 2361SOL    HW1 7982   3.650   4.681   0.992
 2361SOL    HW2 7983   3.580   4.638   0.850
 2362SOL     OW 7984   3.069   4.804   4.242
 2362SOL    HW1 7985   3.028   4.828   4.331
 2362SOL    HW2 7986   3.004   4.749   4.189
 2363SOL     OW 7987   2.651   3.852   1.682
 2363SOL    HW1 7988   2.750   3.859   1.698
 2363SOL    HW2 7989   2.631   3.766   1.635
 2364SOL     OW 7990   4.417   0.695   2.756
 2364SOL    HW1 7991   4.486   0.768   2.762
 2364SOL    HW2 7992   4.326   0.736   2.757
 2365SOL     OW 7993   5.881   3.647   2.797
 2365SOL    HW1 7994   5.806   3.650   2.731
 2365SOL    HW2 7995   5.875   3.562   2.849
 2366SOL     OW 7996   4.276   5.163   4.711
 2366SOL    HW1 7997   4.181   5.132   4.701
 2366SOL    HW2 7998   4.312   5.189   4.621
 2367SOL     OW 7999   5.892   4.456   5.806
 2367SOL    HW1 8000   5.955   4.476   5.882
 2367SOL    HW2 8001   5.945   4.425   5.727
 2368SOL     OW 8002   5.364   1.672   5.167
 2368SOL    HW1 8003   5.337   1.616   5.245
 2368SOL    HW2 8004   5.322   1.762   5.174
 2369SOL     OW 8005   4.314   2.263   3.896
 2369SOL    HW1 8006   4.352   2.172   3.878
 2369SOL    HW2 8007   4.281   2.302   3.811
 2370SOL     OW 8008   3.903   2.166   0.505
 2370SOL    HW1 8009   3.950   2.086   0.467
 2370SOL    HW2 8010   3.948   2.249   0.471
 2371SOL     OW 8011   2.143   6.666   3.429
 2371SOL    HW1 8012   2.225   6.684   3.483
 2371SOL    HW2 8013   2.166   6.606   3.353
 2372SOL     OW 8014   5.481   6.463   6.903
 2372SOL    HW1 8015   5.393   6.445   6.858
 2372SOL    HW2 8016   5.465   6.496   6.996
 2373SOL     OW 8017   6.371   4.253   6.237
 2373SOL    HW1 8018   6.368   4.158   6.271
 2373SOL    HW2 8019   6.417   4.254   6.148
 2374SOL     OW 8020   0.682   5.199   2.739
 2374SOL    HW1 8021   0.703   5.238   2.829
 2374SOL    HW2 8022   0.681   5.271   2.671
 2375SOL     OW 8023   2.195   0.337   4.685
 2375SOL    HW1 8024   2.113   0.350   4.739
 2375SOL    HW2 8025   2.208   0.239   4.668
 2376SOL     OW 8026   5.933   3.039   4.127
 2376SOL    HW1 8027   5.910   3.121   4.178
 2376SOL    HW2 8028   5.879   2.962   4.161
 2377SOL     OW 8029   3.987   4.806   5.763
 2377SOL    HW1 8030   3.955   4.751   5.686
 2377SOL    HW2 8031   3.909   4.840   5.814
 2378SOL     OW 8032   0.721   0.098   0.681
 2378SOL    HW1 8033   0.750   0.157   0.757
 2378SOL    HW2 8034   0.650   0.036   0.713
 2379SOL     OW 8035   0.784   4.402   3.396
 2379SOL    HW1 8036   0.839   4.319   3.402
 2379SOL    HW2 8037   0.689   4.381   3.418
 2380SOL     OW 8038   4.728   5.613   6.197
 2380SOL    HW1 8039   4.719   5.621   6.296
 2380SOL    HW2 8040   4.646   5.569   6.160
 2381SOL     OW 8041   2.193   4.770   3.937
 2381SOL    HW1 8042   2.205   4.709   3.859
 2381SOL    HW2 8043   2.255   4.848   3.927
 2382SOL     OW 8044   6.234   5.728   2.431
 2382SOL    HW1 8045   6.302   5.735   2.358
 2382SOL    HW2 8046   6.274   5.759   2.517
 2383SOL     OW 8047   4.727   3.801   6.057
 2383SOL    HW1 8048   4.803   3.759   6.007
 2383SOL    HW2 8049   4.648   3.810   5.996
 2384SOL     OW 8050   1.007   2.516   3.228
 2384SOL    HW1 8051   0.909   2.518   3.245
 2384SOL    HW2 8052   1.032   2.591   3.167
 2385SOL     OW 8053   1.055   0.951   1.000
 2385SOL    HW1 8054   1.110   1.033   0.982
 2385SOL    HW2 8055   1.105   0.871   0.968
 2386SOL     OW 8056   0.041   5.045   6.370
 2386SOL    HW1 8057   0.122   4.995   6.339
 2386SOL    HW2 8058   0.071   5.126   6.422
 2387SOL     OW 8059   6.157   0.230   2.841
 2387SOL    HW1 8060   6.230   0.180   2.793
 2387SOL    HW2 8061   6.113   0.293   2.777
 2388SOL     OW 8062   2.036   5.021   3.867
 2388SOL    HW1 8063   1.947   5.003   3.824
 2388SOL    HW2 8064   2.069   4.938   3.912
 2389SOL     OW 8065   3.438   0.033   3.090
 2389SOL    HW1 8066   3.349   0.033   3.134
 2389SOL    HW2 8067   3.478   0.125   3.093
 2390SOL     OW 8068   5.087   3.172   4.981
 2390SOL    HW1 8069   5.104   3.149   4.885
 2390SOL    HW2 8070   5.042   3.096   5.026
 2391SOL     OW 8071   2.223   4.458   6.574
 2391SOL    HW1 8072   2.319   4.475   6.596
 2391SOL    HW2 8073   2.207   4.359   6.570
 2392SOL     OW 8074   4.024   5.071   5.651
 2392SOL    HW1 8075   4.042   4.984   5.696
 2392SOL    HW2 8076   4.109   5.124   5.644
 2393SOL     OW 8077   4.941   5.171   0.734
 2393SOL    HW1 8078   4.992   5.250   0.701
 2393SOL    HW2 8079   4.843   5.187   0.721
 2394SOL     OW 8080   6.945   2.440   2.996
 2394SOL    HW1 8081   6.997   2.456   3.080
 2394SOL    HW2 8082   6.925   2.342   2.987
 2395SOL     OW 8083   0.316   3.183   3.466
 2395SOL    HW1 8084   0.279   3.109   3.521
 2395SOL    HW2 8085   0.345   3.148   3.377
 2396SOL     OW 8086   0.246   0.469   5.401
 2396SOL    HW1 8087   0.215   0.375   5.415
 2396SOL    HW2 8088   0.228   0.523   5.483
 2397SOL     OW 8089   2.867   4.912   5.619
 2397SOL    HW1 8090   2.804   4.836   5.603
 2397SOL    HW2 8091   2.961   4.877   5.620
 2398SOL     OW 8092   3.770   6.323   5.121
 2398SOL    HW1 8093   3.700   6.321   5.049
 2398SOL    HW2 8094   3.749   6.397   5.185
 2399SOL     OW 8095   2.851   1.446   1.928
 2399SOL    HW1 8096   2.825   1.494   2.012
 2399SOL    HW2 8097   2.922   1.497   1.881
 2400SOL     OW 8098   1.038   1.564   6.142
 2400SOL    HW1 8099   1.013   1.608   6.229
 2400SOL    HW2 8100   0.954   1.545   6.090
 2401SOL     OW 8101   1.427   6.631   0.422
 2401SOL    HW1 8102   1.347   6.575   0.440
 2401SOL    HW2 8103   1.446   6.689   0.501
 2402SOL     OW 8104   0.714   2.993   1.499
 2402SOL    HW1 8105   0.802   2.994   1.452
 2402SOL    HW2 8106   0.709   2.912   1.558
 2403SOL     OW 8107   3.175   4.144   5.161
 2403SOL    HW1 8108   3.168   4.058   5.211
 2403SOL    HW2 8109   3.110   4.210   5.198
 2404SOL     OW 8110   6.426   1.829   1.637
 2404SOL    HW1 8111   6.419   1.776   1.722
 2404SOL    HW2 8112   6.335   1.841   1.598
 2405SOL     OW 8113   2.553   3.708   0.774
 2405SOL    HW1 8114   2.545   3.643   0.850
 2405SOL    HW2 8115   2.542   3.661   0.687
 2406SOL     OW 8116   4.745   5.991   5.400
 2406SOL    HW1 8117   4.820   5.925   5.395
 2406SOL    HW2 8118   4.782   6.082   5.419
 2407SOL     OW 8119   2.206   1.970   3.765
 2407SOL    HW1 8120   2.116   2.003   3.737
 2407SOL    HW2 8121   2.274   2.043   3.755
 2408SOL     OW 8122   4.414   6.297   5.714
 2408SOL    HW1 8123   4.403   6.386   5.757
 2408SOL    HW2 8124   4.442   6.310   5.619
 2409SOL     OW 8125   1.689   2.733   0.004
 2409SOL    HW1 8126   1.699   2.827   6.988
 2409SOL    HW2 8127   1.778   2.687   0.001
 2410SOL     OW 8128   6.779   3.181   4.937
 2410SOL    HW1 8129   6.768   3.205   5.033
 2410SOL    HW2 8130   6.861   3.126   4.925
 2411SOL     OW 8131   3.195   1.068   0.871
 2411SOL    HW1 8132   3.173   1.089   0.967
 2411SOL    HW2 8133   3.241   0.980   0.866
 2412SOL     OW 8134   3.617   2.458   0.048
 2412SOL    HW1 8135   3.531   2.407   0.051
 2412SOL    HW2 8136   3.644   2.473   6.969
 2413SOL     OW 8137   0.160   3.793   6.681
 2413SOL    HW1 8138   0.179   3.741   6.598
 2413SOL    HW2 8139   0.187   3.741   6.761
 2414SOL     OW 8140   6.133   1.998   5.111
 2414SOL    HW1 8141   6.052   1.940   5.118
 2414SOL    HW2 8142   6.207   1.947   5.066
 2415SOL     OW 8143   3.188   3.870   5.316
 2415SOL    HW1 8144   3.263   3.916   5.364
 2415SOL    HW2 8145   3.187   3.773   5.340
 2416SOL     OW 8146   6.369   3.224   3.180
 2416SOL    HW1 8147   6.317   3.152   3.226
 2416SOL    HW2 8148   6.431   3.182   3.114
 2417SOL     OW 8149   3.301   2.719   1.871
 2417SOL    HW1 8150   3.305   2.623   1.844
 2417SOL    HW2 8151   3.223   2.763   1.826
 2418SOL     OW 8152   6.132   3.547   6.619
 2418SOL    HW1 8153   6.120   3.491   6.701
 2418SOL    HW2 8154   6.054   3.533   6.558
 2419SOL     OW 8155   3.037   1.479   2.944
 2419SOL    HW1 8156   2.999   1.501   3.033
 2419SOL    HW2 8157   2.991   1.533   2.873
 2420SOL     OW 8158   0.361   2.953   1.510
 2420SOL    HW1 8159   0.424   2.982   1.438
 2420SOL    HW2 8160   0.286   2.902   1.470
 2421SOL     OW 8161   2.647   0.609   3.479
 2421SOL    HW1 8162   2.630   0.528   3.535
 2421SOL    HW2 8163   2.733   0.652   3.507
 2422SOL     OW 8164   3.841   0.114   0.248
 2422SOL    HW1 8165   3.753   0.084   0.210
 2422SOL    HW2 8166   3.862   0.206   0.215
 2423SOL     OW 8167   3.791   5.081   4.947
 2423SOL    HW1 8168   3.870   5.126   4.905
 2423SOL    HW2 8169   3.818   5.045   5.036
 2424SOL     OW 8170   4.965   0.278   6.468
 2424SOL    HW1 8171   4.886   0.274   6.530
 2424SOL    HW2 8172   5.002   0.186   6.455
 2425SOL     OW 8173   5.515   5.190   4.669
 2425SOL    HW1 8174   5.524   5.260   4.740
 2425SOL    HW2 8175   5.580   5.116   4.687
 2426SOL     OW 8176   3.047   2.063   5.217
 2426SOL    HW1 8177   3.068   2.147   5.167
 2426SOL    HW2 8178   2.960   2.074   5.266
 2427SOL     OW 8179   5.038   2.603   7.000
 2427SOL    HW1 8180   5.024   2.621   6.902
 2427SOL    HW2 8181   5.078   2.513   7.012
 2428SOL     OW 8182   1.839   1.913   1.913
 2428SOL    HW1 8183   1.807   1.988   1.970
 2428SOL    HW2 8184   1.882   1.950   1.830
 2429SOL     OW 8185   4.756   5.110   1.740
 2429SOL    HW1 8186   4.828   5.155   1.688
 2429SOL    HW2 8187   4.716   5.036   1.685
 2430SOL     OW 8188   6.905   5.826   6.623
 2430SOL    HW1 8189   6.823   5.777   6.592
 2430SOL    HW2 8190   6.962   5.764   6.678
 2431SOL     OW 8191   2.238   3.041   1.213
 2431SOL    HW1 8192   2.270   2.980   1.142
 2431SOL    HW2 8193   2.151   3.082   1.186
 2432SOL     OW 8194   3.223   5.859   2.789
 2432SOL    HW1 8195   3.145   5.831   2.846
 2432SOL    HW2 8196   3.269   5.936   2.833
 2433SOL     OW 8197   7.003   4.384   4.244
 2433SOL    HW1 8198   7.015   4.284   4.246
 2433SOL    HW2 8199   6.946   4.409   4.166
 2434SOL     OW 8200   3.777   2.158   2.905
 2434SOL    HW1 8201   3.785   2.248   2.948
 2434SOL    HW2 8202   3.868   2.117   2.897
 2435SOL     OW 8203   5.623   6.421   5.999
 2435SOL    HW1 8204   5.623   6.352   5.926
 2435SOL    HW2 8205   5.675   6.501   5.969
 2436SOL     OW 8206   0.460   2.875   6.884
 2436SOL    HW1 8207   0.392   2.810   6.848
 2436SOL    HW2 8208   0.515   2.830   6.954
 2437SOL     OW 8209   0.832   4.992   1.333
 2437SOL    HW1 8210   0.918   5.011   1.285
 2437SOL    HW2 8211   0.821   5.054   1.410
 2438SOL     OW 8212   3.906   1.688   4.335
 2438SOL    HW1 8213   3.981   1.754   4.340
 2438SOL    HW2 8214   3.941   1.596   4.347
 2439SOL     OW 8215   0.613   6.030   6.365
 2439SOL    HW1 8216   0.595   6.020   6.463
 2439SOL    HW2 8217   0.698   6.080   6.352
 2440SOL     OW 8218   0.275   2.433   5.437
 2440SOL    HW1 8219   0.238   2.429   5.529
 2440SOL    HW2 8220   0.277   2.528   5.405
 2441SOL     OW 8221   6.827   0.056   6.931
 2441SOL    HW1 8222   6.774   6.991   6.956
 2441SOL    HW2 8223   6.814   0.127   7.001
 2442SOL     OW 8224   5.594   3.110   3.186
 2442SOL    HW1 8225   5.600   3.017   3.222
 2442SOL    HW2 8226   5.521   3.115   3.117
 2443SOL     OW 8227   0.952   3.309   1.198
 2443SOL    HW1 8228   0.986   3.236   1.139
 2443SOL    HW2 8229   0.953   3.279   1.293
 2444SOL     OW 8230   3.173   5.209   2.601
 2444SOL    HW1 8231   3.201   5.123   2.644
 2444SOL    HW2 8232   3.253   5.255   2.564
 2445SOL     OW 8233   0.762   1.914   1.447
 2445SOL    HW1 8234   0.834   1.963   1.497
 2445SOL    HW2 8235   0.766   1.817   1.470
 2446SOL     OW 8236   6.483   5.779   1.077
 2446SOL    HW1 8237   6.566   5.729   1.051
 2446SOL    HW2 8238   6.404   5.717   1.072
 2447SOL     OW 8239   1.988   6.878   6.551
 2447SOL    HW1 8240   1.930   6.797   6.544
 2447SOL    HW2 8241   1.983   6.931   6.466
 2448SOL     OW 8242   5.162   0.670   4.377
 2448SOL    HW1 8243   5.226   0.658   4.453
 2448SOL    HW2 8244   5.114   0.757   4.388
 2449SOL     OW 8245   2.018   3.807   1.324
 2449SOL    HW1 8246   1.947   3.854   1.378
 2449SOL    HW2 8247   2.107   3.822   1.367
 2450SOL     OW 8248   6.600   6.333   5.829
 2450SOL    HW1 8249   6.663   6.256   5.841
 2450SOL    HW2 8250   6.649   6.419   5.847
 2451SOL     OW 8251   1.381   0.387   0.251
 2451SOL    HW1 8252   1.326   0.393   0.335
 2451SOL    HW2 8253   1.473   0.422   0.269
 2452SOL     OW 8254   1.769   2.347   3.992
 2452SOL    HW1 8255   1.789   2.432   4.040
 2452SOL    HW2 8256   1.733   2.367   3.901
 2453SOL     OW 8257   0.730   2.220   6.835
 2453SOL    HW1 8258   0.740   2.158   6.757
 2453SOL    HW2 8259   0.769   2.309   6.813
 2454SOL     OW 8260   2.324   6.418   0.465
 2454SOL    HW1 8261   2.373   6.339   0.500
 2454SOL    HW2 8262   2.369   6.502   0.497
 2455SOL     OW 8263   4.759   2.085   6.528
 2455SOL    HW1 8264   4.785   2.007   6.470
 2455SOL    HW2 8265   4.714   2.154   6.472
 2456SOL     OW 8266   1.317   3.272   5.859
 2456SOL    HW1 8267   1.348   3.260   5.953
 2456SOL    HW2 8268   1.335   3.189   5.807
 2457SOL     OW 8269   6.027   1.476   5.866
 2457SOL    HW1 8270   6.089   1.523   5.930
 2457SOL    HW2 8271   5.940   1.458   5.911
 2458SOL     OW 8272   0.981   0.138   1.800
 2458SOL    HW1 8273   0.933   0.205   1.855
 2458SOL    HW2 8274   0.926   0.114   1.720
 2459SOL     OW 8275   1.584   6.670   1.121
 2459SOL    HW1 8276   1.654   6.693   1.053
 2459SOL    HW2 8277   1.567   6.571   1.119
 2460SOL     OW 8278   0.522   1.106   4.474
 2460SOL    HW1 8279   0.511   1.007   4.468
 2460SOL    HW2 8280   0.443   1.152   4.435
 2461SOL     OW 8281   2.201   1.982   3.325
 2461SOL    HW1 8282   2.257   1.917   3.377
 2461SOL    HW2 8283   2.252   2.013   3.245
 2462SOL     OW 8284   0.402   5.367   0.605
 2462SOL    HW1 8285   0.463   5.364   0.684
 2462SOL    HW2 8286   0.334   5.439   0.618
 2463SOL     OW 8287   6.877   5.979   0.364
 2463SOL    HW1 8288   6.951   5.913   0.375
 2463SOL    HW2 8289   6.913   6.066   0.330
 2464SOL     OW 8290   0.689   2.692   4.810
 2464SOL    HW1 8291   0.650   2.784   4.818
 2464SOL    HW2 8292   0.788   2.698   4.809
 2465SOL     OW 8293   0.130   1.335   0.175
 2465SOL    HW1 8294   0.142   1.375   0.084
 2465SOL    HW2 8295   0.218   1.333   0.223
 2466SOL     OW 8296   1.174   1.810   0.916
 2466SOL    HW1 8297   1.104   1.769   0.858
 2466SOL    HW2 8298   1.133   1.881   0.973
 2467SOL     OW 8299   5.373   2.617   4.726
 2467SOL    HW1 8300   5.438   2.645   4.796
 2467SOL    HW2 8301   5.421   2.574   4.650
 2468SOL     OW 8302   3.333   6.661   4.512
 2468SOL    HW1 8303   3.269   6.720   4.463
 2468SOL    HW2 8304   3.282   6.592   4.563
 2469SOL     OW 8305   3.020   1.784   6.099
 2469SOL    HW1 8306   3.002   1.767   6.002
 2469SOL    HW2 8307   2.996   1.879   6.121
 2470SOL     OW 8308   1.919   5.171   6.211
 2470SOL    HW1 8309   1.961   5.080   6.207
 2470SOL    HW2 8310   1.897   5.193   6.306
 2471SOL     OW 8311   2.656   6.160   2.530
 2471SOL    HW1 8312   2.654   6.073   2.579
 2471SOL    HW2 8313   2.699   6.147   2.441
 2472SOL     OW 8314   4.915   0.522   2.793
 2472SOL    HW1 8315   4.940   0.615   2.822
 2472SOL    HW2 8316   4.821   0.522   2.761
 2473SOL     OW 8317   0.677   4.007   4.746
 2473SOL    HW1 8318   0.641   3.977   4.834
 2473SOL    HW2 8319   0.602   4.018   4.681
 2474SOL     OW 8320   1.626   0.511   1.193
 2474SOL    HW1 8321   1.694   0.577   1.227
 2474SOL    HW2 8322   1.550   0.505   1.257
 2475SOL     OW 8323   5.846   2.021   0.482
 2475SOL    HW1 8324   5.812   1.936   0.523
 2475SOL    HW2 8325   5.770   2.071   0.441
 2476SOL     OW 8326   4.573   6.888   6.843
 2476SOL    HW1 8327   4.673   6.892   6.847
 2476SOL    HW2 8328   4.541   6.806   6.890
 2477SOL     OW 8329   3.860   1.260   3.893
 2477SOL    HW1 8330   3.884   1.323   3.967
 2477SOL    HW2 8331   3.860   1.308   3.806
 2478SOL     OW 8332   3.217   0.476   4.169
 2478SOL    HW1 8333   3.247   0.454   4.076
 2478SOL    HW2 8334   3.232   0.574   4.186
 2479SOL     OW 8335   6.613   4.106   2.418
 2479SOL    HW1 8336   6.516   4.124   2.403
 2479SOL    HW2 8337   6.624   4.016   2.461
 2480SOL     OW 8338   2.798   2.111   1.626
 2480SOL    HW1 8339   2.785   2.014   1.606
 2480SOL    HW2 8340   2.860   2.121   1.704
 2481SOL     OW 8341   2.933   0.204   2.407
 2481SOL    HW1 8342   3.022   0.169   2.376
 2481SOL    HW2 8343   2.940   0.303   2.420
 2482SOL     OW 8344   0.204   3.049   6.923
 2482SOL    HW1 8345   0.231   3.142   6.897
 2482SOL    HW2 8346   0.286   2.994   6.939
 2483SOL     OW 8347   2.513   1.770   0.937
 2483SOL    HW1 8348   2.506   1.803   0.843
 2483SOL    HW2 8349   2.586   1.702   0.943
 2484SOL     OW 8350   4.574   1.024   6.229
 2484SOL    HW1 8351   4.610   0.931   6.227
 2484SOL    HW2 8352   4.508   1.036   6.155
 2485SOL     OW 8353   0.667   1.313   6.962
 2485SOL    HW1 8354   0.695   1.276   0.034
 2485SOL    HW2 8355   0.657   1.412   6.968
 2486SOL     OW 8356   6.564   5.708   2.701
 2486SOL    HW1 8357   6.564   5.758   2.788
 2486SOL    HW2 8358   6.496   5.635   2.705
 2487SOL     OW 8359   4.057   6.466   6.771
 2487SOL    HW1 8360   4.023   6.557   6.793
 2487SOL    HW2 8361   4.002   6.397   6.819
 2488SOL     OW 8362   0.588   3.658   0.480
 2488SOL    HW1 8363   0.654   3.693   0.547
 2488SOL    HW2 8364   0.521   3.601   0.526
 2489SOL     OW 8365   6.060   5.808   4.753
 2489SOL    HW1 8366   6.063   5.907   4.767
 2489SOL    HW2 8367   6.006   5.766   4.826
 2490SOL     OW 8368   3.139   5.881   2.543
 2490SOL    HW1 8369   3.107   5.970   2.511
 2490SOL    HW2 8370   3.163   5.887   2.640
 2491SOL     OW 8371   3.955   4.483   1.670
 2491SOL    HW1 8372   3.860   4.507   1.653
 2491SOL    HW2 8373   3.969   4.386   1.651
 2492SOL     OW 8374   6.858   4.689   2.107
 2492SOL    HW1 8375   6.874   4.784   2.133
 2492SOL    HW2 8376   6.842   4.683   2.008
 2493SOL     OW 8377   6.051   6.348   0.536
 2493SOL    HW1 8378   5.976   6.312   0.479
 2493SOL    HW2 8379   6.092   6.273   0.588
 2494SOL     OW 8380   6.964   3.583   1.529
 2494SOL    HW1 8381   6.910   3.635   1.595
 2494SOL    HW2 8382   6.910   3.567   1.446
 2495SOL     OW 8383   6.947   2.956   2.433
 2495SOL    HW1 8384   6.882   2.881   2.437
 2495SOL    HW2 8385   6.958   2.996   2.524
 2496SOL     OW 8386   5.048   3.846   5.574
 2496SOL    HW1 8387   5.104   3.900   5.510
 2496SOL    HW2 8388   4.989   3.908   5.626
 2497SOL     OW 8389   0.556   0.025   3.872
 2497SOL    HW1 8390   0.525   0.095   3.808
 2497SOL    HW2 8391   0.588   0.070   3.956
 2498SOL     OW 8392   2.099   3.210   4.518
 2498SOL    HW1 8393   2.069   3.295   4.473
 2498SOL    HW2 8394   2.153   3.156   4.453
 2499SOL     OW 8395   5.643   3.112   1.129
 2499SOL    HW1 8396   5.546   3.128   1.149
 2499SOL    HW2 8397   5.652   3.031   1.072
 2500SOL     OW 8398   3.788   3.951   2.544
 2500SOL    HW1 8399   3.851   3.976   2.618
 2500SOL    HW2 8400   3.807   4.007   2.464
 2501SOL     OW 8401   6.378   5.006   4.058
 2501SOL    HW1 8402   6.369   5.067   3.979
 2501SOL    HW2 8403   6.453   5.037   4.116
 2502SOL     OW 8404   2.150   6.078   3.467
 2502SOL    HW1 8405   2.231   6.091   3.524
 2502SOL    HW2 8406   2.177   6.077   3.371
 2503SOL     OW 8407   2.252   0.121   5.215
 2503SOL    HW1 8408   2.346   0.157   5.216
 2503SOL    HW2 8409   2.253   0.024   5.192
 2504SOL     OW 8410   3.912   1.232   3.137
 2504SOL    HW1 8411   3.846   1.194   3.202
 2504SOL    HW2 8412   3.863   1.269   3.058
 2505SOL     OW 8413   5.470   4.671   4.485
 2505SOL    HW1 8414   5.511   4.673   4.576
 2505SOL    HW2 8415   5.455   4.576   4.458
 2506SOL     OW 8416   6.267   4.602   6.568
 2506SOL    HW1 8417   6.355   4.564   6.597
 2506SOL    HW2 8418   6.237   4.558   6.484
 2507SOL     OW 8419   5.833   3.444   3.649
 2507SOL    HW1 8420   5.811   3.363   3.596
 2507SOL    HW2 8421   5.914   3.489   3.610
 2508SOL     OW 8422   5.666   0.958   3.957
 2508SOL    HW1 8423   5.594   1.014   3.999
 2508SOL    HW2 8424   5.707   0.899   4.025
 2509SOL     OW 8425   0.041   3.546   5.868
 2509SOL    HW1 8426   0.118   3.533   5.805
 2509SOL    HW2 8427   6.995   3.469   5.861
 2510SOL     OW 8428   3.253   4.057   2.322
 2510SOL    HW1 8429   3.177   4.069   2.258
 2510SOL    HW2 8430   3.337   4.090   2.279
 2511SOL     OW 8431   2.330   0.853   4.434
 2511SOL    HW1 8432   2.303   0.889   4.523
 2511SOL    HW2 8433   2.249   0.822   4.384
 2512SOL     OW 8434   3.011   4.886   3.686
 2512SOL    HW1 8435   3.095   4.880   3.740
 2512SOL    HW2 8436   2.956   4.963   3.719
 2513SOL     OW 8437   2.071   5.563   6.422
 2513SOL    HW1 8438   2.082   5.477   6.471
 2513SOL    HW2 8439   1.979   5.598   6.436
 2514SOL     OW 8440   1.047   2.787   2.319
 2514SOL    HW1 8441   0.975   2.839   2.273
 2514SOL    HW2 8442   1.086   2.842   2.393
 2515SOL     OW 8443   0.112   2.002   1.049
 2515SOL    HW1 8444   0.115   2.053   1.135
 2515SOL    HW2 8445   0.172   2.047   0.982
 2516SOL     OW 8446   7.016   2.399   4.861
 2516SOL    HW1 8447   0.045   2.416   4.948
 2516SOL    HW2 8448   0.017   2.475   4.798
 2517SOL     OW 8449   0.486   1.504   4.266
 2517SOL    HW1 8450   0.490   1.511   4.166
 2517SOL    HW2 8451   0.393   1.478   4.293
 2518SOL     OW 8452   3.098   3.398   0.932
 2518SOL    HW1 8453   3.005   3.364   0.919
 2518SOL    HW2 8454   3.154   3.327   0.976
 2519SOL     OW 8455   1.315   1.367   0.074
 2519SOL    HW1 8456   1.353   1.386   6.999
 2519SOL    HW2 8457   1.216   1.364   0.068
 2520SOL     OW 8458   3.170   2.721   1.294
 2520SOL    HW1 8459   3.188   2.779   1.215
 2520SOL    HW2 8460   3.104   2.650   1.268
 2521SOL     OW 8461   5.719   1.415   4.768
 2521SOL    HW1 8462   5.645   1.481   4.761
 2521SOL    HW2 8463   5.683   1.327   4.798
 2522SOL     OW 8464   1.912   2.157   0.473
 2522SOL    HW1 8465   1.936   2.124   0.382
 2522SOL    HW2 8466   1.949   2.248   0.487
 2523SOL     OW 8467   1.066   5.453   5.542
 2523SOL    HW1 8468   1.037   5.496   5.457
 2523SOL    HW2 8469   1.019   5.365   5.553
 2524SOL     OW 8470   0.957   2.353   4.905
 2524SOL    HW1 8471   0.886   2.287   4.880
 2524SOL    HW2 8472   1.041   2.332   4.855
 2525SOL     OW 8473   6.601   2.786   6.345
 2525SOL    HW1 8474   6.614   2.770   6.247
 2525SOL    HW2 8475   6.674   2.844   6.380
 2526SOL     OW 8476   2.278   1.183   1.035
 2526SOL    HW1 8477   2.370   1.164   1.068
 2526SOL    HW2 8478   2.232   1.247   1.097
 2527SOL     OW 8479   4.173   5.258   0.166
 2527SOL    HW1 8480   4.243   5.311   0.118
 2527SOL    HW2 8481   4.201   5.244   0.261
 2528SOL     OW 8482   4.420   5.619   6.727
 2528SOL    HW1 8483   4.489   5.554   6.758
 2528SOL    HW2 8484   4.361   5.643   6.804
 2529SOL     OW 8485   0.018   6.039   5.855
 2529SOL    HW1 8486   0.098   5.991   5.890
 2529SOL    HW2 8487   0.024   6.136   5.881
 2530SOL     OW 8488   2.128   5.951   6.829
 2530SOL    HW1 8489   2.057   6.010   6.791
 2530SOL    HW2 8490   2.145   5.975   6.924
 2531SOL     OW 8491   0.088   3.839   6.288
 2531SOL    HW1 8492   0.117   3.778   6.363
 2531SOL    HW2 8493   0.104   3.793   6.201
 2532SOL     OW 8494   5.200   6.099   3.416
 2532SOL    HW1 8495   5.111   6.058   3.438
 2532SOL    HW2 8496   5.235   6.059   3.331
 2533SOL     OW 8497   4.595   0.665   4.031
 2533SOL    HW1 8498   4.609   0.759   4.000
 2533SOL    HW2 8499   4.498   0.649   4.046
 2534SOL     OW 8500   4.231   1.589   2.566
 2534SOL    HW1 8501   4.203   1.500   2.530
 2534SOL    HW2 8502   4.317   1.617   2.524
 2535SOL     OW 8503   3.608   2.776   6.157
 2535SOL    HW1 8504   3.642   2.685   6.133
 2535SOL    HW2 8505   3.511   2.771   6.179
 2536SOL     OW 8506   0.888   0.490   0.944
 2536SOL    HW1 8507   0.829   0.517   1.020
 2536SOL    HW2 8508   0.984   0.497   0.972
 2537SOL     OW 8509   4.564   6.738   4.866
 2537SOL    HW1 8510   4.615   6.746   4.952
 2537SOL    HW2 8511   4.515   6.824   4.849
 2538SOL     OW 8512   6.023   3.913   3.810
 2538SOL    HW1 8513   5.947   3.940   3.869
 2538SOL    HW2 8514   6.109   3.915   3.861
 2539SOL     OW 8515   5.278   2.019   4.847
 2539SOL    HW1 8516   5.251   1.963   4.768
 2539SOL    HW2 8517   5.203   2.081   4.871
 2540SOL     OW 8518   2.535   2.153   1.544
 2540SOL    HW1 8519   2.612   2.113   1.495
 2540SOL    HW2 8520   2.489   2.221   1.486
 2541SOL     OW 8521   2.828   6.975   4.381
 2541SOL    HW1 8522   2.843   0.023   4.306
 2541SOL    HW2 8523   2.904   6.982   4.446
 2542SOL     OW 8524   1.737   5.557   6.199
 2542SOL    HW1 8525   1.642   5.528   6.193
 2542SOL    HW2 8526   1.796   5.487   6.159
 2543SOL     OW 8527   1.038   0.837   3.908
 2543SOL    HW1 8528   0.982   0.754   3.901
 2543SOL    HW2 8529   1.134   0.813   3.901
 2544SOL     OW 8530   0.843   5.859   5.955
 2544SOL    HW1 8531   0.880   5.936   6.006
 2544SOL    HW2 8532   0.844   5.777   6.013
 2545SOL     OW 8533   2.706   6.320   2.730
 2545SOL    HW1 8534   2.700   6.266   2.646
 2545SOL    HW2 8535   2.679   6.263   2.808
 2546SOL     OW 8536   6.948   1.130   1.637
 2546SOL    HW1 8537   7.000   1.107   1.555
 2546SOL    HW2 8538   6.973   1.068   1.711
 2547SOL     OW 8539   0.178   4.018   4.955
 2547SOL    HW1 8540   0.176   3.952   5.030
 2547SOL    HW2 8541   0.088   4.022   4.911
 2548SOL     OW 8542   6.906   0.681   5.959
 2548SOL    HW1 8543   6.839   0.676   6.032
 2548SOL    HW2 8544   6.966   0.760   5.973
 2549SOL     OW 8545   5.560   1.874   3.233
 2549SOL    HW1 8546   5.552   1.780   3.201
 2549SOL    HW2 8547   5.537   1.937   3.159
 2550SOL     OW 8548   5.548   5.093   0.117
 2550SOL    HW1 8549   5.552   5.138   0.027
 2550SOL    HW2 8550   5.473   5.026   0.117
 2551SOL     OW 8551   1.097   4.268   5.982
 2551SOL    HW1 8552   1.066   4.322   6.060
 2551SOL    HW2 8553   1.111   4.173   6.010
 2552SOL     OW 8554   1.485   6.079   3.195
 2552SOL    HW1 8555   1.524   6.106   3.284
 2552SOL    HW2 8556   1.493   5.980   3.184
 2553SOL     OW 8557   4.592   2.897   0.394
 2553SOL    HW1 8558   4.655   2.841   0.342
 2553SOL    HW2 8559   4.551   2.966   0.334
 2554SOL     OW 8560   0.984   1.700   0.759
 2554SOL    HW1 8561   0.898   1.698   0.708
 2554SOL    HW2 8562   1.012   1.606   0.779
 2555SOL     OW 8563   0.026   0.023   5.895
 2555SOL    HW1 8564   0.070   0.010   5.806
 2555SOL    HW2 8565   0.049   6.963   5.955
 2556SOL     OW 8566   4.285   5.277   6.898
 2556SOL    HW1 8567   4.194   5.246   6.871
 2556SOL    HW2 8568   4.345   5.198   6.914
 2557SOL     OW 8569   2.278   4.862   6.866
 2557SOL    HW1 8570   2.304   4.766   6.867
 2557SOL    HW2 8571   2.182   4.871   6.892
 2558SOL     OW 8572   4.196   0.905   5.241
 2558SOL    HW1 8573   4.266   0.909   5.170
 2558SOL    HW2 8574   4.240   0.901   5.331
 2559SOL     OW 8575   0.423   4.970   5.092
 2559SOL    HW1 8576   0.462   4.920   5.014
 2559SOL    HW2 8577   0.434   5.068   5.078
 2560SOL     OW 8578   6.558   0.480   0.522
 2560SOL    HW1 8579   6.566   0.552   0.452
 2560SOL    HW2 8580   6.636   0.487   0.585
 2561SOL     OW 8581   2.934   5.945   4.298
 2561SOL    HW1 8582   2.997   5.928   4.373
 2561SOL    HW2 8583   2.985   5.982   4.220
 2562SOL     OW 8584   2.069   3.934   0.075
 2562SOL    HW1 8585   1.994   3.896   0.130
 2562SOL    HW2 8586   2.140   3.969   0.136
 2563SOL     OW 8587   1.608   0.554   1.709
 2563SOL    HW1 8588   1.592   0.566   1.611
 2563SOL    HW2 8589   1.599   0.642   1.755
 2564SOL     OW 8590   1.536   6.310   2.134
 2564SOL    HW1 8591   1.503   6.365   2.211
 2564SOL    HW2 8592   1.569   6.222   2.167
 2565SOL     OW 8593   1.242   1.164   0.926
 2565SOL    HW1 8594   1.255   1.237   0.993
 2565SOL    HW2 8595   1.332   1.131   0.896
 2566SOL     OW 8596   2.508   6.401   5.235
 2566SOL    HW1 8597   2.490   6.419   5.332
 2566SOL    HW2 8598   2.514   6.303   5.220
 2567SOL     OW 8599   1.268   0.868   0.405
 2567SOL    HW1 8600   1.174   0.842   0.427
 2567SOL    HW2 8601   1.277   0.880   0.306
 2568SOL     OW 8602   5.852   3.568   0.463
 2568SOL    HW1 8603   5.916   3.623   0.410
 2568SOL    HW2 8604   5.802   3.507   0.402
 2569SOL     OW 8605   2.519   0.812   2.171
 2569SOL    HW1 8606   2.605   0.863   2.174
 2569SOL    HW2 8607   2.463   0.834   2.251
 2570SOL     OW 8608   6.008   2.297   6.307
 2570SOL    HW1 8609   6.046   2.226   6.367
 2570SOL    HW2 8610   5.948   2.356   6.360
 2571SOL     OW 8611   1.029   4.267   3.966
 2571SOL    HW1 8612   1.036   4.184   3.911
 2571SOL    HW2 8613   0.942   4.312   3.948
 2572SOL     OW 8614   1.351   5.039   3.182
 2572SOL    HW1 8615   1.400   4.979   3.120
 2572SOL    HW2 8616   1.339   4.994   3.271
 2573SOL     OW 8617   1.284   0.621   0.122
 2573SOL    HW1 8618   1.212   0.555   0.098
 2573SOL    HW2 8619   1.362   0.573   0.160
 2574SOL     OW 8620   6.636   3.423   1.461
 2574SOL    HW1 8621   6.560   3.371   1.422
 2574SOL    HW2 8622   6.624   3.430   1.560
 2575SOL     OW 8623   0.819   0.122   5.027
 2575SOL    HW1 8624   0.788   0.095   5.118
 2575SOL    HW2 8625   0.753   0.092   4.959
 2576SOL     OW 8626   4.211   6.115   5.794
 2576SOL    HW1 8627   4.302   6.154   5.784
 2576SOL    HW2 8628   4.152   6.179   5.844
 2577SOL     OW 8629   1.912   3.731   2.502
 2577SOL    HW1 8630   1.835   3.720   2.565
 2577SOL    HW2 8631   1.906   3.819   2.456
 2578SOL     OW 8632   3.950   1.415   2.200
 2578SOL    HW1 8633   4.031   1.469   2.181
 2578SOL    HW2 8634   3.877   1.474   2.235
 2579SOL     OW 8635   0.423   6.570   3.019
 2579SOL    HW1 8636   0.442   6.485   3.068
 2579SOL    HW2 8637   0.477   6.644   3.058
 2580SOL     OW 8638   2.895   2.156   5.505
 2580SOL    HW1 8639   2.895   2.253   5.528
 2580SOL    HW2 8640   2.836   2.106   5.568
 2581SOL     OW 8641   3.648   0.625   5.756
 2581SOL    HW1 8642   3.574   0.652   5.818
 2581SOL    HW2 8643   3.687   0.707   5.714
 2582SOL     OW 8644   0.363   3.594   0.645
 2582SOL    HW1 8645   0.315   3.679   0.620
 2582SOL    HW2 8646   0.392   3.599   0.741
 2583SOL     OW 8647   5.397   1.066   0.884
 2583SOL    HW1 8648   5.460   0.995   0.854
 2583SOL    HW2 8649   5.447   1.137   0.933
 2584SOL     OW 8650   3.259   4.297   6.519
 2584SOL    HW1 8651   3.323   4.276   6.593
 2584SOL    HW2 8652   3.297   4.370   6.462
 2585SOL     OW 8653   2.195   5.174   0.216
 2585SOL    HW1 8654   2.228   5.126   0.297
 2585SOL    HW2 8655   2.249   5.146   0.136
 2586SOL     OW 8656   1.991   1.297   2.967
 2586SOL    HW1 8657   2.052   1.219   2.983
 2586SOL    HW2 8658   2.023   1.375   3.020
 2587SOL     OW 8659   5.879   1.013   4.255
 2587SOL    HW1 8660   5.919   0.948   4.190
 2587SOL    HW2 8661   5.788   0.982   4.282
 2588SOL     OW 8662   4.783   1.825   6.424
 2588SOL    HW1 8663   4.872   1.786   6.402
 2588SOL    HW2 8664   4.715   1.751   6.432
 2589SOL     OW 8665   1.247   6.075   0.468
 2589SOL    HW1 8666   1.271   6.000   0.530
 2589SOL    HW2 8667   1.176   6.044   0.404
 2590SOL     OW 8668   2.418   5.148   0.785
 2590SOL    HW1 8669   2.344   5.203   0.745
 2590SOL    HW2 8670   2.396   5.051   0.775
 2591SOL     OW 8671   4.992   6.229   3.219
 2591SOL    HW1 8672   5.060   6.271   3.279
 2591SOL    HW2 8673   4.937   6.164   3.271
 2592SOL     OW 8674   3.238   3.442   0.691
 2592SOL    HW1 8675   3.195   3.432   0.781
 2592SOL    HW2 8676   3.196   3.518   0.642
 2593SOL     OW 8677   2.688   4.590   6.092
 2593SOL    HW1 8678   2.788   4.594   6.103
 2593SOL    HW2 8679   2.661   4.497   6.066
 2594SOL     OW 8680   2.241   2.958   3.369
 2594SOL    HW1 8681   2.259   2.973   3.272
 2594SOL    HW2 8682   2.301   2.885   3.403
 2595SOL     OW 8683   1.472   0.865   2.896
 2595SOL    HW1 8684   1.504   0.868   2.991
 2595SOL    HW2 8685   1.462   0.959   2.862
 2596SOL     OW 8686   0.015   0.935   0.984
 2596SOL    HW1 8687   0.012   1.032   1.010
 2596SOL    HW2 8688   0.110   0.904   0.981
 2597SOL     OW 8689   6.092   6.095   0.663
 2597SOL    HW1 8690   6.067   6.028   0.593
 2597SOL    HW2 8691   6.093   6.050   0.753
 2598SOL     OW 8692   4.787   2.748   2.080
 2598SOL    HW1 8693   4.776   2.846   2.063
 2598SOL    HW2 8694   4.730   2.696   2.016
 2599SOL     OW 8695   2.336   5.609   1.649
 2599SOL    HW1 8696   2.355   5.654   1.736
 2599SOL    HW2 8697   2.271   5.534   1.664
 2600SOL     OW 8698   5.518   5.617   4.129
 2600SOL    HW1 8699   5.448   5.686   4.109
 2600SOL    HW2 8700   5.581   5.610   4.052
 2601SOL     OW 8701   6.904   1.207   3.594
 2601SOL    HW1 8702   6.837   1.278   3.616
 2601SOL    HW2 8703   6.878   1.160   3.510
 2602SOL     OW 8704   1.766   4.540   3.324
 2602SOL    HW1 8705   1.793   4.460   3.377
 2602SOL    HW2 8706   1.748   4.514   3.229
 2603SOL     OW 8707   1.597   5.831   1.640
 2603SOL    HW1 8708   1.548   5.843   1.727
 2603SOL    HW2 8709   1.578   5.740   1.603
 2604SOL     OW 8710   5.191   3.360   3.083
 2604SOL    HW1 8711   5.119   3.296   3.056
 2604SOL    HW2 8712   5.241   3.324   3.161
 2605SOL     OW 8713   1.246   2.165   0.923
 2605SOL    HW1 8714   1.235   2.264   0.915
 2605SOL    HW2 8715   1.328   2.144   0.976
 2606SOL     OW 8716   5.246   3.846   1.109
 2606SOL    HW1 8717   5.346   3.841   1.111
 2606SOL    HW2 8718   5.216   3.932   1.150
 2607SOL     OW 8719   2.614   2.796   1.727
 2607SOL    HW1 8720   2.521   2.828   1.744
 2607SOL    HW2 8721   2.625   2.703   1.761
 2608SOL     OW 8722   3.469   4.991   5.235
 2608SOL    HW1 8723   3.430   4.907   5.199
 2608SOL    HW2 8724   3.569   4.989   5.223
 2609SOL     OW 8725   0.423   1.133   1.491
 2609SOL    HW1 8726   0.375   1.051   1.522
 2609SOL    HW2 8727   0.455   1.185   1.570
 2610SOL     OW 8728   1.436   4.662   4.855
 2610SOL    HW1 8729   1.337   4.673   4.846
 2610SOL    HW2 8730   1.456   4.581   4.911
 2611SOL     OW 8731   5.485   2.210   5.457
 2611SOL    HW1 8732   5.578   2.189   5.427
 2611SOL    HW2 8733   5.429   2.235   5.378
 2612SOL     OW 8734   6.591   5.808   0.118
 2612SOL    HW1 8735   6.622   5.868   0.045
 2612SOL    HW2 8736   6.550   5.726   0.079
 2613SOL     OW 8737   1.932   0.232   0.596
 2613SOL    HW1 8738   1.838   0.222   0.629
 2613SOL    HW2 8739   1.947   0.169   0.520
 2614SOL     OW 8740   6.409   1.951   0.813
 2614SOL    HW1 8741   6.354   2.021   0.858
 2614SOL    HW2 8742   6.502   1.953   0.851
 2615SOL     OW 8743   1.396   3.116   6.723
 2615SOL    HW1 8744   1.324   3.098   6.790
 2615SOL    HW2 8745   1.361   3.096   6.631
 2616SOL     OW 8746   1.057   1.585   5.294
 2616SOL    HW1 8747   1.041   1.627   5.204
 2616SOL    HW2 8748   1.025   1.647   5.366
 2617SOL     OW 8749   5.802   0.267   0.026
 2617SOL    HW1 8750   5.782   0.193   6.979
 2617SOL    HW2 8751   5.748   0.348   0.002
 2618SOL     OW 8752   1.759   0.307   0.305
 2618SOL    HW1 8753   1.824   0.271   0.239
 2618SOL    HW2 8754   1.716   0.389   0.267
 2619SOL     OW 8755   4.368   1.022   2.854
 2619SOL    HW1 8756   4.306   1.018   2.775
 2619SOL    HW2 8757   4.315   1.030   2.938
 2620SOL     OW 8758   5.826   2.531   1.908
 2620SOL    HW1 8759   5.873   2.451   1.946
 2620SOL    HW2 8760   5.802   2.594   1.982
 2621SOL     OW 8761   2.635   6.262   1.013
 2621SOL    HW1 8762   2.614   6.300   0.923
 2621SOL    HW2 8763   2.697   6.184   1.003
 2622SOL     OW 8764   2.301   3.456   6.932
 2622SOL    HW1 8765   2.321   3.470   6.835
 2622SOL    HW2 8766   2.257   3.538   6.970
 2623SOL     OW 8767   0.288   1.925   4.101
 2623SOL    HW1 8768   0.245   1.957   4.016
 2623SOL    HW2 8769   0.221   1.872   4.153
 2624SOL     OW 8770   1.522   1.130   5.408
 2624SOL    HW1 8771   1.604   1.181   5.433
 2624SOL    HW2 8772   1.485   1.166   5.322
 2625SOL     OW 8773   2.912   5.206   6.224
 2625SOL    HW1 8774   2.879   5.257   6.145
 2625SOL    HW2 8775   2.849   5.220   6.301
 2626SOL     OW 8776   6.781   6.797   0.536
 2626SOL    HW1 8777   6.783   6.697   0.531
 2626SOL    HW2 8778   6.872   6.830   0.560
 2627SOL     OW 8779   2.544   0.002   5.759
 2627SOL    HW1 8780   2.605   6.964   5.818
 2627SOL    HW2 8781   2.578   0.096   5.755
 2628SOL     OW 8782   6.781   5.485   1.671
 2628SOL    HW1 8783   6.828   5.574   1.668
 2628SOL    HW2 8784   6.692   5.496   1.714
 2629SOL     OW 8785   3.194   3.582   2.417
 2629SOL    HW1 8786   3.213   3.535   2.330
 2629SOL    HW2 8787   3.250   3.665   2.423
 2630SOL     OW 8788   3.037   1.198   4.869
 2630SOL    HW1 8789   3.014   1.106   4.836
 2630SOL    HW2 8790   3.068   1.254   4.792
 2631SOL     OW 8791   5.324   5.680   0.521
 2631SOL    HW1 8792   5.297   5.732   0.602
 2631SOL    HW2 8793   5.375   5.740   0.459
 2632SOL     OW 8794   4.418   5.268   2.239
 2632SOL    HW1 8795   4.354   5.202   2.199
 2632SOL    HW2 8796   4.510   5.230   2.239
 2633SOL     OW 8797   6.773   3.021   5.957
 2633SOL    HW1 8798   6.824   3.052   6.037
 2633SOL    HW2 8799   6.675   3.035   5.972
 2634SOL     OW 8800   2.084   1.941   6.157
 2634SOL    HW1 8801   2.048   1.909   6.244
 2634SOL    HW2 8802   2.125   1.865   6.107
 2635SOL     OW 8803   4.153   5.773   3.298
 2635SOL    HW1 8804   4.058   5.750   3.275
 2635SOL    HW2 8805   4.195   5.819   3.220
 2636SOL     OW 8806   3.227   6.966   5.909
 2636SOL    HW1 8807   3.225   6.970   5.810
 2636SOL    HW2 8808   3.237   6.871   5.939
 2637SOL     OW 8809   6.812   1.108   3.093
 2637SOL    HW1 8810   6.882   1.162   3.046
 2637SOL    HW2 8811   6.721   1.140   3.066
 2638SOL     OW 8812   0.338   6.373   4.858
 2638SOL    HW1 8813   0.404   6.400   4.787
 2638SOL    HW2 8814   0.371   6.292   4.906
 2639SOL     OW 8815   5.265   5.309   4.976
 2639SOL    HW1 8816   5.179   5.299   5.027
 2639SOL    HW2 8817   5.292   5.221   4.939
 2640SOL     OW 8818   1.937   0.566   2.801
 2640SOL    HW1 8819   1.885   0.597   2.880
 2640SOL    HW2 8820   2.035   0.569   2.823
 2641SOL     OW 8821   5.395   2.416   1.081
 2641SOL    HW1 8822   5.325   2.394   1.148
 2641SOL    HW2 8823   5.432   2.331   1.042
 2642SOL     OW 8824   0.093   0.749   2.927
 2642SOL    HW1 8825   0.058   0.839   2.903
 2642SOL    HW2 8826   0.134   0.752   3.018
 2643SOL     OW 8827   1.605   4.716   4.242
 2643SOL    HW1 8828   1.669   4.737   4.316
 2643SOL    HW2 8829   1.588   4.798   4.188
 2644SOL     OW 8830   5.360   5.325   3.470
 2644SOL    HW1 8831   5.435   5.331   3.536
 2644SOL    HW2 8832   5.279   5.368   3.509
 2645SOL     OW 8833   4.495   5.527   2.655
 2645SOL    HW1 8834   4.453   5.601   2.706
 2645SOL    HW2 8835   4.466   5.439   2.693
 2646SOL     OW 8836   1.297   1.532   6.679
 2646SOL    HW1 8837   1.319   1.619   6.636
 2646SOL    HW2 8838   1.202   1.533   6.710
 2647SOL     OW 8839   4.407   0.167   2.904
 2647SOL    HW1 8840   4.409   0.261   2.938
 2647SOL    HW2 8841   4.353   0.111   2.967
 2648SOL     OW 8842   2.184   0.536   5.880
 2648SOL    HW1 8843   2.148   0.550   5.972
 2648SOL    HW2 8844   2.115   0.494   5.822
 2649SOL     OW 8845   5.729   1.781   3.594
 2649SOL    HW1 8846   5.680   1.860   3.632
 2649SOL    HW2 8847   5.751   1.799   3.498
 2650SOL     OW 8848   1.797   6.974   4.419
 2650SOL    HW1 8849   1.858   6.901   4.450
 2650SOL    HW2 8850   1.719   6.934   4.370
 2651SOL     OW 8851   3.367   2.076   2.709
 2651SOL    HW1 8852   3.418   2.114   2.632
 2651SOL    HW2 8853   3.424   2.078   2.791
 2652SOL     OW 8854   4.474   3.377   6.063
 2652SOL    HW1 8855   4.487   3.318   5.984
 2652SOL    HW2 8856   4.409   3.449   6.041
 2653SOL     OW 8857   2.342   6.784   0.339
 2653SOL    HW1 8858   2.335   6.719   0.414
 2653SOL    HW2 8859   2.429   6.834   0.345
 2654SOL     OW 8860   6.594   0.146   1.095
 2654SOL    HW1 8861   6.505   0.169   1.136
 2654SOL    HW2 8862   6.589   0.056   1.053
 2655SOL     OW 8863   5.569   6.497   3.958
 2655SOL    HW1 8864   5.653   6.472   3.910
 2655SOL    HW2 8865   5.558   6.597   3.958
 2656SOL     OW 8866   5.241   0.245   4.846
 2656SOL    HW1 8867   5.202   0.224   4.756
 2656SOL    HW2 8868   5.219   0.172   4.910
 2657SOL     OW 8869   1.723   3.525   5.503
 2657SOL    HW1 8870   1.812   3.496   5.468
 2657SOL    HW2 8871   1.737   3.590   5.578
 2658SOL     OW 8872   3.395   4.242   0.662
 2658SOL    HW1 8873   3.403   4.146   0.634
 2658SOL    HW2 8874   3.362   4.247   0.756
 2659SOL     OW 8875   0.518   2.050   5.578
 2659SOL    HW1 8876   0.462   2.126   5.610
 2659SOL    HW2 8877   0.514   2.044   5.478
 2660SOL     OW 8878   1.071   1.707   0.215
 2660SOL    HW1 8879   0.995   1.694   0.279
 2660SOL    HW2 8880   1.154   1.729   0.266
 2661SOL     OW 8881   2.108   1.179   1.823
 2661SOL    HW1 8882   2.149   1.089   1.807
 2661SOL    HW2 8883   2.046   1.174   1.901
 2662SOL     OW 8884   2.871   1.517   1.290
 2662SOL    HW1 8885   2.796   1.466   1.330
 2662SOL    HW2 8886   2.929   1.456   1.235
 2663SOL     OW 8887   3.844   0.186   0.955
 2663SOL    HW1 8888   3.869   0.122   0.883
 2663SOL    HW2 8889   3.824   0.275   0.915
 2664SOL     OW 8890   4.668   3.371   5.593
 2664SOL    HW1 8891   4.594   3.361   5.659
 2664SOL    HW2 8892   4.657   3.304   5.520
 2665SOL     OW 8893   1.093   3.589   4.433
 2665SOL    HW1 8894   1.015   3.593   4.371
 2665SOL    HW2 8895   1.177   3.610   4.383
 2666SOL     OW 8896   1.956   3.498   1.691
 2666SOL    HW1 8897   2.056   3.496   1.683
 2666SOL    HW2 8898   1.930   3.562   1.763
 2667SOL     OW 8899   6.409   2.385   4.633
 2667SOL    HW1 8900   6.408   2.485   4.620
 2667SOL    HW2 8901   6.317   2.349   4.619
 2668SOL     OW 8902   6.160   0.878   3.684
 2668SOL    HW1 8903   6.160   0.974   3.657
 2668SOL    HW2 8904   6.074   0.857   3.731
 2669SOL     OW 8905   2.487   1.714   1.913
 2669SOL    HW1 8906   2.569   1.770   1.904
 2669SOL    HW2 8907   2.406   1.772   1.911
 2670SOL     OW 8908   0.324   6.958   1.566
 2670SOL    HW1 8909   0.382   6.878   1.583
 2670SOL    HW2 8910   0.381   0.019   1.536
 2671SOL     OW 8911   5.057   4.079   6.206
 2671SOL    HW1 8912   5.018   3.991   6.181
 2671SOL    HW2 8913   5.005   4.152   6.163
 2672SOL     OW 8914   1.980   0.986   2.498
 2672SOL    HW1 8915   1.934   0.968   2.585
 2672SOL    HW2 8916   1.993   0.900   2.448
 2673SOL     OW 8917   3.151   0.616   3.621
 2673SOL    HW1 8918   3.114   0.569   3.541
 2673SOL    HW2 8919   3.090   0.601   3.699
 2674SOL     OW 8920   5.356   5.713   2.780
 2674SOL    HW1 8921   5.425   5.641   2.768
 2674SOL    HW2 8922   5.265   5.673   2.778
 2675SOL     OW 8923   4.771   1.142   3.818
 2675SOL    HW1 8924   4.731   1.156   3.728
 2675SOL    HW2 8925   4.760   1.047   3.846
 2676SOL     OW 8926   3.549   3.716   5.455
 2676SOL    HW1 8927   3.514   3.629   5.489
 2676SOL    HW2 8928   3.505   3.738   5.367
 2677SOL     OW 8929   1.541   5.541   1.230
 2677SOL    HW1 8930   1.507   5.449   1.210
 2677SOL    HW2 8931   1.629   5.554   1.184
 2678SOL     OW 8932   3.551   1.992   1.885
 2678SOL    HW1 8933   3.614   2.053   1.933
 2678SOL    HW2 8934   3.516   1.924   1.948
 2679SOL     OW 8935   2.130   4.422   2.553
 2679SOL    HW1 8936   2.042   4.469   2.560
 2679SOL    HW2 8937   2.198   4.485   2.515
 2680SOL     OW 8938   6.094   1.794   6.636
 2680SOL    HW1 8939   6.097   1.770   6.539
 2680SOL    HW2 8940   6.007   1.839   6.657
 2681SOL     OW 8941   2.261   2.889   3.085
 2681SOL    HW1 8942   2.203   2.817   3.123
 2681SOL    HW2 8943   2.332   2.847   3.028
 2682SOL     OW 8944   3.546   4.091   2.457
 2682SOL    HW1 8945   3.602   4.024   2.506
 2682SOL    HW2 8946   3.587   4.111   2.368
 2683SOL     OW 8947   1.715   2.969   1.238
 2683SOL    HW1 8948   1.739   2.948   1.333
 2683SOL    HW2 8949   1.664   2.892   1.199
 2684SOL     OW 8950   5.519   0.157   3.753
 2684SOL    HW1 8951   5.611   0.186   3.780
 2684SOL    HW2 8952   5.514   0.057   3.750
 2685SOL     OW 8953   1.737   6.601   5.789
 2685SOL    HW1 8954   1.698   6.541   5.858
 2685SOL    HW2 8955   1.772   6.546   5.713
 2686SOL     OW 8956   2.469   2.188   5.733
 2686SOL    HW1 8957   2.495   2.284   5.730
 2686SOL    HW2 8958   2.548   2.130   5.715
 2687SOL     OW 8959   3.668   2.667   1.742
 2687SOL    HW1 8960   3.576   2.699   1.720
 2687SOL    HW2 8961   3.662   2.574   1.777
 2688SOL     OW 8962   4.603   2.171   0.505
 2688SOL    HW1 8963   4.638   2.205   0.592
 2688SOL    HW2 8964   4.520   2.220   0.481
 2689SOL     OW 8965   0.540   4.110   2.086
 2689SOL    HW1 8966   0.446   4.082   2.105
 2689SOL    HW2 8967   0.548   4.134   1.989
 2690SOL     OW 8968   5.587   0.975   4.337
 2690SOL    HW1 8969   5.511   1.020   4.290
 2690SOL    HW2 8970   5.554   0.887   4.374
 2691SOL     OW 8971   5.463   3.656   3.733
 2691SOL    HW1 8972   5.521   3.582   3.768
 2691SOL    HW2 8973   5.464   3.732   3.797
 2692SOL     OW 8974   1.140   5.851   0.949
 2692SOL    HW1 8975   1.143   5.936   1.001
 2692SOL    HW2 8976   1.191   5.780   0.999
 2693SOL     OW 8977   1.072   6.192   2.532
 2693SOL    HW1 8978   0.981   6.207   2.572
 2693SOL    HW2 8979   1.066   6.121   2.463
 2694SOL     OW 8980   2.740   0.640   2.876
 2694SOL    HW1 8981   2.724   0.632   2.974
 2694SOL    HW2 8982   2.702   0.727   2.843
 2695SOL     OW 8983   6.742   6.229   2.815
 2695SOL    HW1 8984   6.831   6.207   2.856
 2695SOL    HW2 8985   6.748   6.318   2.771
 2696SOL     OW 8986   3.624   4.635   6.158
 2696SOL    HW1 8987   3.712   4.680   6.176
 2696SOL    HW2 8988   3.641   4.545   6.117
 2697SOL     OW 8989   4.781   2.787   0.223
 2697SOL    HW1 8990   4.790   2.867   0.164
 2697SOL    HW2 8991   4.760   2.707   0.166
 2698SOL     OW 8992   2.133   5.741   0.405
 2698SOL    HW1 8993   2.040   5.759   0.374
 2698SOL    HW2 8994   2.150   5.791   0.490
 2699SOL     OW 8995   2.854   0.004   2.583
 2699SOL    HW1 8996   2.859   6.935   2.529
 2699SOL    HW2 8997   2.897   0.078   2.532
 2700SOL     OW 8998   5.112   2.024   0.908
 2700SOL    HW1 8999   5.120   1.958   0.834
 2700SOL    HW2 9000   5.026   2.075   0.898
 2701SOL     OW 9001   5.344   4.200   5.547
 2701SOL    HW1 9002   5.438   4.198   5.512
 2701SOL    HW2 9003   5.331   4.125   5.611
 2702SOL     OW 9004   1.458   2.249   5.377
 2702SOL    HW1 9005   1.439   2.151   5.381
 2702SOL    HW2 9006   1.489   2.281   5.466
 2703SOL     OW 9007   2.756   5.658   1.652
 2703SOL    HW1 9008   2.781   5.569   1.691
 2703SOL    HW2 9009   2.672   5.649   1.599
 2704SOL     OW 9010   4.306   0.723   3.469
 2704SOL    HW1 9011   4.227   0.754   3.417
 2704SOL    HW2 9012   4.297   0.755   3.564
 2705SOL     OW 9013   1.410   0.594   5.486
 2705SOL    HW1 9014   1.411   0.647   5.402
 2705SOL    HW2 9015   1.366   0.648   5.559
 2706SOL     OW 9016   1.005   4.930   4.616
 2706SOL    HW1 9017   1.057   4.845   4.611
 2706SOL    HW2 9018   0.968   4.952   4.526
 2707SOL     OW 9019   3.947   0.884   3.084
 2707SOL    HW1 9020   3.983   0.918   3.171
 2707SOL    HW2 9021   3.899   0.798   3.099
 2708SOL     OW 9022   5.565   3.056   5.273
 2708SOL    HW1 9023   5.473   3.068   5.237
 2708SOL    HW2 9024   5.585   2.959   5.281
 2709SOL     OW 9025   5.035   1.453   5.219
 2709SOL    HW1 9026   5.120   1.425   5.174
 2709SOL    HW2 9027   4.968   1.380   5.214
 2710SOL     OW 9028   1.006   2.976   4.168
 2710SOL    HW1 9029   0.941   2.907   4.136
 2710SOL    HW2 9030   1.095   2.960   4.125
 2711SOL     OW 9031   4.569   0.965   1.210
 2711SOL    HW1 9032   4.505   1.034   1.176
 2711SOL    HW2 9033   4.553   0.950   1.308
 2712SOL     OW 9034   4.862   6.333   1.591
 2712SOL    HW1 9035   4.826   6.339   1.497
 2712SOL    HW2 9036   4.882   6.237   1.612
 2713SOL     OW 9037   4.158   4.549   5.314
 2713SOL    HW1 9038   4.218   4.511   5.244
 2713SOL    HW2 9039   4.212   4.604   5.377
 2714SOL     OW 9040   3.182   4.142   6.102
 2714SOL    HW1 9041   3.131   4.215   6.147
 2714SOL    HW2 9042   3.119   4.083   6.051
 2715SOL     OW 9043   4.223   6.858   0.328
 2715SOL    HW1 9044   4.273   6.925   0.273
 2715SOL    HW2 9045   4.150   6.903   0.379
 2716SOL     OW 9046   4.442   0.961   2.011
 2716SOL    HW1 9047   4.476   1.052   1.984
 2716SOL    HW2 9048   4.517   0.908   2.049
 2717SOL     OW 9049   0.192   1.662   2.006
 2717SOL    HW1 9050   0.240   1.615   2.080
 2717SOL    HW2 9051   0.099   1.625   1.997
 2718SOL     OW 9052   5.977   1.221   6.341
 2718SOL    HW1 9053   5.948   1.129   6.368
 2718SOL    HW2 9054   5.998   1.222   6.244
 2719SOL     OW 9055   0.824   4.270   4.210
 2719SOL    HW1 9056   0.798   4.304   4.300
 2719SOL    HW2 9057   0.851   4.346   4.151
 2720SOL     OW 9058   2.114   4.876   6.434
 2720SOL    HW1 9059   2.100   4.921   6.346
 2720SOL    HW2 9060   2.110   4.776   6.421
 2721SOL     OW 9061   2.747   6.003   3.902
 2721SOL    HW1 9062   2.737   6.005   3.802
 2721SOL    HW2 9063   2.700   5.924   3.939
 2722SOL     OW 9064   3.318   4.403   6.997
 2722SOL    HW1 9065   3.256   4.477   0.006
 2722SOL    HW2 9066   3.403   4.442   6.960
 2723SOL     OW 9067   4.982   4.935   0.412
 2723SOL    HW1 9068   4.975   4.836   0.402
 2723SOL    HW2 9069   4.917   4.966   0.481
 2724SOL     OW 9070   0.302   5.897   1.018
 2724SOL    HW1 9071   0.214   5.924   1.059
 2724SOL    HW2 9072   0.358   5.852   1.087
 2725SOL     OW 9073   5.995   4.063   3.236
 2725SOL    HW1 9074   5.941   4.035   3.156
 2725SOL    HW2 9075   5.933   4.080   3.312
 2726SOL     OW 9076   6.331   2.116   2.369
 2726SOL    HW1 9077   6.241   2.151   2.395
 2726SOL    HW2 9078   6.323   2.061   2.286
 2727SOL     OW 9079   1.557   4.769   3.743
 2727SOL    HW1 9080   1.468   4.728   3.720
 2727SOL    HW2 9081   1.624   4.696   3.759
 2728SOL     OW 9082   4.553   4.406   6.453
 2728SOL    HW1 9083   4.482   4.471   6.426
 2728SOL    HW2 9084   4.643   4.446   6.438
 2729SOL     OW 9085   0.527   0.018   0.854
 2729SOL    HW1 9086   0.482   6.951   0.885
 2729SOL    HW2 9087   0.582   0.056   0.929
 2730SOL     OW 9088   0.966   5.362   2.856
 2730SOL    HW1 9089   1.036   5.302   2.896
 2730SOL    HW2 9090   0.983   5.371   2.758
 2731SOL     OW 9091   3.815   3.572   5.407
 2731SOL    HW1 9092   3.756   3.649   5.381
 2731SOL    HW2 9093   3.910   3.598   5.394
 2732SOL     OW 9094   4.538   1.090   2.315
 2732SOL    HW1 9095   4.471   1.143   2.264
 2732SOL    HW2 9096   4.522   0.992   2.300
 2733SOL     OW 9097   0.562   0.383   0.673
 2733SOL    HW1 9098   0.472   0.402   0.633
 2733SOL    HW2 9099   0.562   0.411   0.768
 2734SOL     OW 9100   3.585   0.181   1.906
 2734SOL    HW1 9101   3.681   0.168   1.932
 2734SOL    HW2 9102   3.558   0.276   1.924
 2735SOL     OW 9103   0.830   2.881   3.112
 2735SOL    HW1 9104   0.923   2.881   3.077
 2735SOL    HW2 9105   0.773   2.820   3.056
 2736SOL     OW 9106   5.327   4.257   2.580
 2736SOL    HW1 9107   5.330   4.184   2.649
 2736SOL    HW2 9108   5.239   4.252   2.531
 2737SOL     OW 9109   2.599   0.356   6.069
 2737SOL    HW1 9110   2.644   0.386   6.153
 2737SOL    HW2 9111   2.659   0.293   6.019
 2738SOL     OW 9112   5.083   5.784   1.338
 2738SOL    HW1 9113   5.127   5.873   1.354
 2738SOL    HW2 9114   5.131   5.714   1.391
 2739SOL     OW 9115   0.524   5.345   1.687
 2739SOL    HW1 9116   0.520   5.301   1.777
 2739SOL    HW2 9117   0.608   5.398   1.679
 2740SOL     OW 9118   6.365   5.886   5.188
 2740SOL    HW1 9119   6.460   5.909   5.212
 2740SOL    HW2 9120   6.321   5.840   5.264
 2741SOL     OW 9121   0.017   6.652   0.040
 2741SOL    HW1 9122   6.940   6.658   0.004
 2741SOL    HW2 9123   0.017   6.597   0.123
 2742SOL     OW 9124   2.811   4.976   1.707
 2742SOL    HW1 9125   2.751   4.904   1.742
 2742SOL    HW2 9126   2.832   4.957   1.611
 2743SOL     OW 9127   5.437   1.912   3.462
 2743SOL    HW1 9128   5.435   1.813   3.476
 2743SOL    HW2 9129   5.490   1.933   3.380
 2744SOL     OW 9130   3.367   3.756   2.928
 2744SOL    HW1 9131   3.330   3.813   2.855
 2744SOL    HW2 9132   3.404   3.814   3.001
 2745SOL     OW 9133   0.685   6.264   6.694
 2745SOL    HW1 9134   0.670   6.173   6.732
 2745SOL    HW2 9135   0.773   6.300   6.725
 2746SOL     OW 9136   1.518   0.960   4.271
 2746SOL    HW1 9137   1.487   1.012   4.192
 2746SOL    HW2 9138   1.496   1.009   4.355
 2747SOL     OW 9139   5.163   5.095   0.542
 2747SOL    HW1 9140   5.106   5.038   0.482
 2747SOL    HW2 9141   5.257   5.097   0.508
 2748SOL     OW 9142   4.334   0.413   0.266
 2748SOL    HW1 9143   4.236   0.409   0.243
 2748SOL    HW2 9144   4.356   0.502   0.304
 2749SOL     OW 9145   4.436   0.927   6.843
 2749SOL    HW1 9146   4.463   0.911   6.748
 2749SOL    HW2 9147   4.399   1.020   6.852
 2750SOL     OW 9148   2.096   6.215   1.538
 2750SOL    HW1 9149   2.018   6.199   1.476
 2750SOL    HW2 9150   2.172   6.156   1.510
 2751SOL     OW 9151   6.230   5.660   1.803
 2751SOL    HW1 9152   6.209   5.590   1.734
 2751SOL    HW2 9153   6.214   5.751   1.765
 2752SOL     OW 9154   4.313   5.216   6.595
 2752SOL    HW1 9155   4.249   5.140   6.601
 2752SOL    HW2 9156   4.402   5.188   6.631
 2753SOL     OW 9157   4.442   5.116   5.336
 2753SOL    HW1 9158   4.437   5.195   5.275
 2753SOL    HW2 9159   4.493   5.141   5.418
 2754SOL     OW 9160   0.789   0.886   4.188
 2754SOL    HW1 9161   0.794   0.813   4.120
 2754SOL    HW2 9162   0.816   0.850   4.277
 2755SOL     OW 9163   3.535   0.573   2.160
 2755SOL    HW1 9164   3.455   0.602   2.213
 2755SOL    HW2 9165   3.595   0.518   2.219
 2756SOL     OW 9166   4.580   5.302   6.087
 2756SOL    HW1 9167   4.582   5.269   6.181
 2756SOL    HW2 9168   4.518   5.245   6.033
 2757SOL     OW 9169   1.125   4.588   0.529
 2757SOL    HW1 9170   1.189   4.559   0.457
 2757SOL    HW2 9171   1.041   4.622   0.486
 2758SOL     OW 9172   5.272   0.082   5.884
 2758SOL    HW1 9173   5.263   7.006   5.922
 2758SOL    HW2 9174   5.332   0.080   5.805
 2759SOL     OW 9175   4.351   5.016   3.074
 2759SOL    HW1 9176   4.435   5.061   3.044
 2759SOL    HW2 9177   4.375   4.938   3.131
 2760SOL     OW 9178   0.504   6.661   3.421
 2760SOL    HW1 9179   0.482   6.564   3.412
 2760SOL    HW2 9180   0.599   6.672   3.448
 2761SOL     OW 9181   2.553   4.458   5.183
 2761SOL    HW1 9182   2.629   4.475   5.121
 2761SOL    HW2 9183   2.549   4.532   5.251
 2762SOL     OW 9184   1.580   2.158   5.855
 2762SOL    HW1 9185   1.668   2.112   5.865
 2762SOL    HW2 9186   1.583   2.246   5.902
 2763SOL     OW 9187   5.762   0.436   1.930
 2763SOL    HW1 9188   5.765   0.535   1.920
 2763SOL    HW2 9189   5.781   0.393   1.841
 2764SOL     OW 9190   6.244   0.521   1.184
 2764SOL    HW1 9191   6.325   0.569   1.218
 2764SOL    HW2 9192   6.176   0.513   1.257
 2765SOL     OW 9193   5.131   1.467   3.720
 2765SOL    HW1 9194   5.187   1.542   3.687
 2765SOL    HW2 9195   5.071   1.435   3.647
 2766SOL     OW 9196   5.172   6.333   2.474
 2766SOL    HW1 9197   5.139   6.354   2.382
 2766SOL    HW2 9198   5.270   6.316   2.472
 2767SOL     OW 9199   6.867   3.920   5.199
 2767SOL    HW1 9200   6.881   4.017   5.217
 2767SOL    HW2 9201   6.770   3.897   5.212
 2768SOL     OW 9202   5.470   0.474   5.943
 2768SOL    HW1 9203   5.465   0.546   6.012
 2768SOL    HW2 9204   5.426   0.391   5.978
 2769SOL     OW 9205   1.011   4.021   1.624
 2769SOL    HW1 9206   1.076   4.058   1.690
 2769SOL    HW2 9207   0.958   4.096   1.584
 2770SOL     OW 9208   4.416   6.661   2.415
 2770SOL    HW1 9209   4.356   6.680   2.494
 2770SOL    HW2 9210   4.500   6.618   2.447
 2771SOL     OW 9211   4.294   0.789   1.607
 2771SOL    HW1 9212   4.211   0.787   1.551
 2771SOL    HW2 9213   4.271   0.806   1.702
 2772SOL     OW 9214   3.525   0.990   0.866
 2772SOL    HW1 9215   3.478   0.904   0.886
 2772SOL    HW2 9216   3.520   1.009   0.767
 2773SOL     OW 9217   3.509   4.878   1.528
 2773SOL    HW1 9218   3.449   4.907   1.453
 2773SOL    HW2 9219   3.465   4.803   1.578
 2774SOL     OW 9220   4.949   2.999   1.893
 2774SOL    HW1 9221   5.022   3.056   1.932
 2774SOL    HW2 9222   4.862   3.019   1.938
 2775SOL     OW 9223   0.557   0.326   1.934
 2775SOL    HW1 9224   0.528   0.388   1.861
 2775SOL    HW2 9225   0.477   0.277   1.970
 2776SOL     OW 9226   2.919   5.697   0.154
 2776SOL    HW1 9227   2.842   5.642   0.121
 2776SOL    HW2 9228   3.004   5.647   0.140
 2777SOL     OW 9229   1.048   2.665   3.911
 2777SOL    HW1 9230   1.031   2.567   3.922
 2777SOL    HW2 9231   1.025   2.693   3.818
 2778SOL     OW 9232   3.394   2.233   5.345
 2778SOL    HW1 9233   3.340   2.279   5.275
 2778SOL    HW2 9234   3.379   2.134   5.338
 2779SOL     OW 9235   6.247   0.517   0.536
 2779SOL    HW1 9236   6.342   0.522   0.567
 2779SOL    HW2 9237   6.187   0.562   0.603
 2780SOL     OW 9238   3.304   6.713   6.362
 2780SOL    HW1 9239   3.386   6.753   6.404
 2780SOL    HW2 9240   3.331   6.658   6.283
 2781SOL     OW 9241   5.518   3.605   6.549
 2781SOL    HW1 9242   5.436   3.641   6.593
 2781SOL    HW2 9243   5.595   3.667   6.566
 2782SOL     OW 9244   3.523   0.787   6.081
 2782SOL    HW1 9245   3.463   0.726   6.029
 2782SOL    HW2 9246   3.498   0.786   6.177
 2783SOL     OW 9247   0.452   3.814   5.190
 2783SOL    HW1 9248   0.484   3.868   5.111
 2783SOL    HW2 9249   0.483   3.858   5.274
 2784SOL     OW 9250   2.728   1.793   1.453
 2784SOL    HW1 9251   2.655   1.847   1.410
 2784SOL    HW2 9252   2.711   1.696   1.435
 2785SOL     OW 9253   5.419   2.501   2.330
 2785SOL    HW1 9254   5.457   2.533   2.417
 2785SOL    HW2 9255   5.444   2.566   2.258
 2786SOL     OW 9256   3.746   0.410   1.176
 2786SOL    HW1 9257   3.808   0.332   1.191
 2786SOL    HW2 9258   3.731   0.423   1.078
 2787SOL     OW 9259   1.557   4.425   5.802
 2787SOL    HW1 9260   1.461   4.424   5.775
 2787SOL    HW2 9261   1.609   4.479   5.736
 2788SOL     OW 9262   1.986   2.449   0.478
 2788SOL    HW1 9263   2.026   2.470   0.567
 2788SOL    HW2 9264   2.050   2.475   0.406
 2789SOL     OW 9265   6.954   3.286   3.249
 2789SOL    HW1 9266   6.935   3.351   3.175
 2789SOL    HW2 9267   6.901   3.203   3.234
 2790SOL     OW 9268   2.928   6.160   5.004
 2790SOL    HW1 9269   2.883   6.196   5.086
 2790SOL    HW2 9270   2.926   6.060   5.007
 2791SOL     OW 9271   2.086   3.502   2.252
 2791SOL    HW1 9272   2.126   3.503   2.160
 2791SOL    HW2 9273   2.051   3.410   2.272
 2792SOL     OW 9274   0.254   2.000   6.288
 2792SOL    HW1 9275   0.323   2.005   6.216
 2792SOL    HW2 9276   0.178   1.942   6.258
 2793SOL     OW 9277   5.103   0.589   4.733
 2793SOL    HW1 9278   5.123   0.564   4.828
 2793SOL    HW2 9279   5.163   0.664   4.706
 2794SOL     OW 9280   0.946   1.196   2.198
 2794SOL    HW1 9281   0.932   1.288   2.162
 2794SOL    HW2 9282   1.020   1.197   2.266
 2795SOL     OW 9283   1.159   3.290   0.699
 2795SOL    HW1 9284   1.182   3.357   0.769
 2795SOL    HW2 9285   1.209   3.205   0.718
 2796SOL     OW 9286   4.128   4.989   2.376
 2796SOL    HW1 9287   4.180   5.016   2.294
 2796SOL    HW2 9288   4.172   5.028   2.457
 2797SOL     OW 9289   4.936   4.461   5.341
 2797SOL    HW1 9290   4.887   4.385   5.298
 2797SOL    HW2 9291   4.985   4.428   5.421
 2798SOL     OW 9292   2.168   3.835   3.132
 2798SOL    HW1 9293   2.175   3.929   3.096
 2798SOL    HW2 9294   2.124   3.777   3.064
 2799SOL     OW 9295   6.701   5.615   6.874
 2799SOL    HW1 9296   6.707   5.705   6.916
 2799SOL    HW2 9297   6.619   5.568   6.906
 2800SOL     OW 9298   2.681   0.693   6.214
 2800SOL    HW1 9299   2.757   0.698   6.279
 2800SOL    HW2 9300   2.692   0.763   6.144
 2801SOL     OW 9301   4.212   5.454   2.122
 2801SOL    HW1 9302   4.293   5.412   2.164
 2801SOL    HW2 9303   4.229   5.469   2.025
 2802SOL     OW 9304   6.324   0.051   6.444
 2802SOL    HW1 9305   6.423   0.050   6.433
 2802SOL    HW2 9306   6.301   0.031   6.540
 2803SOL     OW 9307   2.561   6.154   4.630
 2803SOL    HW1 9308   2.548   6.063   4.670
 2803SOL    HW2 9309   2.471   6.195   4.612
 2804SOL     OW 9310   0.734   5.323   2.388
 2804SOL    HW1 9311   0.726   5.340   2.290
 2804SOL    HW2 9312   0.803   5.253   2.405
 2805SOL     OW 9313   6.730   4.669   6.420
 2805SOL    HW1 9314   6.705   4.642   6.327
 2805SOL    HW2 9315   6.742   4.768   6.424
 2806SOL     OW 9316   5.616   4.218   2.820
 2806SOL    HW1 9317   5.666   4.281   2.761
 2806SOL    HW2 9318   5.632   4.124   2.791
 2807SOL     OW 9319   3.731   4.934   4.063
 2807SOL    HW1 9320   3.661   4.864   4.044
 2807SOL    HW2 9321   3.822   4.894   4.054
 2808SOL     OW 9322   4.652   6.978   4.275
 2808SOL    HW1 9323   4.732   6.998   4.331
 2808SOL    HW2 9324   4.585   6.929   4.330
 2809SOL     OW 9325   5.418   2.127   0.684
 2809SOL    HW1 9326   5.511   2.162   0.671
 2809SOL    HW2 9327   5.372   2.122   0.595
 2810SOL     OW 9328   2.884   1.275   6.316
 2810SOL    HW1 9329   2.814   1.258   6.246
 2810SOL    HW2 9330   2.922   1.188   6.347
 2811SOL     OW 9331   0.172   0.548   4.260
 2811SOL    HW1 9332   0.093   0.549   4.320
 2811SOL    HW2 9333   0.256   0.539   4.314
 2812SOL     OW 9334   4.989   4.556   2.598
 2812SOL    HW1 9335   5.047   4.638   2.601
 2812SOL    HW2 9336   5.023   4.489   2.663
 2813SOL     OW 9337   6.841   1.846   6.107
 2813SOL    HW1 9338   6.781   1.862   6.028
 2813SOL    HW2 9339   6.817   1.760   6.151
 2814SOL     OW 9340   5.661   4.555   5.718
 2814SOL    HW1 9341   5.746   4.520   5.756
 2814SOL    HW2 9342   5.603   4.590   5.792
 2815SOL     OW 9343   1.488   1.239   4.124
 2815SOL    HW1 9344   1.405   1.200   4.165
 2815SOL    HW2 9345   1.463   1.294   4.045
 2816SOL     OW 9346   4.254   6.359   3.572
 2816SOL    HW1 9347   4.309   6.294   3.519
 2816SOL    HW2 9348   4.251   6.329   3.667
 2817SOL     OW 9349   1.429   1.179   1.470
 2817SOL    HW1 9350   1.462   1.256   1.524
 2817SOL    HW2 9351   1.479   1.173   1.384
 2818SOL     OW 9352   1.356   2.179   6.511
 2818SOL    HW1 9353   1.427   2.250   6.505
 2818SOL    HW2 9354   1.270   2.216   6.476
 2819SOL     OW 9355   6.351   3.566   2.317
 2819SOL    HW1 9356   6.300   3.542   2.234
 2819SOL    HW2 9357   6.295   3.545   2.397
 2820SOL     OW 9358   5.474   3.210   3.995
 2820SOL    HW1 9359   5.521   3.276   3.936
 2820SOL    HW2 9360   5.531   3.190   4.074
 2821SOL     OW 9361   1.655   3.606   2.783
 2821SOL    HW1 9362   1.664   3.516   2.740
 2821SOL    HW2 9363   1.658   3.677   2.712
 2822SOL     OW 9364   3.491   2.399   0.642
 2822SOL    HW1 9365   3.530   2.484   0.676
 2822SOL    HW2 9366   3.479   2.405   0.543
 2823SOL     OW 9367   1.099   0.839   4.374
 2823SOL    HW1 9368   1.105   0.855   4.276
 2823SOL    HW2 9369   1.120   0.923   4.423
 2824SOL     OW 9370   3.704   2.938   5.931
 2824SOL    HW1 9371   3.755   2.887   5.862
 2824SOL    HW2 9372   3.672   2.874   6.002
 2825SOL     OW 9373   5.515   6.172   0.994
 2825SOL    HW1 9374   5.526   6.260   0.948
 2825SOL    HW2 9375   5.574   6.168   1.074
 2826SOL     OW 9376   5.410   3.896   5.085
 2826SOL    HW1 9377   5.478   3.825   5.071
 2826SOL    HW2 9378   5.321   3.854   5.104
 2827SOL     OW 9379   0.445   6.850   6.064
 2827SOL    HW1 9380   0.391   6.863   6.147
 2827SOL    HW2 9381   0.500   6.767   6.073
 2828SOL     OW 9382   3.499   2.380   6.167
 2828SOL    HW1 9383   3.522   2.306   6.103
 2828SOL    HW2 9384   3.557   2.459   6.149
 2829SOL     OW 9385   2.872   1.259   0.180
 2829SOL    HW1 9386   2.803   1.262   0.108
 2829SOL    HW2 9387   2.831   1.222   0.264
 2830SOL     OW 9388   3.256   4.033   0.241
 2830SOL    HW1 9389   3.203   4.118   0.245
 2830SOL    HW2 9390   3.234   3.984   0.157
 2831SOL     OW 9391   6.197   6.484   4.166
 2831SOL    HW1 9392   6.171   6.578   4.189
 2831SOL    HW2 9393   6.148   6.420   4.226
 2832SOL     OW 9394   0.544   0.853   2.275
 2832SOL    HW1 9395   0.529   0.755   2.288
 2832SOL    HW2 9396   0.642   0.873   2.281
 2833SOL     OW 9397   5.411   2.687   2.584
 2833SOL    HW1 9398   5.366   2.660   2.670
 2833SOL    HW2 9399   5.500   2.727   2.605
 2834SOL     OW 9400   4.694   1.107   4.744
 2834SOL    HW1 9401   4.768   1.039   4.746
 2834SOL    HW2 9402   4.698   1.158   4.658
 2835SOL     OW 9403   6.213   6.345   2.983
 2835SOL    HW1 9404   6.229   6.437   3.018
 2835SOL    HW2 9405   6.245   6.278   3.050
 2836SOL     OW 9406   6.441   6.833   1.402
 2836SOL    HW1 9407   6.442   6.847   1.303
 2836SOL    HW2 9408   6.522   6.781   1.429
 2837SOL     OW 9409   5.925   2.191   4.312
 2837SOL    HW1 9410   5.864   2.149   4.245
 2837SOL    HW2 9411   5.879   2.195   4.401
 2838SOL     OW 9412   1.812   4.872   4.076
 2838SOL    HW1 9413   1.733   4.908   4.125
 2838SOL    HW2 9414   1.896   4.901   4.121
 2839SOL     OW 9415   5.077   2.955   1.395
 2839SOL    HW1 9416   5.107   2.882   1.334
 2839SOL    HW2 9417   5.013   2.918   1.462
 2840SOL     OW 9418   0.621   2.753   5.303
 2840SOL    HW1 9419   0.601   2.737   5.400
 2840SOL    HW2 9420   0.687   2.686   5.271
 2841SOL     OW 9421   0.095   5.843   0.083
 2841SOL    HW1 9422   0.108   5.761   0.027
 2841SOL    HW2 9423   0.074   5.816   0.177
 2842SOL     OW 9424   5.246   3.179   2.799
 2842SOL    HW1 9425   5.156   3.218   2.819
 2842SOL    HW2 9426   5.236   3.106   2.732
 2843SOL     OW 9427   4.023   0.441   3.661
 2843SOL    HW1 9428   3.967   0.524   3.660
 2843SOL    HW2 9429   3.971   0.366   3.704
 2844SOL     OW 9430   1.250   3.892   4.897
 2844SOL    HW1 9431   1.344   3.888   4.931
 2844SOL    HW2 9432   1.212   3.800   4.895
 2845SOL     OW 9433   0.691   4.359   6.331
 2845SOL    HW1 9434   0.732   4.384   6.418
 2845SOL    HW2 9435   0.591   4.354   6.341
 2846SOL     OW 9436   5.441   0.813   5.805
 2846SOL    HW1 9437   5.355   0.762   5.803
 2846SOL    HW2 9438   5.483   0.803   5.895
 2847SOL     OW 9439   4.038   4.923   4.401
 2847SOL    HW1 9440   3.984   4.976   4.336
 2847SOL    HW2 9441   3.976   4.879   4.467
 2848SOL     OW 9442   1.840   6.782   6.118
 2848SOL    HW1 9443   1.832   6.690   6.157
 2848SOL    HW2 9444   1.861   6.775   6.020
 2849SOL     OW 9445   2.325   2.472   1.396
 2849SOL    HW1 9446   2.272   2.550   1.364
 2849SOL    HW2 9447   2.413   2.504   1.432
 2850SOL     OW 9448   4.502   1.448   0.410
 2850SOL    HW1 9449   4.602   1.451   0.402
 2850SOL    HW2 9450   4.476   1.446   0.506
 2851SOL     OW 9451   3.316   5.957   5.391
 2851SOL    HW1 9452   3.389   5.912   5.340
 2851SOL    HW2 9453   3.350   5.983   5.482
 2852SOL     OW 9454   0.223   2.256   6.844
 2852SOL    HW1 9455   0.224   2.355   6.830
 2852SOL    HW2 9456   0.250   2.210   6.760
 2853SOL     OW 9457   3.868   3.019   1.379
 2853SOL    HW1 9458   3.821   3.073   1.449
 2853SOL    HW2 9459   3.831   3.041   1.289
 2854SOL     OW 9460   0.420   1.375   4.006
 2854SOL    HW1 9461   0.330   1.351   4.043
 2854SOL    HW2 9462   0.447   1.308   3.937
 2855SOL     OW 9463   3.153   1.679   3.632
 2855SOL    HW1 9464   3.156   1.670   3.731
 2855SOL    HW2 9465   3.073   1.733   3.605
 2856SOL     OW 9466   3.279   1.337   5.187
 2856SOL    HW1 9467   3.306   1.380   5.274
 2856SOL    HW2 9468   3.360   1.302   5.140
 2857SOL     OW 9469   3.076   3.349   5.580
 2857SOL    HW1 9470   3.019   3.386   5.652
 2857SOL    HW2 9471   3.072   3.249   5.582
 2858SOL     OW 9472   5.336   2.823   3.089
 2858SOL    HW1 9473   5.394   2.742   3.099
 2858SOL    HW2 9474   5.282   2.835   3.172
 2859SOL     OW 9475   6.121   5.109   0.051
 2859SOL    HW1 9476   6.203   5.160   0.025
 2859SOL    HW2 9477   6.123   5.019   0.008
 2860SOL     OW 9478   4.403   2.181   0.790
 2860SOL    HW1 9479   4.369   2.207   0.880
 2860SOL    HW2 9480   4.494   2.221   0.776
 2861SOL     OW 9481   4.589   4.214   5.819
 2861SOL    HW1 9482   4.677   4.228   5.773
 2861SOL    HW2 9483   4.589   4.263   5.906
 2862SOL     OW 9484   6.758   6.446   3.491
 2862SOL    HW1 9485   6.823   6.405   3.428
 2862SOL    HW2 9486   6.802   6.519   3.543
 2863SOL     OW 9487   6.207   6.176   6.964
 2863SOL    HW1 9488   6.155   6.179   0.034
 2863SOL    HW2 9489   6.144   6.159   6.888
 2864SOL     OW 9490   4.270   2.209   0.210
 2864SOL    HW1 9491   4.306   2.213   0.304
 2864SOL    HW2 9492   4.300   2.290   0.160
 2865SOL     OW 9493   4.724   4.815   5.005
 2865SOL    HW1 9494   4.806   4.862   4.970
 2865SOL    HW2 9495   4.752   4.735   5.057
 2866SOL     OW 9496   0.817   0.233   6.523
 2866SOL    HW1 9497   0.866   0.280   6.450
 2866SOL    HW2 9498   0.852   0.140   6.532
 2867SOL     OW 9499   6.210   3.950   4.821
 2867SOL    HW1 9500   6.179   4.034   4.777
 2867SOL    HW2 9501   6.266   3.898   4.757
 2868SOL     OW 9502   2.182   5.089   4.913
 2868SOL    HW1 9503   2.097   5.107   4.963
 2868SOL    HW2 9504   2.160   5.052   4.823
 2869SOL     OW 9505   5.969   1.650   2.643
 2869SOL    HW1 9506   6.017   1.722   2.593
 2869SOL    HW2 9507   6.033   1.577   2.665
 2870SOL     OW 9508   4.382   1.710   1.759
 2870SOL    HW1 9509   4.400   1.696   1.857
 2870SOL    HW2 9510   4.284   1.718   1.744
 2871SOL     OW 9511   1.311   1.383   5.799
 2871SOL    HW1 9512   1.324   1.455   5.868
 2871SOL    HW2 9513   1.342   1.416   5.710
 2872SOL     OW 9514   1.252   0.630   3.954
 2872SOL    HW1 9515   1.298   0.616   4.042
 2872SOL    HW2 9516   1.180   0.562   3.942
 2873SOL     OW 9517   6.186   4.925   2.380
 2873SOL    HW1 9518   6.231   4.981   2.449
 2873SOL    HW2 9519   6.093   4.958   2.366
 2874SOL     OW 9520   5.307   1.812   1.613
 2874SOL    HW1 9521   5.391   1.778   1.653
 2874SOL    HW2 9522   5.228   1.776   1.664
 2875SOL     OW 9523   2.688   5.318   0.462
 2875SOL    HW1 9524   2.712   5.250   0.393
 2875SOL    HW2 9525   2.589   5.320   0.474
 2876SOL     OW 9526   5.801   1.899   1.685
 2876SOL    HW1 9527   5.857   1.826   1.648
 2876SOL    HW2 9528   5.718   1.909   1.631
 2877SOL     OW 9529   1.578   3.687   5.334
 2877SOL    HW1 9530   1.577   3.673   5.235
 2877SOL    HW2 9531   1.615   3.606   5.380
 2878SOL     OW 9532   5.021   4.904   0.749
 2878SOL    HW1 9533   5.121   4.905   0.748
 2878SOL    HW2 9534   4.988   4.998   0.735
 2879SOL     OW 9535   5.206   4.734   6.892
 2879SOL    HW1 9536   5.175   4.650   6.936
 2879SOL    HW2 9537   5.134   4.803   6.896
 2880SOL     OW 9538   1.561   6.947   3.636
 2880SOL    HW1 9539   1.493   6.895   3.689
 2880SOL    HW2 9540   1.572   6.905   3.546
 2881SOL     OW 9541   6.729   0.457   0.061
 2881SOL    HW1 9542   6.820   0.432   0.028
 2881SOL    HW2 9543   6.737   0.538   0.119
 2882SOL     OW 9544   6.525   4.347   3.435
 2882SOL    HW1 9545   6.476   4.408   3.497
 2882SOL    HW2 9546   6.513   4.379   3.341
 2883SOL     OW 9547   3.330   6.714   2.319
 2883SOL    HW1 9548   3.346   6.787   2.252
 2883SOL    HW2 9549   3.232   6.699   2.330
 2884SOL     OW 9550   2.114   5.016   3.082
 2884SOL    HW1 9551   2.067   5.023   3.171
 2884SOL    HW2 9552   2.213   5.021   3.097
 2885SOL     OW 9553   1.174   2.287   4.755
 2885SOL    HW1 9554   1.265   2.253   4.776
 2885SOL    HW2 9555   1.140   2.242   4.672
 2886SOL     OW 9556   2.704   2.783   6.383
 2886SOL    HW1 9557   2.675   2.874   6.413
 2886SOL    HW2 9558   2.802   2.773   6.395
 2887SOL     OW 9559   2.551   0.354   5.363
 2887SOL    HW1 9560   2.609   0.326   5.439
 2887SOL    HW2 9561   2.570   0.296   5.283
 2888SOL     OW 9562   0.414   5.563   0.042
 2888SOL    HW1 9563   0.457   5.472   0.042
 2888SOL    HW2 9564   0.324   5.556   7.016
 2889SOL     OW 9565   1.457   1.051   0.801
 2889SOL    HW1 9566   1.550   1.039   0.837
 2889SOL    HW2 9567   1.426   0.965   0.760
 2890SOL     OW 9568   2.445   0.553   0.347
 2890SOL    HW1 9569   2.347   0.556   0.362
 2890SOL    HW2 9570   2.464   0.526   0.253
 2891SOL     OW 9571   3.098   4.705   5.242
 2891SOL    HW1 9572   3.035   4.632   5.217
 2891SOL    HW2 9573   3.050   4.774   5.296
 2892SOL     OW 9574   4.040   4.059   5.241
 2892SOL    HW1 9575   4.109   4.131   5.233
 2892SOL    HW2 9576   4.085   3.970   5.244
 2893SOL     OW 9577   2.756   0.594   5.202
 2893SOL    HW1 9578   2.814   0.528   5.154
 2893SOL    HW2 9579   2.694   0.546   5.264
 2894SOL     OW 9580   4.047   3.116   2.471
 2894SOL    HW1 9581   4.062   3.172   2.553
 2894SOL    HW2 9582   4.081   3.165   2.391
 2895SOL     OW 9583   3.842   2.640   0.054
 2895SOL    HW1 9584   3.849   2.693   6.986
 2895SOL    HW2 9585   3.754   2.592   0.057
 2896SOL     OW 9586   1.119   4.834   6.944
 2896SOL    HW1 9587   1.194   4.824   7.009
 2896SOL    HW2 9588   1.128   4.765   6.872
 2897SOL     OW 9589   0.090   0.147   3.098
 2897SOL    HW1 9590   0.153   0.217   3.133
 2897SOL    HW2 9591   0.143   0.073   3.057
 2898SOL     OW 9592   1.934   5.232   2.698
 2898SOL    HW1 9593   1.863   5.301   2.678
 2898SOL    HW2 9594   1.941   5.219   2.796
 2899SOL     OW 9595   5.639   0.868   0.850
 2899SOL    HW1 9596   5.648   0.898   0.755
 2899SOL    HW2 9597   5.719   0.813   0.875
 2900SOL     OW 9598   2.453   5.645   6.806
 2900SOL    HW1 9599   2.551   5.623   6.810
 2900SOL    HW2 9600   2.413   5.605   6.724
 2901SOL     OW 9601   2.837   6.859   1.367
 2901SOL    HW1 9602   2.894   6.937   1.395
 2901SOL    HW2 9603   2.879   6.812   1.290
 2902SOL     OW 9604   4.494   5.397   1.392
 2902SOL    HW1 9605   4.446   5.441   1.316
 2902SOL    HW2 9606   4.593   5.414   1.383
 2903SOL     OW 9607   3.146   2.387   1.705
 2903SOL    HW1 9608   3.083   2.398   1.781
 2903SOL    HW2 9609   3.120   2.306   1.651
 2904SOL     OW 9610   2.960   2.193   4.480
 2904SOL    HW1 9611   3.000   2.178   4.390
 2904SOL    HW2 9612   2.893   2.267   4.476
 2905SOL     OW 9613   0.917   2.463   2.045
 2905SOL    HW1 9614   0.988   2.393   2.053
 2905SOL    HW2 9615   0.958   2.553   2.059
 2906SOL     OW 9616   4.957   5.200   2.833
 2906SOL    HW1 9617   5.033   5.146   2.797
 2906SOL    HW2 9618   4.987   5.246   2.917
 2907SOL     OW 9619   5.839   0.186   4.846
 2907SOL    HW1 9620   5.824   0.087   4.859
 2907SOL    HW2 9621   5.812   0.211   4.753
 2908SOL     OW 9622   4.212   6.169   4.553
 2908SOL    HW1 9623   4.231   6.240   4.485
 2908SOL    HW2 9624   4.209   6.210   4.644
 2909SOL     OW 9625   2.254   5.824   6.087
 2909SOL    HW1 9626   2.268   5.727   6.109
 2909SOL    HW2 9627   2.164   5.853   6.121
 2910SOL     OW 9628   3.824   5.239   5.262
 2910SOL    HW1 9629   3.891   5.165   5.262
 2910SOL    HW2 9630   3.765   5.230   5.343
 2911SOL     OW 9631   2.656   4.607   2.865
 2911SOL    HW1 9632   2.629   4.517   2.901
 2911SOL    HW2 9633   2.621   4.617   2.772
 2912SOL     OW 9634   2.911   5.167   1.280
 2912SOL    HW1 9635   2.851   5.243   1.255
 2912SOL    HW2 9636   2.948   5.126   1.197
 2913SOL     OW 9637   0.137   2.896   1.357
 2913SOL    HW1 9638   0.166   2.856   1.270
 2913SOL    HW2 9639   0.067   2.965   1.340
 2914SOL     OW 9640   5.130   4.382   6.400
 2914SOL    HW1 9641   5.173   4.312   6.342
 2914SOL    HW2 9642   5.034   4.359   6.414
 2915SOL     OW 9643   4.464   0.866   3.128
 2915SOL    HW1 9644   4.450   0.964   3.116
 2915SOL    HW2 9645   4.523   0.831   3.055
 2916SOL     OW 9646   4.977   0.568   4.188
 2916SOL    HW1 9647   5.043   0.558   4.262
 2916SOL    HW2 9648   5.021   0.612   4.109
 2917SOL     OW 9649   3.932   0.600   2.463
 2917SOL    HW1 9650   3.919   0.690   2.504
 2917SOL    HW2 9651   3.887   0.598   2.373
 2918SOL     OW 9652   1.375   3.043   4.680
 2918SOL    HW1 9653   1.368   2.969   4.747
 2918SOL    HW2 9654   1.411   3.125   4.724
 2919SOL     OW 9655   5.397   5.177   0.423
 2919SOL    HW1 9656   5.482   5.147   0.467
 2919SOL    HW2 9657   5.403   5.160   0.325
 2920SOL     OW 9658   4.271   1.406   2.879
 2920SOL    HW1 9659   4.244   1.378   2.787
 2920SOL    HW2 9660   4.370   1.420   2.882
 2921SOL     OW 9661   6.574   1.113   0.102
 2921SOL    HW1 9662   6.662   1.070   0.083
 2921SOL    HW2 9663   6.589   1.201   0.148
 2922SOL     OW 9664   4.806   0.503   4.381
 2922SOL    HW1 9665   4.867   0.512   4.303
 2922SOL    HW2 9666   4.727   0.563   4.368
 2923SOL     OW 9667   0.045   4.428   0.366
 2923SOL    HW1 9668   0.026   4.515   0.320
 2923SOL    HW2 9669   0.094   4.368   0.303
 2924SOL     OW 9670   6.119   6.658   6.389
 2924SOL    HW1 9671   6.066   6.729   6.436
 2924SOL    HW2 9672   6.156   6.594   6.456
 2925SOL     OW 9673   6.485   4.670   0.649
 2925SOL    HW1 9674   6.553   4.652   0.721
 2925SOL    HW2 9675   6.524   4.646   0.560
 2926SOL     OW 9676   0.142   1.676   2.803
 2926SOL    HW1 9677   0.205   1.647   2.875
 2926SOL    HW2 9678   0.189   1.672   2.714
 2927SOL     OW 9679   7.006   2.929   2.751
 2927SOL    HW1 9680   6.915   2.927   2.791
 2927SOL    HW2 9681   0.056   2.961   2.819
 2928SOL     OW 9682   5.563   6.094   0.721
 2928SOL    HW1 9683   5.578   5.995   0.725
 2928SOL    HW2 9684   5.482   6.118   0.774
 2929SOL     OW 9685   6.979   0.716   5.700
 2929SOL    HW1 9686   6.912   0.713   5.626
 2929SOL    HW2 9687   6.934   0.691   5.786
 2930SOL     OW 9688   2.257   6.958   4.363
 2930SOL    HW1 9689   2.199   6.994   4.436
 2930SOL    HW2 9690   2.283   0.017   4.302
 2931SOL     OW 9691   4.788   4.521   6.451
 2931SOL    HW1 9692   4.842   4.437   6.447
 2931SOL    HW2 9693   4.839   4.595   6.409
 2932SOL     OW 9694   0.604   4.984   1.870
 2932SOL    HW1 9695   0.601   5.001   1.969
 2932SOL    HW2 9696   0.679   5.038   1.831
 2933SOL     OW 9697   4.734   2.293   3.218
 2933SOL    HW1 9698   4.702   2.386   3.198
 2933SOL    HW2 9699   4.811   2.297   3.281
 2934SOL     OW 9700   1.770   1.146   1.762
 2934SOL    HW1 9701   1.838   1.176   1.828
 2934SOL    HW2 9702   1.756   1.217   1.694
 2935SOL     OW 9703   0.248   1.098   1.261
 2935SOL    HW1 9704   0.291   1.101   1.171
 2935SOL    HW2 9705   0.312   1.132   1.330
 2936SOL     OW 9706   4.312   4.854   1.519
 2936SOL    HW1 9707   4.313   4.919   1.594
 2936SOL    HW2 9708   4.289   4.763   1.553
 2937SOL     OW 9709   2.470   4.446   0.716
 2937SOL    HW1 9710   2.468   4.352   0.751
 2937SOL    HW2 9711   2.562   4.482   0.723
 2938SOL     OW 9712   4.619   5.699   0.194
 2938SOL    HW1 9713   4.695   5.653   0.148
 2938SOL    HW2 9714   4.543   5.711   0.130
 2939SOL     OW 9715   6.758   6.340   6.531
 2939SOL    HW1 9716   6.756   6.258   6.588
 2939SOL    HW2 9717   6.710   6.322   6.445
 2940SOL     OW 9718   3.634   0.162   5.555
 2940SOL    HW1 9719   3.670   0.139   5.465
 2940SOL    HW2 9720   3.582   0.247   5.549
 2941SOL     OW 9721   3.909   1.260   5.454
 2941SOL    HW1 9722   3.903   1.358   5.434
 2941SOL    HW2 9723   3.849   1.238   5.531
 2942SOL     OW 9724   3.015   6.674   3.773
 2942SOL    HW1 9725   3.091   6.677   3.839
 2942SOL    HW2 9726   3.011   6.583   3.731
 2943SOL     OW 9727   5.491   4.609   3.014
 2943SOL    HW1 9728   5.583   4.644   3.030
 2943SOL    HW2 9729   5.433   4.633   3.092
 2944SOL     OW 9730   5.304   5.407   0.593
 2944SOL    HW1 9731   5.299   5.366   0.502
 2944SOL    HW2 9732   5.300   5.506   0.585
 2945SOL     OW 9733   3.483   3.858   4.417
 2945SOL    HW1 9734   3.541   3.814   4.349
 2945SOL    HW2 9735   3.423   3.789   4.459
 2946SOL     OW 9736   1.335   6.161   5.123
 2946SOL    HW1 9737   1.418   6.107   5.110
 2946SOL    HW2 9738   1.288   6.172   5.035
 2947SOL     OW 9739   6.927   5.249   6.926
 2947SOL    HW1 9740   6.895   5.308   6.852
 2947SOL    HW2 9741   6.916   5.297   7.014
 2948SOL     OW 9742   6.518   3.204   5.240
 2948SOL    HW1 9743   6.600   3.251   5.208
 2948SOL    HW2 9744   6.538   3.106   5.248
 2949SOL     OW 9745   0.820   6.865   1.004
 2949SOL    HW1 9746   0.858   6.830   0.919
 2949SOL    HW2 9747   0.726   6.833   1.015
 2950SOL     OW 9748   5.172   3.809   4.962
 2950SOL    HW1 9749   5.204   3.851   4.877
 2950SOL    HW2 9750   5.077   3.780   4.951
 2951SOL     OW 9751   6.476   0.441   6.946
 2951SOL    HW1 9752   6.565   0.432   6.989
 2951SOL    HW2 9753   6.426   0.517   6.988
 2952SOL     OW 9754   0.478   3.592   1.934
 2952SOL    HW1 9755   0.518   3.683   1.926
 2952SOL    HW2 9756   0.545   3.523   1.905
 2953SOL     OW 9757   5.959   1.729   1.895
 2953SOL    HW1 9758   5.913   1.724   1.984
 2953SOL    HW2 9759   5.909   1.792   1.836
 2954SOL     OW 9760   4.691   6.349   1.972
 2954SOL    HW1 9761   4.711   6.444   1.997
 2954SOL    HW2 9762   4.767   6.291   1.999
 2955SOL     OW 9763   5.907   1.623   1.552
 2955SOL    HW1 9764   5.869   1.535   1.580
 2955SOL    HW2 9765   5.925   1.623   1.454
 2956SOL     OW 9766   5.298   5.931   3.205
 2956SOL    HW1 9767   5.351   5.862   3.255
 2956SOL    HW2 9768   5.290   5.903   3.109
 2957SOL     OW 9769   1.101   4.982   1.550
 2957SOL    HW1 9770   1.195   4.969   1.582
 2957SOL    HW2 9771   1.077   4.909   1.486
 2958SOL     OW 9772   2.474   4.912   6.426
 2958SOL    HW1 9773   2.531   4.990   6.403
 2958SOL    HW2 9774   2.398   4.942   6.484
 2959SOL     OW 9775   3.289   5.872   6.901
 2959SOL    HW1 9776   3.300   5.812   6.980
 2959SOL    HW2 9777   3.372   5.870   6.846
 2960SOL     OW 9778   3.157   1.242   0.070
 2960SOL    HW1 9779   3.058   1.230   0.079
 2960SOL    HW2 9780   3.204   1.161   0.103
 2961SOL     OW 9781   5.291   1.045   3.902
 2961SOL    HW1 9782   5.269   1.140   3.920
 2961SOL    HW2 9783   5.325   1.036   3.809
 2962SOL     OW 9784   4.252   0.218   2.559
 2962SOL    HW1 9785   4.344   0.203   2.521
 2962SOL    HW2 9786   4.205   0.130   2.568
 2963SOL     OW 9787   2.296   2.922   4.766
 2963SOL    HW1 9788   2.281   3.020   4.751
 2963SOL    HW2 9789   2.344   2.909   4.853
 2964SOL     OW 9790   2.276   6.044   0.034
 2964SOL    HW1 9791   2.362   6.092   0.051
 2964SOL    HW2 9792   2.289   5.946   0.053
 2965SOL     OW 9793   1.199   2.799   5.925
 2965SOL    HW1 9794   1.216   2.872   5.990
 2965SOL    HW2 9795   1.116   2.819   5.873
 2966SOL     OW 9796   4.488   5.106   2.568
 2966SOL    HW1 9797   4.482   5.021   2.620
 2966SOL    HW2 9798   4.494   5.183   2.631
 2967SOL     OW 9799   5.706   2.904   4.337
 2967SOL    HW1 9800   5.668   2.819   4.300
 2967SOL    HW2 9801   5.790   2.884   4.387
 2968SOL     OW 9802   6.499   4.325   4.306
 2968SOL    HW1 9803   6.457   4.409   4.273
 2968SOL    HW2 9804   6.551   4.283   4.231
 2969SOL     OW 9805   3.715   1.461   5.150
 2969SOL    HW1 9806   3.640   1.395   5.148
 2969SOL    HW2 9807   3.679   1.552   5.169
 2970SOL     OW 9808   1.078   4.077   6.288
 2970SOL    HW1 9809   1.077   4.025   6.202
 2970SOL    HW2 9810   0.985   4.085   6.323
 2971SOL     OW 9811   5.813   3.041   1.822
 2971SOL    HW1 9812   5.862   3.127   1.806
 2971SOL    HW2 9813   5.715   3.059   1.821
 2972SOL     OW 9814   0.616   4.486   4.153
 2972SOL    HW1 9815   0.684   4.555   4.128
 2972SOL    HW2 9816   0.593   4.496   4.250
 2973SOL     OW 9817   5.990   0.164   4.319
 2973SOL    HW1 9818   5.954   0.189   4.230
 2973SOL    HW2 9819   5.957   0.073   4.345
 2974SOL     OW 9820   6.195   3.965   1.400
 2974SOL    HW1 9821   6.207   3.866   1.398
 2974SOL    HW2 9822   6.101   3.987   1.428
 2975SOL     OW 9823   6.152   1.940   3.885
 2975SOL    HW1 9824   6.077   1.936   3.819
 2975SOL    HW2 9825   6.150   2.028   3.933
 2976SOL     OW 9826   2.308   5.842   1.007
 2976SOL    HW1 9827   2.241   5.793   1.062
 2976SOL    HW2 9828   2.265   5.923   0.966
 2977SOL     OW 9829   2.256   0.093   3.259
 2977SOL    HW1 9830   2.248   0.008   3.205
 2977SOL    HW2 9831   2.352   0.107   3.283
 2978SOL     OW 9832   2.128   0.103   6.632
 2978SOL    HW1 9833   2.124   0.172   6.560
 2978SOL    HW2 9834   2.073   0.023   6.605
 2979SOL     OW 9835   2.245   1.284   3.314
 2979SOL    HW1 9836   2.233   1.383   3.314
 2979SOL    HW2 9837   2.163   1.241   3.352
 2980SOL     OW 9838   5.909   0.294   3.523
 2980SOL    HW1 9839   5.987   0.354   3.505
 2980SOL    HW2 9840   5.856   0.282   3.439
 2981SOL     OW 9841   1.030   0.896   5.699
 2981SOL    HW1 9842   1.011   0.991   5.720
 2981SOL    HW2 9843   0.992   0.873   5.610
 2982SOL     OW 9844   5.045   5.864   2.047
 2982SOL    HW1 9845   5.014   5.815   1.966
 2982SOL    HW2 9846   5.121   5.924   2.023
 2983SOL     OW 9847   0.605   1.500   3.069
 2983SOL    HW1 9848   0.673   1.535   3.133
 2983SOL    HW2 9849   0.651   1.454   2.993
 2984SOL     OW 9850   6.391   4.260   1.804
 2984SOL    HW1 9851   6.455   4.300   1.738
 2984SOL    HW2 9852   6.442   4.201   1.867
 2985SOL     OW 9853   6.564   2.096   3.155
 2985SOL    HW1 9854   6.530   2.181   3.198
 2985SOL    HW2 9855   6.551   2.102   3.056
 2986SOL     OW 9856   2.009   3.420   4.323
 2986SOL    HW1 9857   1.987   3.478   4.401
 2986SOL    HW2 9858   1.926   3.373   4.292
 2987SOL     OW 9859   5.149   1.659   4.824
 2987SOL    HW1 9860   5.239   1.701   4.816
 2987SOL    HW2 9861   5.090   1.716   4.881
 2988SOL     OW 9862   0.565   1.325   2.639
 2988SOL    HW1 9863   0.468   1.330   2.614
 2988SOL    HW2 9864   0.582   1.241   2.691
 2989SOL     OW 9865   0.120   5.200   0.795
 2989SOL    HW1 9866   0.089   5.108   0.816
 2989SOL    HW2 9867   0.147   5.205   0.698
 2990SOL     OW 9868   2.692   1.602   1.074
 2990SOL    HW1 9869   2.740   1.562   0.997
 2990SOL    HW2 9870   2.755   1.614   1.151
 2991SOL     OW 9871   5.959   4.325   0.166
 2991SOL    HW1 9872   5.907   4.392   0.113
 2991SOL    HW2 9873   5.993   4.254   0.105
 2992SOL     OW 9874   3.887   4.921   6.604
 2992SOL    HW1 9875   3.847   5.011   6.588
 2992SOL    HW2 9876   3.907   4.911   6.702
 2993SOL     OW 9877   0.979   4.098   0.032
 2993SOL    HW1 9878   0.935   4.010   0.018
 2993SOL    HW2 9879   1.008   4.106   0.127
 2994SOL     OW 9880   4.258   6.730   6.272
 2994SOL    HW1 9881   4.218   6.820   6.259
 2994SOL    HW2 9882   4.282   6.718   6.369
 2995SOL     OW 9883   2.668   0.836   5.307
 2995SOL    HW1 9884   2.728   0.910   5.338
 2995SOL    HW2 9885   2.712   0.786   5.233
 2996SOL     OW 9886   4.567   6.320   6.076
 2996SOL    HW1 9887   4.512   6.345   5.996
 2996SOL    HW2 9888   4.660   6.354   6.064
 2997SOL     OW 9889   3.574   5.656   0.637
 2997SOL    HW1 9890   3.527   5.665   0.549
 2997SOL    HW2 9891   3.641   5.729   0.647
 2998SOL     OW 9892   6.631   3.867   6.300
 2998SOL    HW1 9893   6.592   3.938   6.357
 2998SOL    HW2 9894   6.704   3.906   6.243
 2999SOL     OW 9895   3.000   1.516   1.531
 2999SOL    HW1 9896   2.963   1.562   1.450
 2999SOL    HW2 9897   3.076   1.457   1.503
 3000SOL     OW 9898   1.463   2.010   5.190
 3000SOL    HW1 9899   1.441   2.043   5.099
 3000SOL    HW2 9900   1.391   1.947   5.222
 3001SOL     OW 9901   4.863   5.840   6.000
 3001SOL    HW1 9902   4.899   5.928   5.968
 3001SOL    HW2 9903   4.925   5.766   5.972
 3002SOL     OW 9904   3.397   0.010   5.497
 3002SOL    HW1 9905   3.471   0.066   5.533
 3002SOL    HW2 9906   3.357   0.054   5.417
 3003SOL     OW 9907   1.537   0.351   5.569
 3003SOL    HW1 9908   1.603   0.380   5.638
 3003SOL    HW2 9909   1.489   0.431   5.533
 3004SOL     OW 9910   0.144   3.199   6.096
 3004SOL    HW1 9911   0.176   3.292   6.077
 3004SOL    HW2 9912   0.216   3.134   6.073
 3005SOL     OW 9913   4.801   2.068   0.739
 3005SOL    HW1 9914   4.723   2.005   0.733
 3005SOL    HW2 9915   4.822   2.086   0.836
 3006SOL     OW 9916   4.245   6.387   2.021
 3006SOL    HW1 9917   4.298   6.402   2.104
 3006SOL    HW2 9918   4.234   6.289   2.005
 3007SOL     OW 9919   5.520   5.411   1.635
 3007SOL    HW1 9920   5.479   5.399   1.544
 3007SOL    HW2 9921   5.527   5.321   1.680
 3008SOL     OW 9922   4.707   5.109   5.798
 3008SOL    HW1 9923   4.773   5.183   5.810
 3008SOL    HW2 9924   4.743   5.042   5.733
 3009SOL     OW 9925   1.734   0.373   1.859
 3009SOL    HW1 9926   1.683   0.432   1.795
 3009SOL    HW2 9927   1.670   0.324   1.918
 3010SOL     OW 9928   3.273   0.424   3.885
 3010SOL    HW1 9929   3.254   0.435   3.788
 3010SOL    HW2 9930   3.334   0.346   3.899
 3011SOL     OW 9931   5.209   0.401   0.310
 3011SOL    HW1 9932   5.225   0.493   0.273
 3011SOL    HW2 9933   5.124   0.364   0.273
 3012SOL     OW 9934   0.044   4.958   1.615
 3012SOL    HW1 9935   0.103   5.037   1.626
 3012SOL    HW2 9936   6.974   4.973   1.664
 3013SOL     OW 9937   5.696   4.636   1.590
 3013SOL    HW1 9938   5.762   4.696   1.544
 3013SOL    HW2 9939   5.672   4.675   1.679
 3014SOL     OW 9940   5.693   5.433   5.234
 3014SOL    HW1 9941   5.614   5.443   5.174
 3014SOL    HW2 9942   5.720   5.522   5.270
 3015SOL     OW 9943   3.280   1.221   0.446
 3015SOL    HW1 9944   3.269   1.301   0.506
 3015SOL    HW2 9945   3.355   1.238   0.381
 3016SOL     OW 9946   4.330   6.329   4.380
 3016SOL    HW1 9947   4.357   6.409   4.433
 3016SOL    HW2 9948   4.346   6.347   4.282
 3017SOL     OW 9949   0.740   6.646   2.268
 3017SOL    HW1 9950   0.740   6.601   2.179
 3017SOL    HW2 9951   0.834   6.653   2.302
 3018SOL     OW 9952   4.438   6.900   6.051
 3018SOL    HW1 9953   4.454   6.805   6.081
 3018SOL    HW2 9954   4.384   6.900   5.967
 3019SOL     OW 9955   4.819   0.724   1.646
 3019SOL    HW1 9956   4.838   0.800   1.708
 3019SOL    HW2 9957   4.721   0.713   1.635
 3020SOL     OW 9958   1.998   0.204   1.563
 3020SOL    HW1 9959   1.910   0.161   1.584
 3020SOL    HW2 9960   1.984   0.302   1.548
 3021SOL     OW 9961   4.405   0.456   6.241
 3021SOL    HW1 9962   4.394   0.358   6.254
 3021SOL    HW2 9963   4.320   0.496   6.207
 3022SOL     OW 9964   0.018   0.459   3.334
 3022SOL    HW1 9965   6.970   0.386   3.314
 3022SOL    HW2 9966   0.020   0.476   3.432
 3023SOL     OW 9967   5.816   0.290   1.712
 3023SOL    HW1 9968   5.858   0.200   1.724
 3023SOL    HW2 9969   5.739   0.283   1.649
 3024SOL     OW 9970   1.946   6.866   6.812
 3024SOL    HW1 9971   1.974   6.868   6.716
 3024SOL    HW2 9972   1.872   6.800   6.823
 3025SOL     OW 9973   2.115   2.418   2.372
 3025SOL    HW1 9974   2.196   2.376   2.331
 3025SOL    HW2 9975   2.096   2.505   2.326
 3026SOL     OW 9976   3.098   5.969   0.431
 3026SOL    HW1 9977   3.002   5.944   0.442
 3026SOL    HW2 9978   3.137   5.919   0.353
 3027SOL     OW 9979   1.269   2.274   4.161
 3027SOL    HW1 9980   1.171   2.258   4.173
 3027SOL    HW2 9981   1.283   2.351   4.098
 3028SOL     OW 9982   1.533   0.703   4.347
 3028SOL    HW1 9983   1.534   0.788   4.295
 3028SOL    HW2 9984   1.603   0.641   4.311
 3029SOL     OW 9985   6.568   5.056   5.908
 3029SOL    HW1 9986   6.658   5.077   5.946
 3029SOL    HW2 9987   6.502   5.042   5.983
 3030SOL     OW 9988   0.573   0.904   5.704
 3030SOL    HW1 9989   0.500   0.910   5.773
 3030SOL    HW2 9990   0.659   0.933   5.744
 3031SOL     OW 9991   6.913   5.523   6.115
 3031SOL    HW1 9992   7.002   5.533   6.159
 3031SOL    HW2 9993   6.876   5.613   6.094
 3032SOL     OW 9994   3.966   0.018   5.934
 3032SOL    HW1 9995   3.934   0.066   5.852
 3032SOL    HW2 9996   3.936   6.939   5.931
 3033SOL     OW 9997   5.007   4.484   5.976
 3033SOL    HW1 9998   5.069   4.426   5.922
 3033SOL    HW2 9999   4.931   4.514   5.918
 3034SOL     OW10000   2.713   6.752   5.206
 3034SOL    HW110001   2.756   6.670   5.244
 3034SOL    HW210002   2.621   6.762   5.245
 3035SOL     OW10003   5.896   6.458   0.055
 3035SOL    HW110004   5.848   6.407   0.127
 3035SOL    HW210005   5.966   6.516   0.097
 3036SOL     OW10006   0.553   5.144   5.716
 3036SOL    HW110007   0.522   5.139   5.811
 3036SOL    HW210008   0.474   5.134   5.655
 3037SOL     OW10009   5.118   6.172   6.474
 3037SOL    HW110010   5.051   6.103   6.504
 3037SOL    HW210011   5.108   6.255   6.529
 3038SOL     OW10012   5.741   5.724   5.326
 3038SOL    HW110013   5.749   5.735   5.425
 3038SOL    HW210014   5.751   5.814   5.282
 3039SOL     OW10015   0.578   4.532   0.673
 3039SOL    HW110016   0.532   4.445   0.687
 3039SOL    HW210017   0.555   4.595   0.747
 3040SOL     OW10018   2.786   0.855   0.533
 3040SOL    HW110019   2.699   0.805   0.537
 3040SOL    HW210020   2.844   0.825   0.608
 3041SOL     OW10021   1.882   2.044   5.980
 3041SOL    HW110022   1.913   2.057   5.886
 3041SOL    HW210023   1.961   2.029   6.039
 3042SOL     OW10024   5.368   0.451   1.178
 3042SOL    HW110025   5.413   0.362   1.166
 3042SOL    HW210026   5.434   0.524   1.160
 3043SOL     OW10027   0.395   4.672   6.707
 3043SOL    HW110028   0.309   4.623   6.725
 3043SOL    HW210029   0.376   4.769   6.691
 3044SOL     OW10030   2.560   2.861   6.677
 3044SOL    HW110031   2.571   2.929   6.604
 3044SOL    HW210032   2.528   2.906   6.760
 3045SOL     OW10033   4.649   2.514   4.547
 3045SOL    HW110034   4.718   2.575   4.585
 3045SOL    HW210035   4.574   2.502   4.613
 3046SOL     OW10036   2.883   2.423   5.565
 3046SOL    HW110037   2.935   2.433   5.480
 3046SOL    HW210038   2.835   2.509   5.584
 3047SOL     OW10039   6.592   5.141   1.847
 3047SOL    HW110040   6.674   5.119   1.794
 3047SOL    HW210041   6.560   5.232   1.823
 3048SOL     OW10042   3.337   2.949   2.253
 3048SOL    HW110043   3.276   2.971   2.178
 3048SOL    HW210044   3.413   2.893   2.219
 3049SOL     OW10045   1.021   0.800   0.498
 3049SOL    HW110046   0.992   0.735   0.569
 3049SOL    HW210047   0.952   0.802   0.426
 3050SOL     OW10048   1.343   0.514   4.289
 3050SOL    HW110049   1.285   0.507   4.370
 3050SOL    HW210050   1.403   0.593   4.298
 3051SOL     OW10051   2.984   4.927   5.373
 3051SOL    HW110052   2.906   4.897   5.428
 3051SOL    HW210053   3.013   5.018   5.402
 3052SOL     OW10054   4.961   6.163   2.562
 3052SOL    HW110055   5.024   6.237   2.539
 3052SOL    HW210056   5.013   6.082   2.588
 3053SOL     OW10057   3.627   6.243   1.787
 3053SOL    HW110058   3.533   6.268   1.811
 3053SOL    HW210059   3.685   6.324   1.792
 3054SOL     OW10060   1.595   4.513   5.016
 3054SOL    HW110061   1.555   4.424   5.038
 3054SOL    HW210062   1.693   4.502   4.999
 3055SOL     OW10063   6.279   6.653   2.358
 3055SOL    HW110064   6.347   6.719   2.389
 3055SOL    HW210065   6.205   6.647   2.426
 3056SOL     OW10066   4.703   0.778   2.618
 3056SOL    HW110067   4.698   0.691   2.667
 3056SOL    HW210068   4.781   0.777   2.555
 3057SOL     OW10069   7.005   4.881   2.664
 3057SOL    HW110070   0.017   4.947   2.734
 3057SOL    HW210071   6.983   4.794   2.708
 3058SOL     OW10072   5.852   6.657   1.279
 3058SOL    HW110073   5.824   6.715   1.203
 3058SOL    HW210074   5.943   6.683   1.309
 3059SOL     OW10075   2.575   2.501   6.922
 3059SOL    HW110076   2.559   2.529   6.828
 3059SOL    HW210077   2.671   2.478   6.935
 3060SOL     OW10078   0.369   6.144   6.715
 3060SOL    HW110079   0.273   6.162   6.737
 3060SOL    HW210080   0.402   6.215   6.653
 3061SOL     OW10081   6.489   0.879   5.806
 3061SOL    HW110082   6.522   0.961   5.758
 3061SOL    HW210083   6.530   0.798   5.764
 3062SOL     OW10084   3.419   5.386   6.433
 3062SOL    HW110085   3.379   5.462   6.383
 3062SOL    HW210086   3.352   5.351   6.500
 3063SOL     OW10087   3.050   6.237   1.061
 3063SOL    HW110088   3.142   6.260   1.028
 3063SOL    HW210089   3.017   6.156   1.013
 3064SOL     OW10090   6.705   4.714   3.229
 3064SOL    HW110091   6.712   4.668   3.141
 3064SOL    HW210092   6.609   4.737   3.247
 3065SOL     OW10093   3.469   1.547   1.667
 3065SOL    HW110094   3.556   1.499   1.683
 3065SOL    HW210095   3.485   1.627   1.610
 3066SOL     OW10096   5.805   5.180   0.795
 3066SOL    HW110097   5.816   5.108   0.728
 3066SOL    HW210098   5.875   5.172   0.866
 3067SOL     OW10099   3.946   0.055   2.987
 3067SOL    HW110100   4.042   0.056   2.956
 3067SOL    HW210101   3.891   0.001   2.923
 3068SOL     OW10102   6.369   4.277   6.844
 3068SOL    HW110103   6.413   4.278   6.934
 3068SOL    HW210104   6.286   4.332   6.847
 3069SOL     OW10105   1.049   5.150   3.343
 3069SOL    HW110106   1.148   5.142   3.328
 3069SOL    HW210107   1.019   5.242   3.318
 3070SOL     OW10108   4.603   1.897   3.789
 3070SOL    HW110109   4.634   1.802   3.778
 3070SOL    HW210110   4.577   1.934   3.700
 3071SOL     OW10111   5.741   0.503   3.647
 3071SOL    HW110112   5.692   0.462   3.724
 3071SOL    HW210113   5.811   0.440   3.615
 3072SOL     OW10114   0.049   0.893   1.541
 3072SOL    HW110115   0.070   0.884   1.444
 3072SOL    HW210116   0.000   0.812   1.573
 3073SOL     OW10117   1.595   1.589   5.174
 3073SOL    HW110118   1.623   1.570   5.268
 3073SOL    HW210119   1.622   1.682   5.150
 3074SOL     OW10120   4.545   3.763   5.832
 3074SOL    HW110121   4.494   3.848   5.817
 3074SOL    HW210122   4.632   3.766   5.783
 3075SOL     OW10123   7.008   4.776   1.414
 3075SOL    HW110124   0.012   4.824   1.500
 3075SOL    HW210125   6.916   4.738   1.418
 3076SOL     OW10126   0.439   0.982   5.468
 3076SOL    HW110127   0.353   0.932   5.474
 3076SOL    HW210128   0.505   0.943   5.533
 3077SOL     OW10129   4.160   4.697   3.448
 3077SOL    HW110130   4.236   4.762   3.444
 3077SOL    HW210131   4.192   4.607   3.417
 3078SOL     OW10132   2.349   2.963   0.963
 3078SOL    HW110133   2.445   2.957   0.991
 3078SOL    HW210134   2.344   2.961   0.863
 3079SOL     OW10135   5.293   3.221   5.911
 3079SOL    HW110136   5.236   3.207   5.830
 3079SOL    HW210137   5.387   3.238   5.883
 3080SOL     OW10138   5.942   0.150   2.156
 3080SOL    HW110139   5.947   0.071   2.218
 3080SOL    HW210140   5.867   0.210   2.184
 3081SOL     OW10141   0.704   4.575   5.724
 3081SOL    HW110142   0.752   4.633   5.658
 3081SOL    HW210143   0.771   4.529   5.782
 3082SOL     OW10144   3.690   6.468   2.851
 3082SOL    HW110145   3.660   6.388   2.903
 3082SOL    HW210146   3.697   6.547   2.911
 3083SOL     OW10147   3.684   6.690   2.659
 3083SOL    HW110148   3.711   6.683   2.563
 3083SOL    HW210149   3.686   6.599   2.701
 3084SOL     OW10150   5.025   0.088   4.096
 3084SOL    HW110151   5.048   0.129   4.007
 3084SOL    HW210152   4.961   0.148   4.144
 3085SOL     OW10153   1.124   5.053   2.289
 3085SOL    HW110154   1.194   5.050   2.218
 3085SOL    HW210155   1.151   4.992   2.365
 3086SOL     OW10156   6.254   1.294   4.623
 3086SOL    HW110157   6.311   1.213   4.608
 3086SOL    HW210158   6.180   1.296   4.557
 3087SOL     OW10159   5.805   3.360   1.097
 3087SOL    HW110160   5.875   3.395   1.159
 3087SOL    HW210161   5.785   3.265   1.119
 3088SOL     OW10162   3.018   3.801   6.525
 3088SOL    HW110163   3.067   3.866   6.583
 3088SOL    HW210164   2.992   3.721   6.579
 3089SOL     OW10165   3.243   2.035   1.765
 3089SOL    HW110166   3.251   1.938   1.784
 3089SOL    HW210167   3.321   2.084   1.804
 3090SOL     OW10168   6.270   1.507   1.172
 3090SOL    HW110169   6.273   1.408   1.180
 3090SOL    HW210170   6.266   1.547   1.264
 3091SOL     OW10171   2.044   6.356   6.513
 3091SOL    HW110172   2.080   6.263   6.513
 3091SOL    HW210173   2.077   6.406   6.433
 3092SOL     OW10174   4.481   5.116   6.975
 3092SOL    HW110175   4.504   5.023   6.946
 3092SOL    HW210176   4.565   5.166   6.997
 3093SOL     OW10177   4.529   6.689   2.992
 3093SOL    HW110178   4.506   6.599   3.030
 3093SOL    HW210179   4.586   6.739   3.058
 3094SOL     OW10180   4.049   5.388   4.459
 3094SOL    HW110181   3.958   5.426   4.441
 3094SOL    HW210182   4.077   5.413   4.552
 3095SOL     OW10183   1.911   5.408   4.921
 3095SOL    HW110184   2.011   5.405   4.927
 3095SOL    HW210185   1.872   5.399   5.013
 3096SOL     OW10186   0.179   1.980   5.837
 3096SOL    HW110187   0.203   1.959   5.742
 3096SOL    HW210188   0.235   2.056   5.870
 3097SOL     OW10189   1.818   0.617   6.725
 3097SOL    HW110190   1.882   0.544   6.699
 3097SOL    HW210191   1.870   0.697   6.756
 3098SOL     OW10192   3.838   3.026   0.634
 3098SOL    HW110193   3.914   2.978   0.591
 3098SOL    HW210194   3.822   2.988   0.725
 3099SOL     OW10195   1.384   5.895   5.605
 3099SOL    HW110196   1.411   5.812   5.655
 3099SOL    HW210197   1.463   5.934   5.559
 3100SOL     OW10198   6.086   7.016   6.310
 3100SOL    HW110199   6.058   0.036   6.221
 3100SOL    HW210200   6.181   0.027   6.328
 3101SOL     OW10201   3.019   0.814   1.116
 3101SOL    HW110202   2.965   0.858   1.188
 3101SOL    HW210203   2.972   0.824   1.028
 3102SOL     OW10204   1.022   6.132   0.905
 3102SOL    HW110205   1.027   6.106   0.808
 3102SOL    HW210206   1.115   6.146   0.940
 3103SOL     OW10207   4.241   4.269   1.606
 3103SOL    HW110208   4.277   4.283   1.698
 3103SOL    HW210209   4.179   4.190   1.606
 3104SOL     OW10210   5.682   6.151   3.576
 3104SOL    HW110211   5.592   6.192   3.563
 3104SOL    HW210212   5.673   6.052   3.585
 3105SOL     OW10213   5.611   5.939   3.907
 3105SOL    HW110214   5.521   5.981   3.912
 3105SOL    HW210215   5.681   6.010   3.898
 3106SOL     OW10216   6.849   3.251   4.533
 3106SOL    HW110217   6.881   3.297   4.616
 3106SOL    HW210218   6.928   3.223   4.478
 3107SOL     OW10219   2.438   6.761   4.367
 3107SOL    HW110220   2.391   6.849   4.364
 3107SOL    HW210221   2.386   6.694   4.315
 3108SOL     OW10222   1.973   6.880   2.697
 3108SOL    HW110223   2.051   6.934   2.667
 3108SOL    HW210224   2.004   6.792   2.731
 3109SOL     OW10225   4.274   5.406   3.614
 3109SOL    HW110226   4.342   5.350   3.660
 3109SOL    HW210227   4.238   5.475   3.677
 3110SOL     OW10228   0.438   2.721   1.636
 3110SOL    HW110229   0.413   2.811   1.601
 3110SOL    HW210230   0.373   2.694   1.708
 3111SOL     OW10231   0.280   5.013   2.165
 3111SOL    HW110232   0.282   5.029   2.263
 3111SOL    HW210233   0.242   4.921   2.147
 3112SOL     OW10234   3.108   3.389   6.127
 3112SOL    HW110235   3.151   3.309   6.084
 3112SOL    HW210236   3.128   3.390   6.225
 3113SOL     OW10237   3.892   0.212   3.828
 3113SOL    HW110238   3.835   0.147   3.779
 3113SOL    HW210239   3.959   0.163   3.884
 3114SOL     OW10240   5.275   5.346   0.868
 3114SOL    HW110241   5.202   5.328   0.935
 3114SOL    HW210242   5.236   5.345   0.776
 3115SOL     OW10243   3.462   3.259   2.692
 3115SOL    HW110244   3.389   3.280   2.627
 3115SOL    HW210245   3.474   3.160   2.698
 3116SOL     OW10246   0.305   1.331   6.782
 3116SOL    HW110247   0.392   1.284   6.799
 3116SOL    HW210248   0.302   1.362   6.688
 3117SOL     OW10249   3.071   4.345   6.238
 3117SOL    HW110250   3.095   4.438   6.209
 3117SOL    HW210251   2.991   4.348   6.297
 3118SOL     OW10252   6.381   5.165   6.997
 3118SOL    HW110253   6.436   5.152   0.063
 3118SOL    HW210254   6.409   5.098   6.928
 3119SOL     OW10255   2.217   4.211   6.966
 3119SOL    HW110256   2.284   4.245   6.899
 3119SOL    HW210257   2.149   4.154   6.920
 3120SOL     OW10258   2.577   5.169   6.913
 3120SOL    HW110259   2.644   5.096   6.919
 3120SOL    HW210260   2.575   5.206   6.820
 3121SOL     OW10261   6.824   6.115   3.739
 3121SOL    HW110262   6.876   6.132   3.823
 3121SOL    HW210263   6.882   6.129   3.660
 3122SOL     OW10264   3.380   6.119   1.326
 3122SOL    HW110265   3.413   6.120   1.421
 3122SOL    HW210266   3.296   6.065   1.321
 3123SOL     OW10267   3.011   6.939   3.659
 3123SOL    HW110268   2.950   6.896   3.726
 3123SOL    HW210269   2.958   6.967   3.579
 3124SOL     OW10270   3.981   6.632   5.617
 3124SOL    HW110271   4.010   6.564   5.549
 3124SOL    HW210272   3.964   6.719   5.571
 3125SOL     OW10273   6.726   2.243   5.909
 3125SOL    HW110274   6.736   2.303   5.829
 3125SOL    HW210275   6.814   2.199   5.929
 3126SOL     OW10276   4.021   5.928   6.541
 3126SOL    HW110277   4.035   6.009   6.599
 3126SOL    HW210278   4.020   5.846   6.597
 3127SOL     OW10279   0.789   1.152   4.107
 3127SOL    HW110280   0.728   1.181   4.181
 3127SOL    HW210281   0.798   1.053   4.108
 3128SOL     OW10282   2.093   0.993   1.138
 3128SOL    HW110283   2.178   0.988   1.085
 3128SOL    HW210284   2.114   0.986   1.235
 3129SOL     OW10285   1.673   3.811   2.611
 3129SOL    HW110286   1.627   3.801   2.523
 3129SOL    HW210287   1.658   3.904   2.646
 3130SOL     OW10288   2.650   5.383   2.886
 3130SOL    HW110289   2.611   5.338   2.806
 3130SOL    HW210290   2.733   5.431   2.861
 3131SOL     OW10291   0.716   3.289   3.423
 3131SOL    HW110292   0.667   3.366   3.464
 3131SOL    HW210293   0.793   3.263   3.481
 3132SOL     OW10294   4.505   3.577   5.597
 3132SOL    HW110295   4.505   3.628   5.683
 3132SOL    HW210296   4.585   3.516   5.594
 3133SOL     OW10297   2.183   1.521   3.833
 3133SOL    HW110298   2.188   1.435   3.884
 3133SOL    HW210299   2.263   1.576   3.854
 3134SOL     OW10300   5.234   2.080   1.646
 3134SOL    HW110301   5.230   2.089   1.746
 3134SOL    HW210302   5.261   1.987   1.622
 3135SOL     OW10303   1.106   2.667   2.989
 3135SOL    HW110304   1.167   2.684   2.911
 3135SOL    HW210305   1.039   2.597   2.965
 3136SOL     OW10306   6.656   0.590   4.795
 3136SOL    HW110307   6.611   0.547   4.717
 3136SOL    HW210308   6.655   0.689   4.784
 3137SOL     OW10309   0.605   1.612   4.554
 3137SOL    HW110310   0.569   1.589   4.463
 3137SOL    HW210311   0.679   1.549   4.577
 3138SOL     OW10312   6.595   2.328   4.454
 3138SOL    HW110313   6.523   2.349   4.521
 3138SOL    HW210314   6.596   2.399   4.383
 3139SOL     OW10315   5.406   5.707   5.431
 3139SOL    HW110316   5.406   5.762   5.347
 3139SOL    HW210317   5.494   5.718   5.478
 3140SOL     OW10318   6.212   6.077   5.517
 3140SOL    HW110319   6.285   6.086   5.584
 3140SOL    HW210320   6.206   6.160   5.461
 3141SOL     OW10321   1.119   0.461   1.822
 3141SOL    HW110322   1.022   0.462   1.847
 3141SOL    HW210323   1.151   0.366   1.816
 3142SOL     OW10324   3.637   0.028   1.029
 3142SOL    HW110325   3.714   0.089   1.013
 3142SOL    HW210326   3.645   6.963   0.971
 3143SOL     OW10327   0.436   1.574   0.529
 3143SOL    HW110328   0.518   1.612   0.572
 3143SOL    HW210329   0.374   1.540   0.600
 3144SOL     OW10330   2.810   2.846   0.282
 3144SOL    HW110331   2.777   2.768   0.228
 3144SOL    HW210332   2.902   2.870   0.251
 3145SOL     OW10333   1.923   5.217   2.432
 3145SOL    HW110334   1.908   5.308   2.392
 3145SOL    HW210335   1.948   5.227   2.528
 3146SOL     OW10336   1.986   6.772   4.496
 3146SOL    HW110337   2.065   6.768   4.558
 3146SOL    HW210338   1.978   6.685   4.448
 3147SOL     OW10339   4.264   4.060   0.838
 3147SOL    HW110340   4.187   4.102   0.885
 3147SOL    HW210341   4.313   3.999   0.901
 3148SOL     OW10342   2.867   5.771   4.607
 3148SOL    HW110343   2.778   5.817   4.602
 3148SOL    HW210344   2.861   5.694   4.671
 3149SOL     OW10345   1.617   6.298   5.666
 3149SOL    HW110346   1.673   6.333   5.591
 3149SOL    HW210347   1.526   6.275   5.632
 3150SOL     OW10348   6.162   0.522   4.943
 3150SOL    HW110349   6.235   0.587   4.963
 3150SOL    HW210350   6.119   0.493   5.028
 3151SOL     OW10351   3.772   6.441   1.880
 3151SOL    HW110352   3.733   6.516   1.934
 3151SOL    HW210353   3.864   6.465   1.850
 3152SOL     OW10354   1.645   4.782   6.564
 3152SOL    HW110355   1.717   4.851   6.574
 3152SOL    HW210356   1.602   4.791   6.474
 3153SOL     OW10357   0.376   3.858   3.189
 3153SOL    HW110358   0.313   3.843   3.113
 3153SOL    HW210359   0.324   3.882   3.271
 3154SOL     OW10360   6.218   2.507   6.516
 3154SOL    HW110361   6.156   2.446   6.565
 3154SOL    HW210362   6.309   2.501   6.556
 3155SOL     OW10363   4.064   5.801   0.801
 3155SOL    HW110364   4.071   5.721   0.742
 3155SOL    HW210365   3.971   5.811   0.835
 3156SOL     OW10366   3.363   3.529   3.722
 3156SOL    HW110367   3.448   3.479   3.707
 3156SOL    HW210368   3.338   3.525   3.819
 3157SOL     OW10369   2.092   2.132   5.034
 3157SOL    HW110370   2.015   2.195   5.044
 3157SOL    HW210371   2.089   2.089   4.944
 3158SOL     OW10372   4.832   6.933   1.811
 3158SOL    HW110373   4.893   6.878   1.755
 3158SOL    HW210374   4.770   6.873   1.861
 3159SOL     OW10375   5.333   4.219   0.782
 3159SOL    HW110376   5.423   4.260   0.766
 3159SOL    HW210377   5.316   4.148   0.713
 3160SOL     OW10378   6.086   4.361   0.599
 3160SOL    HW110379   6.068   4.439   0.539
 3160SOL    HW210380   6.000   4.323   0.631
 3161SOL     OW10381   0.492   1.846   3.936
 3161SOL    HW110382   0.435   1.884   4.008
 3161SOL    HW210383   0.583   1.825   3.972
 3162SOL     OW10384   0.226   0.486   6.052
 3162SOL    HW110385   0.186   0.395   6.061
 3162SOL    HW210386   0.177   0.550   6.111
 3163SOL     OW10387   1.702   4.306   5.369
 3163SOL    HW110388   1.634   4.374   5.345
 3163SOL    HW210389   1.706   4.235   5.297
 3164SOL     OW10390   6.208   4.965   5.809
 3164SOL    HW110391   6.229   5.062   5.808
 3164SOL    HW210392   6.289   4.913   5.835
 3165SOL     OW10393   6.870   2.965   1.848
 3165SOL    HW110394   6.965   2.937   1.837
 3165SOL    HW210395   6.850   3.041   1.786
 3166SOL     OW10396   3.893   3.126   6.318
 3166SOL    HW110397   3.818   3.062   6.338
 3166SOL    HW210398   3.854   3.213   6.289
 3167SOL     OW10399   0.165   4.759   2.096
 3167SOL    HW110400   0.152   4.664   2.126
 3167SOL    HW210401   0.107   4.777   2.017
 3168SOL     OW10402   6.520   3.228   0.382
 3168SOL    HW110403   6.565   3.312   0.410
 3168SOL    HW210404   6.502   3.230   0.284
 3169SOL     OW10405   3.191   2.418   5.850
 3169SOL    HW110406   3.250   2.376   5.781
 3169SOL    HW210407   3.139   2.492   5.808
 3170SOL     OW10408   3.210   0.542   4.458
 3170SOL    HW110409   3.248   0.627   4.422
 3170SOL    HW210410   3.127   0.519   4.408
 3171SOL     OW10411   6.382   5.520   2.708
 3171SOL    HW110412   6.334   5.497   2.623
 3171SOL    HW210413   6.318   5.563   2.771
 3172SOL     OW10414   5.325   6.774   4.941
 3172SOL    HW110415   5.406   6.765   4.884
 3172SOL    HW210416   5.341   6.731   5.030
 3173SOL     OW10417   1.554   0.942   1.617
 3173SOL    HW110418   1.616   1.015   1.587
 3173SOL    HW210419   1.578   0.915   1.710
 3174SOL     OW10420   2.539   3.339   0.337
 3174SOL    HW110421   2.493   3.292   0.412
 3174SOL    HW210422   2.632   3.305   0.327
 3175SOL     OW10423   0.086   5.817   0.364
 3175SOL    HW110424   0.165   5.864   0.404
 3175SOL    HW210425   0.099   5.718   0.370
 3176SOL     OW10426   0.906   5.175   6.873
 3176SOL    HW110427   0.887   5.271   6.891
 3176SOL    HW210428   0.982   5.167   6.809
 3177SOL     OW10429   0.809   0.326   3.649
 3177SOL    HW110430   0.722   0.318   3.599
 3177SOL    HW210431   0.883   0.343   3.584
 3178SOL     OW10432   3.790   3.552   0.207
 3178SOL    HW110433   3.782   3.515   0.115
 3178SOL    HW210434   3.798   3.477   0.273
 3179SOL     OW10435   1.347   2.558   4.452
 3179SOL    HW110436   1.268   2.532   4.508
 3179SOL    HW210437   1.360   2.491   4.379
 3180SOL     OW10438   6.758   1.376   0.005
 3180SOL    HW110439   6.786   1.280   0.010
 3180SOL    HW210440   6.729   1.397   6.928
 3181SOL     OW10441   0.297   1.493   2.207
 3181SOL    HW110442   0.360   1.430   2.162
 3181SOL    HW210443   0.228   1.442   2.258
 3182SOL     OW10444   1.444   6.255   5.950
 3182SOL    HW110445   1.403   6.278   6.038
 3182SOL    HW210446   1.470   6.339   5.902
 3183SOL     OW10447   4.623   3.644   1.191
 3183SOL    HW110448   4.711   3.635   1.236
 3183SOL    HW210449   4.550   3.629   1.257
 3184SOL     OW10450   6.921   2.146   2.949
 3184SOL    HW110451   6.974   2.063   2.962
 3184SOL    HW210452   6.907   2.162   2.851
 3185SOL     OW10453   0.354   6.247   0.028
 3185SOL    HW110454   0.390   6.314   6.980
 3185SOL    HW210455   0.274   6.201   7.004
 3186SOL     OW10456   3.591   0.359   1.518
 3186SOL    HW110457   3.642   0.434   1.477
 3186SOL    HW210458   3.634   0.332   1.604
 3187SOL     OW10459   3.709   4.319   0.715
 3187SOL    HW110460   3.756   4.243   0.671
 3187SOL    HW210461   3.613   4.295   0.729
 3188SOL     OW10462   3.445   0.212   3.826
 3188SOL    HW110463   3.496   0.130   3.850
 3188SOL    HW210464   3.349   0.189   3.809
 3189SOL     OW10465   5.875   6.353   1.760
 3189SOL    HW110466   5.947   6.414   1.727
 3189SOL    HW210467   5.917   6.274   1.805
 3190SOL     OW10468   1.554   0.828   2.341
 3190SOL    HW110469   1.576   0.734   2.368
 3190SOL    HW210470   1.526   0.880   2.421
 3191SOL     OW10471   3.436   1.448   0.887
 3191SOL    HW110472   3.525   1.443   0.842
 3191SOL    HW210473   3.419   1.543   0.915
 3192SOL     OW10474   5.640   3.601   4.599
 3192SOL    HW110475   5.588   3.624   4.681
 3192SOL    HW210476   5.616   3.664   4.525
 3193SOL     OW10477   5.513   4.337   1.753
 3193SOL    HW110478   5.468   4.248   1.739
 3193SOL    HW210479   5.520   4.384   1.666
 3194SOL     OW10480   3.166   5.168   4.741
 3194SOL    HW110481   3.161   5.070   4.723
 3194SOL    HW210482   3.094   5.216   4.692
 3195SOL     OW10483   6.476   3.952   4.139
 3195SOL    HW110484   6.535   3.978   4.063
 3195SOL    HW210485   6.471   3.853   4.146
 3196SOL     OW10486   0.059   6.009   6.524
 3196SOL    HW110487   0.011   5.922   6.535
 3196SOL    HW210488   0.067   6.054   6.613
 3197SOL     OW10489   0.815   4.306   5.572
 3197SOL    HW110490   0.716   4.294   5.578
 3197SOL    HW210491   0.838   4.360   5.492
 3198SOL     OW10492   5.742   0.256   1.157
 3198SOL    HW110493   5.761   0.343   1.201
 3198SOL    HW210494   5.828   0.218   1.120
 3199SOL     OW10495   2.742   2.131   3.217
 3199SOL    HW110496   2.765   2.212   3.163
 3199SOL    HW210497   2.644   2.112   3.207
 3200SOL     OW10498   6.691   1.767   0.115
 3200SOL    HW110499   6.758   1.713   0.165
 3200SOL    HW210500   6.625   1.806   0.180
 3201SOL     OW10501   3.675   5.074   3.135
 3201SOL    HW110502   3.641   5.012   3.064
 3201SOL    HW210503   3.602   5.135   3.165
 3202SOL     OW10504   1.320   5.071   2.112
 3202SOL    HW110505   1.327   5.165   2.080
 3202SOL    HW210506   1.407   5.042   2.152
 3203SOL     OW10507   5.093   0.180   1.123
 3203SOL    HW110508   5.152   0.106   1.156
 3203SOL    HW210509   5.112   0.198   1.027
 3204SOL     OW10510   6.023   6.375   2.072
 3204SOL    HW110511   5.995   6.318   1.995
 3204SOL    HW210512   6.052   6.464   2.039
 3205SOL     OW10513   1.544   4.341   4.477
 3205SOL    HW110514   1.640   4.318   4.489
 3205SOL    HW210515   1.513   4.308   4.387
 3206SOL     OW10516   2.140   6.293   0.313
 3206SOL    HW110517   2.208   6.351   0.357
 3206SOL    HW210518   2.062   6.349   0.283
 3207SOL     OW10519   1.565   0.867   3.179
 3207SOL    HW110520   1.538   0.771   3.185
 3207SOL    HW210521   1.503   0.923   3.233
 3208SOL     OW10522   6.095   6.347   6.294
 3208SOL    HW110523   6.052   6.259   6.271
 3208SOL    HW210524   6.027   6.420   6.287
 3209SOL     OW10525   0.825   6.649   3.202
 3209SOL    HW110526   0.854   6.579   3.267
 3209SOL    HW210527   0.886   6.729   3.209
 3210SOL     OW10528   0.500   5.836   2.067
 3210SOL    HW110529   0.504   5.896   1.987
 3210SOL    HW210530   0.473   5.890   2.147
 3211SOL     OW10531   6.963   4.716   3.908
 3211SOL    HW110532   0.003   4.732   3.827
 3211SOL    HW210533   0.006   4.691   3.985
 3212SOL     OW10534   4.602   2.108   5.090
 3212SOL    HW110535   4.640   2.118   4.998
 3212SOL    HW210536   4.516   2.057   5.085
 3213SOL     OW10537   5.446   0.268   2.110
 3213SOL    HW110538   5.410   0.231   2.196
 3213SOL    HW210539   5.478   0.193   2.052
 3214SOL     OW10540   4.652   3.493   0.268
 3214SOL    HW110541   4.696   3.403   0.278
 3214SOL    HW210542   4.584   3.488   0.194
 3215SOL     OW10543   6.935   1.635   0.085
 3215SOL    HW110544   6.900   1.543   0.068
 3215SOL    HW210545   6.979   1.670   0.003
 3216SOL     OW10546   5.042   6.731   5.610
 3216SOL    HW110547   4.956   6.782   5.620
 3216SOL    HW210548   5.036   6.646   5.663
 3217SOL     OW10549   0.434   4.633   6.441
 3217SOL    HW110550   0.336   4.635   6.423
 3217SOL    HW210551   0.451   4.636   6.539
 3218SOL     OW10552   4.240   2.757   1.459
 3218SOL    HW110553   4.243   2.753   1.359
 3218SOL    HW210554   4.332   2.770   1.494
 3219SOL     OW10555   0.528   2.352   3.129
 3219SOL    HW110556   0.564   2.268   3.089
 3219SOL    HW210557   0.602   2.418   3.141
 3220SOL     OW10558   7.015   2.648   6.708
 3220SOL    HW110559   0.082   2.626   6.759
 3220SOL    HW210560   0.022   2.664   6.612
 3221SOL     OW10561   4.213   0.308   1.790
 3221SOL    HW110562   4.182   0.403   1.790
 3221SOL    HW210563   4.180   0.262   1.708
 3222SOL     OW10564   6.067   3.717   2.099
 3222SOL    HW110565   6.131   3.640   2.110
 3222SOL    HW210566   6.056   3.738   2.002
 3223SOL     OW10567   1.152   4.262   5.576
 3223SOL    HW110568   1.091   4.339   5.558
 3223SOL    HW210569   1.130   4.187   5.514
 3224SOL     OW10570   2.645   6.640   1.579
 3224SOL    HW110571   2.570   6.620   1.642
 3224SOL    HW210572   2.625   6.724   1.529
 3225SOL     OW10573   1.512   1.766   0.353
 3225SOL    HW110574   1.498   1.835   0.283
 3225SOL    HW210575   1.454   1.786   0.432
 3226SOL     OW10576   6.647   1.208   3.853
 3226SOL    HW110577   6.556   1.170   3.836
 3226SOL    HW210578   6.663   1.285   3.791
 3227SOL     OW10579   2.353   1.901   4.852
 3227SOL    HW110580   2.345   1.831   4.781
 3227SOL    HW210581   2.366   1.856   4.941
 3228SOL     OW10582   4.852   3.329   4.777
 3228SOL    HW110583   4.787   3.399   4.747
 3228SOL    HW210584   4.846   3.250   4.716
 3229SOL     OW10585   4.896   1.449   4.494
 3229SOL    HW110586   4.836   1.375   4.463
 3229SOL    HW210587   4.991   1.425   4.473
 3230SOL     OW10588   1.097   6.747   4.094
 3230SOL    HW110589   1.081   6.777   4.000
 3230SOL    HW210590   1.130   6.824   4.148
 3231SOL     OW10591   4.300   4.738   0.000
 3231SOL    HW110592   4.230   4.765   0.067
 3231SOL    HW210593   4.292   4.640   6.997
 3232SOL     OW10594   0.785   4.110   3.614
 3232SOL    HW110595   0.759   4.017   3.640
 3232SOL    HW210596   0.706   4.157   3.575
 3233SOL     OW10597   2.135   4.139   0.665
 3233SOL    HW110598   2.178   4.099   0.584
 3233SOL    HW210599   2.116   4.236   0.649
 3234SOL     OW10600   6.776   1.887   3.887
 3234SOL    HW110601   6.713   1.938   3.829
 3234SOL    HW210602   6.767   1.789   3.867
 3235SOL     OW10603   6.344   0.934   2.000
 3235SOL    HW110604   6.258   0.910   2.046
 3235SOL    HW210605   6.347   1.032   1.984
 3236SOL     OW10606   0.427   1.506   1.400
 3236SOL    HW110607   0.418   1.523   1.498
 3236SOL    HW210608   0.340   1.473   1.364
 3237SOL     OW10609   2.981   5.401   5.018
 3237SOL    HW110610   3.069   5.435   4.986
 3237SOL    HW210611   2.962   5.436   5.109
 3238SOL     OW10612   6.988   6.531   6.450
 3238SOL    HW110613   6.953   6.620   6.422
 3238SOL    HW210614   6.911   6.470   6.472
 3239SOL     OW10615   2.237   6.505   6.286
 3239SOL    HW110616   2.233   6.443   6.208
 3239SOL    HW210617   2.169   6.577   6.274
 3240SOL     OW10618   1.103   2.518   4.598
 3240SOL    HW110619   1.109   2.428   4.641
 3240SOL    HW210620   1.054   2.581   4.658
 3241SOL     OW10621   4.134   6.045   5.048
 3241SOL    HW110622   4.098   5.951   5.048
 3241SOL    HW210623   4.232   6.043   5.029
 3242SOL     OW10624   2.979   1.316   1.135
 3242SOL    HW110625   2.908   1.281   1.073
 3242SOL    HW210626   3.045   1.370   1.083
 3243SOL     OW10627   3.683   5.932   2.456
 3243SOL    HW110628   3.779   5.957   2.468
 3243SOL    HW210629   3.675   5.836   2.429
 3244SOL     OW10630   1.426   0.110   5.244
 3244SOL    HW110631   1.331   0.139   5.253
 3244SOL    HW210632   1.429   0.011   5.228
 3245SOL     OW10633   3.480   2.533   5.772
 3245SOL    HW110634   3.433   2.538   5.683
 3245SOL    HW210635   3.550   2.461   5.769
 3246SOL     OW10636   6.119   6.817   1.765
 3246SOL    HW110637   6.210   6.820   1.724
 3246SOL    HW210638   6.051   6.848   1.697
 3247SOL     OW10639   5.861   2.893   4.725
 3247SOL    HW110640   5.932   2.880   4.657
 3247SOL    HW210641   5.789   2.825   4.713
 3248SOL     OW10642   5.104   4.200   3.448
 3248SOL    HW110643   5.054   4.272   3.399
 3248SOL    HW210644   5.127   4.126   3.385
 3249SOL     OW10645   3.854   5.218   5.811
 3249SOL    HW110646   3.757   5.196   5.821
 3249SOL    HW210647   3.893   5.160   5.739
 3250SOL     OW10648   4.540   4.523   0.596
 3250SOL    HW110649   4.521   4.621   0.598
 3250SOL    HW210650   4.454   4.473   0.582
 3251SOL     OW10651   2.546   1.545   3.538
 3251SOL    HW110652   2.485   1.606   3.486
 3251SOL    HW210653   2.498   1.459   3.558
 3252SOL     OW10654   3.083   2.106   2.845
 3252SOL    HW110655   3.163   2.077   2.792
 3252SOL    HW210656   3.014   2.143   2.782
 3253SOL     OW10657   5.434   4.164   2.084
 3253SOL    HW110658   5.477   4.201   2.167
 3253SOL    HW210659   5.494   4.178   2.006
 3254SOL     OW10660   6.028   3.652   3.074
 3254SOL    HW110661   6.013   3.610   3.163
 3254SOL    HW210662   5.947   3.639   3.017
 3255SOL     OW10663   2.739   4.682   0.696
 3255SOL    HW110664   2.682   4.672   0.614
 3255SOL    HW210665   2.743   4.595   0.745
 3256SOL     OW10666   6.456   6.951   5.587
 3256SOL    HW110667   6.523   6.879   5.571
 3256SOL    HW210668   6.378   6.914   5.636
 3257SOL     OW10669   2.806   1.012   1.980
 3257SOL    HW110670   2.842   1.106   1.976
 3257SOL    HW210671   2.766   0.995   2.070
 3258SOL     OW10672   4.604   6.898   2.488
 3258SOL    HW110673   4.646   6.811   2.516
 3258SOL    HW210674   4.511   6.880   2.455
 3259SOL     OW10675   5.657   5.518   3.082
 3259SOL    HW110676   5.597   5.512   3.162
 3259SOL    HW210677   5.615   5.576   3.012
 3260SOL     OW10678   1.999   1.774   1.237
 3260SOL    HW110679   1.924   1.745   1.296
 3260SOL    HW210680   2.081   1.721   1.259
 3261SOL     OW10681   4.929   6.394   4.314
 3261SOL    HW110682   4.892   6.307   4.349
 3261SOL    HW210683   4.855   6.461   4.306
 3262SOL     OW10684   4.885   2.148   3.547
 3262SOL    HW110685   4.905   2.235   3.502
 3262SOL    HW210686   4.878   2.163   3.645
 3263SOL     OW10687   3.010   4.873   2.731
 3263SOL    HW110688   2.948   4.889   2.808
 3263SOL    HW210689   2.958   4.836   2.654
 3264SOL     OW10690   4.851   3.799   6.447
 3264SOL    HW110691   4.836   3.898   6.453
 3264SOL    HW210692   4.938   3.776   6.491
 3265SOL     OW10693   5.274   6.814   5.956
 3265SOL    HW110694   5.348   6.781   5.898
 3265SOL    HW210695   5.186   6.780   5.922
 3266SOL     OW10696   1.372   2.422   5.917
 3266SOL    HW110697   1.464   2.439   5.953
 3266SOL    HW210698   1.307   2.484   5.959
 3267SOL     OW10699   5.636   3.953   0.758
 3267SOL    HW110700   5.705   3.892   0.717
 3267SOL    HW210701   5.546   3.931   0.720
 3268SOL     OW10702   2.011   5.389   0.544
 3268SOL    HW110703   2.063   5.475   0.549
 3268SOL    HW210704   1.970   5.380   0.454
 3269SOL     OW10705   4.048   3.532   1.384
 3269SOL    HW110706   3.952   3.559   1.388
 3269SOL    HW210707   4.061   3.446   1.434
 3270SOL     OW10708   6.534   5.861   2.948
 3270SOL    HW110709   6.512   5.941   2.893
 3270SOL    HW210710   6.454   5.832   3.001
 3271SOL     OW10711   4.509   0.141   0.472
 3271SOL    HW110712   4.604   0.116   0.452
 3271SOL    HW210713   4.473   0.196   0.398
 3272SOL     OW10714   4.251   5.664   6.309
 3272SOL    HW110715   4.324   5.608   6.268
 3272SOL    HW210716   4.163   5.636   6.271
 3273SOL     OW10717   6.706   0.452   2.680
 3273SOL    HW110718   6.713   0.354   2.696
 3273SOL    HW210719   6.645   0.493   2.747
 3274SOL     OW10720   3.378   0.434   1.687
 3274SOL    HW110721   3.443   0.416   1.612
 3274SOL    HW210722   3.290   0.391   1.666
 3275SOL     OW10723   4.817   0.701   5.944
 3275SOL    HW110724   4.746   0.634   5.968
 3275SOL    HW210725   4.777   0.792   5.942
 3276SOL     OW10726   2.060   5.187   1.107
 3276SOL    HW110727   1.968   5.222   1.126
 3276SOL    HW210728   2.125   5.263   1.109
 3277SOL     OW10729   0.461   5.866   6.213
 3277SOL    HW110730   0.428   5.947   6.164
 3277SOL    HW210731   0.495   5.893   6.303
 3278SOL     OW10732   1.132   6.945   0.073
 3278SOL    HW110733   1.172   6.947   0.165
 3278SOL    HW210734   1.195   6.899   0.011
 3279SOL     OW10735   1.721   6.600   1.860
 3279SOL    HW110736   1.629   6.577   1.891
 3279SOL    HW210737   1.754   6.528   1.799
 3280SOL     OW10738   2.864   5.759   3.584
 3280SOL    HW110739   2.923   5.830   3.546
 3280SOL    HW210740   2.914   5.673   3.588
 3281SOL     OW10741   1.579   6.941   1.039
 3281SOL    HW110742   1.496   6.987   1.070
 3281SOL    HW210743   1.584   6.850   1.080
 3282SOL     OW10744   1.433   4.533   2.036
 3282SOL    HW110745   1.376   4.563   1.960
 3282SOL    HW210746   1.400   4.443   2.068
 3283SOL     OW10747   1.223   0.293   3.386
 3283SOL    HW110748   1.240   0.314   3.290
 3283SOL    HW210749   1.278   0.353   3.444
 3284SOL     OW10750   2.495   6.130   5.742
 3284SOL    HW110751   2.570   6.065   5.743
 3284SOL    HW210752   2.421   6.096   5.801
 3285SOL     OW10753   0.512   3.604   4.137
 3285SOL    HW110754   0.538   3.590   4.232
 3285SOL    HW210755   0.594   3.618   4.082
 3286SOL     OW10756   5.272   4.764   0.351
 3286SOL    HW110757   5.231   4.767   0.442
 3286SOL    HW210758   5.226   4.693   0.297
 3287SOL     OW10759   0.699   2.165   1.230
 3287SOL    HW110760   0.608   2.139   1.263
 3287SOL    HW210761   0.700   2.163   1.130
 3288SOL     OW10762   0.911   6.975   0.495
 3288SOL    HW110763   0.864   0.005   0.571
 3288SOL    HW210764   0.845   6.921   0.443
 3289SOL     OW10765   1.483   0.896   3.987
 3289SOL    HW110766   1.458   0.975   3.931
 3289SOL    HW210767   1.580   0.900   4.010
 3290SOL     OW10768   6.938   4.803   4.579
 3290SOL    HW110769   6.924   4.734   4.650
 3290SOL    HW210770   6.859   4.804   4.518
 3291SOL     OW10771   1.336   1.626   1.690
 3291SOL    HW110772   1.427   1.591   1.712
 3291SOL    HW210773   1.267   1.563   1.726
 3292SOL     OW10774   1.008   6.845   3.858
 3292SOL    HW110775   1.074   6.908   3.818
 3292SOL    HW210776   0.937   6.822   3.790
 3293SOL     OW10777   5.832   0.810   3.041
 3293SOL    HW110778   5.751   0.783   2.989
 3293SOL    HW210779   5.833   0.910   3.052
 3294SOL     OW10780   6.803   6.311   1.699
 3294SOL    HW110781   6.880   6.251   1.678
 3294SOL    HW210782   6.766   6.348   1.614
 3295SOL     OW10783   2.998   3.110   6.567
 3295SOL    HW110784   2.951   3.042   6.623
 3295SOL    HW210785   2.939   3.140   6.493
 3296SOL     OW10786   0.979   6.819   2.137
 3296SOL    HW110787   0.908   6.872   2.090
 3296SOL    HW210788   1.055   6.802   2.075
 3297SOL     OW10789   3.760   0.171   5.307
 3297SOL    HW110790   3.779   0.108   5.232
 3297SOL    HW210791   3.732   0.260   5.270
 3298SOL     OW10792   6.813   5.624   3.321
 3298SOL    HW110793   6.811   5.675   3.407
 3298SOL    HW210794   6.727   5.638   3.272
 3299SOL     OW10795   1.987   1.454   4.550
 3299SOL    HW110796   2.064   1.466   4.488
 3299SOL    HW210797   2.003   1.375   4.609
 3300SOL     OW10798   0.236   6.750   4.776
 3300SOL    HW110799   0.282   6.766   4.688
 3300SOL    HW210800   0.303   6.724   4.845
 3301SOL     OW10801   6.177   4.294   2.566
 3301SOL    HW110802   6.225   4.206   2.573
 3301SOL    HW210803   6.149   4.308   2.471
 3302SOL     OW10804   1.911   5.717   5.843
 3302SOL    HW110805   1.851   5.641   5.817
 3302SOL    HW210806   1.872   5.764   5.922
 3303SOL     OW10807   3.433   3.281   5.218
 3303SOL    HW110808   3.376   3.230   5.283
 3303SOL    HW210809   3.518   3.310   5.264
 3304SOL     OW10810   2.062   0.944   3.937
 3304SOL    HW110811   2.069   0.930   3.839
 3304SOL    HW210812   2.153   0.940   3.978
 3305SOL     OW10813   1.647   2.087   0.364
 3305SOL    HW110814   1.595   2.046   0.289
 3305SOL    HW210815   1.658   2.019   0.437
 3306SOL     OW10816   1.324   1.473   0.565
 3306SOL    HW110817   1.298   1.515   0.478
 3306SOL    HW210818   1.364   1.383   0.548
 3307SOL     OW10819   0.428   6.383   0.293
 3307SOL    HW110820   0.432   6.332   0.207
 3307SOL    HW210821   0.478   6.469   0.282
 3308SOL     OW10822   5.143   5.440   0.057
 3308SOL    HW110823   5.176   5.475   0.144
 3308SOL    HW210824   5.218   5.396   0.008
 3309SOL     OW10825   0.404   4.648   2.133
 3309SOL    HW110826   0.404   4.632   2.231
 3309SOL    HW210827   0.330   4.712   2.110
 3310SOL     OW10828   2.139   6.921   1.733
 3310SOL    HW110829   2.070   6.873   1.679
 3310SOL    HW210830   2.103   6.939   1.825
 3311SOL     OW10831   4.308   4.958   0.770
 3311SOL    HW110832   4.226   4.953   0.713
 3311SOL    HW210833   4.341   5.052   0.773
 3312SOL     OW10834   2.057   2.622   5.795
 3312SOL    HW110835   2.128   2.557   5.769
 3312SOL    HW210836   2.098   2.707   5.826
 3313SOL     OW10837   5.256   6.571   5.283
 3313SOL    HW110838   5.320   6.644   5.259
 3313SOL    HW210839   5.297   6.512   5.353
 3314SOL     OW10840   0.541   3.883   6.587
 3314SOL    HW110841   0.617   3.861   6.526
 3314SOL    HW210842   0.470   3.932   6.536
 3315SOL     OW10843   6.435   3.483   3.288
 3315SOL    HW110844   6.458   3.386   3.293
 3315SOL    HW210845   6.440   3.514   3.193
 3316SOL     OW10846   3.675   0.509   6.259
 3316SOL    HW110847   3.599   0.451   6.289
 3316SOL    HW210848   3.683   0.588   6.319
 3317SOL     OW10849   6.390   2.823   1.356
 3317SOL    HW110850   6.406   2.732   1.394
 3317SOL    HW210851   6.358   2.813   1.262
 3318SOL     OW10852   2.703   4.839   6.235
 3318SOL    HW110853   2.695   4.920   6.176
 3318SOL    HW210854   2.697   4.756   6.180
 3319SOL     OW10855   1.332   5.907   6.134
 3319SOL    HW110856   1.270   5.985   6.139
 3319SOL    HW210857   1.309   5.850   6.055
 3320SOL     OW10858   1.254   0.770   0.962
 3320SOL    HW110859   1.310   0.816   1.031
 3320SOL    HW210860   1.282   0.800   0.871
 3321SOL     OW10861   3.957   3.910   4.121
 3321SOL    HW110862   4.037   3.852   4.133
 3321SOL    HW210863   3.877   3.866   4.162
 3322SOL     OW10864   5.460   3.567   2.896
 3322SOL    HW110865   5.361   3.576   2.886
 3322SOL    HW210866   5.486   3.585   2.991
 3323SOL     OW10867   1.303   4.223   0.547
 3323SOL    HW110868   1.357   4.289   0.495
 3323SOL    HW210869   1.351   4.200   0.631
 3324SOL     OW10870   6.433   2.764   2.044
 3324SOL    HW110871   6.496   2.688   2.055
 3324SOL    HW210872   6.473   2.847   2.084
 3325SOL     OW10873   1.245   4.861   5.459
 3325SOL    HW110874   1.226   4.775   5.410
 3325SOL    HW210875   1.195   4.936   5.416
 3326SOL     OW10876   4.317   6.948   2.379
 3326SOL    HW110877   4.297   6.864   2.328
 3326SOL    HW210878   4.248   0.001   2.357
 3327SOL     OW10879   4.738   5.911   2.179
 3327SOL    HW110880   4.676   5.985   2.205
 3327SOL    HW210881   4.828   5.926   2.220
 3328SOL     OW10882   6.341   6.138   3.128
 3328SOL    HW110883   6.339   6.196   3.210
 3328SOL    HW210884   6.354   6.043   3.155
 3329SOL     OW10885   5.560   0.167   6.021
 3329SOL    HW110886   5.492   0.228   6.062
 3329SOL    HW210887   5.610   0.216   5.949
 3330SOL     OW10888   5.531   0.836   3.702
 3330SOL    HW110889   5.553   0.902   3.630
 3330SOL    HW210890   5.566   0.870   3.789
 3331SOL     OW10891   0.631   3.467   2.593
 3331SOL    HW110892   0.617   3.456   2.494
 3331SOL    HW210893   0.727   3.454   2.614
 3332SOL     OW10894   4.464   4.942   1.177
 3332SOL    HW110895   4.497   4.971   1.266
 3332SOL    HW210896   4.492   4.847   1.161
 3333SOL     OW10897   2.183   3.922   0.910
 3333SOL    HW110898   2.240   3.916   0.992
 3333SOL    HW210899   2.149   4.015   0.899
 3334SOL     OW10900   2.344   2.695   2.214
 3334SOL    HW110901   2.355   2.765   2.285
 3334SOL    HW210902   2.399   2.615   2.238
 3335SOL     OW10903   4.498   4.125   6.475
 3335SOL    HW110904   4.518   4.088   6.384
 3335SOL    HW210905   4.517   4.223   6.476
 3336SOL     OW10906   3.736   5.963   6.606
 3336SOL    HW110907   3.649   5.926   6.575
 3336SOL    HW210908   3.811   5.903   6.577
 3337SOL     OW10909   2.926   3.735   4.375
 3337SOL    HW110910   2.957   3.827   4.348
 3337SOL    HW210911   2.960   3.714   4.467
 3338SOL     OW10912   3.458   2.971   1.548
 3338SOL    HW110913   3.441   2.917   1.466
 3338SOL    HW210914   3.383   2.957   1.613
 3339SOL     OW10915   0.776   0.032   5.729
 3339SOL    HW110916   0.712   0.027   5.806
 3339SOL    HW210917   0.844   6.976   5.737
 3340SOL     OW10918   4.988   2.147   6.658
 3340SOL    HW110919   5.002   2.240   6.690
 3340SOL    HW210920   4.891   2.134   6.637
 3341SOL     OW10921   1.243   3.573   1.580
 3341SOL    HW110922   1.307   3.633   1.532
 3341SOL    HW210923   1.152   3.616   1.582
 3342SOL     OW10924   5.850   0.705   3.452
 3342SOL    HW110925   5.833   0.653   3.368
 3342SOL    HW210926   5.814   0.655   3.531
 3343SOL     OW10927   3.370   5.104   0.062
 3343SOL    HW110928   3.382   5.203   0.064
 3343SOL    HW210929   3.452   5.058   0.095
 3344SOL     OW10930   1.810   3.726   0.880
 3344SOL    HW110931   1.763   3.638   0.891
 3344SOL    HW210932   1.794   3.783   0.961
 3345SOL     OW10933   4.040   5.000   0.636
 3345SOL    HW110934   3.944   5.021   0.654
 3345SOL    HW210935   4.049   4.961   0.544
 3346SOL     OW10936   0.840   0.810   0.310
 3346SOL    HW110937   0.752   0.827   0.264
 3346SOL    HW210938   0.872   0.718   0.287
 3347SOL     OW10939   0.997   3.252   5.782
 3347SOL    HW110940   0.917   3.297   5.819
 3347SOL    HW210941   1.065   3.239   5.854
 3348SOL     OW10942   3.135   4.282   5.753
 3348SOL    HW110943   3.052   4.241   5.792
 3348SOL    HW210944   3.178   4.342   5.821
 3349SOL     OW10945   2.469   5.329   1.455
 3349SOL    HW110946   2.508   5.236   1.458
 3349SOL    HW210947   2.540   5.395   1.479
 3350SOL     OW10948   2.983   4.853   4.491
 3350SOL    HW110949   3.061   4.860   4.552
 3350SOL    HW210950   2.903   4.821   4.542
 3351SOL     OW10951   4.173   0.149   2.287
 3351SOL    HW110952   4.172   0.199   2.373
 3351SOL    HW210953   4.151   0.211   2.212
 3352SOL     OW10954   6.035   0.860   0.301
 3352SOL    HW110955   6.104   0.813   0.246
 3352SOL    HW210956   5.987   0.794   0.359
 3353SOL     OW10957   4.862   0.229   6.118
 3353SOL    HW110958   4.827   0.231   6.024
 3353SOL    HW210959   4.786   0.215   6.181
 3354SOL     OW10960   3.799   1.538   0.512
 3354SOL    HW110961   3.864   1.568   0.442
 3354SOL    HW210962   3.707   1.567   0.487
 3355SOL     OW10963   0.841   1.894   5.911
 3355SOL    HW110964   0.918   1.831   5.899
 3355SOL    HW210965   0.870   1.970   5.969
 3356SOL     OW10966   2.894   0.200   5.183
 3356SOL    HW110967   2.896   0.198   5.283
 3356SOL    HW210968   2.920   0.291   5.150
 3357SOL     OW10969   3.305   3.650   4.470
 3357SOL    HW110970   3.213   3.685   4.490
 3357SOL    HW210971   3.305   3.607   4.380
 3358SOL     OW10972   6.904   2.415   1.609
 3358SOL    HW110973   6.866   2.467   1.533
 3358SOL    HW210974   6.948   2.478   1.674
 3359SOL     OW10975   0.649   7.010   3.326
 3359SOL    HW110976   0.599   6.930   3.293
 3359SOL    HW210977   0.745   6.986   3.339
 3360SOL     OW10978   1.494   5.658   4.839
 3360SOL    HW110979   1.424   5.587   4.827
 3360SOL    HW210980   1.451   5.748   4.839
 3361SOL     OW10981   0.616   6.914   4.670
 3361SOL    HW110982   0.580   6.864   4.591
 3361SOL    HW210983   0.711   6.940   4.652
 3362SOL     OW10984   3.711   0.372   5.121
 3362SOL    HW110985   3.679   0.309   5.050
 3362SOL    HW210986   3.765   0.446   5.080
 3363SOL     OW10987   5.259   3.239   0.611
 3363SOL    HW110988   5.256   3.323   0.666
 3363SOL    HW210989   5.166   3.209   0.590
 3364SOL     OW10990   2.376   3.298   1.334
 3364SOL    HW110991   2.336   3.208   1.316
 3364SOL    HW210992   2.475   3.289   1.343
 3365SOL     OW10993   0.558   3.308   2.811
 3365SOL    HW110994   0.653   3.317   2.839
 3365SOL    HW210995   0.544   3.355   2.724
 3366SOL     OW10996   5.479   2.653   3.556
 3366SOL    HW110997   5.549   2.650   3.628
 3366SOL    HW210998   5.493   2.734   3.500
 3367SOL     OW10999   3.460   3.740   3.287
 3367SOL    HW111000   3.385   3.783   3.338
 3367SOL    HW211001   3.514   3.684   3.350
 3368SOL     OW11002   1.314   1.352   3.938
 3368SOL    HW111003   1.380   1.415   3.896
 3368SOL    HW211004   1.230   1.351   3.885
 3369SOL     OW11005   6.340   3.043   0.768
 3369SOL    HW111006   6.358   3.031   0.670
 3369SOL    HW211007   6.356   2.957   0.815
 3370SOL     OW11008   7.004   6.081   3.504
 3370SOL    HW111009   6.998   5.992   3.460
 3370SOL    HW211010   0.049   6.075   3.583
 3371SOL     OW11011   3.027   2.559   1.487
 3371SOL    HW111012   3.036   2.541   1.585
 3371SOL    HW211013   3.117   2.564   1.445
 3372SOL     OW11014   5.789   2.696   3.287
 3372SOL    HW111015   5.851   2.618   3.285
 3372SOL    HW211016   5.820   2.761   3.356
 3373SOL     OW11017   0.821   4.869   1.050
 3373SOL    HW111018   0.733   4.893   1.010
 3373SOL    HW211019   0.821   4.893   1.147
 3374SOL     OW11020   0.734   5.652   4.060
 3374SOL    HW111021   0.665   5.697   4.117
 3374SOL    HW211022   0.754   5.562   4.096
 3375SOL     OW11023   6.792   6.741   5.691
 3375SOL    HW111024   6.866   6.807   5.677
 3375SOL    HW211025   6.801   6.701   5.783
 3376SOL     OW11026   3.295   3.821   4.817
 3376SOL    HW111027   3.237   3.810   4.737
 3376SOL    HW211028   3.255   3.888   4.879
 3377SOL     OW11029   5.905   5.488   4.602
 3377SOL    HW111030   5.956   5.562   4.559
 3377SOL    HW211031   5.917   5.492   4.701
 3378SOL     OW11032   0.707   5.686   6.908
 3378SOL    HW111033   0.665   5.739   6.982
 3378SOL    HW211034   0.807   5.698   6.912
 3379SOL     OW11035   6.031   4.678   4.073
 3379SOL    HW111036   6.054   4.771   4.044
 3379SOL    HW211037   6.044   4.670   4.172
 3380SOL     OW11038   1.309   4.635   1.804
 3380SOL    HW111039   1.215   4.671   1.804
 3380SOL    HW211040   1.337   4.619   1.709
 3381SOL     OW11041   2.980   4.721   0.314
 3381SOL    HW111042   3.052   4.688   0.252
 3381SOL    HW211043   3.017   4.728   0.407
 3382SOL     OW11044   0.451   3.500   6.959
 3382SOL    HW111045   0.531   3.557   6.943
 3382SOL    HW211046   0.453   3.464   0.036
 3383SOL     OW11047   3.467   5.831   0.143
 3383SOL    HW111048   3.559   5.867   0.129
 3383SOL    HW211049   3.473   5.740   0.185
 3384SOL     OW11050   3.309   2.796   6.713
 3384SOL    HW111051   3.243   2.773   6.642
 3384SOL    HW211052   3.271   2.773   6.802
 3385SOL     OW11053   6.140   1.761   4.608
 3385SOL    HW111054   6.208   1.691   4.628
 3385SOL    HW211055   6.172   1.850   4.642
 3386SOL     OW11056   6.730   4.723   5.154
 3386SOL    HW111057   6.661   4.737   5.224
 3386SOL    HW211058   6.688   4.686   5.071
 3387SOL     OW11059   5.794   0.863   2.527
 3387SOL    HW111060   5.808   0.941   2.589
 3387SOL    HW211061   5.697   0.856   2.504
 3388SOL     OW11062   1.030   3.801   1.116
 3388SOL    HW111063   1.028   3.832   1.021
 3388SOL    HW211064   0.963   3.727   1.128
 3389SOL     OW11065   6.204   5.320   6.371
 3389SOL    HW111066   6.200   5.295   6.275
 3389SOL    HW211067   6.291   5.290   6.410
 3390SOL     OW11068   3.102   4.275   1.089
 3390SOL    HW111069   3.057   4.334   1.156
 3390SOL    HW211070   3.042   4.197   1.068
 3391SOL     OW11071   5.720   4.171   5.443
 3391SOL    HW111072   5.633   4.175   5.393
 3391SOL    HW211073   5.768   4.087   5.418
 3392SOL     OW11074   5.011   5.511   5.944
 3392SOL    HW111075   5.029   5.443   6.015
 3392SOL    HW211076   5.097   5.555   5.917
 3393SOL     OW11077   3.515   1.029   0.582
 3393SOL    HW111078   3.422   1.025   0.546
 3393SOL    HW211079   3.562   1.109   0.543
 3394SOL     OW11080   3.473   5.567   2.097
 3394SOL    HW111081   3.421   5.607   2.173
 3394SOL    HW211082   3.414   5.503   2.047
 3395SOL     OW11083   1.693   6.321   3.146
 3395SOL    HW111084   1.737   6.302   3.059
 3395SOL    HW211085   1.653   6.237   3.182
 3396SOL     OW11086   3.913   6.984   4.316
 3396SOL    HW111087   3.944   6.889   4.318
 3396SOL    HW211088   3.829   6.992   4.262
 3397SOL     OW11089   3.363   5.964   2.312
 3397SOL    HW111090   3.333   5.970   2.407
 3397SOL    HW211091   3.388   5.869   2.291
 3398SOL     OW11092   6.316   0.165   1.200
 3398SOL    HW111093   6.278   0.257   1.210
 3398SOL    HW211094   6.281   0.123   1.116
 3399SOL     OW11095   5.845   6.451   2.393
 3399SOL    HW111096   5.784   6.395   2.449
 3399SOL    HW211097   5.806   6.461   2.302
 3400SOL     OW11098   3.387   3.366   5.954
 3400SOL    HW111099   3.418   3.290   6.011
 3400SOL    HW211100   3.290   3.354   5.932
 3401SOL     OW11101   6.430   3.780   3.796
 3401SOL    HW111102   6.382   3.693   3.808
 3401SOL    HW211103   6.524   3.771   3.827
 3402SOL     OW11104   6.813   4.063   0.286
 3402SOL    HW111105   6.754   3.984   0.270
 3402SOL    HW211106   6.907   4.041   0.259
 3403SOL     OW11107   5.442   6.912   4.129
 3403SOL    HW111108   5.357   6.863   4.109
 3403SOL    HW211109   5.424   7.010   4.135
 3404SOL     OW11110   5.011   4.791   2.995
 3404SOL    HW111111   5.067   4.732   2.938
 3404SOL    HW211112   5.047   4.790   3.089
 3405SOL     OW11113   4.518   0.251   0.145
 3405SOL    HW111114   4.520   0.242   0.045
 3405SOL    HW211115   4.454   0.323   0.170
 3406SOL     OW11116   4.993   4.759   0.985
 3406SOL    HW111117   4.976   4.661   0.975
 3406SOL    HW211118   5.010   4.800   0.895
 3407SOL     OW11119   2.184   1.835   0.590
 3407SOL    HW111120   2.282   1.819   0.586
 3407SOL    HW211121   2.164   1.901   0.662
 3408SOL     OW11122   2.955   6.713   4.595
 3408SOL    HW111123   2.870   6.703   4.645
 3408SOL    HW211124   3.015   6.636   4.616
 3409SOL     OW11125   4.751   2.046   0.311
 3409SOL    HW111126   4.693   1.965   0.294
 3409SOL    HW211127   4.709   2.103   0.382
 3410SOL     OW11128   6.382   1.663   2.450
 3410SOL    HW111129   6.443   1.585   2.462
 3410SOL    HW211130   6.369   1.680   2.352
 3411SOL     OW11131   5.133   3.427   6.442
 3411SOL    HW111132   5.095   3.503   6.494
 3411SOL    HW211133   5.066   3.352   6.439
 3412SOL     OW11134   4.887   3.683   2.772
 3412SOL    HW111135   4.921   3.639   2.689
 3412SOL    HW211136   4.894   3.783   2.762
 3413SOL     OW11137   1.428   2.079   0.687
 3413SOL    HW111138   1.499   2.013   0.711
 3413SOL    HW211139   1.367   2.093   0.766
 3414SOL     OW11140   3.351   3.255   1.919
 3414SOL    HW111141   3.398   3.188   1.975
 3414SOL    HW211142   3.254   3.255   1.943
 3415SOL     OW11143   2.764   0.933   6.860
 3415SOL    HW111144   2.836   0.932   6.930
 3415SOL    HW211145   2.763   0.845   6.813
 3416SOL     OW11146   5.518   5.811   6.457
 3416SOL    HW111147   5.511   5.746   6.532
 3416SOL    HW211148   5.472   5.897   6.482
 3417SOL     OW11149   5.859   0.202   2.634
 3417SOL    HW111150   5.818   0.226   2.722
 3417SOL    HW211151   5.928   0.269   2.610
 3418SOL     OW11152   4.500   5.925   1.371
 3418SOL    HW111153   4.414   5.974   1.384
 3418SOL    HW211154   4.538   5.901   1.460
 3419SOL     OW11155   2.864   4.634   5.417
 3419SOL    HW111156   2.871   4.593   5.326
 3419SOL    HW211157   2.947   4.616   5.469
 3420SOL     OW11158   5.065   0.286   2.556
 3420SOL    HW111159   5.154   0.284   2.510
 3420SOL    HW211160   5.002   0.343   2.503
 3421SOL     OW11161   0.822   1.448   4.654
 3421SOL    HW111162   0.826   1.395   4.739
 3421SOL    HW211163   0.851   1.391   4.578
 3422SOL     OW11164   3.257   5.033   1.753
 3422SOL    HW111165   3.294   4.976   1.826
 3422SOL    HW211166   3.294   5.004   1.665
 3423SOL     OW11167   1.484   5.652   5.758
 3423SOL    HW111168   1.581   5.635   5.772
 3423SOL    HW211169   1.439   5.666   5.846
 3424SOL     OW11170   5.905   5.476   2.953
 3424SOL    HW111171   5.822   5.516   2.992
 3424SOL    HW211172   5.953   5.546   2.899
 3425SOL     OW11173   6.087   3.261   6.376
 3425SOL    HW111174   6.062   3.316   6.296
 3425SOL    HW211175   6.184   3.275   6.396
 3426SOL     OW11176   6.494   5.343   6.161
 3426SOL    HW111177   6.590   5.320   6.179
 3426SOL    HW211178   6.489   5.433   6.119
 3427SOL     OW11179   1.724   1.054   6.374
 3427SOL    HW111180   1.688   0.977   6.427
 3427SOL    HW211181   1.683   1.053   6.283
 3428SOL     OW11182   4.015   1.107   4.048
 3428SOL    HW111183   4.008   1.198   4.007
 3428SOL    HW211184   3.934   1.054   4.024
 3429SOL     OW11185   5.470   5.464   0.288
 3429SOL    HW111186   5.484   5.427   0.380
 3429SOL    HW211187   5.377   5.500   0.280
 3430SOL     OW11188   2.635   4.441   6.845
 3430SOL    HW111189   2.572   4.434   6.923
 3430SOL    HW211190   2.720   4.392   6.866
 3431SOL     OW11191   1.636   3.740   1.675
 3431SOL    HW111192   1.559   3.724   1.737
 3431SOL    HW211193   1.715   3.688   1.708
 3432SOL     OW11194   0.063   5.620   6.720
 3432SOL    HW111195   0.002   5.543   6.704
 3432SOL    HW211196   0.147   5.607   6.666
 3433SOL     OW11197   0.539   1.029   0.039
 3433SOL    HW111198   0.579   1.107   0.088
 3433SOL    HW211199   0.458   1.059   7.006
 3434SOL     OW11200   4.293   3.079   1.486
 3434SOL    HW111201   4.241   3.018   1.545
 3434SOL    HW211202   4.320   3.161   1.537
 3435SOL     OW11203   3.671   2.707   1.259
 3435SOL    HW111204   3.614   2.625   1.267
 3435SOL    HW211205   3.734   2.711   1.336
 3436SOL     OW11206   4.723   5.346   4.899
 3436SOL    HW111207   4.745   5.436   4.861
 3436SOL    HW211208   4.781   5.277   4.855
 3437SOL     OW11209   2.866   5.515   0.491
 3437SOL    HW111210   2.788   5.458   0.468
 3437SOL    HW211211   2.835   5.596   0.540
 3438SOL     OW11212   2.396   4.177   0.795
 3438SOL    HW111213   2.311   4.137   0.760
 3438SOL    HW211214   2.395   4.175   0.895
 3439SOL     OW11215   3.089   5.716   1.000
 3439SOL    HW111216   3.095   5.632   1.055
 3439SOL    HW211217   3.142   5.788   1.044
 3440SOL     OW11218   4.314   4.714   5.490
 3440SOL    HW111219   4.319   4.805   5.447
 3440SOL    HW211220   4.271   4.722   5.580
 3441SOL     OW11221   0.641   5.810   5.712
 3441SOL    HW111222   0.630   5.812   5.812
 3441SOL    HW211223   0.558   5.773   5.670
 3442SOL     OW11224   1.859   1.790   6.925
 3442SOL    HW111225   1.936   1.851   6.943
 3442SOL    HW211226   1.888   1.695   6.941
 3443SOL     OW11227   6.822   6.076   2.236
 3443SOL    HW111228   6.725   6.061   2.255
 3443SOL    HW211229   6.876   6.005   2.282
 3444SOL     OW11230   1.421   4.029   5.678
 3444SOL    HW111231   1.425   4.124   5.706
 3444SOL    HW211232   1.507   3.983   5.700
 3445SOL     OW11233   5.763   4.502   4.161
 3445SOL    HW111234   5.808   4.521   4.248
 3445SOL    HW211235   5.825   4.526   4.086
 3446SOL     OW11236   5.611   1.262   6.640
 3446SOL    HW111237   5.662   1.333   6.688
 3446SOL    HW211238   5.617   1.176   6.690
 3447SOL     OW11239   5.751   1.681   6.190
 3447SOL    HW111240   5.694   1.617   6.138
 3447SOL    HW211241   5.807   1.733   6.126
 3448SOL     OW11242   0.725   5.649   4.788
 3448SOL    HW111243   0.703   5.703   4.869
 3448SOL    HW211244   0.687   5.693   4.707
 3449SOL     OW11245   1.024   4.353   4.513
 3449SOL    HW111246   1.068   4.422   4.456
 3449SOL    HW211247   0.990   4.396   4.597
 3450SOL     OW11248   1.923   6.814   3.283
 3450SOL    HW111249   1.892   6.724   3.313
 3450SOL    HW211250   2.020   6.809   3.257
 3451SOL     OW11251   2.251   1.674   0.983
 3451SOL    HW111252   2.350   1.684   0.980
 3451SOL    HW211253   2.208   1.744   0.927
 3452SOL     OW11254   4.658   1.042   5.222
 3452SOL    HW111255   4.585   1.027   5.156
 3452SOL    HW211256   4.728   1.101   5.181
 3453SOL     OW11257   4.662   6.563   5.729
 3453SOL    HW111258   4.577   6.546   5.778
 3453SOL    HW211259   4.680   6.489   5.665
 3454SOL     OW11260   1.410   3.469   3.982
 3454SOL    HW111261   1.459   3.547   4.021
 3454SOL    HW211262   1.468   3.421   3.918
 3455SOL     OW11263   1.845   3.675   6.009
 3455SOL    HW111264   1.877   3.757   6.057
 3455SOL    HW211265   1.777   3.628   6.066
 3456SOL     OW11266   4.765   4.901   2.638
 3456SOL    HW111267   4.763   4.973   2.707
 3456SOL    HW211268   4.859   4.877   2.617
 3457SOL     OW11269   4.501   4.173   0.302
 3457SOL    HW111270   4.535   4.226   0.380
 3457SOL    HW211271   4.539   4.211   0.218
 3458SOL     OW11272   4.425   1.344   1.234
 3458SOL    HW111273   4.346   1.405   1.235
 3458SOL    HW211274   4.508   1.398   1.217
 3459SOL     OW11275   6.169   0.815   2.419
 3459SOL    HW111276   6.242   0.880   2.439
 3459SOL    HW211277   6.150   0.760   2.500
 3460SOL     OW11278   5.200   1.912   5.222
 3460SOL    HW111279   5.217   2.007   5.195
 3460SOL    HW211280   5.102   1.899   5.238
 3461SOL     OW11281   5.058   4.489   5.033
 3461SOL    HW111282   5.063   4.537   5.121
 3461SOL    HW211283   5.134   4.518   4.975
 3462SOL     OW11284   1.325   3.974   6.844
 3462SOL    HW111285   1.405   3.947   6.790
 3462SOL    HW211286   1.252   3.907   6.832
 3463SOL     OW11287   6.358   3.553   0.082
 3463SOL    HW111288   6.333   3.619   0.011
 3463SOL    HW211289   6.275   3.524   0.130
 3464SOL     OW11290   0.548   4.870   4.854
 3464SOL    HW111291   0.458   4.899   4.822
 3464SOL    HW211292   0.615   4.941   4.834
 3465SOL     OW11293   1.217   2.428   0.903
 3465SOL    HW111294   1.253   2.459   0.815
 3465SOL    HW211295   1.156   2.497   0.941
 3466SOL     OW11296   4.679   4.214   3.286
 3466SOL    HW111297   4.745   4.139   3.292
 3466SOL    HW211298   4.587   4.177   3.275
 3467SOL     OW11299   1.943   1.331   6.171
 3467SOL    HW111300   1.865   1.331   6.234
 3467SOL    HW211301   1.949   1.419   6.124
 3468SOL     OW11302   5.794   5.035   1.846
 3468SOL    HW111303   5.876   5.045   1.903
 3468SOL    HW211304   5.715   5.016   1.904
 3469SOL     OW11305   6.076   3.162   0.835
 3469SOL    HW111306   6.158   3.118   0.799
 3469SOL    HW211307   6.003   3.094   0.846
 3470SOL     OW11308   6.245   6.023   6.200
 3470SOL    HW111309   6.245   5.930   6.235
 3470SOL    HW211310   6.153   6.063   6.211
 3471SOL     OW11311   4.218   6.701   4.638
 3471SOL    HW111312   4.228   6.761   4.559
 3471SOL    HW211313   4.131   6.653   4.632
 3472SOL     OW11314   3.350   0.812   3.762
 3472SOL    HW111315   3.320   0.717   3.760
 3472SOL    HW211316   3.312   0.860   3.683
 3473SOL     OW11317   4.826   6.955   3.573
 3473SOL    HW111318   4.829   0.028   3.619
 3473SOL    HW211319   4.909   6.942   3.519
 3474SOL     OW11320   6.230   5.027   1.080
 3474SOL    HW111321   6.278   5.109   1.051
 3474SOL    HW211322   6.263   4.998   1.170
 3475SOL     OW11323   1.925   5.711   5.164
 3475SOL    HW111324   1.953   5.805   5.183
 3475SOL    HW211325   1.923   5.697   5.065
 3476SOL     OW11326   2.281   2.029   2.765
 3476SOL    HW111327   2.266   2.071   2.855
 3476SOL    HW211328   2.196   1.988   2.732
 3477SOL     OW11329   4.645   5.539   2.402
 3477SOL    HW111330   4.597   5.532   2.489
 3477SOL    HW211331   4.704   5.459   2.389
 3478SOL     OW11332   3.899   5.263   0.155
 3478SOL    HW111333   3.873   5.213   0.237
 3478SOL    HW211334   3.999   5.273   0.152
 3479SOL     OW11335   2.081   1.242   0.603
 3479SOL    HW111336   2.154   1.284   0.550
 3479SOL    HW211337   2.091   1.265   0.700
 3480SOL     OW11338   2.032   6.802   4.917
 3480SOL    HW111339   2.075   6.792   5.006
 3480SOL    HW211340   2.058   6.890   4.876
 3481SOL     OW11341   1.699   4.594   0.432
 3481SOL    HW111342   1.731   4.646   0.511
 3481SOL    HW211343   1.602   4.574   0.442
 3482SOL     OW11344   6.958   2.298   1.293
 3482SOL    HW111345   6.920   2.384   1.328
 3482SOL    HW211346   6.961   2.301   1.193
 3483SOL     OW11347   4.221   1.801   1.234
 3483SOL    HW111348   4.295   1.859   1.199
 3483SOL    HW211349   4.183   1.843   1.316
 3484SOL     OW11350   3.485   3.834   4.018
 3484SOL    HW111351   3.385   3.833   4.015
 3484SOL    HW211352   3.517   3.927   4.037
 3485SOL     OW11353   6.206   2.973   3.821
 3485SOL    HW111354   6.297   2.950   3.788
 3485SOL    HW211355   6.204   2.966   3.921
 3486SOL     OW11356   6.233   1.693   2.839
 3486SOL    HW111357   6.215   1.597   2.815
 3486SOL    HW211358   6.275   1.739   2.762
 3487SOL     OW11359   1.422   6.170   1.781
 3487SOL    HW111360   1.326   6.193   1.795
 3487SOL    HW211361   1.436   6.073   1.798
 3488SOL     OW11362   6.814   2.728   5.097
 3488SOL    HW111363   6.910   2.747   5.118
 3488SOL    HW211364   6.801   2.729   4.998
 3489SOL     OW11365   2.154   5.520   6.939
 3489SOL    HW111366   2.133   5.598   6.879
 3489SOL    HW211367   2.182   5.554   0.013
 3490SOL     OW11368   5.564   3.201   6.993
 3490SOL    HW111369   5.477   3.226   6.950
 3490SOL    HW211370   5.638   3.216   6.928
 3491SOL     OW11371   6.239   2.770   5.032
 3491SOL    HW111372   6.196   2.680   5.032
 3491SOL    HW211373   6.285   2.785   5.119
 3492SOL     OW11374   0.842   4.114   6.401
 3492SOL    HW111375   0.875   4.147   6.489
 3492SOL    HW211376   0.792   4.187   6.354
 3493SOL     OW11377   0.421   4.759   1.073
 3493SOL    HW111378   0.468   4.804   1.149
 3493SOL    HW211379   0.362   4.686   1.108
 3494SOL     OW11380   3.235   6.792   1.295
 3494SOL    HW111381   3.149   6.841   1.280
 3494SOL    HW211382   3.279   6.829   1.377
 3495SOL     OW11383   5.356   3.992   6.036
 3495SOL    HW111384   5.380   4.089   6.023
 3495SOL    HW211385   5.424   3.935   5.990
 3496SOL     OW11386   0.816   6.586   1.412
 3496SOL    HW111387   0.853   6.659   1.353
 3496SOL    HW211388   0.888   6.555   1.474
 3497SOL     OW11389   3.062   0.163   4.725
 3497SOL    HW111390   3.119   0.085   4.747
 3497SOL    HW211391   3.119   0.238   4.692
 3498SOL     OW11392   1.827   1.521   0.841
 3498SOL    HW111393   1.901   1.536   0.774
 3498SOL    HW211394   1.741   1.508   0.793
 3499SOL     OW11395   0.126   4.499   2.890
 3499SOL    HW111396   0.084   4.515   2.800
 3499SOL    HW211397   0.130   4.401   2.908
 3500SOL     OW11398   6.697   2.627   0.397
 3500SOL    HW111399   6.786   2.587   0.373
 3500SOL    HW211400   6.657   2.668   0.315
 3501SOL     OW11401   6.732   5.058   3.134
 3501SOL    HW111402   6.695   5.050   3.226
 3501SOL    HW211403   6.657   5.060   3.067
 3502SOL     OW11404   1.251   6.423   1.418
 3502SOL    HW111405   1.171   6.449   1.472
 3502SOL    HW211406   1.327   6.401   1.479
 3503SOL     OW11407   3.054   1.008   3.160
 3503SOL    HW111408   3.148   1.019   3.129
 3503SOL    HW211409   3.052   0.990   3.258
 3504SOL     OW11410   1.857   2.288   2.209
 3504SOL    HW111411   1.834   2.383   2.234
 3504SOL    HW211412   1.908   2.246   2.284
 3505SOL     OW11413   4.006   0.414   4.069
 3505SOL    HW111414   4.055   0.406   3.983
 3505SOL    HW211415   4.004   0.325   4.116
 3506SOL     OW11416   6.226   3.036   3.296
 3506SOL    HW111417   6.207   2.967   3.366
 3506SOL    HW211418   6.185   3.008   3.209
 3507SOL     OW11419   0.046   6.592   5.387
 3507SOL    HW111420   0.073   6.496   5.377
 3507SOL    HW211421   0.127   6.649   5.395
 3508SOL     OW11422   0.283   4.730   0.104
 3508SOL    HW111423   0.216   4.729   0.030
 3508SOL    HW211424   0.370   4.765   0.070
 3509SOL     OW11425   3.568   6.770   0.250
 3509SOL    HW111426   3.477   6.778   0.288
 3509SOL    HW211427   3.568   6.701   0.177
 3510SOL     OW11428   2.394   1.589   3.220
 3510SOL    HW111429   2.344   1.637   3.147
 3510SOL    HW211430   2.478   1.550   3.182
 3511SOL     OW11431   0.248   1.071   4.275
 3511SOL    HW111432   0.288   0.979   4.270
 3511SOL    HW211433   0.190   1.078   4.356
 3512SOL     OW11434   3.215   2.981   2.000
 3512SOL    HW111435   3.255   2.906   1.949
 3512SOL    HW211436   3.131   3.012   1.955
 3513SOL     OW11437   6.717   4.822   0.430
 3513SOL    HW111438   6.731   4.798   0.334
 3513SOL    HW211439   6.727   4.921   0.441
 3514SOL     OW11440   3.186   5.808   3.677
 3514SOL    HW111441   3.266   5.864   3.699
 3514SOL    HW211442   3.126   5.859   3.615
 3515SOL     OW11443   3.432   5.469   4.433
 3515SOL    HW111444   3.408   5.387   4.485
 3515SOL    HW211445   3.452   5.445   4.339
 3516SOL     OW11446   1.947   1.589   0.491
 3516SOL    HW111447   2.002   1.607   0.573
 3516SOL    HW211448   1.947   1.490   0.473
 3517SOL     OW11449   0.662   1.296   6.451
 3517SOL    HW111450   0.574   1.270   6.492
 3517SOL    HW211451   0.734   1.237   6.488
 3518SOL     OW11452   4.313   3.681   5.987
 3518SOL    HW111453   4.386   3.706   5.924
 3518SOL    HW211454   4.225   3.713   5.951
 3519SOL     OW11455   4.612   0.504   6.003
 3519SOL    HW111456   4.669   0.455   5.936
 3519SOL    HW211457   4.564   0.438   6.060
 3520SOL     OW11458   4.584   5.075   1.401
 3520SOL    HW111459   4.539   5.155   1.438
 3520SOL    HW211460   4.617   5.017   1.475
 3521SOL     OW11461   0.150   1.644   5.582
 3521SOL    HW111462   0.197   1.579   5.641
 3521SOL    HW211463   0.067   1.676   5.627
 3522SOL     OW11464   2.467   0.611   1.004
 3522SOL    HW111465   2.497   0.525   0.964
 3522SOL    HW211466   2.411   0.661   0.938
 3523SOL     OW11467   2.154   4.651   4.191
 3523SOL    HW111468   2.169   4.711   4.112
 3523SOL    HW211469   2.241   4.616   4.224
 3524SOL     OW11470   2.886   1.507   3.215
 3524SOL    HW111471   2.877   1.603   3.189
 3524SOL    HW211472   2.867   1.497   3.313
 3525SOL     OW11473   1.850   3.408   3.674
 3525SOL    HW111474   1.815   3.352   3.599
 3525SOL    HW211475   1.943   3.379   3.697
 3526SOL     OW11476   3.372   5.751   4.097
 3526SOL    HW111477   3.391   5.660   4.060
 3526SOL    HW211478   3.308   5.744   4.173
 3527SOL     OW11479   6.791   4.362   6.725
 3527SOL    HW111480   6.725   4.288   6.735
 3527SOL    HW211481   6.872   4.329   6.676
 3528SOL     OW11482   0.713   6.284   3.754
 3528SOL    HW111483   0.770   6.366   3.758
 3528SOL    HW211484   0.765   6.208   3.715
 3529SOL     OW11485   3.618   0.068   0.060
 3529SOL    HW111486   3.658   0.114   6.996
 3529SOL    HW211487   3.526   0.036   0.037
 3530SOL     OW11488   2.163   5.209   1.984
 3530SOL    HW111489   2.228   5.187   1.912
 3530SOL    HW211490   2.070   5.212   1.946
 3531SOL     OW11491   5.146   4.199   6.875
 3531SOL    HW111492   5.067   4.182   6.934
 3531SOL    HW211493   5.123   4.173   6.781
 3532SOL     OW11494   2.383   0.184   6.103
 3532SOL    HW111495   2.451   0.252   6.077
 3532SOL    HW211496   2.410   0.141   6.190
 3533SOL     OW11497   1.452   1.124   2.836
 3533SOL    HW111498   1.522   1.189   2.808
 3533SOL    HW211499   1.362   1.166   2.824
 3534SOL     OW11500   4.768   6.837   4.661
 3534SOL    HW111501   4.750   6.742   4.688
 3534SOL    HW211502   4.840   6.875   4.718
 3535SOL     OW11503   3.651   4.616   0.176
 3535SOL    HW111504   3.632   4.609   0.078
 3535SOL    HW211505   3.570   4.588   0.228
 3536SOL     OW11506   2.157   3.134   2.555
 3536SOL    HW111507   2.140   3.231   2.574
 3536SOL    HW211508   2.190   3.089   2.638
 3537SOL     OW11509   3.135   5.240   1.458
 3537SOL    HW111510   3.088   5.272   1.540
 3537SOL    HW211511   3.067   5.218   1.387
 3538SOL     OW11512   2.845   0.125   3.910
 3538SOL    HW111513   2.806   0.179   3.984
 3538SOL    HW211514   2.908   0.180   3.857
 3539SOL     OW11515   5.369   4.852   6.386
 3539SOL    HW111516   5.368   4.808   6.476
 3539SOL    HW211517   5.278   4.889   6.366
 3540SOL     OW11518   5.291   3.789   6.734
 3540SOL    HW111519   5.316   3.705   6.781
 3540SOL    HW211520   5.292   3.865   6.799
 3541SOL     OW11521   0.389   3.056   2.760
 3541SOL    HW111522   0.320   3.109   2.712
 3541SOL    HW211523   0.431   3.112   2.831
 3542SOL     OW11524   6.086   0.661   6.697
 3542SOL    HW111525   6.055   0.665   6.602
 3542SOL    HW211526   6.100   0.566   6.723
 3543SOL     OW11527   0.706   2.966   5.006
 3543SOL    HW111528   0.724   3.050   5.057
 3543SOL    HW211529   0.629   2.918   5.047
 3544SOL     OW11530   4.246   4.781   5.743
 3544SOL    HW111531   4.148   4.776   5.760
 3544SOL    HW211532   4.289   4.838   5.813
 3545SOL     OW11533   2.439   6.602   1.760
 3545SOL    HW111534   2.466   6.662   1.837
 3545SOL    HW211535   2.341   6.610   1.745
 3546SOL     OW11536   6.718   3.926   1.261
 3546SOL    HW111537   6.631   3.944   1.307
 3546SOL    HW211538   6.727   3.987   1.182
 3547SOL     OW11539   1.813   4.337   4.206
 3547SOL    HW111540   1.765   4.422   4.187
 3547SOL    HW211541   1.851   4.300   4.121
 3548SOL     OW11542   6.022   6.649   5.526
 3548SOL    HW111543   6.083   6.674   5.601
 3548SOL    HW211544   5.941   6.603   5.562
 3549SOL     OW11545   1.266   0.142   6.871
 3549SOL    HW111546   1.263   0.235   6.909
 3549SOL    HW211547   1.250   0.076   6.944
 3550SOL     OW11548   6.757   2.486   4.722
 3550SOL    HW111549   6.842   2.451   4.762
 3550SOL    HW211550   6.745   2.447   4.630
 3551SOL     OW11551   6.519   1.801   5.401
 3551SOL    HW111552   6.463   1.879   5.372
 3551SOL    HW211553   6.583   1.777   5.328
 3552SOL     OW11554   6.035   0.891   4.028
 3552SOL    HW111555   5.980   0.844   3.959
 3552SOL    HW211556   6.085   0.824   4.082
 3553SOL     OW11557   5.489   5.680   6.690
 3553SOL    HW111558   5.433   5.619   6.745
 3553SOL    HW211559   5.570   5.707   6.743
 3554SOL     OW11560   5.981   3.331   6.992
 3554SOL    HW111561   5.946   3.419   6.961
 3554SOL    HW211562   6.064   3.309   6.942
 3555SOL     OW11563   2.767   0.801   4.771
 3555SOL    HW111564   2.691   0.799   4.707
 3555SOL    HW211565   2.738   0.765   4.860
 3556SOL     OW11566   5.411   1.504   0.423
 3556SOL    HW111567   5.427   1.429   0.486
 3556SOL    HW211568   5.488   1.513   0.361
 3557SOL     OW11569   5.044   0.631   0.936
 3557SOL    HW111570   5.065   0.702   1.003
 3557SOL    HW211571   4.973   0.571   0.973
 3558SOL     OW11572   4.458   5.893   3.522
 3558SOL    HW111573   4.390   5.965   3.533
 3558SOL    HW211574   4.413   5.804   3.526
 3559SOL     OW11575   4.378   6.207   0.002
 3559SOL    HW111576   4.450   6.196   6.949
 3559SOL    HW211577   4.341   6.300   7.013
 3560SOL     OW11578   1.773   5.581   4.039
 3560SOL    HW111579   1.704   5.551   4.105
 3560SOL    HW211580   1.791   5.678   4.052
 3561SOL     OW11581   4.504   3.165   6.295
 3561SOL    HW111582   4.415   3.209   6.278
 3561SOL    HW211583   4.561   3.226   6.350
 3562SOL     OW11584   2.854   1.278   0.677
 3562SOL    HW111585   2.869   1.372   0.647
 3562SOL    HW211586   2.927   1.220   0.644
 3563SOL     OW11587   6.024   2.292   6.028
 3563SOL    HW111588   5.942   2.321   5.978
 3563SOL    HW211589   6.008   2.301   6.126
 3564SOL     OW11590   5.854   2.881   3.123
 3564SOL    HW111591   5.815   2.829   3.200
 3564SOL    HW211592   5.869   2.976   3.151
 3565SOL     OW11593   4.863   6.333   5.218
 3565SOL    HW111594   4.790   6.365   5.158
 3565SOL    HW211595   4.950   6.339   5.169
 3566SOL     OW11596   0.650   0.731   4.479
 3566SOL    HW111597   0.723   0.798   4.489
 3566SOL    HW211598   0.615   0.706   4.570
 3567SOL     OW11599   1.635   4.328   6.930
 3567SOL    HW111600   1.683   4.244   6.953
 3567SOL    HW211601   1.588   4.363   7.012
 3568SOL     OW11602   1.893   3.757   5.234
 3568SOL    HW111603   1.975   3.756   5.290
 3568SOL    HW211604   1.821   3.809   5.280
 3569SOL     OW11605   0.611   0.270   3.490
 3569SOL    HW111606   0.544   0.236   3.556
 3569SOL    HW211607   0.645   0.194   3.434
 3570SOL     OW11608   0.205   1.657   4.587
 3570SOL    HW111609   0.207   1.757   4.590
 3570SOL    HW211610   0.168   1.622   4.674
 3571SOL     OW11611   0.063   5.719   5.108
 3571SOL    HW111612   0.052   5.678   5.198
 3571SOL    HW211613   0.100   5.811   5.117
 3572SOL     OW11614   5.067   6.901   5.210
 3572SOL    HW111615   5.022   6.965   5.272
 3572SOL    HW211616   5.049   6.807   5.241
 3573SOL     OW11617   0.266   2.651   1.841
 3573SOL    HW111618   0.314   2.608   1.917
 3573SOL    HW211619   0.216   2.731   1.874
 3574SOL     OW11620   1.268   3.587   0.447
 3574SOL    HW111621   1.352   3.593   0.502
 3574SOL    HW211622   1.220   3.674   0.451
 3575SOL     OW11623   6.807   0.477   2.302
 3575SOL    HW111624   6.883   0.529   2.262
 3575SOL    HW211625   6.739   0.541   2.339
 3576SOL     OW11626   0.808   0.946   0.852
 3576SOL    HW111627   0.870   0.964   0.929
 3576SOL    HW211628   0.831   1.007   0.776
 3577SOL     OW11629   1.998   4.477   0.761
 3577SOL    HW111630   1.927   4.472   0.831
 3577SOL    HW211631   2.039   4.568   0.762
 3578SOL     OW11632   3.724   4.868   1.747
 3578SOL    HW111633   3.692   4.786   1.794
 3578SOL    HW211634   3.661   4.890   1.672
 3579SOL     OW11635   2.517   2.581   6.686
 3579SOL    HW111636   2.530   2.680   6.697
 3579SOL    HW211637   2.434   2.564   6.633
 3580SOL     OW11638   5.488   0.838   2.442
 3580SOL    HW111639   5.475   0.757   2.500
 3580SOL    HW211640   5.414   0.844   2.375
 3581SOL     OW11641   0.082   1.859   2.366
 3581SOL    HW111642   0.025   1.884   2.445
 3581SOL    HW211643   0.152   1.793   2.395
 3582SOL     OW11644   0.840   0.465   5.935
 3582SOL    HW111645   0.840   0.366   5.928
 3582SOL    HW211646   0.768   0.503   5.876
 3583SOL     OW11647   1.001   6.933   2.494
 3583SOL    HW111648   1.041   6.985   2.418
 3583SOL    HW211649   0.904   6.955   2.502
 3584SOL     OW11650   5.553   0.395   4.863
 3584SOL    HW111651   5.648   0.374   4.843
 3584SOL    HW211652   5.543   0.493   4.880
 3585SOL     OW11653   2.163   5.101   2.302
 3585SOL    HW111654   2.107   5.140   2.375
 3585SOL    HW211655   2.151   5.154   2.218
 3586SOL     OW11656   1.386   1.181   6.405
 3586SOL    HW111657   1.446   1.244   6.455
 3586SOL    HW211658   1.362   1.221   6.317
 3587SOL     OW11659   3.810   6.092   5.497
 3587SOL    HW111660   3.819   6.030   5.420
 3587SOL    HW211661   3.806   6.040   5.582
 3588SOL     OW11662   2.727   2.490   5.262
 3588SOL    HW111663   2.629   2.474   5.278
 3588SOL    HW211664   2.749   2.585   5.284
 3589SOL     OW11665   2.923   5.889   4.920
 3589SOL    HW111666   2.933   5.863   4.824
 3589SOL    HW211667   2.945   5.811   4.979
 3590SOL     OW11668   0.917   6.324   6.764
 3590SOL    HW111669   0.953   6.234   6.788
 3590SOL    HW211670   0.987   6.393   6.782
 3591SOL     OW11671   4.705   2.295   4.406
 3591SOL    HW111672   4.691   2.377   4.463
 3591SOL    HW211673   4.692   2.320   4.310
 3592SOL     OW11674   5.652   1.300   1.994
 3592SOL    HW111675   5.747   1.300   2.026
 3592SOL    HW211676   5.643   1.237   1.918
 3593SOL     OW11677   1.249   5.151   4.804
 3593SOL    HW111678   1.297   5.073   4.765
 3593SOL    HW211679   1.315   5.223   4.828
 3594SOL     OW11680   4.336   1.952   4.528
 3594SOL    HW111681   4.368   2.015   4.599
 3594SOL    HW211682   4.410   1.890   4.503
 3595SOL     OW11683   1.862   6.636   6.451
 3595SOL    HW111684   1.892   6.555   6.402
 3595SOL    HW211685   1.805   6.692   6.392
 3596SOL     OW11686   6.268   3.227   2.791
 3596SOL    HW111687   6.230   3.177   2.713
 3596SOL    HW211688   6.261   3.325   2.775
 3597SOL     OW11689   4.199   0.207   3.705
 3597SOL    HW111690   4.156   0.285   3.660
 3597SOL    HW211691   4.248   0.152   3.638
 3598SOL     OW11692   2.139   6.955   0.252
 3598SOL    HW111693   2.159   6.951   0.154
 3598SOL    HW211694   2.210   6.906   0.303
 3599SOL     OW11695   0.253   2.344   4.402
 3599SOL    HW111696   0.267   2.440   4.377
 3599SOL    HW211697   0.259   2.334   4.501
 3600SOL     OW11698   6.550   6.341   0.864
 3600SOL    HW111699   6.471   6.280   0.854
 3600SOL    HW211700   6.621   6.315   0.798
 3601SOL     OW11701   0.011   4.048   5.949
 3601SOL    HW111702   6.970   4.115   5.902
 3601SOL    HW211703   0.106   4.061   5.923
 3602SOL     OW11704   3.782   1.932   0.933
 3602SOL    HW111705   3.703   1.944   0.994
 3602SOL    HW211706   3.862   1.908   0.987
 3603SOL     OW11707   3.583   5.378   5.115
 3603SOL    HW111708   3.496   5.331   5.129
 3603SOL    HW211709   3.657   5.322   5.152
 3604SOL     OW11710   5.671   4.351   3.355
 3604SOL    HW111711   5.663   4.348   3.255
 3604SOL    HW211712   5.632   4.437   3.389
 3605SOL     OW11713   5.928   0.991   6.477
 3605SOL    HW111714   5.883   0.956   6.559
 3605SOL    HW211715   5.925   0.922   6.405
 3606SOL     OW11716   1.880   4.196   2.374
 3606SOL    HW111717   1.915   4.247   2.295
 3606SOL    HW211718   1.954   4.182   2.439
 3607SOL     OW11719   4.599   6.238   4.947
 3607SOL    HW111720   4.628   6.326   4.983
 3607SOL    HW211721   4.613   6.236   4.848
 3608SOL     OW11722   6.981   3.244   2.586
 3608SOL    HW111723   6.970   3.206   2.677
 3608SOL    HW211724   6.893   3.281   2.554
 3609SOL     OW11725   0.658   0.957   3.832
 3609SOL    HW111726   0.603   1.002   3.902
 3609SOL    HW211727   0.748   1.001   3.827
 3610SOL     OW11728   1.660   4.774   5.122
 3610SOL    HW111729   1.637   4.683   5.088
 3610SOL    HW211730   1.599   4.798   5.197
 3611SOL     OW11731   4.321   4.834   6.704
 3611SOL    HW111732   4.403   4.813   6.650
 3611SOL    HW211733   4.348   4.864   6.795
 3612SOL     OW11734   2.913   5.758   1.430
 3612SOL    HW111735   2.848   5.727   1.499
 3612SOL    HW211736   2.928   5.686   1.363
 3613SOL     OW11737   5.377   4.248   6.587
 3613SOL    HW111738   5.314   4.184   6.542
 3613SOL    HW211739   5.328   4.330   6.614
 3614SOL     OW11740   3.914   3.278   5.006
 3614SOL    HW111741   3.958   3.287   4.917
 3614SOL    HW211742   3.864   3.191   5.010
 3615SOL     OW11743   5.879   6.458   6.675
 3615SOL    HW111744   5.850   6.553   6.664
 3615SOL    HW211745   5.820   6.412   6.742
 3616SOL     OW11746   6.726   1.421   4.213
 3616SOL    HW111747   6.785   1.414   4.132
 3616SOL    HW211748   6.744   1.507   4.260
 3617SOL     OW11749   0.299   0.910   1.605
 3617SOL    HW111750   0.203   0.906   1.576
 3617SOL    HW211751   0.343   0.822   1.588
 3618SOL     OW11752   3.728   5.463   6.413
 3618SOL    HW111753   3.648   5.492   6.466
 3618SOL    HW211754   3.804   5.446   6.475
 3619SOL     OW11755   5.021   3.119   3.800
 3619SOL    HW111756   5.089   3.177   3.755
 3619SOL    HW211757   5.030   3.025   3.766
 3620SOL     OW11758   5.877   1.924   5.488
 3620SOL    HW111759   5.967   1.905   5.529
 3620SOL    HW211760   5.808   1.927   5.560
 3621SOL     OW11761   2.841   2.562   6.599
 3621SOL    HW111762   2.921   2.610   6.565
 3621SOL    HW211763   2.758   2.610   6.570
 3622SOL     OW11764   1.315   3.766   1.169
 3622SOL    HW111765   1.219   3.754   1.143
 3622SOL    HW211766   1.341   3.695   1.234
 3623SOL     OW11767   6.034   5.256   4.479
 3623SOL    HW111768   6.098   5.316   4.432
 3623SOL    HW211769   5.984   5.308   4.549
 3624SOL     OW11770   1.919   6.752   1.689
 3624SOL    HW111771   1.880   6.698   1.614
 3624SOL    HW211772   1.860   6.744   1.769
 3625SOL     OW11773   1.419   2.716   5.288
 3625SOL    HW111774   1.387   2.660   5.364
 3625SOL    HW211775   1.351   2.714   5.215
 3626SOL     OW11776   2.073   3.144   5.347
 3626SOL    HW111777   2.080   3.073   5.417
 3626SOL    HW211778   2.103   3.106   5.259
 3627SOL     OW11779   3.950   3.107   4.187
 3627SOL    HW111780   3.918   3.032   4.245
 3627SOL    HW211781   3.886   3.120   4.111
 3628SOL     OW11782   2.755   5.309   3.943
 3628SOL    HW111783   2.657   5.330   3.942
 3628SOL    HW211784   2.788   5.311   4.037
 3629SOL     OW11785   5.986   3.890   4.960
 3629SOL    HW111786   6.078   3.891   4.920
 3629SOL    HW211787   5.949   3.797   4.955
 3630SOL     OW11788   6.273   2.000   4.263
 3630SOL    HW111789   6.333   2.030   4.338
 3630SOL    HW211790   6.226   1.916   4.290
 3631SOL     OW11791   2.341   1.274   4.428
 3631SOL    HW111792   2.267   1.207   4.422
 3631SOL    HW211793   2.316   1.357   4.378
 3632SOL     OW11794   4.879   6.551   6.804
 3632SOL    HW111795   4.904   6.537   6.900
 3632SOL    HW211796   4.921   6.635   6.771
 3633SOL     OW11797   1.016   2.818   5.737
 3633SOL    HW111798   1.021   2.847   5.642
 3633SOL    HW211799   1.012   2.718   5.742
 3634SOL     OW11800   2.058   4.604   6.405
 3634SOL    HW111801   2.113   4.557   6.473
 3634SOL    HW211802   2.020   4.538   6.340
 3635SOL     OW11803   1.570   2.020   4.606
 3635SOL    HW111804   1.549   2.113   4.577
 3635SOL    HW211805   1.597   1.965   4.527
 3636SOL     OW11806   0.447   6.689   1.702
 3636SOL    HW111807   0.430   6.607   1.648
 3636SOL    HW211808   0.508   6.666   1.779
 3637SOL     OW11809   5.491   1.658   2.244
 3637SOL    HW111810   5.480   1.756   2.263
 3637SOL    HW211811   5.426   1.606   2.299
 3638SOL     OW11812   6.848   5.331   3.291
 3638SOL    HW111813   6.841   5.430   3.293
 3638SOL    HW211814   6.843   5.299   3.196
 3639SOL     OW11815   2.731   5.500   0.056
 3639SOL    HW111816   2.725   5.500   6.973
 3639SOL    HW211817   2.727   5.406   0.090
 3640SOL     OW11818   2.424   6.929   3.712
 3640SOL    HW111819   2.520   6.956   3.719
 3640SOL    HW211820   2.366   7.001   3.751
 3641SOL     OW11821   2.036   0.127   4.927
 3641SOL    HW111822   2.088   0.186   4.989
 3641SOL    HW211823   1.941   0.121   4.958
 3642SOL     OW11824   5.864   0.595   2.542
 3642SOL    HW111825   5.819   0.523   2.487
 3642SOL    HW211826   5.826   0.684   2.516
 3643SOL     OW11827   3.879   6.928   3.698
 3643SOL    HW111828   3.961   6.872   3.708
 3643SOL    HW211829   3.892   6.994   3.623
 3644SOL     OW11830   5.688   0.563   1.217
 3644SOL    HW111831   5.703   0.587   1.312
 3644SOL    HW211832   5.624   0.628   1.175
 3645SOL     OW11833   4.348   5.113   3.774
 3645SOL    HW111834   4.366   5.060   3.857
 3645SOL    HW211835   4.327   5.208   3.799
 3646SOL     OW11836   0.406   5.638   5.048
 3646SOL    HW111837   0.499   5.602   5.060
 3646SOL    HW211838   0.344   5.587   5.108
 3647SOL     OW11839   3.827   2.429   0.852
 3647SOL    HW111840   3.919   2.393   0.868
 3647SOL    HW211841   3.817   2.451   0.755
 3648SOL     OW11842   2.163   6.218   4.030
 3648SOL    HW111843   2.189   6.313   4.048
 3648SOL    HW211844   2.109   6.214   3.946
 3649SOL     OW11845   3.734   2.922   2.824
 3649SOL    HW111846   3.729   2.934   2.725
 3649SOL    HW211847   3.642   2.906   2.860
 3650SOL     OW11848   5.567   5.962   1.979
 3650SOL    HW111849   5.504   6.034   1.951
 3650SOL    HW211850   5.549   5.879   1.925
 3651SOL     OW11851   1.899   5.681   1.667
 3651SOL    HW111852   1.841   5.662   1.746
 3651SOL    HW211853   1.891   5.778   1.643
 3652SOL     OW11854   4.166   6.881   3.586
 3652SOL    HW111855   4.126   6.790   3.594
 3652SOL    HW211856   4.262   6.878   3.614
 3653SOL     OW11857   0.362   3.592   3.303
 3653SOL    HW111858   0.295   3.651   3.256
 3653SOL    HW211859   0.314   3.524   3.357
 3654SOL     OW11860   2.229   0.093   1.553
 3654SOL    HW111861   2.143   0.138   1.529
 3654SOL    HW211862   2.217   0.040   1.638
 3655SOL     OW11863   6.406   1.113   3.753
 3655SOL    HW111864   6.380   1.050   3.827
 3655SOL    HW211865   6.325   1.140   3.702
 3656SOL     OW11866   1.437   1.739   2.729
 3656SOL    HW111867   1.465   1.738   2.825
 3656SOL    HW211868   1.476   1.820   2.684
 3657SOL     OW11869   5.974   5.072   0.997
 3657SOL    HW111870   5.883   5.071   1.038
 3657SOL    HW211871   6.044   5.073   1.068
 3658SOL     OW11872   2.904   4.028   5.364
 3658SOL    HW111873   2.950   3.968   5.429
 3658SOL    HW211874   2.822   4.066   5.406
 3659SOL     OW11875   1.587   3.161   0.172
 3659SOL    HW111876   1.649   3.085   0.190
 3659SOL    HW211877   1.511   3.159   0.237
 3660SOL     OW11878   5.242   3.735   0.877
 3660SOL    HW111879   5.249   3.803   0.950
 3660SOL    HW211880   5.154   3.688   0.884
 3661SOL     OW11881   4.947   0.743   2.466
 3661SOL    HW111882   4.962   0.644   2.470
 3661SOL    HW211883   5.018   0.786   2.410
 3662SOL     OW11884   1.647   6.676   4.433
 3662SOL    HW111885   1.643   6.734   4.352
 3662SOL    HW211886   1.648   6.580   4.405
 3663SOL     OW11887   2.725   2.804   5.842
 3663SOL    HW111888   2.676   2.723   5.872
 3663SOL    HW211889   2.672   2.886   5.864
 3664SOL     OW11890   3.859   0.087   1.879
 3664SOL    HW111891   3.864   7.012   1.839
 3664SOL    HW211892   3.906   0.087   1.967
 3665SOL     OW11893   2.199   1.557   5.378
 3665SOL    HW111894   2.167   1.462   5.375
 3665SOL    HW211895   2.151   1.610   5.307
 3666SOL     OW11896   0.882   4.772   3.097
 3666SOL    HW111897   0.835   4.712   3.162
 3666SOL    HW211898   0.956   4.721   3.053
 3667SOL     OW11899   0.331   0.679   6.892
 3667SOL    HW111900   0.338   0.691   6.793
 3667SOL    HW211901   0.259   0.740   6.927
 3668SOL     OW11902   1.845   0.303   1.190
 3668SOL    HW111903   1.921   0.342   1.137
 3668SOL    HW211904   1.762   0.355   1.172
 3669SOL     OW11905   5.521   1.320   4.307
 3669SOL    HW111906   5.599   1.314   4.244
 3669SOL    HW211907   5.438   1.337   4.255
 3670SOL     OW11908   3.368   4.734   6.202
 3670SOL    HW111909   3.381   4.830   6.226
 3670SOL    HW211910   3.455   4.693   6.177
 3671SOL     OW11911   1.750   1.639   2.968
 3671SOL    HW111912   1.653   1.660   2.985
 3671SOL    HW211913   1.770   1.546   2.999
 3672SOL     OW11914   5.844   5.838   0.187
 3672SOL    HW111915   5.785   5.917   0.173
 3672SOL    HW211916   5.790   5.760   0.219
 3673SOL     OW11917   3.488   6.873   5.894
 3673SOL    HW111918   3.469   6.785   5.850
 3673SOL    HW211919   3.479   6.864   5.993
 3674SOL     OW11920   1.256   6.399   0.802
 3674SOL    HW111921   1.171   6.426   0.846
 3674SOL    HW211922   1.251   6.418   0.704
 3675SOL     OW11923   1.727   1.964   4.241
 3675SOL    HW111924   1.650   1.931   4.185
 3675SOL    HW211925   1.813   1.947   4.193
 3676SOL     OW11926   0.602   4.792   2.458
 3676SOL    HW111927   0.620   4.867   2.394
 3676SOL    HW211928   0.636   4.817   2.549
 3677SOL     OW11929   6.400   1.144   3.331
 3677SOL    HW111930   6.430   1.158   3.237
 3677SOL    HW211931   6.457   1.075   3.375
 3678SOL     OW11932   0.558   2.831   3.976
 3678SOL    HW111933   0.510   2.760   4.029
 3678SOL    HW211934   0.510   2.918   3.986
 3679SOL     OW11935   6.367   1.130   1.708
 3679SOL    HW111936   6.339   1.034   1.701
 3679SOL    HW211937   6.463   1.139   1.684
 3680SOL     OW11938   6.503   4.119   5.241
 3680SOL    HW111939   6.523   4.210   5.205
 3680SOL    HW211940   6.462   4.063   5.170
 3681SOL     OW11941   5.240   0.299   4.420
 3681SOL    HW111942   5.281   0.360   4.488
 3681SOL    HW211943   5.247   0.341   4.330
 3682SOL     OW11944   0.465   1.813   0.173
 3682SOL    HW111945   0.401   1.740   0.148
 3682SOL    HW211946   0.470   1.880   0.098
 3683SOL     OW11947   4.611   6.654   4.003
 3683SOL    HW111948   4.687   6.589   3.994
 3683SOL    HW211949   4.573   6.673   3.913
 3684SOL     OW11950   2.228   4.018   2.026
 3684SOL    HW111951   2.309   4.031   1.969
 3684SOL    HW211952   2.225   3.924   2.059
 3685SOL     OW11953   5.879   5.488   6.336
 3685SOL    HW111954   5.843   5.501   6.428
 3685SOL    HW211955   5.880   5.576   6.287
 3686SOL     OW11956   0.597   4.087   0.534
 3686SOL    HW111957   0.535   4.009   0.526
 3686SOL    HW211958   0.560   4.153   0.599
 3687SOL     OW11959   3.943   1.350   1.032
 3687SOL    HW111960   4.039   1.336   1.008
 3687SOL    HW211961   3.911   1.273   1.088
 3688SOL     OW11962   0.230   2.521   6.806
 3688SOL    HW111963   0.229   2.587   6.881
 3688SOL    HW211964   0.302   2.544   6.741
 3689SOL     OW11965   1.297   5.994   3.558
 3689SOL    HW111966   1.234   5.929   3.601
 3689SOL    HW211967   1.247   6.050   3.492
 3690SOL     OW11968   4.774   4.550   5.838
 3690SOL    HW111969   4.705   4.622   5.849
 3690SOL    HW211970   4.772   4.515   5.745
 3691SOL     OW11971   3.256   3.191   6.512
 3691SOL    HW111972   3.246   3.277   6.462
 3691SOL    HW211973   3.166   3.160   6.543
 3692SOL     OW11974   6.587   0.620   5.328
 3692SOL    HW111975   6.560   0.631   5.232
 3692SOL    HW211976   6.547   0.535   5.364
 3693SOL     OW11977   1.369   1.760   3.774
 3693SOL    HW111978   1.361   1.835   3.708
 3693SOL    HW211979   1.452   1.772   3.828
 3694SOL     OW11980   1.679   5.007   3.197
 3694SOL    HW111981   1.760   4.958   3.230
 3694SOL    HW211982   1.617   4.942   3.153
 3695SOL     OW11983   2.604   2.525   0.847
 3695SOL    HW111984   2.594   2.563   0.939
 3695SOL    HW211985   2.530   2.461   0.828
 3696SOL     OW11986   2.956   6.034   6.022
 3696SOL    HW111987   2.937   5.953   6.078
 3696SOL    HW211988   3.054   6.047   6.013
 3697SOL     OW11989   5.396   1.201   2.909
 3697SOL    HW111990   5.299   1.181   2.922
 3697SOL    HW211991   5.414   1.218   2.812
 3698SOL     OW11992   3.072   0.379   5.724
 3698SOL    HW111993   2.983   0.341   5.699
 3698SOL    HW211994   3.134   0.374   5.646
 3699SOL     OW11995   1.238   5.294   2.416
 3699SOL    HW111996   1.319   5.245   2.450
 3699SOL    HW211997   1.190   5.237   2.349
 3700SOL     OW11998   6.426   6.936   3.956
 3700SOL    HW111999   6.516   6.975   3.977
 3700SOL    HW212000   6.357   7.008   3.954
 3701SOL     OW12001   4.165   1.389   3.692
 3701SOL    HW112002   4.214   1.391   3.605
 3701SOL    HW212003   4.164   1.481   3.732
 3702SOL     OW12004   5.089   1.218   6.213
 3702SOL    HW112005   5.027   1.222   6.134
 3702SOL    HW212006   5.051   1.157   6.282
 3703SOL     OW12007   3.532   4.534   0.576
 3703SOL    HW112008   3.608   4.591   0.608
 3703SOL    HW212009   3.548   4.439   0.601
 3704SOL     OW12010   3.578   6.325   0.810
 3704SOL    HW112011   3.560   6.346   0.906
 3704SOL    HW212012   3.531   6.392   0.752
 3705SOL     OW12013   6.850   1.387   3.957
 3705SOL    HW112014   6.802   1.306   3.924
 3705SOL    HW212015   6.948   1.377   3.942
 3706SOL     OW12016   2.432   2.362   3.168
 3706SOL    HW112017   2.520   2.370   3.122
 3706SOL    HW212018   2.446   2.352   3.266
 3707SOL     OW12019   4.215   2.026   5.401
 3707SOL    HW112020   4.306   2.000   5.368
 3707SOL    HW212021   4.149   1.956   5.373
 3708SOL     OW12022   6.390   6.533   0.603
 3708SOL    HW112023   6.382   6.584   0.517
 3708SOL    HW212024   6.299   6.508   0.635
 3709SOL     OW12025   0.790   6.287   6.428
 3709SOL    HW112026   0.743   6.267   6.514
 3709SOL    HW212027   0.882   6.247   6.431
 3710SOL     OW12028   0.980   4.927   6.053
 3710SOL    HW112029   0.989   4.906   5.956
 3710SOL    HW212030   1.031   4.861   6.107
 3711SOL     OW12031   6.408   4.795   2.281
 3711SOL    HW112032   6.389   4.729   2.209
 3711SOL    HW212033   6.327   4.854   2.294
 3712SOL     OW12034   1.447   0.059   5.618
 3712SOL    HW112035   1.476   0.150   5.588
 3712SOL    HW212036   1.352   0.043   5.589
 3713SOL     OW12037   3.278   4.638   5.830
 3713SOL    HW112038   3.247   4.730   5.854
 3713SOL    HW212039   3.333   4.641   5.747
 3714SOL     OW12040   4.849   2.647   4.649
 3714SOL    HW112041   4.811   2.738   4.665
 3714SOL    HW212042   4.885   2.609   4.734
 3715SOL     OW12043   4.482   4.589   4.109
 3715SOL    HW112044   4.430   4.586   4.194
 3715SOL    HW212045   4.421   4.610   4.033
 3716SOL     OW12046   1.430   1.361   4.814
 3716SOL    HW112047   1.523   1.375   4.850
 3716SOL    HW212048   1.427   1.389   4.718
 3717SOL     OW12049   6.133   0.389   6.682
 3717SOL    HW112050   6.191   0.359   6.758
 3717SOL    HW212051   6.092   0.310   6.638
 3718SOL     OW12052   0.732   6.801   6.180
 3718SOL    HW112053   0.684   6.884   6.206
 3718SOL    HW212054   0.734   6.737   6.257
 3719SOL     OW12055   3.716   4.107   0.493
 3719SOL    HW112056   3.760   4.019   0.478
 3719SOL    HW212057   3.621   4.093   0.520
 3720SOL     OW12058   6.596   1.309   6.627
 3720SOL    HW112059   6.620   1.385   6.566
 3720SOL    HW212060   6.549   1.238   6.575
 3721SOL     OW12061   5.893   2.584   0.323
 3721SOL    HW112062   5.909   2.678   0.293
 3721SOL    HW212063   5.813   2.547   0.275
 3722SOL     OW12064   4.091   5.852   1.179
 3722SOL    HW112065   4.106   5.754   1.166
 3722SOL    HW212066   4.130   5.880   1.267
 3723SOL     OW12067   3.658   1.227   0.430
 3723SOL    HW112068   3.606   1.189   0.354
 3723SOL    HW212069   3.756   1.219   0.410
 3724SOL     OW12070   1.226   3.584   6.565
 3724SOL    HW112071   1.229   3.485   6.547
 3724SOL    HW212072   1.151   3.604   6.628
 3725SOL     OW12073   4.882   6.161   2.074
 3725SOL    HW112074   4.922   6.139   2.163
 3725SOL    HW212075   4.837   6.079   2.036
 3726SOL     OW12076   6.060   3.354   2.293
 3726SOL    HW112077   6.031   3.262   2.268
 3726SOL    HW212078   5.983   3.403   2.335
 3727SOL     OW12079   2.606   2.270   5.401
 3727SOL    HW112080   2.564   2.358   5.423
 3727SOL    HW212081   2.705   2.277   5.412
 3728SOL     OW12082   0.807   3.591   6.779
 3728SOL    HW112083   0.792   3.494   6.764
 3728SOL    HW212084   0.721   3.641   6.771
 3729SOL     OW12085   1.228   3.445   3.518
 3729SOL    HW112086   1.320   3.480   3.539
 3729SOL    HW212087   1.183   3.419   3.603
 3730SOL     OW12088   1.837   0.014   1.198
 3730SOL    HW112089   1.851   0.113   1.196
 3730SOL    HW212090   1.746   7.009   1.162
 3731SOL     OW12091   2.443   6.289   0.115
 3731SOL    HW112092   2.370   6.346   0.077
 3731SOL    HW212093   2.412   6.248   0.201
 3732SOL     OW12094   1.887   4.047   3.990
 3732SOL    HW112095   1.861   4.050   4.087
 3732SOL    HW212096   1.985   4.032   3.983
 3733SOL     OW12097   3.350   3.336   1.612
 3733SOL    HW112098   3.342   3.342   1.711
 3733SOL    HW212099   3.286   3.267   1.577
 3734SOL     OW12100   4.291   1.428   3.459
 3734SOL    HW112101   4.296   1.357   3.388
 3734SOL    HW212102   4.383   1.452   3.489
 3735SOL     OW12103   3.764   2.231   1.621
 3735SOL    HW112104   3.813   2.310   1.583
 3735SOL    HW212105   3.752   2.245   1.720
 3736SOL     OW12106   5.225   0.645   6.282
 3736SOL    HW112107   5.152   0.621   6.217
 3736SOL    HW212108   5.246   0.566   6.339
 3737SOL     OW12109   2.662   6.998   3.796
 3737SOL    HW112110   2.694   6.903   3.792
 3737SOL    HW212111   2.730   0.037   3.843
 3738SOL     OW12112   0.633   0.344   4.315
 3738SOL    HW112113   0.724   0.365   4.351
 3738SOL    HW212114   0.642   0.295   4.228
 3739SOL     OW12115   0.183   3.379   0.684
 3739SOL    HW112116   0.258   3.444   0.672
 3739SOL    HW212117   0.208   3.292   0.640
 3740SOL     OW12118   5.943   0.158   0.308
 3740SOL    HW112119   5.944   0.193   0.214
 3740SOL    HW212120   5.978   0.229   0.369
 3741SOL     OW12121   4.034   0.759   6.397
 3741SOL    HW112122   4.069   0.757   6.491
 3741SOL    HW212123   4.074   0.837   6.349
 3742SOL     OW12124   3.712   3.342   6.314
 3742SOL    HW112125   3.625   3.295   6.324
 3742SOL    HW212126   3.699   3.441   6.325
 3743SOL     OW12127   1.124   5.818   5.735
 3743SOL    HW112128   1.044   5.878   5.731
 3743SOL    HW212129   1.177   5.828   5.651
 3744SOL     OW12130   6.390   4.962   3.547
 3744SOL    HW112131   6.404   4.874   3.501
 3744SOL    HW212132   6.336   4.948   3.630
 3745SOL     OW12133   5.188   4.715   1.405
 3745SOL    HW112134   5.281   4.708   1.368
 3745SOL    HW212135   5.149   4.803   1.378
 3746SOL     OW12136   4.663   1.600   1.177
 3746SOL    HW112137   4.711   1.631   1.095
 3746SOL    HW212138   4.731   1.575   1.247
 3747SOL     OW12139   2.953   6.695   1.184
 3747SOL    HW112140   2.911   6.607   1.163
 3747SOL    HW212141   3.052   6.686   1.184
 3748SOL     OW12142   5.468   0.637   1.906
 3748SOL    HW112143   5.560   0.609   1.937
 3748SOL    HW212144   5.400   0.605   1.972
 3749SOL     OW12145   0.914   1.089   3.879
 3749SOL    HW112146   0.883   1.129   3.966
 3749SOL    HW212147   0.952   0.999   3.896
 3750SOL     OW12148   0.892   3.574   0.188
 3750SOL    HW112149   0.799   3.610   0.194
 3750SOL    HW212150   0.957   3.650   0.184
 3751SOL     OW12151   2.252   5.010   1.421
 3751SOL    HW112152   2.217   4.972   1.507
 3751SOL    HW212153   2.254   5.110   1.427
 3752SOL     OW12154   5.615   5.308   6.626
 3752SOL    HW112155   5.668   5.384   6.589
 3752SOL    HW212156   5.674   5.227   6.635
 3753SOL     OW12157   0.097   1.563   3.792
 3753SOL    HW112158   0.056   1.641   3.840
 3753SOL    HW212159   0.197   1.569   3.800
 3754SOL     OW12160   4.093   1.465   1.524
 3754SOL    HW112161   4.128   1.452   1.431
 3754SOL    HW212162   4.098   1.378   1.574
 3755SOL     OW12163   2.699   6.495   4.727
 3755SOL    HW112164   2.721   6.495   4.629
 3755SOL    HW212165   2.738   6.414   4.770
 3756SOL     OW12166   1.008   6.156   0.609
 3756SOL    HW112167   0.962   6.240   0.582
 3756SOL    HW212168   1.106   6.164   0.589
 3757SOL     OW12169   0.982   5.058   0.119
 3757SOL    HW112170   1.059   4.997   0.134
 3757SOL    HW212171   0.986   5.096   0.026
 3758SOL     OW12172   6.963   5.741   4.024
 3758SOL    HW112173   6.926   5.775   3.938
 3758SOL    HW212174   0.014   5.807   4.060
 3759SOL     OW12175   4.821   0.688   3.436
 3759SOL    HW112176   4.810   0.596   3.473
 3759SOL    HW212177   4.742   0.710   3.377
 3760SOL     OW12178   0.293   1.256   3.561
 3760SOL    HW112179   0.317   1.162   3.539
 3760SOL    HW212180   0.229   1.258   3.638
 3761SOL     OW12181   3.900   1.033   4.627
 3761SOL    HW112182   3.828   0.983   4.676
 3761SOL    HW212183   3.942   1.099   4.688
 3762SOL     OW12184   6.692   1.868   3.258
 3762SOL    HW112185   6.628   1.937   3.226
 3762SOL    HW212186   6.671   1.845   3.353
 3763SOL     OW12187   0.838   6.956   6.483
 3763SOL    HW112188   0.751   6.969   6.530
 3763SOL    HW212189   0.847   6.860   6.455
 3764SOL     OW12190   4.663   2.217   2.603
 3764SOL    HW112191   4.682   2.119   2.599
 3764SOL    HW212192   4.740   2.268   2.563
 3765SOL     OW12193   5.708   3.482   1.953
 3765SOL    HW112194   5.730   3.392   1.992
 3765SOL    HW212195   5.789   3.517   1.905
 3766SOL     OW12196   2.491   2.459   2.551
 3766SOL    HW112197   2.453   2.549   2.533
 3766SOL    HW212198   2.421   2.401   2.595
 3767SOL     OW12199   1.592   6.004   5.495
 3767SOL    HW112200   1.564   6.099   5.486
 3767SOL    HW212201   1.687   6.000   5.527
 3768SOL     OW12202   1.286   6.512   4.009
 3768SOL    HW112203   1.204   6.569   4.010
 3768SOL    HW212204   1.265   6.424   3.966
 3769SOL     OW12205   4.914   5.095   6.292
 3769SOL    HW112206   4.882   5.186   6.268
 3769SOL    HW212207   4.835   5.033   6.299
 3770SOL     OW12208   2.523   0.234   0.391
 3770SOL    HW112209   2.559   0.297   0.460
 3770SOL    HW212210   2.429   0.260   0.369
 3771SOL     OW12211   6.402   6.177   5.736
 3771SOL    HW112212   6.352   6.171   5.822
 3771SOL    HW212213   6.474   6.246   5.745
 3772SOL     OW12214   3.537   5.538   1.664
 3772SOL    HW112215   3.448   5.502   1.635
 3772SOL    HW212216   3.525   5.591   1.749
 3773SOL     OW12217   4.791   3.951   6.919
 3773SOL    HW112218   4.873   3.895   6.926
 3773SOL    HW212219   4.712   3.892   6.900
 3774SOL     OW12220   0.007   4.242   1.035
 3774SOL    HW112221   0.013   4.294   1.121
 3774SOL    HW212222   0.014   4.144   1.055
 3775SOL     OW12223   5.937   6.553   5.166
 3775SOL    HW112224   5.850   6.505   5.154
 3775SOL    HW212225   5.920   6.650   5.179
 3776SOL     OW12226   4.217   2.761   6.521
 3776SOL    HW112227   4.137   2.757   6.462
 3776SOL    HW212228   4.293   2.801   6.471
 3777SOL     OW12229   3.137   5.152   3.404
 3777SOL    HW112230   3.121   5.249   3.387
 3777SOL    HW212231   3.057   5.100   3.377
 3778SOL     OW12232   2.737   5.538   6.509
 3778SOL    HW112233   2.664   5.592   6.467
 3778SOL    HW212234   2.746   5.563   6.605
 3779SOL     OW12235   6.495   5.254   6.442
 3779SOL    HW112236   6.494   5.295   6.351
 3779SOL    HW212237   6.462   5.160   6.437
 3780SOL     OW12238   5.966   2.038   1.463
 3780SOL    HW112239   5.905   2.057   1.540
 3780SOL    HW212240   5.912   2.025   1.380
 3781SOL     OW12241   1.346   0.772   6.681
 3781SOL    HW112242   1.290   0.732   6.609
 3781SOL    HW212243   1.439   0.734   6.677
 3782SOL     OW12244   3.065   5.513   6.861
 3782SOL    HW112245   3.112   5.518   6.773
 3782SOL    HW212246   3.105   5.579   6.924
 3783SOL     OW12247   4.865   5.258   5.359
 3783SOL    HW112248   4.789   5.209   5.402
 3783SOL    HW212249   4.908   5.319   5.425
 3784SOL     OW12250   5.220   3.988   5.355
 3784SOL    HW112251   5.285   4.064   5.361
 3784SOL    HW212252   5.145   4.012   5.294
 3785SOL     OW12253   0.883   3.698   2.438
 3785SOL    HW112254   0.784   3.686   2.430
 3785SOL    HW212255   0.927   3.669   2.353
 3786SOL     OW12256   3.121   2.934   6.340
 3786SOL    HW112257   3.061   2.925   6.260
 3786SOL    HW212258   3.110   3.025   6.379
 3787SOL     OW12259   5.621   5.939   5.666
 3787SOL    HW112260   5.644   5.851   5.624
 3787SOL    HW212261   5.649   5.939   5.762
 3788SOL     OW12262   5.723   3.033   5.794
 3788SOL    HW112263   5.780   2.970   5.741
 3788SOL    HW212264   5.635   2.991   5.813
 3789SOL     OW12265   1.815   4.885   1.722
 3789SOL    HW112266   1.836   4.788   1.708
 3789SOL    HW212267   1.733   4.894   1.778
 3790SOL     OW12268   2.864   0.214   1.901
 3790SOL    HW112269   2.818   0.225   1.813
 3790SOL    HW212270   2.868   0.302   1.948
 3791SOL     OW12271   4.972   0.902   4.137
 3791SOL    HW112272   4.994   0.894   4.039
 3791SOL    HW212273   5.056   0.911   4.189
 3792SOL     OW12274   6.109   0.508   3.580
 3792SOL    HW112275   6.198   0.484   3.542
 3792SOL    HW212276   6.098   0.608   3.580
 3793SOL     OW12277   5.302   3.274   6.947
 3793SOL    HW112278   5.230   3.269   7.016
 3793SOL    HW212279   5.262   3.265   6.856
 3794SOL     OW12280   1.956   5.294   5.436
 3794SOL    HW112281   2.007   5.380   5.433
 3794SOL    HW212282   2.019   5.217   5.429
 3795SOL     OW12283   3.658   6.134   0.647
 3795SOL    HW112284   3.630   6.147   0.552
 3795SOL    HW212285   3.647   6.219   0.697
 3796SOL     OW12286   5.484   1.061   0.352
 3796SOL    HW112287   5.537   1.046   0.268
 3796SOL    HW212288   5.441   0.975   0.380
 3797SOL     OW12289   0.001   1.505   1.048
 3797SOL    HW112290   6.927   1.501   1.004
 3797SOL    HW212291   0.051   1.584   1.014
 3798SOL     OW12292   6.871   3.681   4.163
 3798SOL    HW112293   6.969   3.665   4.149
 3798SOL    HW212294   6.834   3.729   4.084
 3799SOL     OW12295   6.743   2.088   2.423
 3799SOL    HW112296   6.700   2.088   2.333
 3799SOL    HW212297   6.823   2.148   2.423
 3800SOL     OW12298   5.654   3.323   1.742
 3800SOL    HW112299   5.559   3.311   1.711
 3800SOL    HW212300   5.661   3.407   1.796
 3801SOL     OW12301   5.710   1.381   0.102
 3801SOL    HW112302   5.708   1.481   0.098
 3801SOL    HW212303   5.674   1.351   0.191
 3802SOL     OW12304   6.045   3.604   3.593
 3802SOL    HW112305   6.088   3.690   3.621
 3802SOL    HW212306   6.083   3.575   3.505
 3803SOL     OW12307   3.954   4.355   6.579
 3803SOL    HW112308   3.934   4.413   6.500
 3803SOL    HW212309   4.052   4.362   6.601
 3804SOL     OW12310   3.499   6.225   3.496
 3804SOL    HW112311   3.455   6.135   3.494
 3804SOL    HW212312   3.515   6.252   3.591
 3805SOL     OW12313   2.675   1.929   6.989
 3805SOL    HW112314   2.659   1.882   0.060
 3805SOL    HW212315   2.642   1.871   6.914
 3806SOL     OW12316   1.935   4.337   2.138
 3806SOL    HW112317   2.032   4.337   2.114
 3806SOL    HW212318   1.914   4.416   2.196
 3807SOL     OW12319   6.930   4.126   4.317
 3807SOL    HW112320   6.987   4.056   4.273
 3807SOL    HW212321   6.867   4.082   4.381
 3808SOL     OW12322   2.435   6.339   6.079
 3808SOL    HW112323   2.534   6.348   6.082
 3808SOL    HW212324   2.408   6.251   6.117
 3809SOL     OW12325   5.721   2.085   1.253
 3809SOL    HW112326   5.660   2.022   1.205
 3809SOL    HW212327   5.748   2.159   1.193
 3810SOL     OW12328   4.670   1.940   4.139
 3810SOL    HW112329   4.598   1.990   4.186
 3810SOL    HW212330   4.687   1.982   4.050
 3811SOL     OW12331   0.295   6.185   5.866
 3811SOL    HW112332   0.210   6.198   5.816
 3811SOL    HW212333   0.310   6.262   5.929
 3812SOL     OW12334   4.339   5.791   0.515
 3812SOL    HW112335   4.382   5.726   0.578
 3812SOL    HW212336   4.401   5.867   0.498
 3813SOL     OW12337   6.850   3.319   6.734
 3813SOL    HW112338   6.762   3.360   6.713
 3813SOL    HW212339   6.837   3.224   6.762
 3814SOL     OW12340   0.162   0.478   4.881
 3814SOL    HW112341   0.188   0.390   4.844
 3814SOL    HW212342   0.063   0.490   4.873
 3815SOL     OW12343   4.549   1.811   5.550
 3815SOL    HW112344   4.469   1.809   5.610
 3815SOL    HW212345   4.603   1.728   5.565
 3816SOL     OW12346   6.376   6.586   1.896
 3816SOL    HW112347   6.286   6.609   1.933
 3816SOL    HW212348   6.442   6.656   1.923
 3817SOL     OW12349   3.802   3.953   2.886
 3817SOL    HW112350   3.824   3.970   2.982
 3817SOL    HW212351   3.708   3.918   2.879
 3818SOL     OW12352   4.551   5.703   2.214
 3818SOL    HW112353   4.596   5.640   2.277
 3818SOL    HW212354   4.620   5.754   2.163
 3819SOL     OW12355   6.096   2.564   2.897
 3819SOL    HW112356   6.122   2.477   2.855
 3819SOL    HW212357   6.179   2.613   2.925
 3820SOL     OW12358   3.321   6.608   6.103
 3820SOL    HW112359   3.281   6.529   6.055
 3820SOL    HW212360   3.413   6.625   6.068
 3821SOL     OW12361   1.139   6.550   1.189
 3821SOL    HW112362   1.144   6.650   1.185
 3821SOL    HW212363   1.183   6.517   1.272
 3822SOL     OW12364   6.409   6.449   1.396
 3822SOL    HW112365   6.380   6.362   1.356
 3822SOL    HW212366   6.363   6.462   1.484
 3823SOL     OW12367   5.926   5.688   4.201
 3823SOL    HW112368   5.885   5.597   4.210
 3823SOL    HW212369   5.947   5.723   4.292
 3824SOL     OW12370   1.736   2.313   0.934
 3824SOL    HW112371   1.799   2.259   0.879
 3824SOL    HW212372   1.665   2.353   0.876
 3825SOL     OW12373   0.337   4.672   5.494
 3825SOL    HW112374   0.284   4.611   5.435
 3825SOL    HW212375   0.275   4.718   5.559
 3826SOL     OW12376   4.580   4.426   3.845
 3826SOL    HW112377   4.615   4.370   3.920
 3826SOL    HW212378   4.535   4.507   3.882
 3827SOL     OW12379   0.711   1.167   0.194
 3827SOL    HW112380   0.797   1.123   0.219
 3827SOL    HW212381   0.696   1.246   0.254
 3828SOL     OW12382   2.839   3.550   5.747
 3828SOL    HW112383   2.781   3.487   5.695
 3828SOL    HW212384   2.846   3.637   5.697
 3829SOL     OW12385   6.713   2.231   1.730
 3829SOL    HW112386   6.686   2.327   1.737
 3829SOL    HW212387   6.767   2.218   1.648
 3830SOL     OW12388   5.409   6.049   3.598
 3830SOL    HW112389   5.337   6.076   3.534
 3830SOL    HW212390   5.377   6.061   3.692
 3831SOL     OW12391   5.430   2.125   4.450
 3831SOL    HW112392   5.354   2.106   4.512
 3831SOL    HW212393   5.401   2.111   4.356
 3832SOL     OW12394   6.345   1.416   3.954
 3832SOL    HW112395   6.274   1.346   3.962
 3832SOL    HW212396   6.364   1.455   4.044
 3833SOL     OW12397   2.338   3.322   5.684
 3833SOL    HW112398   2.248   3.279   5.692
 3833SOL    HW212399   2.341   3.378   5.602
 3834SOL     OW12400   4.479   4.798   0.627
 3834SOL    HW112401   4.425   4.854   0.689
 3834SOL    HW212402   4.576   4.819   0.638
 3835SOL     OW12403   4.806   5.150   4.426
 3835SOL    HW112404   4.720   5.189   4.392
 3835SOL    HW212405   4.837   5.202   4.505
 3836SOL     OW12406   0.622   0.373   5.101
 3836SOL    HW112407   0.597   0.413   5.189
 3836SOL    HW212408   0.561   0.296   5.081
 3837SOL     OW12409   4.747   4.435   5.600
 3837SOL    HW112410   4.765   4.512   5.539
 3837SOL    HW212411   4.716   4.357   5.546
 3838SOL     OW12412   0.743   1.859   3.409
 3838SOL    HW112413   0.749   1.884   3.506
 3838SOL    HW212414   0.719   1.940   3.356
 3839SOL     OW12415   4.725   1.375   4.225
 3839SOL    HW112416   4.690   1.468   4.210
 3839SOL    HW212417   4.648   1.312   4.235
 3840SOL     OW12418   3.957   1.531   5.638
 3840SOL    HW112419   3.895   1.600   5.676
 3840SOL    HW212420   3.930   1.510   5.544
 3841SOL     OW12421   5.713   3.840   2.897
 3841SOL    HW112422   5.696   3.831   2.995
 3841SOL    HW212423   5.766   3.761   2.865
 3842SOL     OW12424   1.777   3.962   4.841
 3842SOL    HW112425   1.869   3.971   4.880
 3842SOL    HW212426   1.728   4.048   4.850
 3843SOL     OW12427   5.596   2.100   6.936
 3843SOL    HW112428   5.593   2.149   6.849
 3843SOL    HW212429   5.665   2.142   6.995
 3844SOL     OW12430   5.634   6.594   0.625
 3844SOL    HW112431   5.627   6.503   0.666
 3844SOL    HW212432   5.709   6.595   0.559
 3845SOL     OW12433   1.896   5.313   0.296
 3845SOL    HW112434   1.890   5.363   0.210
 3845SOL    HW212435   1.923   5.218   0.277
 3846SOL     OW12436   6.715   3.236   2.748
 3846SOL    HW112437   6.803   3.201   2.781
 3846SOL    HW212438   6.725   3.334   2.727
 3847SOL     OW12439   0.286   0.700   6.619
 3847SOL    HW112440   0.377   0.730   6.591
 3847SOL    HW212441   0.281   0.600   6.614
 3848SOL     OW12442   5.679   4.967   2.700
 3848SOL    HW112443   5.777   4.949   2.716
 3848SOL    HW212444   5.649   5.042   2.759
 3849SOL     OW12445   0.223   2.958   5.591
 3849SOL    HW112446   0.140   3.001   5.554
 3849SOL    HW212447   0.232   2.980   5.688
 3850SOL     OW12448   3.427   2.872   1.275
 3850SOL    HW112449   3.500   2.804   1.261
 3850SOL    HW212450   3.365   2.870   1.196
 3851SOL     OW12451   0.052   5.536   2.301
 3851SOL    HW112452   0.137   5.525   2.352
 3851SOL    HW212453   0.030   5.450   2.254
 3852SOL     OW12454   3.453   0.410   4.789
 3852SOL    HW112455   3.390   0.402   4.866
 3852SOL    HW212456   3.456   0.505   4.758
 3853SOL     OW12457   1.986   1.173   3.343
 3853SOL    HW112458   1.976   1.155   3.441
 3853SOL    HW212459   1.897   1.199   3.305
 3854SOL     OW12460   0.297   1.196   2.193
 3854SOL    HW112461   0.317   1.135   2.270
 3854SOL    HW212462   0.380   1.247   2.170
 3855SOL     OW12463   2.804   5.823   6.768
 3855SOL    HW112464   2.880   5.870   6.813
 3855SOL    HW212465   2.719   5.874   6.784
 3856SOL     OW12466   6.943   2.943   6.381
 3856SOL    HW112467   6.865   2.950   6.443
 3856SOL    HW212468   0.012   2.942   6.434
 3857SOL     OW12469   1.145   0.078   5.628
 3857SOL    HW112470   1.098   0.021   5.695
 3857SOL    HW212471   1.133   0.175   5.653
 3858SOL     OW12472   3.158   0.915   4.929
 3858SOL    HW112473   3.109   0.890   5.012
 3858SOL    HW212474   3.195   1.007   4.938
 3859SOL     OW12475   5.478   6.709   3.128
 3859SOL    HW112476   5.499   6.802   3.098
 3859SOL    HW212477   5.464   6.650   3.049
 3860SOL     OW12478   1.599   6.490   4.761
 3860SOL    HW112479   1.665   6.496   4.686
 3860SOL    HW212480   1.524   6.555   4.744
 3861SOL     OW12481   2.348   6.110   2.179
 3861SOL    HW112482   2.419   6.156   2.126
 3861SOL    HW212483   2.327   6.022   2.136
 3862SOL     OW12484   1.927   0.640   4.062
 3862SOL    HW112485   1.921   0.582   3.981
 3862SOL    HW212486   1.845   0.627   4.118
 3863SOL     OW12487   3.970   0.128   1.186
 3863SOL    HW112488   3.931   0.167   1.103
 3863SOL    HW212489   3.927   0.171   1.266
 3864SOL     OW12490   1.147   1.021   4.762
 3864SOL    HW112491   1.076   0.999   4.829
 3864SOL    HW212492   1.214   0.947   4.759
 3865SOL     OW12493   5.130   1.007   0.602
 3865SOL    HW112494   5.071   1.041   0.529
 3865SOL    HW212495   5.084   0.933   0.650
 3866SOL     OW12496   3.741   1.421   6.478
 3866SOL    HW112497   3.709   1.424   6.383
 3866SOL    HW212498   3.720   1.331   6.517
 3867SOL     OW12499   6.794   3.394   2.433
 3867SOL    HW112500   6.879   3.419   2.387
 3867SOL    HW212501   6.743   3.477   2.455
 3868SOL     OW12502   4.081   0.879   0.046
 3868SOL    HW112503   4.008   0.926   0.095
 3868SOL    HW212504   4.169   0.924   0.064
 3869SOL     OW12505   3.233   0.923   3.559
 3869SOL    HW112506   3.229   1.022   3.547
 3869SOL    HW212507   3.145   0.883   3.534
 3870SOL     OW12508   6.693   1.918   5.887
 3870SOL    HW112509   6.628   1.967   5.829
 3870SOL    HW212510   6.700   1.823   5.856
 3871SOL     OW12511   2.789   5.001   4.304
 3871SOL    HW112512   2.804   4.947   4.387
 3871SOL    HW212513   2.804   4.943   4.224
 3872SOL     OW12514   2.969   3.876   5.144
 3872SOL    HW112515   2.978   3.950   5.210
 3872SOL    HW212516   3.052   3.820   5.145
 3873SOL     OW12517   5.537   2.518   6.354
 3873SOL    HW112518   5.460   2.507   6.418
 3873SOL    HW212519   5.543   2.436   6.296
 3874SOL     OW12520   1.920   0.809   2.022
 3874SOL    HW112521   1.887   0.716   2.041
 3874SOL    HW212522   1.950   0.815   1.927
 3875SOL     OW12523   0.523   0.750   6.533
 3875SOL    HW112524   0.519   0.760   6.434
 3875SOL    HW212525   0.599   0.690   6.558
 3876SOL     OW12526   3.314   5.377   1.969
 3876SOL    HW112527   3.352   5.285   1.969
 3876SOL    HW212528   3.304   5.409   1.875
 3877SOL     OW12529   0.827   1.550   5.968
 3877SOL    HW112530   0.879   1.580   5.888
 3877SOL    HW212531   0.751   1.492   5.939
 3878SOL     OW12532   4.225   1.728   4.879
 3878SOL    HW112533   4.156   1.665   4.912
 3878SOL    HW212534   4.208   1.749   4.783
 3879SOL     OW12535   5.489   5.137   6.812
 3879SOL    HW112536   5.519   5.195   6.736
 3879SOL    HW212537   5.461   5.048   6.777
 3880SOL     OW12538   4.895   5.273   3.627
 3880SOL    HW112539   4.802   5.254   3.658
 3880SOL    HW212540   4.960   5.225   3.686
 3881SOL     OW12541   1.900   2.579   0.008
 3881SOL    HW112542   1.823   2.520   0.034
 3881SOL    HW212543   1.980   2.554   0.062
 3882SOL     OW12544   0.279   2.260   6.207
 3882SOL    HW112545   0.257   2.181   6.266
 3882SOL    HW212546   0.300   2.339   6.264
 3883SOL     OW12547   3.709   5.940   4.484
 3883SOL    HW112548   3.670   5.856   4.445
 3883SOL    HW212549   3.648   6.016   4.464
 3884SOL     OW12550   6.772   2.938   2.088
 3884SOL    HW112551   6.828   2.858   2.112
 3884SOL    HW212552   6.812   2.983   2.008
 3885SOL     OW12553   4.163   5.694   2.199
 3885SOL    HW112554   4.152   5.594   2.191
 3885SOL    HW212555   4.212   5.716   2.283
 3886SOL     OW12556   3.069   5.071   6.690
 3886SOL    HW112557   3.040   4.986   6.733
 3886SOL    HW212558   2.997   5.104   6.629
 3887SOL     OW12559   1.742   6.022   1.839
 3887SOL    HW112560   1.784   5.968   1.765
 3887SOL    HW212561   1.811   6.083   1.879
 3888SOL     OW12562   5.103   4.722   3.246
 3888SOL    HW112563   5.078   4.708   3.342
 3888SOL    HW212564   5.185   4.669   3.225
 3889SOL     OW12565   5.787   3.030   0.633
 3889SOL    HW112566   5.779   3.083   0.550
 3889SOL    HW212567   5.846   2.951   0.617
 3890SOL     OW12568   4.659   4.216   4.015
 3890SOL    HW112569   4.592   4.165   4.069
 3890SOL    HW212570   4.745   4.219   4.064
 3891SOL     OW12571   4.567   4.799   3.730
 3891SOL    HW112572   4.552   4.792   3.631
 3891SOL    HW212573   4.647   4.856   3.747
 3892SOL     OW12574   0.209   2.241   1.363
 3892SOL    HW112575   0.239   2.278   1.451
 3892SOL    HW212576   0.129   2.292   1.330
 3893SOL     OW12577   3.268   3.022   3.097
 3893SOL    HW112578   3.197   3.087   3.069
 3893SOL    HW212579   3.282   3.029   3.195
 3894SOL     OW12580   4.455   0.656   5.802
 3894SOL    HW112581   4.498   0.597   5.870
 3894SOL    HW212582   4.372   0.696   5.840
 3895SOL     OW12583   0.620   0.111   4.138
 3895SOL    HW112584   0.683   0.036   4.119
 3895SOL    HW212585   0.551   0.080   4.204
 3896SOL     OW12586   2.097   1.645   6.234
 3896SOL    HW112587   2.043   1.626   6.316
 3896SOL    HW212588   2.178   1.587   6.233
 3897SOL     OW12589   3.185   5.994   0.803
 3897SOL    HW112590   3.249   5.928   0.764
 3897SOL    HW212591   3.181   5.982   0.902
 3898SOL     OW12592   4.203   3.203   1.163
 3898SOL    HW112593   4.203   3.172   1.258
 3898SOL    HW212594   4.110   3.202   1.127
 3899SOL     OW12595   3.123   6.827   5.156
 3899SOL    HW112596   3.191   6.813   5.083
 3899SOL    HW212597   3.085   6.738   5.182
 3900SOL     OW12598   4.416   4.584   2.856
 3900SOL    HW112599   4.330   4.596   2.805
 3900SOL    HW212600   4.466   4.507   2.818
 3901SOL     OW12601   3.333   1.466   6.291
 3901SOL    HW112602   3.315   1.384   6.237
 3901SOL    HW212603   3.424   1.502   6.268
 3902SOL     OW12604   5.014   2.824   2.821
 3902SOL    HW112605   4.995   2.891   2.893
 3902SOL    HW212606   5.110   2.795   2.828
 3903SOL     OW12607   3.698   5.098   6.819
 3903SOL    HW112608   3.742   5.115   6.730
 3903SOL    HW212609   3.764   5.054   6.880
 3904SOL     OW12610   1.772   6.446   0.808
 3904SOL    HW112611   1.680   6.413   0.788
 3904SOL    HW212612   1.826   6.447   0.723
 3905SOL     OW12613   0.213   6.383   5.302
 3905SOL    HW112614   0.311   6.395   5.317
 3905SOL    HW212615   0.198   6.312   5.233
 3906SOL     OW12616   0.901   6.260   5.431
 3906SOL    HW112617   0.932   6.186   5.371
 3906SOL    HW212618   0.850   6.328   5.377
 3907SOL     OW12619   5.531   1.999   3.985
 3907SOL    HW112620   5.442   1.979   3.942
 3907SOL    HW212621   5.599   2.015   3.913
 3908SOL     OW12622   2.831   4.098   5.751
 3908SOL    HW112623   2.751   4.048   5.785
 3908SOL    HW212624   2.867   4.051   5.671
 3909SOL     OW12625   4.411   5.992   3.886
 3909SOL    HW112626   4.497   5.961   3.845
 3909SOL    HW212627   4.357   5.913   3.913
 3910SOL     OW12628   3.571   3.933   2.731
 3910SOL    HW112629   3.651   3.919   2.672
 3910SOL    HW212630   3.488   3.923   2.676
 3911SOL     OW12631   5.748   2.166   5.395
 3911SOL    HW112632   5.798   2.084   5.424
 3911SOL    HW212633   5.732   2.162   5.297
 3912SOL     OW12634   5.932   3.022   6.377
 3912SOL    HW112635   5.865   3.039   6.449
 3912SOL    HW212636   5.995   3.099   6.371
 3913SOL     OW12637   1.210   6.818   1.269
 3913SOL    HW112638   1.191   6.900   1.214
 3913SOL    HW212639   1.307   6.814   1.291
 3914SOL     OW12640   3.063   5.553   5.981
 3914SOL    HW112641   2.988   5.565   5.915
 3914SOL    HW212642   3.107   5.465   5.964
 3915SOL     OW12643   4.985   5.677   1.837
 3915SOL    HW112644   4.921   5.640   1.905
 3915SOL    HW212645   4.934   5.725   1.766
 3916SOL     OW12646   0.032   0.084   3.429
 3916SOL    HW112647   6.996   0.146   3.369
 3916SOL    HW212648   6.984   0.028   3.482
 3917SOL     OW12649   3.032   0.111   6.843
 3917SOL    HW112650   3.054   0.124   6.746
 3917SOL    HW212651   3.000   0.017   6.857
 3918SOL     OW12652   6.109   3.503   0.193
 3918SOL    HW112653   6.064   3.577   0.243
 3918SOL    HW212654   6.045   3.426   0.182
 3919SOL     OW12655   3.344   6.462   0.610
 3919SOL    HW112656   3.259   6.510   0.626
 3919SOL    HW212657   3.341   6.372   0.654
 3920SOL     OW12658   2.473   0.880   6.593
 3920SOL    HW112659   2.524   0.957   6.631
 3920SOL    HW212660   2.537   0.814   6.553
 3921SOL     OW12661   0.647   3.175   0.904
 3921SOL    HW112662   0.629   3.272   0.919
 3921SOL    HW212663   0.687   3.162   0.813
 3922SOL     OW12664   0.209   4.959   1.085
 3922SOL    HW112665   0.228   4.979   1.181
 3922SOL    HW212666   0.285   4.905   1.048
 3923SOL     OW12667   0.464   5.528   0.322
 3923SOL    HW112668   0.376   5.481   0.332
 3923SOL    HW212669   0.467   5.576   0.234
 3924SOL     OW12670   6.323   5.140   3.831
 3924SOL    HW112671   6.383   5.156   3.752
 3924SOL    HW212672   6.293   5.227   3.869
 3925SOL     OW12673   0.574   4.890   1.289
 3925SOL    HW112674   0.669   4.913   1.308
 3925SOL    HW212675   0.522   4.887   1.374
 3926SOL     OW12676   2.754   5.922   3.273
 3926SOL    HW112677   2.698   5.840   3.282
 3926SOL    HW212678   2.850   5.896   3.261
 3927SOL     OW12679   2.551   3.609   6.385
 3927SOL    HW112680   2.453   3.594   6.389
 3927SOL    HW212681   2.570   3.693   6.333
 3928SOL     OW12682   0.063   6.543   6.194
 3928SOL    HW112683   0.033   6.638   6.188
 3928SOL    HW212684   7.008   6.489   6.238
 3929SOL     OW12685   1.410   1.661   4.814
 3929SOL    HW112686   1.372   1.657   4.906
 3929SOL    HW212687   1.480   1.590   4.803
 3930SOL     OW12688   3.168   1.900   4.174
 3930SOL    HW112689   3.234   1.914   4.100
 3930SOL    HW212690   3.209   1.843   4.245
 3931SOL     OW12691   3.806   6.656   2.389
 3931SOL    HW112692   3.842   6.589   2.324
 3931SOL    HW212693   3.787   6.741   2.342
 3932SOL     OW12694   1.959   3.671   3.588
 3932SOL    HW112695   1.997   3.644   3.500
 3932SOL    HW212696   1.895   3.602   3.620
 3933SOL     OW12697   2.125   1.042   5.888
 3933SOL    HW112698   2.126   1.055   5.987
 3933SOL    HW212699   2.219   1.043   5.853
 3934SOL     OW12700   4.844   5.499   0.341
 3934SOL    HW112701   4.799   5.435   0.280
 3934SOL    HW212702   4.922   5.454   0.386
 3935SOL     OW12703   4.843   6.729   2.262
 3935SOL    HW112704   4.771   6.780   2.309
 3935SOL    HW212705   4.930   6.742   2.309
 3936SOL     OW12706   0.825   4.278   2.492
 3936SOL    HW112707   0.821   4.227   2.406
 3936SOL    HW212708   0.775   4.228   2.563
 3937SOL     OW12709   0.740   2.036   2.532
 3937SOL    HW112710   0.745   2.014   2.434
 3937SOL    HW212711   0.752   1.952   2.585
 3938SOL     OW12712   5.825   3.451   2.959
 3938SOL    HW112713   5.766   3.439   3.039
 3938SOL    HW212714   5.806   3.380   2.892
 3939SOL     OW12715   2.088   2.537   1.927
 3939SOL    HW112716   2.127   2.602   1.992
 3939SOL    HW212717   2.162   2.495   1.874
 3940SOL     OW12718   4.560   4.620   0.927
 3940SOL    HW112719   4.525   4.582   0.841
 3940SOL    HW212720   4.484   4.648   0.985
 3941SOL     OW12721   5.608   3.224   0.267
 3941SOL    HW112722   5.585   3.229   0.170
 3941SOL    HW212723   5.533   3.262   0.321
 3942SOL     OW12724   6.201   6.583   0.888
 3942SOL    HW112725   6.284   6.635   0.908
 3942SOL    HW212726   6.200   6.500   0.944
 3943SOL     OW12727   0.257   2.962   4.820
 3943SOL    HW112728   0.228   2.871   4.848
 3943SOL    HW212729   0.356   2.971   4.831
 3944SOL     OW12730   5.771   2.108   5.120
 3944SOL    HW112731   5.683   2.075   5.087
 3944SOL    HW212732   5.834   2.031   5.130
 3945SOL     OW12733   0.337   6.876   0.940
 3945SOL    HW112734   0.313   6.930   1.021
 3945SOL    HW212735   0.253   6.841   0.898
 3946SOL     OW12736   3.535   4.919   3.810
 3946SOL    HW112737   3.519   4.971   3.893
 3946SOL    HW212738   3.633   4.910   3.794
 3947SOL     OW12739   6.866   4.268   5.874
 3947SOL    HW112740   6.936   4.335   5.848
 3947SOL    HW212741   6.794   4.267   5.804
 3948SOL     OW12742   6.363   3.555   1.695
 3948SOL    HW112743   6.346   3.572   1.598
 3948SOL    HW212744   6.461   3.564   1.714
 3949SOL     OW12745   5.462   6.159   2.632
 3949SOL    HW112746   5.378   6.180   2.683
 3949SOL    HW212747   5.454   6.068   2.591
 3950SOL     OW12748   1.598   6.041   0.114
 3950SOL    HW112749   1.501   6.063   0.108
 3950SOL    HW212750   1.616   5.992   0.199
 3951SOL     OW12751   5.443   5.587   2.093
 3951SOL    HW112752   5.380   5.561   2.020
 3951SOL    HW212753   5.533   5.604   2.054
 3952SOL     OW12754   6.133   1.088   6.889
 3952SOL    HW112755   6.139   1.148   6.969
 3952SOL    HW212756   6.175   1.133   6.810
 3953SOL     OW12757   3.024   3.746   2.158
 3953SOL    HW112758   2.987   3.689   2.231
 3953SOL    HW212759   3.124   3.735   2.155
 3954SOL     OW12760   4.378   4.047   5.872
 3954SOL    HW112761   4.459   4.104   5.858
 3954SOL    HW212762   4.297   4.095   5.839
 3955SOL     OW12763   3.878   1.221   5.030
 3955SOL    HW112764   3.813   1.284   5.072
 3955SOL    HW212765   3.952   1.201   5.095
 3956SOL     OW12766   2.494   1.383   0.822
 3956SOL    HW112767   2.555   1.459   0.801
 3956SOL    HW212768   2.484   1.374   0.921
 3957SOL     OW12769   4.350   1.999   3.902
 3957SOL    HW112770   4.403   1.919   3.874
 3957SOL    HW212771   4.254   1.974   3.912
 3958SOL     OW12772   5.107   6.548   6.037
 3958SOL    HW112773   5.202   6.536   6.067
 3958SOL    HW212774   5.063   6.615   6.095
 3959SOL     OW12775   5.731   5.937   6.323
 3959SOL    HW112776   5.712   6.034   6.339
 3959SOL    HW212777   5.649   5.884   6.345
 3960SOL     OW12778   6.112   2.409   4.273
 3960SOL    HW112779   6.175   2.388   4.198
 3960SOL    HW212780   6.125   2.344   4.348
 3961SOL     OW12781   5.215   6.842   4.449
 3961SOL    HW112782   5.144   6.781   4.483
 3961SOL    HW212783   5.180   6.935   4.446
 3962SOL     OW12784   6.328   5.448   4.618
 3962SOL    HW112785   6.317   5.461   4.520
 3962SOL    HW212786   6.314   5.535   4.665
 3963SOL     OW12787   3.343   6.247   1.857
 3963SOL    HW112788   3.248   6.269   1.838
 3963SOL    HW212789   3.349   6.199   1.945
 3964SOL     OW12790   5.959   2.242   3.848
 3964SOL    HW112791   5.962   2.332   3.803
 3964SOL    HW212792   6.026   2.238   3.921
 3965SOL     OW12793   4.950   4.478   4.382
 3965SOL    HW112794   4.965   4.499   4.479
 3965SOL    HW212795   4.852   4.482   4.363
 3966SOL     OW12796   2.926   6.759   6.621
 3966SOL    HW112797   2.847   6.717   6.666
 3966SOL    HW212798   3.006   6.751   6.680
 3967SOL     OW12799   1.515   3.841   3.902
 3967SOL    HW112800   1.610   3.865   3.882
 3967SOL    HW212801   1.513   3.778   3.980
 3968SOL     OW12802   4.255   6.537   0.590
 3968SOL    HW112803   4.285   6.629   0.616
 3968SOL    HW212804   4.273   6.474   0.666
 3969SOL     OW12805   0.236   4.631   3.319
 3969SOL    HW112806   0.251   4.729   3.313
 3969SOL    HW212807   0.324   4.584   3.333
 3970SOL     OW12808   4.367   6.347   1.257
 3970SOL    HW112809   4.437   6.415   1.235
 3970SOL    HW212810   4.366   6.332   1.356
 3971SOL     OW12811   0.875   6.041   3.687
 3971SOL    HW112812   0.817   5.966   3.718
 3971SOL    HW212813   0.969   6.010   3.679
 3972SOL     OW12814   1.482   3.616   0.038
 3972SOL    HW112815   1.437   3.547   0.095
 3972SOL    HW212816   1.446   3.612   6.961
 3973SOL     OW12817   1.826   4.375   0.966
 3973SOL    HW112818   1.756   4.318   1.010
 3973SOL    HW212819   1.886   4.413   1.036
 3974SOL     OW12820   3.115   0.692   6.006
 3974SOL    HW112821   3.029   0.683   5.956
 3974SOL    HW212822   3.120   0.621   6.076
 3975SOL     OW12823   6.753   2.981   0.283
 3975SOL    HW112824   6.700   2.907   0.242
 3975SOL    HW212825   6.753   3.060   0.222
 3976SOL     OW12826   1.310   4.372   2.552
 3976SOL    HW112827   1.367   4.292   2.573
 3976SOL    HW212828   1.319   4.439   2.625
 3977SOL     OW12829   0.822   2.721   6.782
 3977SOL    HW112830   0.802   2.818   6.790
 3977SOL    HW212831   0.772   2.670   6.852
 3978SOL     OW12832   5.626   4.053   3.796
 3978SOL    HW112833   5.665   4.097   3.715
 3978SOL    HW212834   5.685   3.978   3.826
 3979SOL     OW12835   3.923   5.979   6.283
 3979SOL    HW112836   3.974   5.967   6.368
 3979SOL    HW212837   3.826   5.958   6.299
 3980SOL     OW12838   5.215   4.650   5.694
 3980SOL    HW112839   5.231   4.656   5.596
 3980SOL    HW212840   5.222   4.742   5.734
 3981SOL     OW12841   4.533   5.362   6.828
 3981SOL    HW112842   4.554   5.289   6.763
 3981SOL    HW212843   4.440   5.351   6.863
 3982SOL     OW12844   2.551   6.258   2.983
 3982SOL    HW112845   2.626   6.216   3.034
 3982SOL    HW212846   2.476   6.280   3.046
 3983SOL     OW12847   3.338   6.233   4.674
 3983SOL    HW112848   3.240   6.248   4.665
 3983SOL    HW212849   3.367   6.257   4.767
 3984SOL     OW12850   6.148   2.964   3.043
 3984SOL    HW112851   6.118   3.059   3.034
 3984SOL    HW212852   6.070   2.907   3.069
 3985SOL     OW12853   4.498   5.226   6.357
 3985SOL    HW112854   4.402   5.248   6.342
 3985SOL    HW212855   4.545   5.305   6.395
 3986SOL     OW12856   5.211   0.451   2.763
 3986SOL    HW112857   5.184   0.547   2.766
 3986SOL    HW212858   5.142   0.399   2.714
 3987SOL     OW12859   3.395   5.353   5.413
 3987SOL    HW112860   3.435   5.437   5.448
 3987SOL    HW212861   3.419   5.276   5.473
 3988SOL     OW12862   4.815   5.732   0.754
 3988SOL    HW112863   4.908   5.767   0.751
 3988SOL    HW212864   4.781   5.718   0.661
 3989SOL     OW12865   6.779   2.774   1.653
 3989SOL    HW112866   6.747   2.828   1.575
 3989SOL    HW212867   6.759   2.823   1.738
 3990SOL     OW12868   6.684   1.326   1.463
 3990SOL    HW112869   6.655   1.413   1.504
 3990SOL    HW212870   6.663   1.328   1.365
 3991SOL     OW12871   4.644   1.469   3.230
 3991SOL    HW112872   4.548   1.442   3.235
 3991SOL    HW212873   4.653   1.550   3.172
 3992SOL     OW12874   4.713   1.693   1.665
 3992SOL    HW112875   4.782   1.766   1.668
 3992SOL    HW212876   4.635   1.723   1.610
 3993SOL     OW12877   1.227   3.305   1.509
 3993SOL    HW112878   1.226   3.401   1.534
 3993SOL    HW212879   1.319   3.279   1.479
 3994SOL     OW12880   2.563   5.602   4.616
 3994SOL    HW112881   2.486   5.568   4.563
 3994SOL    HW212882   2.635   5.533   4.618
 3995SOL     OW12883   1.461   2.462   3.869
 3995SOL    HW112884   1.401   2.401   3.818
 3995SOL    HW212885   1.555   2.452   3.836
 3996SOL     OW12886   6.718   5.707   4.495
 3996SOL    HW112887   6.786   5.673   4.560
 3996SOL    HW212888   6.744   5.678   4.403
 3997SOL     OW12889   2.899   0.392   2.897
 3997SOL    HW112890   2.847   0.476   2.880
 3997SOL    HW212891   2.856   0.315   2.851
 3998SOL     OW12892   4.347   2.118   2.664
 3998SOL    HW112893   4.424   2.176   2.693
 3998SOL    HW212894   4.269   2.176   2.642
 3999SOL     OW12895   4.538   1.441   4.542
 3999SOL    HW112896   4.516   1.475   4.634
 3999SOL    HW212897   4.553   1.518   4.480
 4000SOL     OW12898   4.992   5.263   4.617
 4000SOL    HW112899   4.994   5.334   4.546
 4000SOL    HW212900   5.066   5.198   4.600
 4001SOL     OW12901   0.716   1.610   5.038
 4001SOL    HW112902   0.742   1.701   5.006
 4001SOL    HW212903   0.770   1.541   4.990
 4002SOL     OW12904   2.064   4.934   1.867
 4002SOL    HW112905   1.969   4.903   1.857
 4002SOL    HW212906   2.088   4.939   1.964
 4003SOL     OW12907   3.857   2.087   4.721
 4003SOL    HW112908   3.829   2.098   4.625
 4003SOL    HW212909   3.821   2.163   4.775
 4004SOL     OW12910   6.838   1.481   6.538
 4004SOL    HW112911   6.825   1.578   6.558
 4004SOL    HW212912   6.828   1.428   6.622
 4005SOL     OW12913   6.628   4.940   4.481
 4005SOL    HW112914   6.666   4.868   4.422
 4005SOL    HW212915   6.611   4.903   4.572
 4006SOL     OW12916   3.913   6.416   3.361
 4006SOL    HW112917   3.927   6.501   3.412
 4006SOL    HW212918   4.002   6.380   3.332
 4007SOL     OW12919   0.670   1.449   5.770
 4007SOL    HW112920   0.631   1.370   5.723
 4007SOL    HW212921   0.721   1.505   5.705
 4008SOL     OW12922   3.116   1.499   4.986
 4008SOL    HW112923   3.061   1.417   4.966
 4008SOL    HW212924   3.170   1.483   5.069
 4009SOL     OW12925   3.869   4.004   3.134
 4009SOL    HW112926   3.873   3.935   3.206
 4009SOL    HW212927   3.798   4.071   3.156
 4010SOL     OW12928   1.349   3.089   0.688
 4010SOL    HW112929   1.341   3.012   0.752
 4010SOL    HW212930   1.427   3.073   0.627
 4011SOL     OW12931   0.622   1.282   0.654
 4011SOL    HW112932   0.715   1.274   0.691
 4011SOL    HW212933   0.627   1.313   0.559
 4012SOL     OW12934   5.382   3.310   3.451
 4012SOL    HW112935   5.329   3.384   3.408
 4012SOL    HW212936   5.376   3.228   3.395
 4013SOL     OW12937   5.244   2.698   2.859
 4013SOL    HW112938   5.296   2.731   2.938
 4013SOL    HW212939   5.239   2.598   2.862
 4014SOL     OW12940   5.352   4.637   2.773
 4014SOL    HW112941   5.427   4.630   2.839
 4014SOL    HW212942   5.384   4.608   2.682
 4015SOL     OW12943   5.167   3.510   0.174
 4015SOL    HW112944   5.153   3.608   0.160
 4015SOL    HW212945   5.263   3.488   0.157
 4016SOL     OW12946   3.118   6.486   4.589
 4016SOL    HW112947   3.083   6.464   4.680
 4016SOL    HW212948   3.139   6.401   4.541
 4017SOL     OW12949   5.144   6.588   6.487
 4017SOL    HW112950   5.070   6.645   6.451
 4017SOL    HW212951   5.206   6.644   6.541
 4018SOL     OW12952   2.148   0.349   6.814
 4018SOL    HW112953   2.153   0.258   6.773
 4018SOL    HW212954   2.202   0.351   6.898
 4019SOL     OW12955   5.440   6.728   4.337
 4019SOL    HW112956   5.471   6.803   4.278
 4019SOL    HW212957   5.358   6.757   4.387
 4020SOL     OW12958   5.529   1.700   4.440
 4020SOL    HW112959   5.551   1.701   4.342
 4020SOL    HW212960   5.594   1.757   4.490
 4021SOL     OW12961   5.026   3.391   6.997
 4021SOL    HW112962   5.070   3.477   0.006
 4021SOL    HW212963   5.011   3.336   0.063
 4022SOL     OW12964   5.506   0.710   1.060
 4022SOL    HW112965   5.444   0.760   1.121
 4022SOL    HW212966   5.527   0.766   0.980
 4023SOL     OW12967   6.676   5.750   5.576
 4023SOL    HW112968   6.726   5.798   5.504
 4023SOL    HW212969   6.644   5.817   5.643
 4024SOL     OW12970   4.172   4.431   5.582
 4024SOL    HW112971   4.090   4.460   5.633
 4024SOL    HW212972   4.152   4.433   5.484
 4025SOL     OW12973   0.078   3.954   4.117
 4025SOL    HW112974   0.156   3.996   4.070
 4025SOL    HW212975   0.098   3.858   4.135
 4026SOL     OW12976   5.968   1.251   5.452
 4026SOL    HW112977   5.996   1.191   5.378
 4026SOL    HW212978   5.879   1.291   5.432
 4027SOL     OW12979   2.551   5.007   2.562
 4027SOL    HW112980   2.508   4.945   2.496
 4027SOL    HW212981   2.649   5.010   2.546
 4028SOL     OW12982   1.551   5.727   2.905
 4028SOL    HW112983   1.491   5.754   2.830
 4028SOL    HW212984   1.604   5.647   2.878
 4029SOL     OW12985   1.768   4.289   3.461
 4029SOL    HW112986   1.719   4.219   3.408
 4029SOL    HW212987   1.865   4.267   3.464
 4030SOL     OW12988   2.440   0.912   6.249
 4030SOL    HW112989   2.386   0.855   6.188
 4030SOL    HW212990   2.402   0.908   6.341
 4031SOL     OW12991   6.540   5.934   4.349
 4031SOL    HW112992   6.515   5.881   4.268
 4031SOL    HW212993   6.602   6.008   4.322
 4032SOL     OW12994   3.503   6.989   5.036
 4032SOL    HW112995   3.597   6.980   5.071
 4032SOL    HW212996   3.504   0.028   4.953
 4033SOL     OW12997   3.653   3.829   6.428
 4033SOL    HW112998   3.682   3.848   6.522
 4033SOL    HW212999   3.715   3.762   6.387
 4034SOL     OW13000   5.935   3.674   5.202
 4034SOL    HW113001   5.896   3.610   5.269
 4034SOL    HW213002   5.912   3.643   5.110
 4035SOL     OW13003   0.411   5.979   2.302
 4035SOL    HW113004   0.375   6.067   2.272
 4035SOL    HW213005   0.354   5.945   2.377
 4036SOL     OW13006   6.134   5.997   1.327
 4036SOL    HW113007   6.042   6.013   1.291
 4036SOL    HW213008   6.131   5.995   1.427
 4037SOL     OW13009   0.736   3.832   6.421
 4037SOL    HW113010   0.816   3.892   6.421
 4037SOL    HW213011   0.664   3.871   6.363
 4038SOL     OW13012   6.498   5.333   3.228
 4038SOL    HW113013   6.404   5.324   3.197
 4038SOL    HW213014   6.523   5.253   3.283
 4039SOL     OW13015   2.830   4.918   1.387
 4039SOL    HW113016   2.733   4.896   1.377
 4039SOL    HW213017   2.848   5.010   1.353
 4040SOL     OW13018   3.173   6.867   0.142
 4040SOL    HW113019   3.098   6.864   0.076
 4040SOL    HW213020   3.173   6.955   0.189
 4041SOL     OW13021   0.245   6.170   3.257
 4041SOL    HW113022   0.202   6.202   3.341
 4041SOL    HW213023   0.303   6.091   3.277
 4042SOL     OW13024   5.586   5.168   1.729
 4042SOL    HW113025   5.678   5.132   1.747
 4042SOL    HW213026   5.522   5.092   1.723
 4043SOL     OW13027   0.243   3.167   1.229
 4043SOL    HW113028   0.329   3.158   1.279
 4043SOL    HW213029   0.166   3.169   1.294
 4044SOL     OW13030   5.573   4.839   2.491
 4044SOL    HW113031   5.550   4.742   2.499
 4044SOL    HW213032   5.592   4.876   2.582
 4045SOL     OW13033   2.971   5.425   5.544
 4045SOL    HW113034   3.018   5.392   5.463
 4045SOL    HW213035   3.010   5.380   5.625
 4046SOL     OW13036   0.860   3.841   0.385
 4046SOL    HW113037   0.839   3.930   0.426
 4046SOL    HW213038   0.794   3.822   0.312
 4047SOL     OW13039   3.074   3.982   3.456
 4047SOL    HW113040   2.981   3.961   3.425
 4047SOL    HW213041   3.110   4.060   3.404
 4048SOL     OW13042   5.200   2.562   0.323
 4048SOL    HW113043   5.259   2.513   0.259
 4048SOL    HW213044   5.155   2.497   0.383
 4049SOL     OW13045   6.740   5.960   6.944
 4049SOL    HW113046   6.700   6.012   6.869
 4049SOL    HW213047   6.836   5.984   6.955
 4050SOL     OW13048   2.325   0.983   2.339
 4050SOL    HW113049   2.249   1.026   2.290
 4050SOL    HW213050   2.331   1.020   2.431
 4051SOL     OW13051   2.919   4.060   1.022
 4051SOL    HW113052   2.965   4.002   1.089
 4051SOL    HW213053   2.891   4.004   0.944
 4052SOL     OW13054   1.237   0.287   0.832
 4052SOL    HW113055   1.176   0.212   0.805
 4052SOL    HW213056   1.184   0.372   0.836
 4053SOL     OW13057   2.487   5.757   2.223
 4053SOL    HW113058   2.471   5.851   2.192
 4053SOL    HW213059   2.446   5.746   2.314
 4054SOL     OW13060   5.425   1.567   6.348
 4054SOL    HW113061   5.509   1.584   6.400
 4054SOL    HW213062   5.357   1.636   6.371
 4055SOL     OW13063   4.601   3.652   6.239
 4055SOL    HW113064   4.666   3.692   6.174
 4055SOL    HW213065   4.508   3.673   6.210
 4056SOL     OW13066   4.265   2.892   6.958
 4056SOL    HW113067   4.336   2.862   6.894
 4056SOL    HW213068   4.184   2.921   6.906
 4057SOL     OW13069   6.397   2.456   0.684
 4057SOL    HW113070   6.442   2.528   0.738
 4057SOL    HW213071   6.427   2.462   0.589
 4058SOL     OW13072   0.793   3.624   3.982
 4058SOL    HW113073   0.859   3.574   4.039
 4058SOL    HW213074   0.830   3.714   3.960
 4059SOL     OW13075   0.172   1.966   4.976
 4059SOL    HW113076   0.219   1.892   4.929
 4059SOL    HW213077   0.128   1.931   5.059
 4060SOL     OW13078   2.077   6.595   5.949
 4060SOL    HW113079   2.076   6.512   6.004
 4060SOL    HW213080   2.002   6.592   5.883
 4061SOL     OW13081   2.209   2.718   1.618
 4061SOL    HW113082   2.111   2.741   1.618
 4061SOL    HW213083   2.254   2.768   1.544
 4062SOL     OW13084   2.586   0.939   3.117
 4062SOL    HW113085   2.556   1.010   3.180
 4062SOL    HW213086   2.670   0.969   3.071
 4063SOL     OW13087   3.604   6.681   6.207
 4063SOL    HW113088   3.646   6.656   6.295
 4063SOL    HW213089   3.580   6.778   6.208
 4064SOL     OW13090   6.299   6.923   4.618
 4064SOL    HW113091   6.352   6.954   4.697
 4064SOL    HW213092   6.201   6.933   4.638
 4065SOL     OW13093   0.890   4.375   5.824
 4065SOL    HW113094   0.988   4.360   5.832
 4065SOL    HW213095   0.861   4.356   5.730
 4066SOL     OW13096   4.850   4.370   2.178
 4066SOL    HW113097   4.762   4.398   2.215
 4066SOL    HW213098   4.900   4.450   2.144
 4067SOL     OW13099   5.336   0.599   1.433
 4067SOL    HW113100   5.350   0.517   1.378
 4067SOL    HW213101   5.331   0.574   1.529
 4068SOL     OW13102   5.343   0.444   4.619
 4068SOL    HW113103   5.268   0.439   4.684
 4068SOL    HW213104   5.424   0.480   4.664
 4069SOL     OW13105   6.794   6.277   0.757
 4069SOL    HW113106   6.796   6.210   0.682
 4069SOL    HW213107   6.811   6.229   0.844
 4070SOL     OW13108   6.983   3.667   2.647
 4070SOL    HW113109   6.994   3.594   2.580
 4070SOL    HW213110   0.022   3.746   2.619
 4071SOL     OW13111   2.751   6.885   4.744
 4071SOL    HW113112   2.685   6.857   4.675
 4071SOL    HW213113   2.758   6.985   4.745
 4072SOL     OW13114   0.244   0.250   4.755
 4072SOL    HW113115   0.225   0.227   4.660
 4072SOL    HW213116   0.196   0.186   4.815
 4073SOL     OW13117   2.602   4.453   1.755
 4073SOL    HW113118   2.657   4.453   1.672
 4073SOL    HW213119   2.661   4.461   1.835
 4074SOL     OW13120   0.123   2.900   1.892
 4074SOL    HW113121   0.208   2.935   1.853
 4074SOL    HW213122   0.132   2.891   1.991
 4075SOL     OW13123   6.923   0.876   3.598
 4075SOL    HW113124   0.000   0.879   3.562
 4075SOL    HW213125   6.919   0.924   3.686
 4076SOL     OW13126   1.842   3.918   3.507
 4076SOL    HW113127   1.817   3.962   3.594
 4076SOL    HW213128   1.903   3.841   3.525
 4077SOL     OW13129   3.805   0.535   1.805
 4077SOL    HW113130   3.720   0.494   1.839
 4077SOL    HW213131   3.788   0.632   1.784
 4078SOL     OW13132   4.822   4.553   2.407
 4078SOL    HW113133   4.876   4.583   2.486
 4078SOL    HW213134   4.867   4.585   2.323
 4079SOL     OW13135   4.162   1.184   3.060
 4079SOL    HW113136   4.195   1.258   3.003
 4079SOL    HW213137   4.066   1.198   3.082
 4080SOL     OW13138   3.769   4.107   4.218
 4080SOL    HW113139   3.812   4.091   4.306
 4080SOL    HW213140   3.829   4.074   4.145
 4081SOL     OW13141   2.793   0.145   0.265
 4081SOL    HW113142   2.798   0.223   0.203
 4081SOL    HW213143   2.697   0.123   0.284
 4082SOL     OW13144   1.582   1.776   5.806
 4082SOL    HW113145   1.564   1.757   5.709
 4082SOL    HW213146   1.681   1.783   5.820
 4083SOL     OW13147   5.622   4.037   2.380
 4083SOL    HW113148   5.600   4.010   2.474
 4083SOL    HW213149   5.629   3.955   2.323
 4084SOL     OW13150   3.738   5.945   3.286
 4084SOL    HW113151   3.674   6.004   3.335
 4084SOL    HW213152   3.742   5.972   3.190
 4085SOL     OW13153   1.631   4.522   2.344
 4085SOL    HW113154   1.727   4.541   2.324
 4085SOL    HW213155   1.578   4.606   2.334
 4086SOL     OW13156   6.237   5.066   5.252
 4086SOL    HW113157   6.155   5.079   5.196
 4086SOL    HW213158   6.254   5.148   5.305
 4087SOL     OW13159   1.371   1.520   1.356
 4087SOL    HW113160   1.465   1.531   1.389
 4087SOL    HW213161   1.337   1.608   1.321
 4088SOL     OW13162   0.287   2.215   5.057
 4088SOL    HW113163   0.385   2.227   5.047
 4088SOL    HW213164   0.260   2.128   5.015
 4089SOL     OW13165   6.667   6.442   2.662
 4089SOL    HW113166   6.672   6.397   2.573
 4089SOL    HW213167   6.745   6.502   2.674
 4090SOL     OW13168   3.588   2.604   5.396
 4090SOL    HW113169   3.618   2.509   5.407
 4090SOL    HW213170   3.495   2.605   5.359
 4091SOL     OW13171   4.575   6.887   3.448
 4091SOL    HW113172   4.495   6.861   3.501
 4091SOL    HW213173   4.655   6.892   3.508
 4092SOL     OW13174   4.488   1.971   6.528
 4092SOL    HW113175   4.578   2.011   6.514
 4092SOL    HW213176   4.421   2.044   6.544
 4093SOL     OW13177   5.879   4.306   1.339
 4093SOL    HW113178   5.789   4.342   1.312
 4093SOL    HW213179   5.909   4.352   1.423
 4094SOL     OW13180   6.116   5.757   0.138
 4094SOL    HW113181   6.156   5.849   0.134
 4094SOL    HW213182   6.024   5.763   0.178
 4095SOL     OW13183   1.518   5.157   0.021
 4095SOL    HW113184   1.505   5.076   6.980
 4095SOL    HW213185   1.521   5.130   0.117
 4096SOL     OW13186   0.871   6.488   5.870
 4096SOL    HW113187   0.825   6.511   5.957
 4096SOL    HW213188   0.816   6.523   5.794
 4097SOL     OW13189   1.641   4.113   5.800
 4097SOL    HW113190   1.703   4.133   5.724
 4097SOL    HW213191   1.663   4.172   5.877
 4098SOL     OW13192   1.449   5.956   1.984
 4098SOL    HW113193   1.537   6.004   1.978
 4098SOL    HW213194   1.394   5.995   2.058
 4099SOL     OW13195   0.015   2.560   5.822
 4099SOL    HW113196   0.050   2.514   5.904
 4099SOL    HW213197   6.996   2.651   5.848
 4100SOL     OW13198   2.046   0.947   3.082
 4100SOL    HW113199   2.073   0.902   3.167
 4100SOL    HW213200   2.123   1.001   3.047
 4101SOL     OW13201   5.660   5.934   6.005
 4101SOL    HW113202   5.615   5.851   5.974
 4101SOL    HW213203   5.591   5.999   6.037
 4102SOL     OW13204   2.696   5.232   0.759
 4102SOL    HW113205   2.681   5.272   0.668
 4102SOL    HW213206   2.614   5.181   0.786
 4103SOL     OW13207   2.433   5.248   2.379
 4103SOL    HW113208   2.428   5.294   2.291
 4103SOL    HW213209   2.361   5.282   2.440
 4104SOL     OW13210   2.493   5.351   5.468
 4104SOL    HW113211   2.474   5.344   5.370
 4104SOL    HW213212   2.588   5.328   5.486
 4105SOL     OW13213   3.944   0.504   2.033
 4105SOL    HW113214   3.912   0.562   2.108
 4105SOL    HW213215   3.897   0.530   1.948
 4106SOL     OW13216   1.685   6.457   2.763
 4106SOL    HW113217   1.605   6.397   2.755
 4106SOL    HW213218   1.655   6.552   2.767
 4107SOL     OW13219   2.558   2.160   0.959
 4107SOL    HW113220   2.613   2.203   1.031
 4107SOL    HW213221   2.548   2.062   0.979
 4108SOL     OW13222   0.681   5.524   5.061
 4108SOL    HW113223   0.715   5.454   4.999
 4108SOL    HW213224   0.755   5.586   5.087
 4109SOL     OW13225   5.484   0.166   5.031
 4109SOL    HW113226   5.503   0.232   4.958
 4109SOL    HW213227   5.391   0.131   5.021
 4110SOL     OW13228   4.902   2.322   0.631
 4110SOL    HW113229   4.866   2.230   0.643
 4110SOL    HW213230   4.983   2.334   0.688
 4111SOL     OW13231   6.316   4.533   4.173
 4111SOL    HW113232   6.249   4.530   4.247
 4111SOL    HW213233   6.282   4.477   4.096
 4112SOL     OW13234   3.750   4.959   5.228
 4112SOL    HW113235   3.820   4.901   5.185
 4112SOL    HW213236   3.739   4.932   5.323
 4113SOL     OW13237   5.356   6.225   5.880
 4113SOL    HW113238   5.373   6.160   5.953
 4113SOL    HW213239   5.442   6.267   5.851
 4114SOL     OW13240   6.089   1.522   3.454
 4114SOL    HW113241   6.127   1.615   3.458
 4114SOL    HW213242   6.069   1.491   3.547
 4115SOL     OW13243   4.866   0.483   4.651
 4115SOL    HW113244   4.961   0.507   4.671
 4115SOL    HW213245   4.847   0.501   4.554
 4116SOL     OW13246   5.641   3.388   3.146
 4116SOL    HW113247   5.593   3.301   3.161
 4116SOL    HW213248   5.574   3.462   3.145
 4117SOL     OW13249   0.731   2.660   2.964
 4117SOL    HW113250   0.796   2.661   2.888
 4117SOL    HW213251   0.638   2.660   2.929
 4118SOL     OW13252   1.067   1.038   1.925
 4118SOL    HW113253   1.041   1.112   1.987
 4118SOL    HW213254   1.058   1.070   1.830
 4119SOL     OW13255   6.282   0.982   4.374
 4119SOL    HW113256   6.241   1.046   4.309
 4119SOL    HW213257   6.294   1.027   4.463
 4120SOL     OW13258   1.932   0.075   0.370
 4120SOL    HW113259   1.999   0.018   0.323
 4120SOL    HW213260   1.896   0.144   0.307
 4121SOL     OW13261   6.611   0.380   1.338
 4121SOL    HW113262   6.690   0.318   1.344
 4121SOL    HW213263   6.554   0.369   1.419
 4122SOL     OW13264   0.995   4.561   3.457
 4122SOL    HW113265   1.039   4.541   3.545
 4122SOL    HW213266   0.927   4.491   3.437
 4123SOL     OW13267   5.656   4.348   2.001
 4123SOL    HW113268   5.640   4.349   1.902
 4123SOL    HW213269   5.752   4.366   2.020
 4124SOL     OW13270   5.657   6.188   0.486
 4124SOL    HW113271   5.587   6.258   0.469
 4124SOL    HW213272   5.653   6.161   0.582
 4125SOL     OW13273   1.013   2.681   0.082
 4125SOL    HW113274   1.002   2.582   0.090
 4125SOL    HW213275   1.027   2.706   7.003
 4126SOL     OW13276   1.764   4.385   3.105
 4126SOL    HW113277   1.758   4.440   3.022
 4126SOL    HW213278   1.786   4.291   3.081
 4127SOL     OW13279   4.586   2.655   4.309
 4127SOL    HW113280   4.608   2.748   4.337
 4127SOL    HW213281   4.614   2.591   4.381
 4128SOL     OW13282   6.399   2.900   6.475
 4128SOL    HW113283   6.469   2.841   6.435
 4128SOL    HW213284   6.319   2.902   6.416
 4129SOL     OW13285   3.272   6.773   2.004
 4129SOL    HW113286   3.339   6.820   2.062
 4129SOL    HW213287   3.309   6.763   1.912
 4130SOL     OW13288   5.036   1.090   7.006
 4130SOL    HW113289   5.026   1.026   6.931
 4130SOL    HW213290   5.079   1.044   0.068
 4131SOL     OW13291   5.359   5.796   4.332
 4131SOL    HW113292   5.361   5.842   4.421
 4131SOL    HW213293   5.326   5.860   4.263
 4132SOL     OW13294   0.234   3.234   2.605
 4132SOL    HW113295   0.293   3.314   2.615
 4132SOL    HW213296   0.143   3.263   2.577
 4133SOL     OW13297   5.298   6.039   3.918
 4133SOL    HW113298   5.233   6.018   3.845
 4133SOL    HW213299   5.333   6.131   3.906
 4134SOL     OW13300   1.958   2.874   1.011
 4134SOL    HW113301   2.013   2.863   1.094
 4134SOL    HW213302   1.935   2.784   0.974
 4135SOL     OW13303   5.966   0.355   0.717
 4135SOL    HW113304   5.894   0.424   0.730
 4135SOL    HW213305   6.005   0.331   0.806
 4136SOL     OW13306   0.711   5.140   0.100
 4136SOL    HW113307   0.701   5.057   0.155
 4136SOL    HW213308   0.808   5.158   0.083
 4137SOL     OW13309   0.467   1.978   5.322
 4137SOL    HW113310   0.483   1.886   5.289
 4137SOL    HW213311   0.385   2.016   5.279
 4138SOL     OW13312   5.519   6.295   6.631
 4138SOL    HW113313   5.517   6.322   6.727
 4138SOL    HW213314   5.491   6.371   6.574
 4139SOL     OW13315   1.350   4.294   2.117
 4139SOL    HW113316   1.413   4.229   2.073
 4139SOL    HW213317   1.257   4.259   2.111
 4140SOL     OW13318   2.364   6.677   0.587
 4140SOL    HW113319   2.296   6.732   0.635
 4140SOL    HW213320   2.439   6.655   0.650
 4141SOL     OW13321   5.019   6.940   6.112
 4141SOL    HW113322   4.931   6.972   6.147
 4141SOL    HW213323   5.006   6.902   6.020
 4142SOL     OW13324   0.027   6.717   1.766
 4142SOL    HW113325   0.023   6.619   1.746
 4142SOL    HW213326   6.961   6.744   1.816
 4143SOL     OW13327   6.344   3.758   6.869
 4143SOL    HW113328   6.398   3.781   6.789
 4143SOL    HW213329   6.247   3.778   6.851
 4144SOL     OW13330   4.988   0.516   1.728
 4144SOL    HW113331   4.948   0.428   1.704
 4144SOL    HW213332   4.941   0.590   1.680
 4145SOL     OW13333   4.321   1.042   1.013
 4145SOL    HW113334   4.263   0.988   1.073
 4145SOL    HW213335   4.275   1.128   0.990
 4146SOL     OW13336   3.123   1.338   1.818
 4146SOL    HW113337   3.036   1.289   1.809
 4146SOL    HW213338   3.137   1.362   1.914
 4147SOL     OW13339   5.337   4.113   0.179
 4147SOL    HW113340   5.324   4.195   0.122
 4147SOL    HW213341   5.248   4.078   0.208
 4148SOL     OW13342   3.166   0.900   6.195
 4148SOL    HW113343   3.154   0.833   6.122
 4148SOL    HW213344   3.263   0.909   6.216
 4149SOL     OW13345   2.064   2.308   6.368
 4149SOL    HW113346   2.155   2.269   6.376
 4149SOL    HW213347   1.996   2.234   6.367
 4150SOL     OW13348   0.166   1.442   1.285
 4150SOL    HW113349   0.144   1.449   1.188
 4150SOL    HW213350   0.089   1.400   1.333
 4151SOL     OW13351   3.052   5.418   4.577
 4151SOL    HW113352   3.131   5.457   4.626
 4151SOL    HW213353   3.027   5.478   4.501
 4152SOL     OW13354   2.799   3.875   1.393
 4152SOL    HW113355   2.855   3.935   1.449
 4152SOL    HW213356   2.703   3.900   1.402
 4153SOL     OW13357   5.660   6.675   0.204
 4153SOL    HW113358   5.637   6.771   0.222
 4153SOL    HW213359   5.748   6.670   0.157
 4154SOL     OW13360   0.767   6.749   3.489
 4154SOL    HW113361   0.746   6.802   3.571
 4154SOL    HW213362   0.811   6.809   3.422
 4155SOL     OW13363   5.237   1.095   2.537
 4155SOL    HW113364   5.162   1.119   2.476
 4155SOL    HW213365   5.209   1.019   2.597
 4156SOL     OW13366   0.563   5.494   5.956
 4156SOL    HW113367   0.648   5.455   5.921
 4156SOL    HW213368   0.534   5.444   6.038
 4157SOL     OW13369   4.191   6.112   0.547
 4157SOL    HW113370   4.254   6.181   0.510
 4157SOL    HW213371   4.241   6.052   0.609
 4158SOL     OW13372   6.716   0.833   6.401
 4158SOL    HW113373   6.779   0.814   6.476
 4158SOL    HW213374   6.761   0.890   6.333
 4159SOL     OW13375   3.524   0.864   4.025
 4159SOL    HW113376   3.494   0.959   4.033
 4159SOL    HW213377   3.493   0.827   3.938
 4160SOL     OW13378   1.255   0.757   5.661
 4160SOL    HW113379   1.165   0.798   5.676
 4160SOL    HW213380   1.321   0.796   5.725
 4161SOL     OW13381   3.220   3.586   5.303
 4161SOL    HW113382   3.139   3.529   5.291
 4161SOL    HW213383   3.295   3.530   5.337
 4162SOL     OW13384   4.564   0.150   1.149
 4162SOL    HW113385   4.656   0.146   1.185
 4162SOL    HW213386   4.524   0.058   1.149
 4163SOL     OW13387   3.656   6.197   1.315
 4163SOL    HW113388   3.568   6.209   1.269
 4163SOL    HW213389   3.720   6.267   1.283
 4164SOL     OW13390   5.955   1.500   6.993
 4164SOL    HW113391   6.049   1.471   7.012
 4164SOL    HW213392   5.894   1.466   0.049
 4165SOL     OW13393   3.647   1.183   4.761
 4165SOL    HW113394   3.613   1.092   4.781
 4165SOL    HW213395   3.593   1.223   4.687
 4166SOL     OW13396   5.378   1.929   2.175
 4166SOL    HW113397   5.377   1.939   2.275
 4166SOL    HW213398   5.417   2.012   2.135
 4167SOL     OW13399   3.538   6.366   4.851
 4167SOL    HW113400   3.612   6.300   4.834
 4167SOL    HW213401   3.561   6.454   4.808
 4168SOL     OW13402   5.781   3.274   6.823
 4168SOL    HW113403   5.856   3.238   6.879
 4168SOL    HW213404   5.812   3.288   6.730
 4169SOL     OW13405   5.316   4.379   6.924
 4169SOL    HW113406   5.240   4.320   6.900
 4169SOL    HW213407   5.358   4.415   6.840
 4170SOL     OW13408   0.800   3.224   5.110
 4170SOL    HW113409   0.867   3.203   5.180
 4170SOL    HW213410   0.767   3.318   5.122
 4171SOL     OW13411   6.909   0.083   6.125
 4171SOL    HW113412   6.979   0.098   6.195
 4171SOL    HW213413   6.952   0.081   6.035
 4172SOL     OW13414   3.601   3.269   0.194
 4172SOL    HW113415   3.524   3.296   0.251
 4172SOL    HW213416   3.568   3.217   0.115
 4173SOL     OW13417   5.736   1.418   5.845
 4173SOL    HW113418   5.742   1.479   5.766
 4173SOL    HW213419   5.744   1.323   5.814
 4174SOL     OW13420   2.298   6.746   4.038
 4174SOL    HW113421   2.222   6.797   4.077
 4174SOL    HW213422   2.347   6.806   3.974
 4175SOL     OW13423   1.969   3.357   6.405
 4175SOL    HW113424   1.922   3.288   6.461
 4175SOL    HW213425   2.010   3.426   6.465
 4176SOL     OW13426   4.398   6.966   5.160
 4176SOL    HW113427   4.484   6.917   5.144
 4176SOL    HW213428   4.408   0.045   5.130
 4177SOL     OW13429   5.713   6.225   4.149
 4177SOL    HW113430   5.686   6.279   4.229
 4177SOL    HW213431   5.719   6.129   4.174
 4178SOL     OW13432   3.032   6.521   0.842
 4178SOL    HW113433   3.119   6.528   0.890
 4178SOL    HW213434   2.960   6.492   0.905
 4179SOL     OW13435   3.842   1.591   7.001
 4179SOL    HW113436   3.877   1.535   0.060
 4179SOL    HW213437   3.858   1.687   0.005
 4180SOL     OW13438   4.018   4.384   6.883
 4180SOL    HW113439   3.969   4.385   6.970
 4180SOL    HW213440   3.953   4.378   6.808
 4181SOL     OW13441   5.011   6.273   6.130
 4181SOL    HW113442   5.062   6.360   6.127
 4181SOL    HW213443   5.068   6.200   6.093
 4182SOL     OW13444   6.289   5.204   5.584
 4182SOL    HW113445   6.323   5.220   5.676
 4182SOL    HW213446   6.309   5.110   5.556
 4183SOL     OW13447   5.728   2.830   6.994
 4183SOL    HW113448   5.777   2.837   0.065
 4183SOL    HW213449   5.630   2.842   7.009
 4184SOL     OW13450   3.403   5.946   3.777
 4184SOL    HW113451   3.432   5.862   3.732
 4184SOL    HW213452   3.455   5.959   3.862
 4185SOL     OW13453   4.380   4.521   3.346
 4185SOL    HW113454   4.407   4.451   3.412
 4185SOL    HW213455   4.442   4.518   3.268
 4186SOL     OW13456   2.070   4.774   0.759
 4186SOL    HW113457   2.144   4.766   0.692
 4186SOL    HW213458   2.088   4.851   0.820
 4187SOL     OW13459   1.351   3.598   6.069
 4187SOL    HW113460   1.278   3.542   6.031
 4187SOL    HW213461   1.313   3.685   6.101
 4188SOL     OW13462   5.304   0.287   6.048
 4188SOL    HW113463   5.302   0.203   5.993
 4188SOL    HW213464   5.221   0.293   6.103
 4189SOL     OW13465   3.527   5.096   3.580
 4189SOL    HW113466   3.497   5.052   3.664
 4189SOL    HW213467   3.612   5.147   3.597
 4190SOL     OW13468   6.458   5.582   1.490
 4190SOL    HW113469   6.530   5.581   1.419
 4190SOL    HW213470   6.410   5.670   1.487
 4191SOL     OW13471   5.065   2.825   5.884
 4191SOL    HW113472   5.015   2.855   5.803
 4191SOL    HW213473   5.113   2.903   5.924
 4192SOL     OW13474   2.030   3.585   6.534
 4192SOL    HW113475   1.984   3.566   6.621
 4192SOL    HW213476   1.973   3.645   6.478
 4193SOL     OW13477   5.121   6.501   1.574
 4193SOL    HW113478   5.113   6.433   1.501
 4193SOL    HW213479   5.053   6.482   1.645
 4194SOL     OW13480   5.629   0.038   6.776
 4194SOL    HW113481   5.681   6.981   6.821
 4194SOL    HW213482   5.626   0.021   6.678
 4195SOL     OW13483   1.873   6.037   0.862
 4195SOL    HW113484   1.955   6.053   0.807
 4195SOL    HW213485   1.793   6.078   0.817
 4196SOL     OW13486   6.045   3.219   2.948
 4196SOL    HW113487   6.122   3.240   2.887
 4196SOL    HW213488   6.032   3.293   3.013
 4197SOL     OW13489   3.943   0.835   6.804
 4197SOL    HW113490   3.870   0.868   6.863
 4197SOL    HW213491   4.028   0.826   6.857
 4198SOL     OW13492   6.455   1.925   2.039
 4198SOL    HW113493   6.459   1.982   1.957
 4198SOL    HW213494   6.430   1.831   2.013
 4199SOL     OW13495   1.324   3.473   0.191
 4199SOL    HW113496   1.315   3.522   0.278
 4199SOL    HW213497   1.309   3.375   0.205
 4200SOL     OW13498   5.194   1.509   2.888
 4200SOL    HW113499   5.149   1.492   2.800
 4200SOL    HW213500   5.180   1.430   2.948
 4201SOL     OW13501   4.906   0.580   5.374
 4201SOL    HW113502   4.817   0.619   5.351
 4201SOL    HW213503   4.928   0.599   5.470
 4202SOL     OW13504   4.460   3.987   1.226
 4202SOL    HW113505   4.419   3.910   1.276
 4202SOL    HW213506   4.438   4.073   1.272
 4203SOL     OW13507   6.371   3.810   4.662
 4203SOL    HW113508   6.333   3.805   4.570
 4203SOL    HW213509   6.394   3.718   4.694
 4204SOL     OW13510   2.502   4.214   5.734
 4204SOL    HW113511   2.467   4.240   5.824
 4204SOL    HW213512   2.484   4.116   5.719
 4205SOL     OW13513   5.752   5.114   6.131
 4205SOL    HW113514   5.842   5.075   6.153
 4205SOL    HW213515   5.686   5.040   6.121
 4206SOL     OW13516   2.496   2.562   4.936
 4206SOL    HW113517   2.397   2.562   4.929
 4206SOL    HW213518   2.525   2.627   5.007
 4207SOL     OW13519   2.936   2.140   1.268
 4207SOL    HW113520   3.032   2.170   1.266
 4207SOL    HW213521   2.912   2.111   1.360
 4208SOL     OW13522   1.553   2.646   3.120
 4208SOL    HW113523   1.466   2.696   3.113
 4208SOL    HW213524   1.609   2.664   3.040
 4209SOL     OW13525   6.522   5.091   2.951
 4209SOL    HW113526   6.475   5.014   2.909
 4209SOL    HW213527   6.537   5.163   2.883
 4210SOL     OW13528   3.369   5.222   5.182
 4210SOL    HW113529   3.378   5.273   5.268
 4210SOL    HW213530   3.393   5.126   5.197
 4211SOL     OW13531   5.076   3.033   6.334
 4211SOL    HW113532   4.985   3.069   6.315
 4211SOL    HW213533   5.141   3.108   6.345
 4212SOL     OW13534   0.470   2.888   2.556
 4212SOL    HW113535   0.381   2.925   2.530
 4212SOL    HW213536   0.487   2.906   2.653
 4213SOL     OW13537   2.795   0.585   4.055
 4213SOL    HW113538   2.746   0.533   4.125
 4213SOL    HW213539   2.730   0.614   3.984
 4214SOL     OW13540   6.235   5.941   4.111
 4214SOL    HW113541   6.148   5.974   4.074
 4214SOL    HW213542   6.309   6.001   4.081
 4215SOL     OW13543   6.085   0.004   5.316
 4215SOL    HW113544   6.181   0.029   5.330
 4215SOL    HW213545   6.038   0.077   5.266
 4216SOL     OW13546   1.623   5.716   2.526
 4216SOL    HW113547   1.708   5.755   2.490
 4216SOL    HW213548   1.643   5.664   2.608
 4217SOL     OW13549   0.198   0.661   2.672
 4217SOL    HW113550   0.118   0.608   2.646
 4217SOL    HW213551   0.195   0.680   2.770
 4218SOL     OW13552   2.686   0.600   1.802
 4218SOL    HW113553   2.604   0.652   1.779
 4218SOL    HW213554   2.764   0.635   1.749
 4219SOL     OW13555   2.712   5.250   1.968
 4219SOL    HW113556   2.682   5.332   2.018
 4219SOL    HW213557   2.784   5.204   2.020
 4220SOL     OW13558   5.342   1.719   1.076
 4220SOL    HW113559   5.285   1.690   1.152
 4220SOL    HW213560   5.345   1.648   1.006
 4221SOL     OW13561   0.625   6.722   1.276
 4221SOL    HW113562   0.692   6.794   1.260
 4221SOL    HW213563   0.666   6.650   1.332
 4222SOL     OW13564   5.370   3.948   4.378
 4222SOL    HW113565   5.288   3.973   4.429
 4222SOL    HW213566   5.357   3.970   4.281
 4223SOL     OW13567   3.277   4.094   2.617
 4223SOL    HW113568   3.272   4.066   2.521
 4223SOL    HW213569   3.370   4.126   2.637
 4224SOL     OW13570   4.597   4.037   5.226
 4224SOL    HW113571   4.679   4.004   5.271
 4224SOL    HW213572   4.517   3.992   5.266
 4225SOL     OW13573   0.765   1.530   6.275
 4225SOL    HW113574   0.754   1.524   6.176
 4225SOL    HW213575   0.720   1.452   6.318
 4226SOL     OW13576   5.073   5.125   3.813
 4226SOL    HW113577   5.067   5.043   3.870
 4226SOL    HW213578   5.143   5.186   3.851
 4227SOL     OW13579   5.708   5.906   1.117
 4227SOL    HW113580   5.754   5.854   1.189
 4227SOL    HW213581   5.777   5.938   1.051
 4228SOL     OW13582   2.195   4.905   3.320
 4228SOL    HW113583   2.194   4.890   3.419
 4228SOL    HW213584   2.130   4.843   3.276
 4229SOL     OW13585   6.373   6.357   6.187
 4229SOL    HW113586   6.368   6.457   6.185
 4229SOL    HW213587   6.295   6.320   6.237
 4230SOL     OW13588   0.734   1.977   2.276
 4230SOL    HW113589   0.715   1.879   2.282
 4230SOL    HW213590   0.680   2.017   2.202
 4231SOL     OW13591   6.812   0.618   5.503
 4231SOL    HW113592   6.892   0.606   5.444
 4231SOL    HW213593   6.729   0.608   5.448
 4232SOL     OW13594   2.232   4.282   2.164
 4232SOL    HW113595   2.210   4.205   2.105
 4232SOL    HW213596   2.321   4.319   2.139
 4233SOL     OW13597   4.919   5.234   2.547
 4233SOL    HW113598   4.820   5.242   2.539
 4233SOL    HW213599   4.946   5.244   2.643
 4234SOL     OW13600   2.733   5.224   6.423
 4234SOL    HW113601   2.750   5.137   6.469
 4234SOL    HW213602   2.734   5.298   6.490
 4235SOL     OW13603   6.495   5.938   0.342
 4235SOL    HW113604   6.561   6.002   0.382
 4235SOL    HW213605   6.530   5.903   0.255
 4236SOL     OW13606   0.341   5.318   3.944
 4236SOL    HW113607   0.338   5.236   4.001
 4236SOL    HW213608   0.248   5.351   3.929
 4237SOL     OW13609   0.107   4.770   4.359
 4237SOL    HW113610   0.142   4.855   4.318
 4237SOL    HW213611   0.032   4.792   4.421
 4238SOL     OW13612   1.926   5.885   3.175
 4238SOL    HW113613   1.972   5.823   3.238
 4238SOL    HW213614   1.827   5.867   3.177
 4239SOL     OW13615   4.045   1.091   3.641
 4239SOL    HW113616   4.055   1.177   3.691
 4239SOL    HW213617   3.957   1.049   3.664
 4240SOL     OW13618   4.453   6.876   1.620
 4240SOL    HW113619   4.408   6.789   1.600
 4240SOL    HW213620   4.399   6.928   1.686
 4241SOL     OW13621   0.738   4.383   6.594
 4241SOL    HW113622   0.714   4.447   6.667
 4241SOL    HW213623   0.690   4.296   6.609
 4242SOL     OW13624   3.893   2.177   2.596
 4242SOL    HW113625   3.950   2.095   2.605
 4242SOL    HW213626   3.833   2.185   2.675
 4243SOL     OW13627   2.269   2.198   3.002
 4243SOL    HW113628   2.341   2.263   3.028
 4243SOL    HW213629   2.182   2.228   3.040
 4244SOL     OW13630   2.881   3.097   5.547
 4244SOL    HW113631   2.843   3.119   5.457
 4244SOL    HW213632   2.819   3.131   5.618
 4245SOL     OW13633   6.609   0.854   5.535
 4245SOL    HW113634   6.643   0.784   5.473
 4245SOL    HW213635   6.618   0.944   5.492
 4246SOL     OW13636   0.968   5.346   6.484
 4246SOL    HW113637   0.879   5.371   6.524
 4246SOL    HW213638   1.019   5.290   6.550
 4247SOL     OW13639   0.294   4.572   5.236
 4247SOL    HW113640   0.345   4.647   5.194
 4247SOL    HW213641   0.269   4.505   5.165
 4248SOL     OW13642   1.884   3.520   6.760
 4248SOL    HW113643   1.786   3.508   6.740
 4248SOL    HW213644   1.895   3.567   6.847
 4249SOL     OW13645   4.909   3.116   5.922
 4249SOL    HW113646   4.986   3.096   5.981
 4249SOL    HW213647   4.831   3.060   5.948
 4250SOL     OW13648   0.008   4.161   3.805
 4250SOL    HW113649   0.019   4.251   3.847
 4250SOL    HW213650   6.967   4.170   3.723
 4251SOL     OW13651   5.661   4.881   6.364
 4251SOL    HW113652   5.697   4.892   6.272
 4251SOL    HW213653   5.564   4.905   6.365
 4252SOL     OW13654   6.543   4.907   5.659
 4252SOL    HW113655   6.571   4.927   5.753
 4252SOL    HW213656   6.445   4.887   5.657
 4253SOL     OW13657   2.896   7.000   3.401
 4253SOL    HW113658   2.807   0.029   3.412
 4253SOL    HW213659   2.953   0.038   3.338
 4254SOL     OW13660   4.171   3.484   3.561
 4254SOL    HW113661   4.218   3.501   3.647
 4254SOL    HW213662   4.132   3.392   3.563
 4255SOL     OW13663   0.645   2.059   4.349
 4255SOL    HW113664   0.585   1.980   4.350
 4255SOL    HW213665   0.620   2.119   4.273
 4256SOL     OW13666   1.185   0.383   1.502
 4256SOL    HW113667   1.148   0.467   1.462
 4256SOL    HW213668   1.117   0.310   1.493
 4257SOL     OW13669   4.377   2.457   4.690
 4257SOL    HW113670   4.283   2.443   4.722
 4257SOL    HW213671   4.392   2.405   4.606
 4258SOL     OW13672   5.453   6.249   1.937
 4258SOL    HW113673   5.432   6.236   1.840
 4258SOL    HW213674   5.462   6.346   1.957
 4259SOL     OW13675   2.979   2.968   1.832
 4259SOL    HW113676   2.945   2.933   1.744
 4259SOL    HW213677   2.915   3.035   1.868
 4260SOL     OW13678   4.112   5.771   4.864
 4260SOL    HW113679   4.204   5.733   4.859
 4260SOL    HW213680   4.097   5.833   4.787
 4261SOL     OW13681   1.354   1.199   3.111
 4261SOL    HW113682   1.395   1.160   3.029
 4261SOL    HW213683   1.255   1.202   3.101
 4262SOL     OW13684   1.153   6.863   5.084
 4262SOL    HW113685   1.192   6.913   5.007
 4262SOL    HW213686   1.159   6.919   5.167
 4263SOL     OW13687   4.402   5.751   0.037
 4263SOL    HW113688   4.353   5.664   0.044
 4263SOL    HW213689   4.376   5.797   6.969
 4264SOL     OW13690   1.723   1.103   1.457
 4264SOL    HW113691   1.693   1.175   1.518
 4264SOL    HW213692   1.760   1.144   1.373
 4265SOL     OW13693   2.137   1.417   1.092
 4265SOL    HW113694   2.154   1.510   1.057
 4265SOL    HW213695   2.054   1.381   1.050
 4266SOL     OW13696   2.483   4.916   0.552
 4266SOL    HW113697   2.559   4.889   0.493
 4266SOL    HW213698   2.434   4.834   0.582
 4267SOL     OW13699   1.450   3.464   4.994
 4267SOL    HW113700   1.504   3.546   5.016
 4267SOL    HW213701   1.457   3.398   5.069
 4268SOL     OW13702   0.389   1.836   1.090
 4268SOL    HW113703   0.334   1.919   1.085
 4268SOL    HW213704   0.454   1.843   1.166
 4269SOL     OW13705   3.064   3.866   1.178
 4269SOL    HW113706   3.071   3.768   1.159
 4269SOL    HW213707   3.106   3.885   1.267
 4270SOL     OW13708   3.773   2.989   0.009
 4270SOL    HW113709   3.754   2.917   0.076
 4270SOL    HW213710   3.858   3.036   0.034
 4271SOL     OW13711   1.864   0.682   1.207
 4271SOL    HW113712   1.959   0.673   1.239
 4271SOL    HW213713   1.817   0.752   1.262
 4272SOL     OW13714   1.357   4.837   3.399
 4272SOL    HW113715   1.417   4.902   3.446
 4272SOL    HW213716   1.269   4.831   3.448
 4273SOL     OW13717   6.814   6.287   3.141
 4273SOL    HW113718   6.745   6.318   3.075
 4273SOL    HW213719   6.795   6.191   3.165
 4274SOL     OW13720   1.592   0.187   3.233
 4274SOL    HW113721   1.532   0.121   3.280
 4274SOL    HW213722   1.684   0.149   3.227
 4275SOL     OW13723   0.361   0.626   5.869
 4275SOL    HW113724   0.333   0.620   5.773
 4275SOL    HW213725   0.302   0.567   5.924
 4276SOL     OW13726   2.121   3.404   3.429
 4276SOL    HW113727   2.071   3.481   3.391
 4276SOL    HW213728   2.137   3.420   3.527
 4277SOL     OW13729   0.538   5.777   5.957
 4277SOL    HW113730   0.536   5.820   6.047
 4277SOL    HW213731   0.554   5.679   5.967
 4278SOL     OW13732   1.368   6.556   6.623
 4278SOL    HW113733   1.403   6.472   6.582
 4278SOL    HW213734   1.405   6.566   6.715
 4279SOL     OW13735   3.795   5.780   3.546
 4279SOL    HW113736   3.774   5.793   3.450
 4279SOL    HW213737   3.859   5.850   3.577
 4280SOL     OW13738   4.873   3.149   4.266
 4280SOL    HW113739   4.953   3.124   4.212
 4280SOL    HW213740   4.815   3.068   4.279
 4281SOL     OW13741   2.043   4.146   4.539
 4281SOL    HW113742   2.042   4.090   4.621
 4281SOL    HW213743   2.132   4.192   4.531
 4282SOL     OW13744   0.854   1.315   6.746
 4282SOL    HW113745   0.925   1.319   6.817
 4282SOL    HW213746   0.768   1.351   6.782
 4283SOL     OW13747   2.902   1.407   3.833
 4283SOL    HW113748   2.865   1.500   3.838
 4283SOL    HW213749   2.931   1.378   3.924
 4284SOL     OW13750   6.652   2.505   3.160
 4284SOL    HW113751   6.624   2.541   3.071
 4284SOL    HW213752   6.582   2.443   3.195
 4285SOL     OW13753   0.478   6.424   3.800
 4285SOL    HW113754   0.492   6.505   3.744
 4285SOL    HW213755   0.560   6.366   3.794
 4286SOL     OW13756   4.899   5.306   0.057
 4286SOL    HW113757   4.895   5.213   0.094
 4286SOL    HW213758   4.993   5.339   0.062
 4287SOL     OW13759   3.978   5.582   6.245
 4287SOL    HW113760   3.940   5.523   6.316
 4287SOL    HW213761   3.903   5.627   6.196
 4288SOL     OW13762   0.715   6.499   4.324
 4288SOL    HW113763   0.652   6.460   4.257
 4288SOL    HW213764   0.794   6.539   4.277
 4289SOL     OW13765   0.618   4.157   6.674
 4289SOL    HW113766   0.685   4.170   6.747
 4289SOL    HW213767   0.607   4.059   6.657
 4290SOL     OW13768   1.425   2.085   2.815
 4290SOL    HW113769   1.427   2.069   2.716
 4290SOL    HW213770   1.456   2.179   2.833
 4291SOL     OW13771   6.807   3.734   1.685
 4291SOL    HW113772   6.721   3.752   1.734
 4291SOL    HW213773   6.836   3.818   1.639
 4292SOL     OW13774   5.424   5.822   5.185
 4292SOL    HW113775   5.484   5.822   5.105
 4292SOL    HW213776   5.367   5.904   5.184
 4293SOL     OW13777   0.895   1.761   0.445
 4293SOL    HW113778   0.966   1.831   0.455
 4293SOL    HW213779   0.806   1.805   0.431
 4294SOL     OW13780   4.449   2.358   5.872
 4294SOL    HW113781   4.509   2.382   5.948
 4294SOL    HW213782   4.435   2.259   5.870
 4295SOL     OW13783   3.293   4.956   5.488
 4295SOL    HW113784   3.354   4.922   5.559
 4295SOL    HW213785   3.341   4.954   5.400
 4296SOL     OW13786   2.085   1.501   2.607
 4296SOL    HW113787   2.098   1.458   2.518
 4296SOL    HW213788   1.987   1.512   2.624
 4297SOL     OW13789   5.347   0.231   0.093
 4297SOL    HW113790   5.291   0.280   0.160
 4297SOL    HW213791   5.435   0.207   0.135
 4298SOL     OW13792   1.654   4.598   1.882
 4298SOL    HW113793   1.573   4.567   1.931
 4298SOL    HW213794   1.683   4.527   1.818
 4299SOL     OW13795   1.272   5.457   4.861
 4299SOL    HW113796   1.262   5.439   4.959
 4299SOL    HW213797   1.213   5.533   4.835
 4300SOL     OW13798   5.852   0.270   5.647
 4300SOL    HW113799   5.873   0.310   5.558
 4300SOL    HW213800   5.759   0.296   5.675
 4301SOL     OW13801   2.954   0.737   0.721
 4301SOL    HW113802   3.036   0.710   0.772
 4301SOL    HW213803   2.901   0.655   0.699
 4302SOL     OW13804   0.972   0.438   0.025
 4302SOL    HW113805   1.016   0.507   6.984
 4302SOL    HW213806   0.989   0.347   7.001
 4303SOL     OW13807   0.784   4.515   2.227
 4303SOL    HW113808   0.772   4.420   2.254
 4303SOL    HW213809   0.870   4.550   2.265
 4304SOL     OW13810   2.543   3.610   5.898
 4304SOL    HW113811   2.590   3.607   5.986
 4304SOL    HW213812   2.541   3.518   5.858
 4305SOL     OW13813   0.653   1.268   4.878
 4305SOL    HW113814   0.662   1.212   4.795
 4305SOL    HW213815   0.598   1.349   4.858
 4306SOL     OW13816   6.265   5.619   5.594
 4306SOL    HW113817   6.361   5.618   5.624
 4306SOL    HW213818   6.242   5.530   5.554
 4307SOL     OW13819   6.101   3.740   1.278
 4307SOL    HW113820   6.024   3.700   1.327
 4307SOL    HW213821   6.067   3.794   1.202
 4308SOL     OW13822   3.156   0.343   5.333
 4308SOL    HW113823   3.238   0.306   5.289
 4308SOL    HW213824   3.102   0.269   5.372
 4309SOL     OW13825   1.137   0.562   1.298
 4309SOL    HW113826   1.173   0.491   1.237
 4309SOL    HW213827   1.039   0.551   1.309
 4310SOL     OW13828   1.572   6.712   2.698
 4310SOL    HW113829   1.616   6.801   2.701
 4310SOL    HW213830   1.483   6.718   2.743
 4311SOL     OW13831   0.942   5.351   4.903
 4311SOL    HW113832   1.015   5.350   4.834
 4311SOL    HW213833   0.969   5.296   4.982
 4312SOL     OW13834   1.437   5.900   2.450
 4312SOL    HW113835   1.505   5.853   2.505
 4312SOL    HW213836   1.346   5.863   2.471
 4313SOL     OW13837   5.163   1.075   1.015
 4313SOL    HW113838   5.241   1.059   0.955
 4313SOL    HW213839   5.147   0.994   1.072
 4314SOL     OW13840   7.003   3.107   1.379
 4314SOL    HW113841   6.920   3.163   1.369
 4314SOL    HW213842   0.001   3.086   1.475
 4315SOL     OW13843   1.333   1.126   2.137
 4315SOL    HW113844   1.277   1.128   2.220
 4315SOL    HW213845   1.275   1.105   2.058
 4316SOL     OW13846   0.094   1.396   2.363
 4316SOL    HW113847   0.042   1.462   2.308
 4316SOL    HW213848   0.031   1.343   2.420
 4317SOL     OW13849   3.778   1.098   3.366
 4317SOL    HW113850   3.708   1.030   3.346
 4317SOL    HW213851   3.824   1.076   3.452
 4318SOL     OW13852   6.944   2.144   4.835
 4318SOL    HW113853   7.011   2.072   4.819
 4318SOL    HW213854   6.989   2.233   4.834
 4319SOL     OW13855   4.180   3.226   6.383
 4319SOL    HW113856   4.184   3.305   6.321
 4319SOL    HW213857   4.092   3.180   6.374
 4320SOL     OW13858   0.100   6.548   3.415
 4320SOL    HW113859   0.176   6.504   3.460
 4320SOL    HW213860   0.039   6.479   3.376
 4321SOL     OW13861   0.386   0.049   4.286
 4321SOL    HW113862   0.415   0.077   4.378
 4321SOL    HW213863   0.330   0.121   4.245
 4322SOL     OW13864   6.684   0.904   0.455
 4322SOL    HW113865   6.618   0.889   0.381
 4322SOL    HW213866   6.676   0.830   0.522
 4323SOL     OW13867   0.082   2.103   3.897
 4323SOL    HW113868   7.014   2.149   3.869
 4323SOL    HW213869   0.112   2.042   3.824
 4324SOL     OW13870   6.033   2.386   5.656
 4324SOL    HW113871   6.028   2.460   5.722
 4324SOL    HW213872   5.942   2.348   5.641
 4325SOL     OW13873   2.547   2.557   6.349
 4325SOL    HW113874   2.614   2.631   6.357
 4325SOL    HW213875   2.595   2.469   6.347
 4326SOL     OW13876   0.219   2.176   5.304
 4326SOL    HW113877   0.249   2.184   5.209
 4326SOL    HW213878   0.232   2.263   5.351
 4327SOL     OW13879   4.575   0.731   3.333
 4327SOL    HW113880   4.537   0.772   3.250
 4327SOL    HW213881   4.508   0.737   3.406
 4328SOL     OW13882   6.080   5.015   0.761
 4328SOL    HW113883   6.030   5.013   0.847
 4328SOL    HW213884   6.167   4.967   0.770
 4329SOL     OW13885   5.260   1.676   5.735
 4329SOL    HW113886   5.271   1.589   5.782
 4329SOL    HW213887   5.347   1.702   5.692
 4330SOL     OW13888   1.199   0.773   6.198
 4330SOL    HW113889   1.282   0.819   6.232
 4330SOL    HW213890   1.154   0.833   6.131
 4331SOL     OW13891   5.487   2.993   6.107
 4331SOL    HW113892   5.494   2.958   6.013
 4331SOL    HW213893   5.458   2.918   6.167
 4332SOL     OW13894   6.039   4.275   2.325
 4332SOL    HW113895   5.989   4.198   2.284
 4332SOL    HW213896   6.127   4.286   2.279
 4333SOL     OW13897   6.574   1.756   4.919
 4333SOL    HW113898   6.617   1.745   4.830
 4333SOL    HW213899   6.643   1.754   4.991
 4334SOL     OW13900   3.993   7.005   2.111
 4334SOL    HW113901   4.041   6.918   2.120
 4334SOL    HW213902   4.055   0.064   2.136
 4335SOL     OW13903   3.974   4.096   6.379
 4335SOL    HW113904   3.880   4.088   6.347
 4335SOL    HW213905   3.973   4.118   6.477
 4336SOL     OW13906   0.879   0.302   5.442
 4336SOL    HW113907   0.826   0.330   5.522
 4336SOL    HW213908   0.964   0.355   5.439
 4337SOL     OW13909   1.131   5.325   5.946
 4337SOL    HW113910   1.107   5.353   6.039
 4337SOL    HW213911   1.140   5.406   5.888
 4338SOL     OW13912   5.370   6.537   2.934
 4338SOL    HW113913   5.418   6.451   2.915
 4338SOL    HW213914   5.303   6.555   2.862
 4339SOL     OW13915   0.008   1.018   0.689
 4339SOL    HW113916   0.002   0.987   0.784
 4339SOL    HW213917   6.934   1.052   0.660
 4340SOL     OW13918   4.840   3.527   1.560
 4340SOL    HW113919   4.743   3.502   1.569
 4340SOL    HW213920   4.847   3.612   1.507
 4341SOL     OW13921   1.238   3.476   0.924
 4341SOL    HW113922   1.308   3.511   0.863
 4341SOL    HW213923   1.274   3.399   0.975
 4342SOL     OW13924   7.013   2.654   2.673
 4342SOL    HW113925   0.025   2.750   2.680
 4342SOL    HW213926   7.002   2.629   2.577
 4343SOL     OW13927   3.168   3.165   1.517
 4343SOL    HW113928   3.097   3.234   1.504
 4343SOL    HW213929   3.153   3.089   1.453
 4344SOL     OW13930   2.434   3.240   1.698
 4344SOL    HW113931   2.518   3.190   1.722
 4344SOL    HW213932   2.445   3.336   1.724
 4345SOL     OW13933   2.865   0.631   5.929
 4345SOL    HW113934   2.862   0.710   5.991
 4345SOL    HW213935   2.773   0.608   5.900
 4346SOL     OW13936   0.007   3.806   1.901
 4346SOL    HW113937   7.004   3.785   1.805
 4346SOL    HW213938   7.010   3.724   1.957
 4347SOL     OW13939   5.037   6.058   2.296
 4347SOL    HW113940   5.064   5.963   2.311
 4347SOL    HW213941   4.999   6.097   2.380
 4348SOL     OW13942   1.175   2.959   0.416
 4348SOL    HW113943   1.256   2.972   0.473
 4348SOL    HW213944   1.093   2.970   0.473
 4349SOL     OW13945   5.959   1.484   0.863
 4349SOL    HW113946   5.991   1.556   0.925
 4349SOL    HW213947   6.038   1.431   0.830
 4350SOL     OW13948   3.108   0.221   3.416
 4350SOL    HW113949   3.063   0.307   3.390
 4350SOL    HW213950   3.173   0.239   3.490
 4351SOL     OW13951   3.305   7.015   0.485
 4351SOL    HW113952   3.324   6.987   0.579
 4351SOL    HW213953   3.280   6.934   0.431
 4352SOL     OW13954   6.145   1.788   1.549
 4352SOL    HW113955   6.061   1.736   1.559
 4352SOL    HW213956   6.125   1.876   1.504
 4353SOL     OW13957   3.157   5.642   0.731
 4353SOL    HW113958   3.090   5.582   0.687
 4353SOL    HW213959   3.124   5.667   0.822
 4354SOL     OW13960   2.663   1.367   1.375
 4354SOL    HW113961   2.677   1.272   1.401
 4354SOL    HW213962   2.589   1.373   1.308
 4355SOL     OW13963   4.500   0.206   6.588
 4355SOL    HW113964   4.517   0.295   6.545
 4355SOL    HW213965   4.409   0.174   6.562
 4356SOL     OW13966   3.382   3.600   1.269
 4356SOL    HW113967   3.425   3.608   1.359
 4356SOL    HW213968   3.441   3.547   1.208
 4357SOL     OW13969   5.394   0.866   0.665
 4357SOL    HW113970   5.337   0.790   0.636
 4357SOL    HW213971   5.337   0.944   0.689
 4358SOL     OW13972   6.337   0.417   0.928
 4358SOL    HW113973   6.434   0.402   0.942
 4358SOL    HW213974   6.305   0.490   0.989
 4359SOL     OW13975   6.839   3.820   4.389
 4359SOL    HW113976   6.841   3.759   4.310
 4359SOL    HW213977   6.744   3.835   4.417
 4360SOL     OW13978   2.630   3.208   1.181
 4360SOL    HW113979   2.601   3.281   1.118
 4360SOL    HW213980   2.675   3.249   1.260
 4361SOL     OW13981   5.187   1.770   2.532
 4361SOL    HW113982   5.161   1.862   2.504
 4361SOL    HW213983   5.266   1.774   2.592
 4362SOL     OW13984   4.784   4.117   2.451
 4362SOL    HW113985   4.874   4.141   2.488
 4362SOL    HW213986   4.721   4.194   2.461
 4363SOL     OW13987   4.773   0.487   6.360
 4363SOL    HW113988   4.835   0.411   6.379
 4363SOL    HW213989   4.685   0.451   6.330
 4364SOL     OW13990   4.391   3.885   5.352
 4364SOL    HW113991   4.462   3.814   5.352
 4364SOL    HW213992   4.323   3.864   5.282
 4365SOL     OW13993   5.211   2.372   6.912
 4365SOL    HW113994   5.303   2.402   6.937
 4365SOL    HW213995   5.210   2.343   6.817
 4366SOL     OW13996   4.547   5.120   0.804
 4366SOL    HW113997   4.597   5.149   0.886
 4366SOL    HW213998   4.551   5.021   0.797
 4367SOL     OW13999   5.962   6.324   1.064
 4367SOL    HW114000   5.931   6.413   1.032
 4367SOL    HW214001   5.890   6.280   1.118
 4368SOL     OW14002   4.532   5.483   2.056
 4368SOL    HW114003   4.502   5.411   2.118
 4368SOL    HW214004   4.544   5.568   2.107
 4369SOL     OW14005   3.273   5.661   1.332
 4369SOL    HW114006   3.288   5.575   1.283
 4369SOL    HW214007   3.316   5.736   1.282
 4370SOL     OW14008   5.076   3.995   1.599
 4370SOL    HW114009   5.011   3.999   1.675
 4370SOL    HW214010   5.136   4.075   1.603
 4371SOL     OW14011   1.478   2.071   2.193
 4371SOL    HW114012   1.475   1.980   2.235
 4371SOL    HW214013   1.452   2.064   2.096
 4372SOL     OW14014   4.524   0.059   3.844
 4372SOL    HW114015   4.623   0.065   3.858
 4372SOL    HW214016   4.485   0.150   3.837
 4373SOL     OW14017   0.732   1.692   5.291
 4373SOL    HW114018   0.658   1.757   5.274
 4373SOL    HW214019   0.746   1.635   5.210
 4374SOL     OW14020   3.752   1.272   7.011
 4374SOL    HW114021   3.805   1.323   0.062
 4374SOL    HW214022   3.814   1.233   6.943
 4375SOL     OW14023   3.351   5.224   4.529
 4375SOL    HW114024   3.324   5.150   4.467
 4375SOL    HW214025   3.290   5.225   4.608
 4376SOL     OW14026   0.138   2.385   2.775
 4376SOL    HW114027   0.084   2.454   2.822
 4376SOL    HW214028   0.192   2.428   2.702
 4377SOL     OW14029   0.249   4.636   5.864
 4377SOL    HW114030   0.347   4.618   5.877
 4377SOL    HW214031   0.238   4.701   5.788
 4378SOL     OW14032   3.134   1.761   4.482
 4378SOL    HW114033   3.234   1.762   4.480
 4378SOL    HW214034   3.102   1.813   4.561
 4379SOL     OW14035   3.715   1.606   5.993
 4379SOL    HW114036   3.664   1.692   6.002
 4379SOL    HW214037   3.809   1.626   5.968
 4380SOL     OW14038   6.836   2.214   3.247
 4380SOL    HW114039   6.877   2.187   3.160
 4380SOL    HW214040   6.746   2.172   3.256
 4381SOL     OW14041   1.097   4.934   6.622
 4381SOL    HW114042   1.071   4.838   6.636
 4381SOL    HW214043   1.190   4.937   6.587
 4382SOL     OW14044   1.381   4.948   4.685
 4382SOL    HW114045   1.448   4.932   4.758
 4382SOL    HW214046   1.428   4.985   4.605
 4383SOL     OW14047   0.388   4.525   0.227
 4383SOL    HW114048   0.364   4.603   0.169
 4383SOL    HW214049   0.432   4.557   0.310
 4384SOL     OW14050   4.932   6.770   4.259
 4384SOL    HW114051   4.947   6.787   4.356
 4384SOL    HW214052   4.845   6.722   4.246
 4385SOL     OW14053   5.045   0.603   6.089
 4385SOL    HW114054   5.038   0.508   6.120
 4385SOL    HW214055   4.967   0.625   6.030
 4386SOL     OW14056   2.140   3.377   3.712
 4386SOL    HW114057   2.218   3.314   3.710
 4386SOL    HW214058   2.129   3.413   3.805
 4387SOL     OW14059   4.403   2.009   1.105
 4387SOL    HW114060   4.366   2.102   1.114
 4387SOL    HW214061   4.375   1.971   1.016
 4388SOL     OW14062   6.236   3.092   0.395
 4388SOL    HW114063   6.194   3.175   0.432
 4388SOL    HW214064   6.328   3.081   0.432
 4389SOL     OW14065   2.426   1.224   6.551
 4389SOL    HW114066   2.389   1.229   6.644
 4389SOL    HW214067   2.524   1.202   6.555
 4390SOL     OW14068   6.848   1.004   1.252
 4390SOL    HW114069   6.807   0.985   1.163
 4390SOL    HW214070   6.917   0.935   1.272
 4391SOL     OW14071   6.979   6.087   1.725
 4391SOL    HW114072   0.041   6.043   1.771
 4391SOL    HW214073   6.894   6.058   1.769
 4392SOL     OW14074   2.112   3.071   5.972
 4392SOL    HW114075   2.062   3.101   6.053
 4392SOL    HW214076   2.169   2.992   5.995
 4393SOL     OW14077   6.168   0.409   1.640
 4393SOL    HW114078   6.159   0.412   1.739
 4393SOL    HW214079   6.138   0.319   1.607
 4394SOL     OW14080   6.989   1.250   2.869
 4394SOL    HW114081   0.044   1.223   2.934
 4394SOL    HW214082   6.972   1.348   2.878
 4395SOL     OW14083   1.680   3.711   1.265
 4395SOL    HW114084   1.746   3.656   1.316
 4395SOL    HW214085   1.728   3.761   1.193
 4396SOL     OW14086   2.279   1.582   2.300
 4396SOL    HW114087   2.309   1.532   2.382
 4396SOL    HW214088   2.207   1.531   2.255
 4397SOL     OW14089   3.544   0.904   4.760
 4397SOL    HW114090   3.500   0.814   4.758
 4397SOL    HW214091   3.625   0.899   4.819
 4398SOL     OW14092   2.423   3.338   6.145
 4398SOL    HW114093   2.424   3.240   6.164
 4398SOL    HW214094   2.335   3.376   6.172
 4399SOL     OW14095   3.038   5.943   1.631
 4399SOL    HW114096   3.136   5.930   1.650
 4399SOL    HW214097   3.005   5.868   1.575
 4400SOL     OW14098   1.097   6.094   5.287
 4400SOL    HW114099   1.158   6.120   5.213
 4400SOL    HW214100   1.129   6.134   5.373
 4401SOL     OW14101   2.882   0.354   5.943
 4401SOL    HW114102   2.891   0.357   6.043
 4401SOL    HW214103   2.873   0.447   5.908
 4402SOL     OW14104   0.914   0.775   2.532
 4402SOL    HW114105   1.001   0.822   2.546
 4402SOL    HW214106   0.928   0.676   2.538
 4403SOL     OW14107   6.403   6.448   2.751
 4403SOL    HW114108   6.482   6.428   2.693
 4403SOL    HW214109   6.415   6.402   2.840
 4404SOL     OW14110   0.989   6.284   4.994
 4404SOL    HW114111   1.040   6.325   4.917
 4404SOL    HW214112   0.958   6.193   4.968
 4405SOL     OW14113   0.727   5.264   3.004
 4405SOL    HW114114   0.813   5.306   2.974
 4405SOL    HW214115   0.747   5.180   3.054
 4406SOL     OW14116   5.940   4.118   2.902
 4406SOL    HW114117   5.935   4.173   2.819
 4406SOL    HW214118   5.958   4.022   2.877
 4407SOL     OW14119   4.958   0.523   1.286
 4407SOL    HW114120   5.005   0.468   1.355
 4407SOL    HW214121   4.974   0.620   1.304
 4408SOL     OW14122   4.717   0.618   0.031
 4408SOL    HW114123   4.736   0.543   0.093
 4408SOL    HW214124   4.707   0.703   0.083
 4409SOL     OW14125   3.768   0.660   3.404
 4409SOL    HW114126   3.696   0.641   3.471
 4409SOL    HW214127   3.825   0.735   3.437
 4410SOL     OW14128   1.671   0.172   0.704
 4410SOL    HW114129   1.606   0.188   0.779
 4410SOL    HW214130   1.630   0.201   0.618
 4411SOL     OW14131   4.632   4.377   4.596
 4411SOL    HW114132   4.645   4.407   4.501
 4411SOL    HW214133   4.672   4.286   4.608
 4412SOL     OW14134   4.902   6.479   0.951
 4412SOL    HW114135   4.895   6.513   1.044
 4412SOL    HW214136   4.821   6.424   0.929
 4413SOL     OW14137   5.416   6.292   4.659
 4413SOL    HW114138   5.473   6.370   4.685
 4413SOL    HW214139   5.435   6.215   4.720
 4414SOL     OW14140   5.925   4.051   1.389
 4414SOL    HW114141   5.891   4.044   1.483
 4414SOL    HW214142   5.899   4.139   1.350
 4415SOL     OW14143   0.822   4.198   1.499
 4415SOL    HW114144   0.773   4.280   1.467
 4415SOL    HW214145   0.810   4.124   1.433
 4416SOL     OW14146   4.906   3.419   4.328
 4416SOL    HW114147   4.888   3.321   4.321
 4416SOL    HW214148   4.897   3.461   4.237
 4417SOL     OW14149   7.009   4.292   1.967
 4417SOL    HW114150   0.066   4.279   1.900
 4417SOL    HW214151   6.975   4.202   1.996
 4418SOL     OW14152   6.690   2.512   5.235
 4418SOL    HW114153   6.603   2.486   5.195
 4418SOL    HW214154   6.735   2.580   5.177
 4419SOL     OW14155   6.132   6.425   6.547
 4419SOL    HW114156   6.137   6.381   6.457
 4419SOL    HW214157   6.037   6.441   6.571
 4420SOL     OW14158   3.819   0.832   0.810
 4420SOL    HW114159   3.829   0.907   0.875
 4420SOL    HW214160   3.727   0.794   0.816
 4421SOL     OW14161   2.734   2.278   0.244
 4421SOL    HW114162   2.659   2.236   0.295
 4421SOL    HW214163   2.804   2.311   0.308
 4422SOL     OW14164   0.858   3.067   6.488
 4422SOL    HW114165   0.766   3.031   6.505
 4422SOL    HW214166   0.926   3.002   6.524
 4423SOL     OW14167   6.107   4.599   4.363
 4423SOL    HW114168   6.021   4.556   4.388
 4423SOL    HW214169   6.130   4.671   4.430
 4424SOL     OW14170   4.023   5.235   2.630
 4424SOL    HW114171   4.113   5.193   2.640
 4424SOL    HW214172   4.032   5.322   2.581
 4425SOL     OW14173   0.541   6.045   0.515
 4425SOL    HW114174   0.615   6.096   0.473
 4425SOL    HW214175   0.550   6.048   0.615
 4426SOL     OW14176   0.585   0.637   4.226
 4426SOL    HW114177   0.630   0.667   4.310
 4426SOL    HW214178   0.585   0.537   4.222
 4427SOL     OW14179   3.593   6.108   0.381
 4427SOL    HW114180   3.582   6.026   0.325
 4427SOL    HW214181   3.549   6.185   0.336
 4428SOL     OW14182   6.112   5.986   3.101
 4428SOL    HW114183   6.177   6.052   3.137
 4428SOL    HW214184   6.044   5.964   3.171
 4429SOL     OW14185   2.217   5.958   2.743
 4429SOL    HW114186   2.277   6.029   2.708
 4429SOL    HW214187   2.131   5.958   2.691
 4430SOL     OW14188   5.626   4.053   4.413
 4430SOL    HW114189   5.659   3.981   4.351
 4430SOL    HW214190   5.528   4.039   4.430
 4431SOL     OW14191   4.648   0.104   4.673
 4431SOL    HW114192   4.612   0.197   4.663
 4431SOL    HW214193   4.708   0.083   4.595
 4432SOL     OW14194   2.176   3.831   6.372
 4432SOL    HW114195   2.082   3.834   6.338
 4432SOL    HW214196   2.218   3.745   6.345
 4433SOL     OW14197   0.263   0.004   4.888
 4433SOL    HW114198   0.168   7.005   4.864
 4433SOL    HW214199   0.322   6.963   4.830
 4434SOL     OW14200   6.576   0.563   2.455
 4434SOL    HW114201   6.598   0.534   2.548
 4434SOL    HW214202   6.567   0.663   2.452
 4435SOL     OW14203   1.954   4.640   1.640
 4435SOL    HW114204   1.890   4.570   1.609
 4435SOL    HW214205   2.018   4.600   1.705
 4436SOL     OW14206   4.916   2.282   1.729
 4436SOL    HW114207   4.959   2.252   1.815
 4436SOL    HW214208   4.822   2.248   1.725
 4437SOL     OW14209   0.138   5.575   6.979
 4437SOL    HW114210   0.086   5.491   6.965
 4437SOL    HW214211   0.148   5.623   6.892
 4438SOL     OW14212   3.736   1.855   4.865
 4438SOL    HW114213   3.810   1.866   4.799
 4438SOL    HW214214   3.678   1.779   4.838
 4439SOL     OW14215   3.029   5.272   2.044
 4439SOL    HW114216   3.126   5.280   2.067
 4439SOL    HW214217   3.015   5.194   1.985
 4440SOL     OW14218   1.857   5.377   6.058
 4440SOL    HW114219   1.909   5.358   5.975
 4440SOL    HW214220   1.870   5.302   6.123
 4441SOL     OW14221   6.233   1.095   0.935
 4441SOL    HW114222   6.197   1.158   1.004
 4441SOL    HW214223   6.184   1.107   0.850
 4442SOL     OW14224   1.734   4.628   0.908
 4442SOL    HW114225   1.753   4.532   0.930
 4442SOL    HW214226   1.798   4.687   0.958
 4443SOL     OW14227   0.917   5.885   5.306
 4443SOL    HW114228   0.978   5.964   5.297
 4443SOL    HW214229   0.963   5.813   5.359
 4444SOL     OW14230   4.349   6.278   0.435
 4444SOL    HW114231   4.449   6.279   0.430
 4444SOL    HW214232   4.315   6.372   0.426
 4445SOL     OW14233   1.881   3.279   0.474
 4445SOL    HW114234   1.889   3.316   0.382
 4445SOL    HW214235   1.788   3.295   0.508
 4446SOL     OW14236   5.767   2.347   1.408
 4446SOL    HW114237   5.757   2.369   1.311
 4446SOL    HW214238   5.676   2.339   1.450
 4447SOL     OW14239   5.220   5.643   5.820
 4447SOL    HW114240   5.230   5.697   5.903
 4447SOL    HW214241   5.197   5.703   5.744
 4448SOL     OW14242   2.712   6.405   2.201
 4448SOL    HW114243   2.771   6.415   2.121
 4448SOL    HW214244   2.701   6.308   2.222
 4449SOL     OW14245   3.797   1.928   5.398
 4449SOL    HW114246   3.893   1.901   5.400
 4449SOL    HW214247   3.790   2.023   5.368
 4450SOL     OW14248   2.485   5.571   0.897
 4450SOL    HW114249   2.424   5.596   0.822
 4450SOL    HW214250   2.515   5.654   0.945
 4451SOL     OW14251   5.224   6.181   3.073
 4451SOL    HW114252   5.137   6.226   3.095
 4451SOL    HW214253   5.223   6.088   3.109
 4452SOL     OW14254   5.062   4.665   3.518
 4452SOL    HW114255   4.985   4.638   3.575
 4452SOL    HW214256   5.136   4.599   3.528
 4453SOL     OW14257   0.003   5.518   1.304
 4453SOL    HW114258   7.016   5.617   1.299
 4453SOL    HW214259   6.951   5.485   1.369
 4454SOL     OW14260   0.137   0.786   0.053
 4454SOL    HW114261   0.159   0.793   0.150
 4454SOL    HW214262   0.075   0.708   0.038
 4455SOL     OW14263   0.768   0.669   3.999
 4455SOL    HW114264   0.672   0.649   4.021
 4455SOL    HW214265   0.811   0.587   3.962
 4456SOL     OW14266   1.671   5.890   3.741
 4456SOL    HW114267   1.587   5.940   3.759
 4456SOL    HW214268   1.747   5.931   3.793
 4457SOL     OW14269   1.462   2.265   4.708
 4457SOL    HW114270   1.516   2.330   4.762
 4457SOL    HW214271   1.462   2.292   4.612
 4458SOL     OW14272   2.380   2.109   5.410
 4458SOL    HW114273   2.392   2.038   5.480
 4458SOL    HW214274   2.464   2.163   5.404
 4459SOL     OW14275   1.492   4.616   3.298
 4459SOL    HW114276   1.590   4.630   3.308
 4459SOL    HW214277   1.443   4.677   3.360
 4460SOL     OW14278   0.057   3.532   4.952
 4460SOL    HW114279   0.030   3.436   4.941
 4460SOL    HW214280   0.007   3.572   5.029
 4461SOL     OW14281   2.629   0.350   0.631
 4461SOL    HW114282   2.561   0.324   0.700
 4461SOL    HW214283   2.696   0.277   0.620
 4462SOL     OW14284   0.425   4.595   2.400
 4462SOL    HW114285   0.466   4.506   2.420
 4462SOL    HW214286   0.492   4.668   2.418
 4463SOL     OW14287   5.877   2.110   6.901
 4463SOL    HW114288   5.862   2.037   6.836
 4463SOL    HW214289   5.941   2.177   6.863
 4464SOL     OW14290   0.722   3.443   1.413
 4464SOL    HW114291   0.631   3.416   1.383
 4464SOL    HW214292   0.781   3.362   1.419
 4465SOL     OW14293   4.767   5.113   1.233
 4465SOL    HW114294   4.698   5.088   1.301
 4465SOL    HW214295   4.805   5.030   1.193
 4466SOL     OW14296   1.102   2.953   2.554
 4466SOL    HW114297   1.157   2.989   2.629
 4466SOL    HW214298   1.007   2.941   2.584
 4467SOL     OW14299   5.438   4.709   1.933
 4467SOL    HW114300   5.402   4.618   1.953
 4467SOL    HW214301   5.362   4.770   1.911
 4468SOL     OW14302   1.833   3.609   0.381
 4468SOL    HW114303   1.886   3.584   0.463
 4468SOL    HW214304   1.848   3.541   0.310
 4469SOL     OW14305   1.207   6.438   2.178
 4469SOL    HW114306   1.260   6.409   2.258
 4469SOL    HW214307   1.115   6.398   2.182
 4470SOL     OW14308   0.613   0.266   3.015
 4470SOL    HW114309   0.538   0.227   2.962
 4470SOL    HW214310   0.666   0.192   3.057
 4471SOL     OW14311   1.638   0.865   6.531
 4471SOL    HW114312   1.644   0.913   6.618
 4471SOL    HW214313   1.687   0.778   6.537
 4472SOL     OW14314   2.445   3.383   1.014
 4472SOL    HW114315   2.486   3.474   1.017
 4472SOL    HW214316   2.346   3.391   1.030
 4473SOL     OW14317   0.938   3.108   5.299
 4473SOL    HW114318   0.943   3.013   5.327
 4473SOL    HW214319   1.026   3.153   5.316
 4474SOL     OW14320   1.610   6.354   1.110
 4474SOL    HW114321   1.576   6.327   1.020
 4474SOL    HW214322   1.710   6.364   1.106
 4475SOL     OW14323   0.875   3.249   0.723
 4475SOL    HW114324   0.823   3.334   0.735
 4475SOL    HW214325   0.972   3.272   0.714
 4476SOL     OW14326   4.730   0.847   3.747
 4476SOL    HW114327   4.649   0.863   3.804
 4476SOL    HW214328   4.711   0.772   3.683
 4477SOL     OW14329   6.439   1.097   4.583
 4477SOL    HW114330   6.468   1.133   4.672
 4477SOL    HW214331   6.517   1.098   4.521
 4478SOL     OW14332   0.783   0.399   2.387
 4478SOL    HW114333   0.711   0.419   2.453
 4478SOL    HW214334   0.768   0.309   2.347
 4479SOL     OW14335   2.844   3.295   0.282
 4479SOL    HW114336   2.904   3.296   0.363
 4479SOL    HW214337   2.787   3.213   0.285
 4480SOL     OW14338   6.852   0.718   3.276
 4480SOL    HW114339   6.845   0.624   3.242
 4480SOL    HW214340   6.939   0.731   3.323
 4481SOL     OW14341   2.015   3.908   6.037
 4481SOL    HW114342   2.049   3.994   6.075
 4481SOL    HW214343   1.995   3.920   5.940
 4482SOL     OW14344   2.569   6.521   1.239
 4482SOL    HW114345   2.583   6.430   1.279
 4482SOL    HW214346   2.566   6.589   1.312
 4483SOL     OW14347   1.529   2.778   1.167
 4483SOL    HW114348   1.488   2.710   1.106
 4483SOL    HW214349   1.595   2.733   1.227
 4484SOL     OW14350   4.289   0.146   0.840
 4484SOL    HW114351   4.370   0.092   0.815
 4484SOL    HW214352   4.246   0.106   0.920
 4485SOL     OW14353   0.274   1.878   5.605
 4485SOL    HW114354   0.362   1.887   5.557
 4485SOL    HW214355   0.247   1.781   5.605
 4486SOL     OW14356   5.477   4.925   3.855
 4486SOL    HW114357   5.511   4.973   3.774
 4486SOL    HW214358   5.550   4.916   3.922
 4487SOL     OW14359   0.037   3.401   6.893
 4487SOL    HW114360   6.978   3.379   6.831
 4487SOL    HW214361   0.082   3.485   6.861
 4488SOL     OW14362   5.569   4.603   3.422
 4488SOL    HW114363   5.572   4.590   3.521
 4488SOL    HW214364   5.602   4.694   3.399
 4489SOL     OW14365   3.619   5.970   5.942
 4489SOL    HW114366   3.618   5.968   6.042
 4489SOL    HW214367   3.597   6.062   5.910
 4490SOL     OW14368   5.067   1.671   1.684
 4490SOL    HW114369   5.126   1.639   1.759
 4490SOL    HW214370   4.989   1.609   1.675
 4491SOL     OW14371   0.146   4.758   3.024
 4491SOL    HW114372   0.050   4.785   3.033
 4491SOL    HW214373   0.159   4.666   3.061
 4492SOL     OW14374   6.701   1.059   1.929
 4492SOL    HW114375   6.656   1.008   1.856
 4492SOL    HW214376   6.658   1.038   2.017
 4493SOL     OW14377   5.377   1.117   5.750
 4493SOL    HW114378   5.429   1.147   5.670
 4493SOL    HW214379   5.411   1.027   5.779
 4494SOL     OW14380   1.045   1.580   2.248
 4494SOL    HW114381   0.991   1.563   2.331
 4494SOL    HW214382   1.046   1.679   2.229
 4495SOL     OW14383   3.756   6.138   1.582
 4495SOL    HW114384   3.679   6.148   1.644
 4495SOL    HW214385   3.726   6.152   1.488
 4496SOL     OW14386   2.164   5.118   5.461
 4496SOL    HW114387   2.098   5.043   5.465
 4496SOL    HW214388   2.238   5.094   5.398
 4497SOL     OW14389   5.238   6.290   5.168
 4497SOL    HW114390   5.208   6.359   5.103
 4497SOL    HW214391   5.253   6.334   5.257
 4498SOL     OW14392   1.737   5.265   3.484
 4498SOL    HW114393   1.688   5.276   3.397
 4498SOL    HW214394   1.833   5.246   3.467
 4499SOL     OW14395   5.204   1.274   2.221
 4499SOL    HW114396   5.282   1.220   2.190
 4499SOL    HW214397   5.236   1.356   2.268
 4500SOL     OW14398   3.301   6.516   0.060
 4500SOL    HW114399   3.304   6.511   6.976
 4500SOL    HW214400   3.393   6.500   0.096
 4501SOL     OW14401   5.191   0.631   3.050
 4501SOL    HW114402   5.153   0.613   3.140
 4501SOL    HW214403   5.125   0.683   2.996
 4502SOL     OW14404   0.564   3.737   6.831
 4502SOL    HW114405   0.573   3.801   6.755
 4502SOL    HW214406   0.468   3.722   6.851
 4503SOL     OW14407   3.244   1.453   3.497
 4503SOL    HW114408   3.329   1.484   3.453
 4503SOL    HW214409   3.217   1.520   3.566
 4504SOL     OW14410   0.918   3.018   3.592
 4504SOL    HW114411   0.932   3.019   3.691
 4504SOL    HW214412   0.967   3.095   3.551
 4505SOL     OW14413   6.701   3.739   3.857
 4505SOL    HW114414   6.701   3.687   3.772
 4505SOL    HW214415   6.785   3.791   3.865
 4506SOL     OW14416   4.236   4.141   6.880
 4506SOL    HW114417   4.144   4.180   6.874
 4506SOL    HW214418   4.304   4.214   6.877
 4507SOL     OW14419   5.605   2.184   2.816
 4507SOL    HW114420   5.601   2.085   2.807
 4507SOL    HW214421   5.673   2.221   2.752
 4508SOL     OW14422   6.837   4.014   0.726
 4508SOL    HW114423   6.806   3.944   0.790
 4508SOL    HW214424   6.759   4.059   0.685
 4509SOL     OW14425   4.583   1.331   2.599
 4509SOL    HW114426   4.578   1.232   2.588
 4509SOL    HW214427   4.553   1.376   2.515
 4510SOL     OW14428   4.942   1.373   3.509
 4510SOL    HW114429   4.881   1.442   3.547
 4510SOL    HW214430   4.889   1.307   3.456
 4511SOL     OW14431   0.903   3.907   6.737
 4511SOL    HW114432   0.956   3.822   6.745
 4511SOL    HW214433   0.829   3.906   6.804
 4512SOL     OW14434   2.771   3.762   6.073
 4512SOL    HW114435   2.815   3.785   5.986
 4512SOL    HW214436   2.838   3.771   6.147
 4513SOL     OW14437   0.417   1.781   0.829
 4513SOL    HW114438   0.373   1.843   0.763
 4513SOL    HW214439   0.413   1.822   0.920
 4514SOL     OW14440   4.286   5.526   6.993
 4514SOL    HW114441   4.192   5.557   6.982
 4514SOL    HW214442   4.292   5.429   6.965
 4515SOL     OW14443   4.826   6.670   5.950
 4515SOL    HW114444   4.786   6.640   5.864
 4515SOL    HW214445   4.849   6.767   5.944
 4516SOL     OW14446   3.370   1.763   5.039
 4516SOL    HW114447   3.341   1.854   5.010
 4516SOL    HW214448   3.422   1.720   4.965
 4517SOL     OW14449   3.602   0.160   4.298
 4517SOL    HW114450   3.504   0.161   4.280
 4517SOL    HW214451   3.644   0.082   4.252
 4518SOL     OW14452   6.911   6.497   0.688
 4518SOL    HW114453   6.872   6.573   0.740
 4518SOL    HW214454   6.863   6.413   0.710
 4519SOL     OW14455   5.278   6.385   6.344
 4519SOL    HW114456   5.259   6.450   6.418
 4519SOL    HW214457   5.220   6.304   6.355
 4520SOL     OW14458   4.908   5.133   4.856
 4520SOL    HW114459   4.951   5.044   4.844
 4520SOL    HW214460   4.931   5.192   4.779
 4521SOL     OW14461   4.933   2.330   4.173
 4521SOL    HW114462   4.988   2.262   4.222
 4521SOL    HW214463   4.932   2.415   4.224
 4522SOL     OW14464   5.564   4.335   4.076
 4522SOL    HW114465   5.592   4.349   3.981
 4522SOL    HW214466   5.625   4.386   4.137
 4523SOL     OW14467   1.398   2.574   0.476
 4523SOL    HW114468   1.395   2.474   0.486
 4523SOL    HW214469   1.439   2.597   0.388
 4524SOL     OW14470   1.888   3.629   1.908
 4524SOL    HW114471   1.820   3.666   1.971
 4524SOL    HW214472   1.980   3.655   1.939
 4525SOL     OW14473   3.277   2.004   6.075
 4525SOL    HW114474   3.291   1.913   6.114
 4525SOL    HW214475   3.179   2.021   6.064
 4526SOL     OW14476   0.851   0.036   5.380
 4526SOL    HW114477   0.863   0.120   5.433
 4526SOL    HW214478   0.916   6.984   5.411
 4527SOL     OW14479   1.242   2.771   2.773
 4527SOL    HW114480   1.335   2.803   2.759
 4527SOL    HW214481   1.193   2.773   2.685
 4528SOL     OW14482   4.904   2.029   4.313
 4528SOL    HW114483   4.967   1.951   4.301
 4528SOL    HW214484   4.824   2.015   4.256
 4529SOL     OW14485   1.178   2.929   3.313
 4529SOL    HW114486   1.194   3.002   3.379
 4529SOL    HW214487   1.098   2.876   3.341
 4530SOL     OW14488   3.958   4.250   6.134
 4530SOL    HW114489   3.967   4.238   6.233
 4530SOL    HW214490   4.033   4.204   6.087
 4531SOL     OW14491   1.193   6.507   4.897
 4531SOL    HW114492   1.248   6.556   4.965
 4531SOL    HW214493   1.244   6.499   4.811
 4532SOL     OW14494   5.773   0.648   2.255
 4532SOL    HW114495   5.870   0.666   2.275
 4532SOL    HW214496   5.766   0.572   2.190
 4533SOL     OW14497   2.824   6.057   1.039
 4533SOL    HW114498   2.842   5.962   1.012
 4533SOL    HW214499   2.828   6.065   1.138
 4534SOL     OW14500   6.214   1.602   5.019
 4534SOL    HW114501   6.190   1.562   5.107
 4534SOL    HW214502   6.185   1.540   4.946
 4535SOL     OW14503   1.807   6.883   0.484
 4535SOL    HW114504   1.843   6.973   0.461
 4535SOL    HW214505   1.865   6.812   0.445
 4536SOL     OW14506   4.000   0.573   5.384
 4536SOL    HW114507   4.033   0.563   5.478
 4536SOL    HW214508   3.902   0.556   5.381
 4537SOL     OW14509   3.667   3.906   3.544
 4537SOL    HW114510   3.570   3.926   3.533
 4537SOL    HW214511   3.679   3.844   3.622
 4538SOL     OW14512   1.742   2.366   0.372
 4538SOL    HW114513   1.727   2.267   0.367
 4538SOL    HW214514   1.836   2.383   0.402
 4539SOL     OW14515   0.930   4.847   5.260
 4539SOL    HW114516   1.008   4.809   5.210
 4539SOL    HW214517   0.887   4.919   5.206
 4540SOL     OW14518   1.664   1.415   0.307
 4540SOL    HW114519   1.598   1.342   0.288
 4540SOL    HW214520   1.735   1.380   0.367
 4541SOL     OW14521   4.244   2.811   0.381
 4541SOL    HW114522   4.279   2.763   0.301
 4541SOL    HW214523   4.198   2.895   0.353
 4542SOL     OW14524   0.062   2.348   0.504
 4542SOL    HW114525   0.134   2.350   0.573
 4542SOL    HW214526   0.022   2.256   0.500
 4543SOL     OW14527   4.372   1.443   0.644
 4543SOL    HW114528   4.423   1.417   0.726
 4543SOL    HW214529   4.285   1.483   0.671
 4544SOL     OW14530   4.618   5.997   0.036
 4544SOL    HW114531   4.627   5.958   6.961
 4544SOL    HW214532   4.536   5.962   0.080
 4545SOL     OW14533   2.727   3.068   6.127
 4545SOL    HW114534   2.640   3.044   6.082
 4545SOL    HW214535   2.780   3.129   6.067
 4546SOL     OW14536   4.671   6.674   5.351
 4546SOL    HW114537   4.609   6.615   5.299
 4546SOL    HW214538   4.759   6.627   5.363
 4547SOL     OW14539   6.944   0.013   0.829
 4547SOL    HW114540   7.009   6.954   0.837
 4547SOL    HW214541   6.950   0.054   0.738
 4548SOL     OW14542   3.722   0.949   1.539
 4548SOL    HW114543   3.757   1.039   1.511
 4548SOL    HW214544   3.622   0.953   1.543
 4549SOL     OW14545   6.862   5.764   3.570
 4549SOL    HW114546   6.940   5.779   3.510
 4549SOL    HW214547   6.779   5.800   3.528
 4550SOL     OW14548   2.345   5.776   0.045
 4550SOL    HW114549   2.360   5.735   0.135
 4550SOL    HW214550   2.378   5.714   6.990
 4551SOL     OW14551   3.684   2.950   6.349
 4551SOL    HW114552   3.596   2.996   6.364
 4551SOL    HW214553   3.674   2.879   6.279
 4552SOL     OW14554   5.587   0.850   6.269
 4552SOL    HW114555   5.596   0.945   6.241
 4552SOL    HW214556   5.600   0.843   6.368
 4553SOL     OW14557   0.094   6.746   0.877
 4553SOL    HW114558   0.050   6.736   0.966
 4553SOL    HW214559   0.087   6.660   0.826
 4554SOL     OW14560   5.472   5.948   2.885
 4554SOL    HW114561   5.410   5.879   2.847
 4554SOL    HW214562   5.458   6.035   2.837
 4555SOL     OW14563   0.731   0.664   3.721
 4555SOL    HW114564   0.760   0.576   3.760
 4555SOL    HW214565   0.703   0.725   3.795
 4556SOL     OW14566   5.401   5.095   4.417
 4556SOL    HW114567   5.461   5.159   4.463
 4556SOL    HW214568   5.324   5.072   4.478
 4557SOL     OW14569   0.639   6.199   5.368
 4557SOL    HW114570   0.667   6.136   5.441
 4557SOL    HW214571   0.629   6.148   5.283
 4558SOL     OW14572   0.566   4.273   3.971
 4558SOL    HW114573   0.600   4.331   4.045
 4558SOL    HW214574   0.466   4.276   3.969
 4559SOL     OW14575   0.230   3.299   4.074
 4559SOL    HW114576   0.291   3.366   4.033
 4559SOL    HW214577   0.283   3.228   4.119
 4560SOL     OW14578   6.684   3.457   4.623
 4560SOL    HW114579   6.626   3.393   4.674
 4560SOL    HW214580   6.763   3.409   4.586
 4561SOL     OW14581   5.491   3.696   4.826
 4561SOL    HW114582   5.562   3.760   4.855
 4561SOL    HW214583   5.408   3.746   4.805
 4562SOL     OW14584   4.893   1.116   0.995
 4562SOL    HW114585   4.992   1.112   1.011
 4562SOL    HW214586   4.851   1.031   1.027
 4563SOL     OW14587   1.270   3.872   2.747
 4563SOL    HW114588   1.313   3.794   2.793
 4563SOL    HW214589   1.194   3.905   2.803
 4564SOL     OW14590   2.142   3.824   2.319
 4564SOL    HW114591   2.114   3.732   2.291
 4564SOL    HW214592   2.160   3.826   2.417
 4565SOL     OW14593   2.066   6.117   4.826
 4565SOL    HW114594   2.029   6.076   4.909
 4565SOL    HW214595   2.160   6.148   4.843
 4566SOL     OW14596   6.577   5.345   2.832
 4566SOL    HW114597   6.508   5.405   2.792
 4566SOL    HW214598   6.623   5.393   2.907
 4567SOL     OW14599   1.482   0.636   0.604
 4567SOL    HW114600   1.395   0.589   0.593
 4567SOL    HW214601   1.534   0.592   0.677
 4568SOL     OW14602   6.961   4.664   4.816
 4568SOL    HW114603   0.009   4.694   4.886
 4568SOL    HW214604   6.988   4.574   4.782
 4569SOL     OW14605   6.804   2.412   3.578
 4569SOL    HW114606   6.859   2.350   3.634
 4569SOL    HW214607   6.783   2.495   3.631
 4570SOL     OW14608   4.625   5.621   1.495
 4570SOL    HW114609   4.620   5.675   1.579
 4570SOL    HW214610   4.556   5.548   1.498
 4571SOL     OW14611   2.218   2.516   4.943
 4571SOL    HW114612   2.148   2.587   4.948
 4571SOL    HW214613   2.206   2.452   5.019
 4572SOL     OW14614   5.222   3.234   1.740
 4572SOL    HW114615   5.294   3.303   1.747
 4572SOL    HW214616   5.182   3.218   1.830
 4573SOL     OW14617   2.925   4.638   1.234
 4573SOL    HW114618   2.925   4.635   1.134
 4573SOL    HW214619   2.883   4.723   1.265
 4574SOL     OW14620   4.596   0.307   2.183
 4574SOL    HW114621   4.666   0.303   2.112
 4574SOL    HW214622   4.532   0.381   2.163
 4575SOL     OW14623   0.153   1.541   5.276
 4575SOL    HW114624   0.115   1.593   5.353
 4575SOL    HW214625   0.253   1.552   5.275
 4576SOL     OW14626   3.111   4.015   6.703
 4576SOL    HW114627   3.142   4.063   6.785
 4576SOL    HW214628   3.172   4.037   6.627
 4577SOL     OW14629   0.456   1.613   2.387
 4577SOL    HW114630   0.394   1.570   2.322
 4577SOL    HW214631   0.531   1.657   2.337
 4578SOL     OW14632   2.157   0.544   2.348
 4578SOL    HW114633   2.213   0.616   2.388
 4578SOL    HW214634   2.157   0.464   2.408
 4579SOL     OW14635   3.368   0.791   2.355
 4579SOL    HW114636   3.292   0.741   2.313
 4579SOL    HW214637   3.343   0.887   2.365
 4580SOL     OW14638   0.949   0.226   1.451
 4580SOL    HW114639   0.968   0.184   1.362
 4580SOL    HW214640   0.894   0.163   1.506
 4581SOL     OW14641   3.484   0.255   1.294
 4581SOL    HW114642   3.522   0.276   1.384
 4581SOL    HW214643   3.532   0.308   1.224
 4582SOL     OW14644   5.921   1.188   4.742
 4582SOL    HW114645   5.857   1.262   4.763
 4582SOL    HW214646   5.896   1.145   4.656
 4583SOL     OW14647   1.804   5.777   6.801
 4583SOL    HW114648   1.883   5.750   6.746
 4583SOL    HW214649   1.802   5.877   6.810
 4584SOL     OW14650   6.156   0.758   4.226
 4584SOL    HW114651   6.171   0.660   4.236
 4584SOL    HW214652   6.188   0.805   4.309
 4585SOL     OW14653   1.196   3.442   2.621
 4585SOL    HW114654   1.175   3.467   2.526
 4585SOL    HW214655   1.278   3.385   2.622
 4586SOL     OW14656   0.460   4.318   5.895
 4586SOL    HW114657   0.494   4.346   5.805
 4586SOL    HW214658   0.511   4.238   5.926
 4587SOL     OW14659   4.052   3.403   6.026
 4587SOL    HW114660   3.996   3.320   6.019
 4587SOL    HW214661   4.083   3.415   6.120
 4588SOL     OW14662   2.298   4.996   6.624
 4588SOL    HW114663   2.231   4.950   6.566
 4588SOL    HW214664   2.290   4.962   6.718
 4589SOL     OW14665   4.808   6.444   2.290
 4589SOL    HW114666   4.772   6.479   2.204
 4589SOL    HW214667   4.907   6.453   2.291
 4590SOL     OW14668   1.926   5.128   1.644
 4590SOL    HW114669   1.883   5.039   1.662
 4590SOL    HW214670   2.017   5.131   1.684
 4591SOL     OW14671   2.343   1.753   5.534
 4591SOL    HW114672   2.295   1.682   5.484
 4591SOL    HW214673   2.409   1.798   5.473
 4592SOL     OW14674   2.575   2.501   2.844
 4592SOL    HW114675   2.565   2.462   2.752
 4592SOL    HW214676   2.597   2.428   2.908
 4593SOL     OW14677   2.066   5.526   5.364
 4593SOL    HW114678   1.974   5.565   5.367
 4593SOL    HW214679   2.122   5.576   5.298
 4594SOL     OW14680   0.912   6.949   3.355
 4594SOL    HW114681   0.931   0.011   3.414
 4594SOL    HW214682   0.995   6.923   3.306
 4595SOL     OW14683   5.641   1.623   6.550
 4595SOL    HW114684   5.691   1.558   6.607
 4595SOL    HW214685   5.568   1.667   6.604
 4596SOL     OW14686   0.676   1.684   2.206
 4596SOL    HW114687   0.749   1.663   2.270
 4596SOL    HW214688   0.670   1.612   2.137
 4597SOL     OW14689   1.762   5.013   0.560
 4597SOL    HW114690   1.799   4.920   0.564
 4597SOL    HW214691   1.836   5.078   0.576
 4598SOL     OW14692   0.769   2.399   0.373
 4598SOL    HW114693   0.687   2.362   0.329
 4598SOL    HW214694   0.760   2.498   0.384
 4599SOL     OW14695   3.105   5.992   3.091
 4599SOL    HW114696   3.116   6.021   2.995
 4599SOL    HW214697   3.114   6.072   3.151
 4600SOL     OW14698   0.037   6.606   5.830
 4600SOL    HW114699   0.070   6.625   5.738
 4600SOL    HW214700   0.087   6.662   5.896
 4601SOL     OW14701   1.517   1.199   5.113
 4601SOL    HW114702   1.560   1.262   5.050
 4601SOL    HW214703   1.423   1.179   5.084
 4602SOL     OW14704   4.752   0.182   5.372
 4602SOL    HW114705   4.714   0.101   5.417
 4602SOL    HW214706   4.677   0.242   5.345
 4603SOL     OW14707   4.474   6.771   0.420
 4603SOL    HW114708   4.493   6.866   0.443
 4603SOL    HW214709   4.401   6.767   0.352
 4604SOL     OW14710   0.104   6.875   3.759
 4604SOL    HW114711   0.177   6.878   3.828
 4604SOL    HW214712   0.145   6.872   3.668
 4605SOL     OW14713   4.140   1.339   2.453
 4605SOL    HW114714   4.044   1.316   2.440
 4605SOL    HW214715   4.185   1.266   2.504
 4606SOL     OW14716   6.732   0.330   4.520
 4606SOL    HW114717   6.747   0.303   4.425
 4606SOL    HW214718   6.647   0.382   4.527
 4607SOL     OW14719   2.518   1.941   1.360
 4607SOL    HW114720   2.543   1.935   1.264
 4607SOL    HW214721   2.482   2.032   1.379
 4608SOL     OW14722   0.464   2.666   6.160
 4608SOL    HW114723   0.364   2.673   6.152
 4608SOL    HW214724   0.505   2.681   6.070
 4609SOL     OW14725   5.426   4.642   6.204
 4609SOL    HW114726   5.416   4.726   6.258
 4609SOL    HW214727   5.336   4.601   6.190
 4610SOL     OW14728   4.625   4.029   6.226
 4610SOL    HW114729   4.540   4.034   6.173
 4610SOL    HW214730   4.674   3.945   6.203
 4611SOL     OW14731   0.567   0.339   6.808
 4611SOL    HW114732   0.634   0.413   6.811
 4611SOL    HW214733   0.540   0.321   6.714
 4612SOL     OW14734   1.559   0.928   2.087
 4612SOL    HW114735   1.488   0.996   2.103
 4612SOL    HW214736   1.584   0.884   2.174
 4613SOL     OW14737   1.310   5.152   3.802
 4613SOL    HW114738   1.410   5.151   3.810
 4613SOL    HW214739   1.269   5.129   3.890
 4614SOL     OW14740   6.496   5.064   2.594
 4614SOL    HW114741   6.540   5.090   2.508
 4614SOL    HW214742   6.417   5.122   2.610
 4615SOL     OW14743   0.630   4.567   6.801
 4615SOL    HW114744   0.537   4.601   6.791
 4615SOL    HW214745   0.694   4.625   6.751
 4616SOL     OW14746   1.575   4.998   5.854
 4616SOL    HW114747   1.611   4.906   5.870
 4616SOL    HW214748   1.505   4.995   5.783
 4617SOL     OW14749   0.745   4.447   4.462
 4617SOL    HW114750   0.779   4.443   4.556
 4617SOL    HW214751   0.805   4.505   4.407
 4618SOL     OW14752   2.187   4.217   5.087
 4618SOL    HW114753   2.118   4.209   5.159
 4618SOL    HW214754   2.246   4.136   5.090
 4619SOL     OW14755   4.823   5.924   6.627
 4619SOL    HW114756   4.874   5.868   6.692
 4619SOL    HW214757   4.804   6.014   6.667
 4620SOL     OW14758   0.707   4.981   2.136
 4620SOL    HW114759   0.655   4.994   2.220
 4620SOL    HW214760   0.698   4.886   2.106
 4621SOL     OW14761   2.180   0.350   2.528
 4621SOL    HW114762   2.108   0.310   2.583
 4621SOL    HW214763   2.269   0.314   2.557
 4622SOL     OW14764   6.049   6.746   0.484
 4622SOL    HW114765   6.126   6.800   0.517
 4622SOL    HW214766   6.013   6.690   0.558
 4623SOL     OW14767   3.073   4.827   2.262
 4623SOL    HW114768   3.047   4.922   2.280
 4623SOL    HW214769   3.136   4.795   2.333
 4624SOL     OW14770   5.672   1.652   0.158
 4624SOL    HW114771   5.735   1.666   0.234
 4624SOL    HW214772   5.663   1.737   0.106
 4625SOL     OW14773   0.781   0.215   2.020
 4625SOL    HW114774   0.749   0.202   2.114
 4625SOL    HW214775   0.703   0.228   1.960
 4626SOL     OW14776   4.148   4.033   1.808
 4626SOL    HW114777   4.179   3.938   1.813
 4626SOL    HW214778   4.226   4.095   1.814
 4627SOL     OW14779   5.789   6.042   4.969
 4627SOL    HW114780   5.855   6.115   4.953
 4627SOL    HW214781   5.789   6.016   5.066
 4628SOL     OW14782   6.372   3.139   2.360
 4628SOL    HW114783   6.367   3.177   2.267
 4628SOL    HW214784   6.466   3.147   2.394
 4629SOL     OW14785   1.157   5.279   0.779
 4629SOL    HW114786   1.151   5.295   0.681
 4629SOL    HW214787   1.122   5.358   0.829
 4630SOL     OW14788   1.727   3.384   1.648
 4630SOL    HW114789   1.824   3.405   1.659
 4630SOL    HW214790   1.701   3.396   1.552
 4631SOL     OW14791   5.658   1.507   1.294
 4631SOL    HW114792   5.667   1.586   1.233
 4631SOL    HW214793   5.605   1.435   1.249
 4632SOL     OW14794   2.574   5.268   3.419
 4632SOL    HW114795   2.488   5.217   3.412
 4632SOL    HW214796   2.645   5.208   3.456
 4633SOL     OW14797   5.209   3.693   3.624
 4633SOL    HW114798   5.296   3.656   3.656
 4633SOL    HW214799   5.136   3.663   3.686
 4634SOL     OW14800   3.820   2.999   5.103
 4634SOL    HW114801   3.768   2.970   5.022
 4634SOL    HW214802   3.810   2.930   5.175
 4635SOL     OW14803   3.869   0.182   2.334
 4635SOL    HW114804   3.914   0.123   2.267
 4635SOL    HW214805   3.884   0.147   2.426
 4636SOL     OW14806   1.616   5.599   6.715
 4636SOL    HW114807   1.666   5.676   6.755
 4636SOL    HW214808   1.668   5.515   6.729
 4637SOL     OW14809   1.815   2.634   3.482
 4637SOL    HW114810   1.844   2.709   3.423
 4637SOL    HW214811   1.744   2.667   3.545
 4638SOL     OW14812   4.250   4.412   6.658
 4638SOL    HW114813   4.244   4.357   6.575
 4638SOL    HW214814   4.336   4.393   6.705
 4639SOL     OW14815   3.845   2.876   1.741
 4639SOL    HW114816   3.782   2.798   1.740
 4639SOL    HW214817   3.801   2.956   1.701
 4640SOL     OW14818   0.505   2.131   0.478
 4640SOL    HW114819   0.503   2.192   0.399
 4640SOL    HW214820   0.591   2.143   0.528
 4641SOL     OW14821   1.117   5.997   4.676
 4641SOL    HW114822   1.208   6.026   4.647
 4641SOL    HW214823   1.061   6.077   4.696
 4642SOL     OW14824   5.626   1.114   6.210
 4642SOL    HW114825   5.640   1.194   6.269
 4642SOL    HW214826   5.673   1.128   6.123
 4643SOL     OW14827   1.043   2.432   6.878
 4643SOL    HW114828   1.007   2.376   6.952
 4643SOL    HW214829   0.971   2.446   6.809
 4644SOL     OW14830   1.450   1.772   0.889
 4644SOL    HW114831   1.471   1.674   0.893
 4644SOL    HW214832   1.354   1.787   0.912
 4645SOL     OW14833   5.826   2.801   5.660
 4645SOL    HW114834   5.755   2.764   5.600
 4645SOL    HW214835   5.916   2.775   5.624
 4646SOL     OW14836   1.208   4.061   2.434
 4646SOL    HW114837   1.134   3.997   2.414
 4646SOL    HW214838   1.178   4.126   2.504
 4647SOL     OW14839   1.279   6.113   2.153
 4647SOL    HW114840   1.208   6.070   2.209
 4647SOL    HW214841   1.334   6.174   2.210
 4648SOL     OW14842   2.583   1.444   4.352
 4648SOL    HW114843   2.603   1.485   4.440
 4648SOL    HW214844   2.538   1.356   4.365
 4649SOL     OW14845   4.551   3.517   1.559
 4649SOL    HW114846   4.531   3.615   1.557
 4649SOL    HW214847   4.521   3.479   1.646
 4650SOL     OW14848   3.627   4.873   0.543
 4650SOL    HW114849   3.534   4.904   0.564
 4650SOL    HW214850   3.631   4.837   0.450
 4651SOL     OW14851   1.531   2.715   0.246
 4651SOL    HW114852   1.433   2.720   0.227
 4651SOL    HW214853   1.581   2.704   0.159
 4652SOL     OW14854   6.196   6.701   5.757
 4652SOL    HW114855   6.246   6.739   5.834
 4652SOL    HW214856   6.217   6.603   5.748
 4653SOL     OW14857   0.960   6.623   0.357
 4653SOL    HW114858   0.945   6.712   0.314
 4653SOL    HW214859   0.958   6.551   0.288
 4654SOL     OW14860   0.799   0.842   5.156
 4654SOL    HW114861   0.710   0.806   5.183
 4654SOL    HW214862   0.791   0.938   5.129
 4655SOL     OW14863   5.331   5.259   3.047
 4655SOL    HW114864   5.328   5.259   2.947
 4655SOL    HW214865   5.291   5.174   3.081
 4656SOL     OW14866   6.477   0.632   1.234
 4656SOL    HW114867   6.544   0.567   1.271
 4656SOL    HW214868   6.507   0.664   1.144
 4657SOL     OW14869   3.622   2.093   2.161
 4657SOL    HW114870   3.528   2.068   2.138
 4657SOL    HW214871   3.659   2.154   2.091
 4658SOL     OW14872   1.492   1.215   0.252
 4658SOL    HW114873   1.419   1.250   0.193
 4658SOL    HW214874   1.564   1.175   0.196
 4659SOL     OW14875   2.464   5.046   1.055
 4659SOL    HW114876   2.382   4.995   1.077
 4659SOL    HW214877   2.533   4.985   1.017
 4660SOL     OW14878   0.284   4.929   4.793
 4660SOL    HW114879   0.257   4.838   4.764
 4660SOL    HW214880   0.203   4.987   4.803
 4661SOL     OW14881   0.355   0.898   5.212
 4661SOL    HW114882   0.379   0.915   5.116
 4661SOL    HW214883   0.384   0.975   5.268
 4662SOL     OW14884   2.826   0.075   6.321
 4662SOL    HW114885   2.779   0.003   6.270
 4662SOL    HW214886   2.819   0.055   6.419
 4663SOL     OW14887   0.556   7.001   1.249
 4663SOL    HW114888   0.471   0.009   1.202
 4663SOL    HW214889   0.549   6.908   1.285
 4664SOL     OW14890   6.491   6.222   5.222
 4664SOL    HW114891   6.503   6.167   5.140
 4664SOL    HW214892   6.500   6.164   5.303
 4665SOL     OW14893   0.335   1.772   2.588
 4665SOL    HW114894   0.407   1.828   2.630
 4665SOL    HW214895   0.372   1.724   2.508
 4666SOL     OW14896   1.791   2.672   5.883
 4666SOL    HW114897   1.815   2.767   5.864
 4666SOL    HW214898   1.873   2.615   5.876
 4667SOL     OW14899   6.421   2.175   1.299
 4667SOL    HW114900   6.380   2.266   1.301
 4667SOL    HW214901   6.435   2.143   1.393
 4668SOL     OW14902   4.886   1.985   5.142
 4668SOL    HW114903   4.869   1.900   5.192
 4668SOL    HW214904   4.814   2.052   5.162
 4669SOL     OW14905   5.649   6.186   6.396
 4669SOL    HW114906   5.612   6.191   6.489
 4669SOL    HW214907   5.679   6.277   6.367
 4670SOL     OW14908   0.993   3.334   0.140
 4670SOL    HW114909   0.961   3.423   0.174
 4670SOL    HW214910   0.985   3.332   0.041
 4671SOL     OW14911   0.257   1.826   1.802
 4671SOL    HW114912   0.204   1.788   1.726
 4671SOL    HW214913   0.247   1.769   1.883
 4672SOL     OW14914   4.481   3.085   0.732
 4672SOL    HW114915   4.449   3.003   0.684
 4672SOL    HW214916   4.507   3.155   0.665
 4673SOL     OW14917   5.020   1.465   0.607
 4673SOL    HW114918   5.084   1.538   0.631
 4673SOL    HW214919   5.047   1.425   0.519
 4674SOL     OW14920   0.966   3.054   0.557
 4674SOL    HW114921   0.911   3.099   0.627
 4674SOL    HW214922   0.959   3.106   0.471
 4675SOL     OW14923   1.923   6.652   0.308
 4675SOL    HW114924   2.009   6.654   0.256
 4675SOL    HW214925   1.856   6.597   0.259
 4676SOL     OW14926   0.136   5.594   4.582
 4676SOL    HW114927   0.217   5.623   4.633
 4676SOL    HW214928   0.054   5.611   4.637
 4677SOL     OW14929   4.843   6.844   6.999
 4677SOL    HW114930   4.918   6.839   6.933
 4677SOL    HW214931   4.843   6.761   0.039
 4678SOL     OW14932   2.314   5.101   0.455
 4678SOL    HW114933   2.390   5.044   0.484
 4678SOL    HW214934   2.251   5.115   0.531
 4679SOL     OW14935   1.855   6.476   5.522
 4679SOL    HW114936   1.858   6.424   5.437
 4679SOL    HW214937   1.942   6.467   5.570
 4680SOL     OW14938   1.226   5.432   6.306
 4680SOL    HW114939   1.157   5.378   6.354
 4680SOL    HW214940   1.181   5.510   6.262
 4681SOL     OW14941   6.662   6.335   5.546
 4681SOL    HW114942   6.589   6.379   5.494
 4681SOL    HW214943   6.642   6.342   5.644
 4682SOL     OW14944   2.866   6.951   0.692
 4682SOL    HW114945   2.899   6.882   0.627
 4682SOL    HW214946   2.818   0.007   0.642
 4683SOL     OW14947   0.555   5.169   3.833
 4683SOL    HW114948   0.631   5.192   3.893
 4683SOL    HW214949   0.476   5.226   3.855
 4684SOL     OW14950   2.233   0.965   4.656
 4684SOL    HW114951   2.176   1.044   4.679
 4684SOL    HW214952   2.209   0.889   4.716
 4685SOL     OW14953   5.250   4.578   4.005
 4685SOL    HW114954   5.248   4.631   3.920
 4685SOL    HW214955   5.345   4.570   4.036
 4686SOL     OW14956   4.818   5.329   6.234
 4686SOL    HW114957   4.886   5.402   6.225
 4686SOL    HW214958   4.763   5.324   6.150
 4687SOL     OW14959   4.451   1.091   4.886
 4687SOL    HW114960   4.396   1.044   4.816
 4687SOL    HW214961   4.546   1.093   4.858
 4688SOL     OW14962   0.125   0.134   1.278
 4688SOL    HW114963   0.125   0.194   1.358
 4688SOL    HW214964   0.035   0.138   1.234
 4689SOL     OW14965   1.839   5.544   4.558
 4689SOL    HW114966   1.741   5.561   4.545
 4689SOL    HW214967   1.851   5.455   4.602
 4690SOL     OW14968   2.890   1.771   0.480
 4690SOL    HW114969   2.810   1.816   0.519
 4690SOL    HW214970   2.966   1.836   0.477
 4691SOL     OW14971   2.888   4.639   0.033
 4691SOL    HW114972   2.825   4.564   0.058
 4691SOL    HW214973   2.926   4.679   0.116
 4692SOL     OW14974   0.854   5.021   3.488
 4692SOL    HW114975   0.917   5.066   3.424
 4692SOL    HW214976   0.764   5.014   3.446
 4693SOL     OW14977   0.862   2.333   2.391
 4693SOL    HW114978   0.888   2.430   2.389
 4693SOL    HW214979   0.829   2.305   2.301
 4694SOL     OW14980   1.691   0.911   4.741
 4694SOL    HW114981   1.599   0.944   4.761
 4694SOL    HW214982   1.724   0.952   4.656
 4695SOL     OW14983   3.564   3.923   3.128
 4695SOL    HW114984   3.543   3.853   3.195
 4695SOL    HW214985   3.613   3.998   3.172
 4696SOL     OW14986   0.475   2.383   6.834
 4696SOL    HW114987   0.408   2.340   6.895
 4696SOL    HW214988   0.524   2.312   6.784
 4697SOL     OW14989   0.732   4.950   6.868
 4697SOL    HW114990   0.665   4.997   6.812
 4697SOL    HW214991   0.798   5.016   6.904
 4698SOL     OW14992   5.296   3.095   2.234
 4698SOL    HW114993   5.306   3.191   2.257
 4698SOL    HW214994   5.321   3.039   2.313
 4699SOL     OW14995   6.649   0.596   3.003
 4699SOL    HW114996   6.737   0.550   3.020
 4699SOL    HW214997   6.645   0.679   3.058
 4700SOL     OW14998   5.254   0.009   5.005
 4700SOL    HW114999   5.305   6.942   4.981
 4700SOL    HW215000   5.193   7.006   5.081
 4701SOL     OW15001   2.420   0.975   5.887
 4701SOL    HW115002   2.392   0.943   5.978
 4701SOL    HW215003   2.429   0.897   5.826
 4702SOL     OW15004   3.684   2.980   1.160
 4702SOL    HW115005   3.601   2.993   1.215
 4702SOL    HW215006   3.702   2.882   1.148
 4703SOL     OW15007   0.768   6.484   2.050
 4703SOL    HW115008   0.856   6.437   2.045
 4703SOL    HW215009   0.696   6.417   2.071
 4704SOL     OW15010   4.743   6.795   6.191
 4704SOL    HW115011   4.710   6.792   6.096
 4704SOL    HW215012   4.746   6.702   6.228
 4705SOL     OW15013   3.649   2.957   4.890
 4705SOL    HW115014   3.683   2.930   4.800
 4705SOL    HW215015   3.552   2.935   4.897
 4706SOL     OW15016   5.854   3.155   0.387
 4706SOL    HW115017   5.932   3.167   0.325
 4706SOL    HW215018   5.769   3.172   0.338
 4707SOL     OW15019   2.823   4.323   0.655
 4707SOL    HW115020   2.829   4.356   0.749
 4707SOL    HW215021   2.763   4.243   0.652
 4708SOL     OW15022   2.176   2.891   2.427
 4708SOL    HW115023   2.184   2.981   2.470
 4708SOL    HW215024   2.098   2.843   2.467
 4709SOL     OW15025   2.964   3.888   0.200
 4709SOL    HW115026   3.024   3.904   0.121
 4709SOL    HW215027   3.020   3.877   0.282
 4710SOL     OW15028   4.770   2.338   1.144
 4710SOL    HW115029   4.748   2.403   1.071
 4710SOL    HW215030   4.728   2.368   1.229
 4711SOL     OW15031   2.460   0.239   3.521
 4711SOL    HW115032   2.376   0.186   3.535
 4711SOL    HW215033   2.493   0.225   3.428
 4712SOL     OW15034   1.253   3.352   6.773
 4712SOL    HW115035   1.202   3.329   6.690
 4712SOL    HW215036   1.315   3.278   6.796
 4713SOL     OW15037   0.686   6.056   1.020
 4713SOL    HW115038   0.618   6.025   0.955
 4713SOL    HW215039   0.735   6.135   0.983
 4714SOL     OW15040   4.309   2.259   1.033
 4714SOL    HW115041   4.225   2.247   1.085
 4714SOL    HW215042   4.356   2.342   1.064
 4715SOL     OW15043   5.144   3.507   4.837
 4715SOL    HW115044   5.242   3.504   4.858
 4715SOL    HW215045   5.122   3.596   4.797
 4716SOL     OW15046   2.076   5.308   6.557
 4716SOL    HW115047   1.984   5.269   6.566
 4716SOL    HW215048   2.131   5.283   6.637
 4717SOL     OW15049   1.994   4.745   4.847
 4717SOL    HW115050   1.927   4.798   4.795
 4717SOL    HW215051   1.978   4.759   4.945
 4718SOL     OW15052   4.459   6.637   6.914
 4718SOL    HW115053   4.382   6.595   6.962
 4718SOL    HW215054   4.487   6.578   6.838
 4719SOL     OW15055   4.738   3.364   1.302
 4719SOL    HW115056   4.815   3.309   1.336
 4719SOL    HW215057   4.664   3.362   1.369
 4720SOL     OW15058   1.952   2.018   3.684
 4720SOL    HW115059   1.914   2.085   3.620
 4720SOL    HW215060   1.942   1.926   3.646
 4721SOL     OW15061   1.966   1.558   1.704
 4721SOL    HW115062   2.019   1.587   1.784
 4721SOL    HW215063   2.018   1.491   1.652
 4722SOL     OW15064   2.333   1.106   2.576
 4722SOL    HW115065   2.405   1.071   2.637
 4722SOL    HW215066   2.253   1.131   2.630
 4723SOL     OW15067   3.230   0.669   5.193
 4723SOL    HW115068   3.230   0.574   5.224
 4723SOL    HW215069   3.135   0.698   5.175
 4724SOL     OW15070   4.232   5.690   1.362
 4724SOL    HW115071   4.312   5.642   1.325
 4724SOL    HW215072   4.161   5.623   1.383
 4725SOL     OW15073   5.899   4.999   2.467
 4725SOL    HW115074   5.915   4.945   2.549
 4725SOL    HW215075   5.873   4.938   2.392
 4726SOL     OW15076   6.525   6.810   4.201
 4726SOL    HW115077   6.514   6.713   4.181
 4726SOL    HW215078   6.498   6.864   4.121
 4727SOL     OW15079   4.767   6.595   1.717
 4727SOL    HW115080   4.805   6.511   1.678
 4727SOL    HW215081   4.824   6.625   1.794
 4728SOL     OW15082   6.722   6.085   6.662
 4728SOL    HW115083   6.774   6.008   6.626
 4728SOL    HW215084   6.630   6.054   6.688
 4729SOL     OW15085   3.425   0.575   1.239
 4729SOL    HW115086   3.483   0.583   1.320
 4729SOL    HW215087   3.330   0.590   1.265
 4730SOL     OW15088   1.456   0.575   6.296
 4730SOL    HW115089   1.508   0.635   6.358
 4730SOL    HW215090   1.367   0.617   6.277
 4731SOL     OW15091   4.808   1.638   5.807
 4731SOL    HW115092   4.832   1.687   5.890
 4731SOL    HW215093   4.744   1.564   5.829
 4732SOL     OW15094   0.587   7.011   6.321
 4732SOL    HW115095   0.496   0.019   6.287
 4732SOL    HW215096   0.586   7.012   6.421
 4733SOL     OW15097   5.640   3.850   3.175
 4733SOL    HW115098   5.700   3.848   3.255
 4733SOL    HW215099   5.570   3.921   3.188
 4734SOL     OW15100   6.478   3.635   6.242
 4734SOL    HW115101   6.516   3.714   6.290
 4734SOL    HW215102   6.382   3.624   6.267
 4735SOL     OW15103   0.501   4.154   3.720
 4735SOL    HW115104   0.522   4.175   3.816
 4735SOL    HW215105   0.405   4.127   3.711
 4736SOL     OW15106   1.382   0.213   2.379
 4736SOL    HW115107   1.460   0.154   2.357
 4736SOL    HW215108   1.340   0.245   2.294
 4737SOL     OW15109   3.272   5.144   2.244
 4737SOL    HW115110   3.325   5.142   2.159
 4737SOL    HW215111   3.327   5.183   2.317
 4738SOL     OW15112   0.951   0.369   3.412
 4738SOL    HW115113   1.051   0.362   3.412
 4738SOL    HW215114   0.924   0.445   3.352
 4739SOL     OW15115   3.679   6.757   1.741
 4739SOL    HW115116   3.773   6.781   1.765
 4739SOL    HW215117   3.673   6.739   1.643
 4740SOL     OW15118   0.956   1.903   4.761
 4740SOL    HW115119   0.941   1.841   4.684
 4740SOL    HW215120   1.046   1.885   4.801
 4741SOL     OW15121   3.916   3.890   3.829
 4741SOL    HW115122   3.931   3.919   3.923
 4741SOL    HW215123   3.966   3.804   3.813
 4742SOL     OW15124   4.222   0.924   3.264
 4742SOL    HW115125   4.276   0.980   3.326
 4742SOL    HW215126   4.281   0.889   3.191
 4743SOL     OW15127   0.526   5.276   0.843
 4743SOL    HW115128   0.458   5.287   0.916
 4743SOL    HW215129   0.589   5.353   0.843
 4744SOL     OW15130   1.399   4.900   1.543
 4744SOL    HW115131   1.374   4.834   1.473
 4744SOL    HW215132   1.455   4.972   1.503
 4745SOL     OW15133   1.973   2.962   0.258
 4745SOL    HW115134   2.026   2.917   0.330
 4745SOL    HW215135   1.875   2.952   0.277
 4746SOL     OW15136   5.803   6.010   4.389
 4746SOL    HW115137   5.885   5.959   4.415
 4746SOL    HW215138   5.747   5.956   4.326
 4747SOL     OW15139   4.138   0.849   1.143
 4747SOL    HW115140   4.040   0.842   1.125
 4747SOL    HW215141   4.181   0.760   1.124
 4748SOL     OW15142   1.950   0.158   3.804
 4748SOL    HW115143   2.022   0.156   3.872
 4748SOL    HW215144   1.972   0.094   3.730
 4749SOL     OW15145   2.692   1.085   1.373
 4749SOL    HW115146   2.633   1.021   1.421
 4749SOL    HW215147   2.756   1.035   1.314
 4750SOL     OW15148   5.762   3.011   6.115
 4750SOL    HW115149   5.825   3.014   6.192
 4750SOL    HW215150   5.669   3.028   6.148
 4751SOL     OW15151   3.733   1.681   2.662
 4751SOL    HW115152   3.662   1.622   2.701
 4751SOL    HW215153   3.794   1.713   2.735
 4752SOL     OW15154   6.227   6.794   0.047
 4752SOL    HW115155   6.202   6.716   0.105
 4752SOL    HW215156   6.174   6.791   6.979
 4753SOL     OW15157   3.293   5.644   5.194
 4753SOL    HW115158   3.304   5.719   5.259
 4753SOL    HW215159   3.250   5.566   5.240
 4754SOL     OW15160   5.882   4.641   0.627
 4754SOL    HW115161   5.947   4.615   0.556
 4754SOL    HW215162   5.788   4.625   0.595
 4755SOL     OW15163   0.189   1.182   1.953
 4755SOL    HW115164   0.139   1.096   1.941
 4755SOL    HW215165   0.223   1.188   2.047
 4756SOL     OW15166   0.063   3.794   4.729
 4756SOL    HW115167   0.124   3.795   4.809
 4756SOL    HW215168   0.087   3.868   4.667
 4757SOL     OW15169   2.199   3.496   1.379
 4757SOL    HW115170   2.273   3.431   1.360
 4757SOL    HW215171   2.207   3.529   1.473
 4758SOL     OW15172   1.922   5.343   1.880
 4758SOL    HW115173   1.922   5.363   1.782
 4758SOL    HW215174   1.856   5.271   1.900
 4759SOL     OW15175   0.519   6.993   3.009
 4759SOL    HW115176   0.616   6.998   2.988
 4759SOL    HW215177   0.504   6.931   3.085
 4760SOL     OW15178   1.029   0.529   2.257
 4760SOL    HW115179   1.058   0.620   2.287
 4760SOL    HW215180   0.930   0.520   2.267
 4761SOL     OW15181   4.391   6.394   2.249
 4761SOL    HW115182   4.413   6.307   2.293
 4761SOL    HW215183   4.418   6.469   2.308
 4762SOL     OW15184   1.210   0.829   2.272
 4762SOL    HW115185   1.308   0.842   2.289
 4762SOL    HW215186   1.193   0.830   2.173
 4763SOL     OW15187   5.078   4.455   1.761
 4763SOL    HW115188   5.142   4.462   1.685
 4763SOL    HW215189   5.129   4.435   1.845
 4764SOL     OW15190   4.780   2.977   6.564
 4764SOL    HW115191   4.846   3.040   6.522
 4764SOL    HW215192   4.742   2.917   6.494
 4765SOL     OW15193   3.344   1.440   5.412
 4765SOL    HW115194   3.278   1.486   5.472
 4765SOL    HW215195   3.437   1.471   5.434
 4766SOL     OW15196   1.017   1.108   3.586
 4766SOL    HW115197   0.974   1.143   3.669
 4766SOL    HW215198   1.116   1.102   3.599
 4767SOL     OW15199   2.610   4.623   2.596
 4767SOL    HW115200   2.680   4.552   2.593
 4767SOL    HW215201   2.618   4.681   2.515
 4768SOL     OW15202   4.627   2.523   6.087
 4768SOL    HW115203   4.700   2.531   6.018
 4768SOL    HW215204   4.663   2.475   6.167
 4769SOL     OW15205   3.088   2.892   0.498
 4769SOL    HW115206   2.998   2.935   0.507
 4769SOL    HW215207   3.147   2.950   0.441
 4770SOL     OW15208   0.015   1.788   3.927
 4770SOL    HW115209   6.949   1.836   3.895
 4770SOL    HW215210   0.007   1.770   4.025
 4771SOL     OW15211   2.986   0.767   4.119
 4771SOL    HW115212   3.020   0.820   4.041
 4771SOL    HW215213   2.912   0.707   4.089
 4772SOL     OW15214   2.714   5.180   2.394
 4772SOL    HW115215   2.755   5.218   2.311
 4772SOL    HW215216   2.615   5.179   2.386
 4773SOL     OW15217   3.010   5.536   4.306
 4773SOL    HW115218   3.094   5.589   4.295
 4773SOL    HW215219   2.934   5.585   4.264
 4774SOL     OW15220   0.766   4.497   0.259
 4774SOL    HW115221   0.763   4.408   0.304
 4774SOL    HW215222   0.747   4.486   0.161
 4775SOL     OW15223   5.650   5.272   4.164
 4775SOL    HW115224   5.655   5.173   4.179
 4775SOL    HW215225   5.565   5.307   4.205
 4776SOL     OW15226   0.060   1.766   5.122
 4776SOL    HW115227   0.111   1.681   5.122
 4776SOL    HW215228   0.075   1.814   5.208
 4777SOL     OW15229   0.824   6.482   3.468
 4777SOL    HW115230   0.910   6.475   3.518
 4777SOL    HW215231   0.790   6.576   3.471
 4778SOL     OW15232   1.502   0.281   0.912
 4778SOL    HW115233   1.414   0.269   0.865
 4778SOL    HW215234   1.521   0.378   0.923
 4779SOL     OW15235   4.898   1.732   4.513
 4779SOL    HW115236   4.887   1.633   4.523
 4779SOL    HW215237   4.933   1.752   4.421
 4780SOL     OW15238   5.172   2.773   4.598
 4780SOL    HW115239   5.113   2.700   4.564
 4780SOL    HW215240   5.256   2.734   4.635
 4781SOL     OW15241   3.294   5.422   1.705
 4781SOL    HW115242   3.221   5.471   1.658
 4781SOL    HW215243   3.275   5.324   1.704
 4782SOL     OW15244   0.979   0.215   3.049
 4782SOL    HW115245   0.957   0.262   3.135
 4782SOL    HW215246   1.066   0.248   3.014
 4783SOL     OW15247   0.981   4.157   6.645
 4783SOL    HW115248   0.950   4.235   6.700
 4783SOL    HW215249   0.948   4.072   6.685
 4784SOL     OW15250   6.155   2.729   6.854
 4784SOL    HW115251   6.212   2.647   6.854
 4784SOL    HW215252   6.115   2.741   6.763
 4785SOL     OW15253   0.649   1.272   4.297
 4785SOL    HW115254   0.605   1.361   4.308
 4785SOL    HW215255   0.605   1.205   4.357
 4786SOL     OW15256   1.808   6.341   0.255
 4786SOL    HW115257   1.812   6.241   0.253
 4786SOL    HW215258   1.740   6.371   0.323
 4787SOL     OW15259   4.494   1.495   5.447
 4787SOL    HW115260   4.565   1.537   5.390
 4787SOL    HW215261   4.502   1.396   5.443
 4788SOL     OW15262   6.983   5.902   0.821
 4788SOL    HW115263   6.997   5.853   0.908
 4788SOL    HW215264   6.890   5.886   0.789
 4789SOL     OW15265   5.924   1.242   2.085
 4789SOL    HW115266   5.899   1.214   2.177
 4789SOL    HW215267   5.927   1.342   2.080
 4790SOL     OW15268   0.530   2.727   6.425
 4790SOL    HW115269   0.626   2.701   6.430
 4790SOL    HW215270   0.497   2.718   6.331
 4791SOL     OW15271   1.142   0.689   6.476
 4791SOL    HW115272   1.166   0.709   6.381
 4791SOL    HW215273   1.043   0.699   6.489
 4792SOL     OW15274   0.681   4.100   1.713
 4792SOL    HW115275   0.688   4.163   1.791
 4792SOL    HW215276   0.734   4.136   1.636
 4793SOL     OW15277   1.209   2.925   5.139
 4793SOL    HW115278   1.295   2.960   5.177
 4793SOL    HW215279   1.160   2.999   5.094
 4794SOL     OW15280   5.630   1.323   6.357
 4794SOL    HW115281   5.648   1.420   6.346
 4794SOL    HW215282   5.703   1.281   6.412
 4795SOL     OW15283   6.985   6.449   6.838
 4795SOL    HW115284   6.929   6.426   6.917
 4795SOL    HW215285   6.992   6.549   6.829
 4796SOL     OW15286   5.938   1.542   5.624
 4796SOL    HW115287   5.862   1.606   5.617
 4796SOL    HW215288   5.977   1.547   5.716
 4797SOL     OW15289   2.896   5.162   5.213
 4797SOL    HW115290   2.843   5.173   5.129
 4797SOL    HW215291   2.963   5.089   5.201
 4798SOL     OW15292   3.407   6.204   0.070
 4798SOL    HW115293   3.381   6.287   0.121
 4798SOL    HW215294   3.496   6.172   0.103
 4799SOL     OW15295   4.168   3.639   0.978
 4799SOL    HW115296   4.220   3.581   0.916
 4799SOL    HW215297   4.192   3.617   1.073
 4800SOL     OW15298   0.945   4.504   0.006
 4800SOL    HW115299   1.041   4.526   7.006
 4800SOL    HW215300   0.894   4.588   0.026
 4801SOL     OW15301   4.940   3.450   3.450
 4801SOL    HW115302   4.894   3.496   3.526
 4801SOL    HW215303   5.031   3.491   3.437
 4802SOL     OW15304   6.921   0.517   4.820
 4802SOL    HW115305   6.933   0.459   4.740
 4802SOL    HW215306   6.825   0.545   4.828
 4803SOL     OW15307   5.370   3.611   5.870
 4803SOL    HW115308   5.281   3.642   5.836
 4803SOL    HW215309   5.369   3.511   5.880
 4804SOL     OW15310   5.465   3.161   0.814
 4804SOL    HW115311   5.474   3.063   0.833
 4804SOL    HW215312   5.387   3.177   0.754
 4805SOL     OW15313   5.597   0.575   5.292
 4805SOL    HW115314   5.552   0.491   5.261
 4805SOL    HW215315   5.589   0.583   5.391
 4806SOL     OW15316   1.581   3.151   3.271
 4806SOL    HW115317   1.591   3.052   3.262
 4806SOL    HW215318   1.671   3.193   3.281
 4807SOL     OW15319   0.988   3.614   0.768
 4807SOL    HW115320   0.918   3.544   0.784
 4807SOL    HW215321   1.075   3.584   0.807
 4808SOL     OW15322   2.731   6.534   3.543
 4808SOL    HW115323   2.737   6.531   3.444
 4808SOL    HW215324   2.794   6.603   3.579
 4809SOL     OW15325   2.778   3.890   0.840
 4809SOL    HW115326   2.848   3.826   0.869
 4809SOL    HW215327   2.698   3.839   0.806
 4810SOL     OW15328   1.539   5.548   4.573
 4810SOL    HW115329   1.498   5.458   4.562
 4810SOL    HW215330   1.535   5.575   4.669
 4811SOL     OW15331   3.154   3.369   5.036
 4811SOL    HW115332   3.094   3.394   5.112
 4811SOL    HW215333   3.250   3.379   5.064
 4812SOL     OW15334   2.107   6.418   0.905
 4812SOL    HW115335   2.091   6.386   0.811
 4812SOL    HW215336   2.198   6.459   0.911
 4813SOL     OW15337   0.703   2.470   4.956
 4813SOL    HW115338   0.792   2.444   4.920
 4813SOL    HW215339   0.670   2.552   4.907
 4814SOL     OW15340   4.797   1.511   0.394
 4814SOL    HW115341   4.826   1.460   0.313
 4814SOL    HW215342   4.842   1.601   0.395
 4815SOL     OW15343   6.725   4.031   3.178
 4815SOL    HW115344   6.804   4.033   3.117
 4815SOL    HW215345   6.665   4.109   3.158
 4816SOL     OW15346   2.131   0.355   2.900
 4816SOL    HW115347   2.226   0.324   2.888
 4816SOL    HW215348   2.069   0.283   2.868
 4817SOL     OW15349   4.603   3.179   6.674
 4817SOL    HW115350   4.646   3.090   6.685
 4817SOL    HW215351   4.504   3.167   6.664
 4818SOL     OW15352   4.553   6.061   5.605
 4818SOL    HW115353   4.639   6.075   5.557
 4818SOL    HW215354   4.549   6.121   5.685
 4819SOL     OW15355   3.650   0.069   0.653
 4819SOL    HW115356   3.583   7.010   0.660
 4819SOL    HW215357   3.739   0.037   0.684
 4820SOL     OW15358   0.339   5.349   1.508
 4820SOL    HW115359   0.373   5.300   1.428
 4820SOL    HW215360   0.409   5.348   1.580
 4821SOL     OW15361   6.991   5.797   1.295
 4821SOL    HW115362   6.896   5.821   1.314
 4821SOL    HW215363   0.034   5.835   1.366
 4822SOL     OW15364   0.413   3.604   2.221
 4822SOL    HW115365   0.380   3.513   2.249
 4822SOL    HW215366   0.413   3.610   2.121
 4823SOL     OW15367   6.755   1.698   2.558
 4823SOL    HW115368   6.827   1.763   2.580
 4823SOL    HW215369   6.700   1.734   2.483
 4824SOL     OW15370   4.710   1.271   2.977
 4824SOL    HW115371   4.643   1.340   2.952
 4824SOL    HW215372   4.684   1.182   2.939
 4825SOL     OW15373   2.304   4.209   4.426
 4825SOL    HW115374   2.295   4.120   4.381
 4825SOL    HW215375   2.342   4.275   4.361
 4826SOL     OW15376   0.665   5.893   6.610
 4826SOL    HW115377   0.655   5.943   6.696
 4826SOL    HW215378   0.760   5.864   6.599
 4827SOL     OW15379   5.273   0.513   6.833
 4827SOL    HW115380   5.344   0.527   6.764
 4827SOL    HW215381   5.186   0.552   6.800
 4828SOL     OW15382   6.799   2.509   6.683
 4828SOL    HW115383   6.891   2.545   6.695
 4828SOL    HW215384   6.802   2.409   6.684
 4829SOL     OW15385   2.398   1.106   5.623
 4829SOL    HW115386   2.300   1.106   5.603
 4829SOL    HW215387   2.413   1.085   5.719
 4830SOL     OW15388   5.858   4.762   5.042
 4830SOL    HW115389   5.879   4.766   5.140
 4830SOL    HW215390   5.943   4.757   4.990
 4831SOL     OW15391   6.998   1.612   6.817
 4831SOL    HW115392   6.934   1.657   6.753
 4831SOL    HW215393   0.073   1.652   6.806
 4832SOL     OW15394   1.906   2.526   6.379
 4832SOL    HW115395   1.958   2.441   6.366
 4832SOL    HW215396   1.847   2.516   6.460
 4833SOL     OW15397   6.571   2.541   2.090
 4833SOL    HW115398   6.546   2.486   2.010
 4833SOL    HW215399   6.659   2.511   2.125
 4834SOL     OW15400   6.028   0.426   3.102
 4834SOL    HW115401   6.064   0.333   3.111
 4834SOL    HW215402   6.023   0.451   3.005
 4835SOL     OW15403   2.466   2.435   5.616
 4835SOL    HW115404   2.397   2.377   5.573
 4835SOL    HW215405   2.425   2.485   5.692
 4836SOL     OW15406   6.007   4.721   3.344
 4836SOL    HW115407   6.049   4.708   3.434
 4836SOL    HW215408   5.942   4.648   3.326
 4837SOL     OW15409   6.975   5.092   1.971
 4837SOL    HW115410   0.031   5.124   1.909
 4837SOL    HW215411   6.925   5.170   2.006
 4838SOL     OW15412   3.023   6.633   2.802
 4838SOL    HW115413   3.121   6.642   2.786
 4838SOL    HW215414   2.988   6.552   2.756
 4839SOL     OW15415   0.842   0.099   6.186
 4839SOL    HW115416   0.788   0.054   6.257
 4839SOL    HW215417   0.896   0.173   6.226
 4840SOL     OW15418   6.841   5.177   5.939
 4840SOL    HW115419   6.883   5.242   6.003
 4840SOL    HW215420   6.849   5.212   5.846
 4841SOL     OW15421   1.332   5.320   1.974
 4841SOL    HW115422   1.298   5.413   1.965
 4841SOL    HW215423   1.390   5.297   1.896
 4842SOL     OW15424   3.470   6.890   0.706
 4842SOL    HW115425   3.371   6.878   0.698
 4842SOL    HW215426   3.501   6.856   0.795
 4843SOL     OW15427   1.903   3.984   0.645
 4843SOL    HW115428   1.852   3.925   0.708
 4843SOL    HW215429   1.990   4.009   0.687
 4844SOL     OW15430   0.129   1.257   5.298
 4844SOL    HW115431   0.143   1.209   5.211
 4844SOL    HW215432   0.130   1.355   5.283
 4845SOL     OW15433   5.521   6.570   3.567
 4845SOL    HW115434   5.617   6.594   3.581
 4845SOL    HW215435   5.464   6.618   3.634
 4846SOL     OW15436   0.196   4.356   5.101
 4846SOL    HW115437   0.105   4.327   5.132
 4846SOL    HW215438   0.254   4.275   5.091
 4847SOL     OW15439   5.194   3.509   4.108
 4847SOL    HW115440   5.193   3.473   4.202
 4847SOL    HW215441   5.243   3.596   4.107
 4848SOL     OW15442   3.119   3.593   1.204
 4848SOL    HW115443   3.088   3.527   1.135
 4848SOL    HW215444   3.215   3.577   1.225
 4849SOL     OW15445   2.539   6.396   6.589
 4849SOL    HW115446   2.577   6.463   6.526
 4849SOL    HW215447   2.532   6.437   6.680
 4850SOL     OW15448   3.243   6.762   3.208
 4850SOL    HW115449   3.278   6.706   3.283
 4850SOL    HW215450   3.304   6.755   3.129
 4851SOL     OW15451   5.059   1.829   5.537
 4851SOL    HW115452   5.057   1.908   5.599
 4851SOL    HW215453   4.996   1.759   5.572
 4852SOL     OW15454   1.106   2.272   1.502
 4852SOL    HW115455   1.145   2.356   1.466
 4852SOL    HW215456   1.144   2.254   1.593
 4853SOL     OW15457   3.595   0.676   0.861
 4853SOL    HW115458   3.509   0.675   0.912
 4853SOL    HW215459   3.644   0.590   0.878
 4854SOL     OW15460   4.437   0.095   5.477
 4854SOL    HW115461   4.347   0.093   5.521
 4854SOL    HW215462   4.436   0.161   5.403
 4855SOL     OW15463   0.207   2.650   2.399
 4855SOL    HW115464   0.114   2.624   2.424
 4855SOL    HW215465   0.271   2.614   2.467
 4856SOL     OW15466   7.008   5.080   3.310
 4856SOL    HW115467   6.961   5.166   3.332
 4856SOL    HW215468   6.983   5.052   3.217
 4857SOL     OW15469   6.783   1.357   5.967
 4857SOL    HW115470   6.724   1.391   5.894
 4857SOL    HW215471   6.732   1.291   6.023
 4858SOL     OW15472   1.212   6.902   3.080
 4858SOL    HW115473   1.187   6.961   3.004
 4858SOL    HW215474   1.311   6.891   3.083
 4859SOL     OW15475   3.556   6.373   5.593
 4859SOL    HW115476   3.527   6.279   5.612
 4859SOL    HW215477   3.489   6.417   5.535
 4860SOL     OW15478   2.999   5.255   6.931
 4860SOL    HW115479   3.024   5.193   6.857
 4860SOL    HW215480   3.044   5.343   6.917
 4861SOL     OW15481   4.102   3.935   6.198
 4861SOL    HW115482   4.050   4.010   6.240
 4861SOL    HW215483   4.058   3.909   6.112
 4862SOL     OW15484   1.977   0.507   0.551
 4862SOL    HW115485   1.906   0.559   0.503
 4862SOL    HW215486   1.957   0.410   0.545
 4863SOL     OW15487   4.904   3.399   6.015
 4863SOL    HW115488   4.830   3.409   6.082
 4863SOL    HW215489   4.889   3.315   5.962
 4864SOL     OW15490   3.390   1.378   4.218
 4864SOL    HW115491   3.314   1.343   4.273
 4864SOL    HW215492   3.463   1.410   4.278
 4865SOL     OW15493   1.339   5.766   5.339
 4865SOL    HW115494   1.341   5.829   5.417
 4865SOL    HW215495   1.394   5.685   5.360
 4866SOL     OW15496   0.040   4.118   5.591
 4866SOL    HW115497   0.083   4.178   5.658
 4866SOL    HW215498   6.971   4.159   5.559
 4867SOL     OW15499   3.825   1.457   3.383
 4867SOL    HW115500   3.903   1.518   3.398
 4867SOL    HW215501   3.829   1.419   3.291
 4868SOL     OW15502   0.299   5.761   1.642
 4868SOL    HW115503   0.347   5.840   1.602
 4868SOL    HW215504   0.251   5.712   1.569
 4869SOL     OW15505   0.328   0.678   0.859
 4869SOL    HW115506   0.304   0.757   0.802
 4869SOL    HW215507   0.425   0.658   0.848
 4870SOL     OW15508   1.600   0.551   0.902
 4870SOL    HW115509   1.610   0.554   1.002
 4870SOL    HW215510   1.668   0.612   0.861
 4871SOL     OW15511   0.935   2.011   4.081
 4871SOL    HW115512   0.967   2.098   4.116
 4871SOL    HW215513   0.898   2.023   3.989
 4872SOL     OW15514   5.361   0.413   3.125
 4872SOL    HW115515   5.336   0.483   3.058
 4872SOL    HW215516   5.441   0.443   3.176
 4873SOL     OW15517   6.575   6.548   3.789
 4873SOL    HW115518   6.505   6.580   3.853
 4873SOL    HW215519   6.665   6.574   3.824
 4874SOL     OW15520   5.739   4.429   2.596
 4874SOL    HW115521   5.802   4.448   2.521
 4874SOL    HW215522   5.657   4.485   2.585
 4875SOL     OW15523   6.720   6.880   4.573
 4875SOL    HW115524   6.730   6.931   4.659
 4875SOL    HW215525   6.639   6.822   4.577
 4876SOL     OW15526   6.119   1.589   2.276
 4876SOL    HW115527   6.104   1.688   2.274
 4876SOL    HW215528   6.164   1.560   2.192
 4877SOL     OW15529   0.631   1.368   0.396
 4877SOL    HW115530   0.661   1.463   0.390
 4877SOL    HW215531   0.532   1.363   0.383
 4878SOL     OW15532   6.137   4.257   4.297
 4878SOL    HW115533   6.173   4.164   4.283
 4878SOL    HW215534   6.050   4.251   4.345
 4879SOL     OW15535   5.784   1.085   2.746
 4879SOL    HW115536   5.827   1.078   2.836
 4879SOL    HW215537   5.787   1.181   2.716
 4880SOL     OW15538   0.012   3.241   6.558
 4880SOL    HW115539   0.004   3.146   6.589
 4880SOL    HW215540   6.960   3.297   6.604
 4881SOL     OW15541   6.867   3.721   2.208
 4881SOL    HW115542   6.917   3.657   2.149
 4881SOL    HW215543   6.797   3.672   2.259
 4882SOL     OW15544   5.063   2.036   4.022
 4882SOL    HW115545   5.039   1.947   4.061
 4882SOL    HW215546   5.097   2.096   4.094
 4883SOL     OW15547   6.987   4.036   6.464
 4883SOL    HW115548   6.970   3.986   6.549
 4883SOL    HW215549   7.007   3.972   6.391
 4884SOL     OW15550   1.843   2.489   1.551
 4884SOL    HW115551   1.868   2.494   1.455
 4884SOL    HW215552   1.883   2.407   1.593
 4885SOL     OW15553   1.095   6.218   6.413
 4885SOL    HW115554   1.113   6.279   6.336
 4885SOL    HW215555   1.138   6.254   6.495
 4886SOL     OW15556   3.589   0.902   1.945
 4886SOL    HW115557   3.492   0.923   1.935
 4886SOL    HW215558   3.613   0.825   1.886
 4887SOL     OW15559   5.042   5.339   0.451
 4887SOL    HW115560   5.090   5.251   0.453
 4887SOL    HW215561   5.009   5.361   0.543
 4888SOL     OW15562   3.881   6.832   2.797
 4888SOL    HW115563   3.951   6.780   2.847
 4888SOL    HW215564   3.856   6.784   2.714
 4889SOL     OW15565   5.257   3.235   3.689
 4889SOL    HW115566   5.296   3.265   3.602
 4889SOL    HW215567   5.325   3.180   3.739
 4890SOL     OW15568   6.574   2.254   4.830
 4890SOL    HW115569   6.611   2.194   4.759
 4890SOL    HW215570   6.537   2.337   4.789
 4891SOL     OW15571   3.062   5.450   0.256
 4891SOL    HW115572   3.144   5.394   0.260
 4891SOL    HW215573   3.025   5.461   0.349
 4892SOL     OW15574   5.209   4.839   1.899
 4892SOL    HW115575   5.202   4.882   1.989
 4892SOL    HW215576   5.117   4.813   1.867
 4893SOL     OW15577   2.666   2.987   1.023
 4893SOL    HW115578   2.638   3.063   1.081
 4893SOL    HW215579   2.765   2.988   1.011
 4894SOL     OW15580   4.847   6.006   0.148
 4894SOL    HW115581   4.767   5.998   0.089
 4894SOL    HW215582   4.893   5.917   0.153
 4895SOL     OW15583   6.370   3.509   5.363
 4895SOL    HW115584   6.424   3.439   5.409
 4895SOL    HW215585   6.335   3.472   5.277
 4896SOL     OW15586   2.248   4.783   5.240
 4896SOL    HW115587   2.287   4.700   5.279
 4896SOL    HW215588   2.222   4.767   5.144
 4897SOL     OW15589   2.952   1.798   5.830
 4897SOL    HW115590   3.006   1.748   5.761
 4897SOL    HW215591   2.956   1.896   5.810
 4898SOL     OW15592   4.920   2.374   3.394
 4898SOL    HW115593   4.964   2.403   3.479
 4898SOL    HW215594   4.952   2.431   3.318
 4899SOL     OW15595   6.525   5.884   1.358
 4899SOL    HW115596   6.437   5.852   1.392
 4899SOL    HW215597   6.532   5.864   1.260
 4900SOL     OW15598   3.196   5.312   5.991
 4900SOL    HW115599   3.192   5.282   6.086
 4900SOL    HW215600   3.292   5.314   5.960
 4901SOL     OW15601   2.316   0.394   6.596
 4901SOL    HW115602   2.297   0.346   6.511
 4901SOL    HW215603   2.268   0.349   6.671
 4902SOL     OW15604   2.002   6.983   5.662
 4902SOL    HW115605   1.980   0.024   5.583
 4902SOL    HW215606   2.082   0.004   5.708
 4903SOL     OW15607   5.206   3.685   2.760
 4903SOL    HW115608   5.144   3.618   2.719
 4903SOL    HW215609   5.212   3.766   2.702
 4904SOL     OW15610   2.433   0.624   2.022
 4904SOL    HW115611   2.469   0.709   2.062
 4904SOL    HW215612   2.460   0.619   1.926
 4905SOL     OW15613   2.373   1.486   1.567
 4905SOL    HW115614   2.403   1.581   1.578
 4905SOL    HW215615   2.440   1.425   1.609
 4906SOL     OW15616   5.757   3.391   5.033
 4906SOL    HW115617   5.706   3.369   5.116
 4906SOL    HW215618   5.712   3.349   4.954
 4907SOL     OW15619   4.608   1.912   0.687
 4907SOL    HW115620   4.662   1.831   0.667
 4907SOL    HW215621   4.548   1.933   0.609
 4908SOL     OW15622   2.393   6.705   6.822
 4908SOL    HW115623   2.336   6.767   6.876
 4908SOL    HW215624   2.340   6.623   6.799
 4909SOL     OW15625   5.115   6.434   4.933
 4909SOL    HW115626   5.183   6.479   4.876
 4909SOL    HW215627   5.034   6.412   4.878
 4910SOL     OW15628   4.573   2.263   6.410
 4910SOL    HW115629   4.518   2.258   6.327
 4910SOL    HW215630   4.533   2.330   6.473
 4911SOL     OW15631   6.319   4.650   3.810
 4911SOL    HW115632   6.268   4.597   3.878
 4911SOL    HW215633   6.400   4.690   3.852
 4912SOL     OW15634   5.959   3.419   4.563
 4912SOL    HW115635   5.873   3.398   4.609
 4912SOL    HW215636   6.000   3.501   4.604
 4913SOL     OW15637   1.579   3.876   6.047
 4913SOL    HW115638   1.603   3.779   6.050
 4913SOL    HW215639   1.581   3.908   5.952
 4914SOL     OW15640   2.783   6.706   4.059
 4914SOL    HW115641   2.769   6.708   4.158
 4914SOL    HW215642   2.820   6.617   4.032
 4915SOL     OW15643   4.903   7.016   4.834
 4915SOL    HW115644   4.829   0.053   4.792
 4915SOL    HW215645   4.936   0.047   4.916
 4916SOL     OW15646   6.058   2.898   3.609
 4916SOL    HW115647   6.098   2.904   3.701
 4916SOL    HW215648   6.028   2.989   3.581
 4917SOL     OW15649   4.958   6.231   0.074
 4917SOL    HW115650   5.023   6.195   0.006
 4917SOL    HW215651   4.906   6.155   0.113
 4918SOL     OW15652   4.862   6.134   4.336
 4918SOL    HW115653   4.885   6.102   4.244
 4918SOL    HW215654   4.777   6.090   4.365
 4919SOL     OW15655   4.794   4.123   1.724
 4919SOL    HW115656   4.813   4.217   1.693
 4919SOL    HW215657   4.705   4.094   1.689
 4920SOL     OW15658   6.187   0.791   5.481
 4920SOL    HW115659   6.208   0.869   5.540
 4920SOL    HW215660   6.093   0.762   5.497
 4921SOL     OW15661   6.273   0.442   2.405
 4921SOL    HW115662   6.309   0.478   2.491
 4921SOL    HW215663   6.335   0.466   2.330
 4922SOL     OW15664   3.905   0.168   6.172
 4922SOL    HW115665   3.876   0.099   6.239
 4922SOL    HW215666   3.921   0.125   6.084
 4923SOL     OW15667   3.889   1.232   2.448
 4923SOL    HW115668   3.846   1.306   2.397
 4923SOL    HW215669   3.841   1.146   2.429
 4924SOL     OW15670   3.081   1.923   4.712
 4924SOL    HW115671   3.118   1.992   4.775
 4924SOL    HW215672   2.990   1.896   4.743
 4925SOL     OW15673   5.381   0.301   3.560
 4925SOL    HW115674   5.282   0.285   3.553
 4925SOL    HW215675   5.412   0.280   3.652
 4926SOL     OW15676   4.557   2.514   2.049
 4926SOL    HW115677   4.513   2.425   2.046
 4926SOL    HW215678   4.598   2.534   1.960
 4927SOL     OW15679   2.060   1.929   0.386
 4927SOL    HW115680   2.083   1.885   0.472
 4927SOL    HW215681   2.143   1.968   0.345
 4928SOL     OW15682   0.989   1.862   1.153
 4928SOL    HW115683   1.062   1.926   1.131
 4928SOL    HW215684   0.914   1.874   1.088
 4929SOL     OW15685   6.831   0.367   5.132
 4929SOL    HW115686   6.858   0.463   5.139
 4929SOL    HW215687   6.742   0.361   5.086
 4930SOL     OW15688   4.744   5.768   2.567
 4930SOL    HW115689   4.748   5.721   2.478
 4930SOL    HW215690   4.771   5.704   2.639
 4931SOL     OW15691   4.368   0.503   1.412
 4931SOL    HW115692   4.413   0.585   1.375
 4931SOL    HW215693   4.436   0.444   1.455
 4932SOL     OW15694   3.412   4.063   3.780
 4932SOL    HW115695   3.485   4.115   3.735
 4932SOL    HW215696   3.401   3.974   3.735
 4933SOL     OW15697   1.898   0.912   4.917
 4933SOL    HW115698   1.820   0.871   4.869
 4933SOL    HW215699   1.865   0.982   4.980
 4934SOL     OW15700   1.975   0.137   2.812
 4934SOL    HW115701   2.051   0.077   2.835
 4934SOL    HW215702   1.960   0.135   2.713
 4935SOL     OW15703   6.382   7.015   4.858
 4935SOL    HW115704   6.358   0.067   4.927
 4935SOL    HW215705   6.481   7.015   4.844
 4936SOL     OW15706   4.828   2.678   0.613
 4936SOL    HW115707   4.924   2.668   0.639
 4936SOL    HW215708   4.820   2.676   0.513
 4937SOL     OW15709   3.743   2.768   5.278
 4937SOL    HW115710   3.830   2.719   5.282
 4937SOL    HW215711   3.674   2.720   5.331
 4938SOL     OW15712   2.805   4.713   6.463
 4938SOL    HW115713   2.759   4.766   6.391
 4938SOL    HW215714   2.748   4.714   6.546
 4939SOL     OW15715   5.281   3.216   6.371
 4939SOL    HW115716   5.244   3.305   6.396
 4939SOL    HW215717   5.336   3.180   6.447
 4940SOL     OW15718   1.164   6.121   3.345
 4940SOL    HW115719   1.103   6.045   3.324
 4940SOL    HW215720   1.167   6.184   3.268
 4941SOL     OW15721   6.749   0.345   0.304
 4941SOL    HW115722   6.758   0.424   0.365
 4941SOL    HW215723   6.724   0.376   0.212
 4942SOL     OW15724   5.417   2.678   5.957
 4942SOL    HW115725   5.441   2.669   6.053
 4942SOL    HW215726   5.324   2.643   5.942
 4943SOL     OW15727   6.402   3.263   1.355
 4943SOL    HW115728   6.378   3.297   1.264
 4943SOL    HW215729   6.350   3.180   1.374
 4944SOL     OW15730   1.868   3.289   2.072
 4944SOL    HW115731   1.804   3.218   2.100
 4944SOL    HW215732   1.818   3.374   2.053
 4945SOL     OW15733   6.504   5.873   3.781
 4945SOL    HW115734   6.558   5.953   3.804
 4945SOL    HW215735   6.545   5.826   3.703
 4946SOL     OW15736   6.560   4.607   2.781
 4946SOL    HW115737   6.561   4.636   2.686
 4946SOL    HW215738   6.508   4.522   2.789
 4947SOL     OW15739   5.569   0.152   0.213
 4947SOL    HW115740   5.582   0.205   0.297
 4947SOL    HW215741   5.652   0.157   0.158
 4948SOL     OW15742   2.673   1.265   2.219
 4948SOL    HW115743   2.729   1.340   2.256
 4948SOL    HW215744   2.585   1.302   2.188
 4949SOL     OW15745   5.497   2.483   5.758
 4949SOL    HW115746   5.509   2.544   5.836
 4949SOL    HW215747   5.424   2.417   5.778
 4950SOL     OW15748   3.512   5.373   4.177
 4950SOL    HW115749   3.456   5.393   4.097
 4950SOL    HW215750   3.525   5.275   4.185
 4951SOL     OW15751   4.617   2.417   3.840
 4951SOL    HW115752   4.587   2.491   3.900
 4951SOL    HW215753   4.625   2.332   3.892
 4952SOL     OW15754   6.348   5.290   4.215
 4952SOL    HW115755   6.266   5.242   4.185
 4952SOL    HW215756   6.410   5.226   4.261
 4953SOL     OW15757   0.799   5.233   1.809
 4953SOL    HW115758   0.842   5.202   1.894
 4953SOL    HW215759   0.811   5.332   1.800
 4954SOL     OW15760   0.206   6.782   5.957
 4954SOL    HW115761   0.247   6.746   5.873
 4954SOL    HW215762   0.276   6.832   6.009
 4955SOL     OW15763   1.276   0.216   1.919
 4955SOL    HW115764   1.217   0.141   1.889
 4955SOL    HW215765   1.321   0.256   1.839
 4956SOL     OW15766   5.975   5.770   2.926
 4956SOL    HW115767   5.876   5.786   2.919
 4956SOL    HW215768   6.007   5.799   3.016
 4957SOL     OW15769   1.417   5.319   4.591
 4957SOL    HW115770   1.474   5.251   4.637
 4957SOL    HW215771   1.321   5.301   4.612
 4958SOL     OW15772   6.979   6.230   0.231
 4958SOL    HW115773   7.012   6.322   0.252
 4958SOL    HW215774   6.902   6.236   0.167
 4959SOL     OW15775   1.250   2.081   0.057
 4959SOL    HW115776   1.167   2.026   0.067
 4959SOL    HW215777   1.287   2.067   6.981
 4960SOL     OW15778   4.259   6.158   5.356
 4960SOL    HW115779   4.178   6.178   5.300
 4960SOL    HW215780   4.233   6.159   5.453
 4961SOL     OW15781   5.746   6.932   4.888
 4961SOL    HW115782   5.749   6.871   4.967
 4961SOL    HW215783   5.653   6.965   4.874
 4962SOL     OW15784   6.332   1.843   2.634
 4962SOL    HW115785   6.256   1.896   2.596
 4962SOL    HW215786   6.354   1.767   2.573
 4963SOL     OW15787   0.708   4.450   1.498
 4963SOL    HW115788   0.727   4.468   1.594
 4963SOL    HW215789   0.613   4.420   1.487
 4964SOL     OW15790   3.821   0.984   3.756
 4964SOL    HW115791   3.823   1.057   3.825
 4964SOL    HW215792   3.730   0.980   3.715
 4965SOL     OW15793   0.266   5.486   5.215
 4965SOL    HW115794   0.248   5.421   5.142
 4965SOL    HW215795   0.179   5.524   5.248
 4966SOL     OW15796   5.153   5.833   5.598
 4966SOL    HW115797   5.078   5.811   5.535
 4966SOL    HW215798   5.240   5.828   5.549
 4967SOL     OW15799   5.538   0.728   0.152
 4967SOL    HW115800   5.489   0.730   0.240
 4967SOL    HW215801   5.510   0.806   0.097
 4968SOL     OW15802   5.559   3.375   6.722
 4968SOL    HW115803   5.574   3.427   6.638
 4968SOL    HW215804   5.647   3.343   6.757
 4969SOL     OW15805   0.867   0.585   1.402
 4969SOL    HW115806   0.910   0.646   1.469
 4969SOL    HW215807   0.801   0.526   1.449
 4970SOL     OW15808   2.234   2.162   6.072
 4970SOL    HW115809   2.273   2.110   5.995
 4970SOL    HW215810   2.170   2.105   6.123
 4971SOL     OW15811   6.267   5.490   3.530
 4971SOL    HW115812   6.358   5.495   3.571
 4971SOL    HW215813   6.199   5.468   3.600
 4972SOL     OW15814   1.810   2.577   4.538
 4972SOL    HW115815   1.898   2.601   4.499
 4972SOL    HW215816   1.738   2.593   4.471
 4973SOL     OW15817   4.531   5.655   3.313
 4973SOL    HW115818   4.563   5.747   3.288
 4973SOL    HW215819   4.466   5.662   3.388
 4974SOL     OW15820   3.500   6.931   6.199
 4974SOL    HW115821   3.482   6.921   6.297
 4974SOL    HW215822   3.422   6.976   6.154
 4975SOL     OW15823   3.977   6.222   6.916
 4975SOL    HW115824   3.960   6.268   7.003
 4975SOL    HW215825   4.022   6.134   6.934
 4976SOL     OW15826   2.733   1.300   4.699
 4976SOL    HW115827   2.700   1.296   4.604
 4976SOL    HW215828   2.699   1.384   4.742
 4977SOL     OW15829   3.704   3.168   2.269
 4977SOL    HW115830   3.765   3.094   2.299
 4977SOL    HW215831   3.752   3.255   2.278
 4978SOL     OW15832   5.947   3.639   6.465
 4978SOL    HW115833   5.869   3.670   6.520
 4978SOL    HW215834   5.913   3.600   6.380
 4979SOL     OW15835   1.179   1.891   3.504
 4979SOL    HW115836   1.108   1.823   3.521
 4979SOL    HW215837   1.138   1.982   3.497
 4980SOL     OW15838   2.429   4.965   2.278
 4980SOL    HW115839   2.341   4.930   2.246
 4980SOL    HW215840   2.418   5.058   2.312
 4981SOL     OW15841   5.116   6.024   6.012
 4981SOL    HW115842   5.160   5.933   6.017
 4981SOL    HW215843   5.061   6.029   5.929
 4982SOL     OW15844   2.967   1.445   6.604
 4982SOL    HW115845   3.060   1.468   6.631
 4982SOL    HW215846   2.963   1.351   6.571
 4983SOL     OW15847   6.764   1.646   4.355
 4983SOL    HW115848   6.841   1.699   4.390
 4983SOL    HW215849   6.686   1.706   4.339
 4984SOL     OW15850   5.316   5.766   3.983
 4984SOL    HW115851   5.353   5.687   3.933
 4984SOL    HW215852   5.326   5.848   3.926
 4985SOL     OW15853   5.810   3.916   1.189
 4985SOL    HW115854   5.887   3.879   1.137
 4985SOL    HW215855   5.843   3.955   1.274
 4986SOL     OW15856   3.452   5.369   3.854
 4986SOL    HW115857   3.431   5.368   3.756
 4986SOL    HW215858   3.381   5.319   3.904
 4987SOL     OW15859   1.694   2.415   0.112
 4987SOL    HW115860   1.643   2.344   0.065
 4987SOL    HW215861   1.682   2.405   0.211
 4988SOL     OW15862   2.102   1.969   4.774
 4988SOL    HW115863   2.178   1.915   4.813
 4988SOL    HW215864   2.126   1.998   4.681
 4989SOL     OW15865   0.111   0.861   1.278
 4989SOL    HW115866   0.139   0.956   1.276
 4989SOL    HW215867   0.178   0.805   1.231
 4990SOL     OW15868   1.708   1.766   6.415
 4990SOL    HW115869   1.784   1.800   6.471
 4990SOL    HW215870   1.742   1.744   6.323
 4991SOL     OW15871   2.726   2.062   5.700
 4991SOL    HW115872   2.785   2.095   5.773
 4991SOL    HW215873   2.736   1.963   5.691
 4992SOL     OW15874   4.155   0.141   4.661
 4992SOL    HW115875   4.103   0.190   4.591
 4992SOL    HW215876   4.142   0.186   4.749
 4993SOL     OW15877   1.196   6.392   4.283
 4993SOL    HW115878   1.126   6.336   4.238
 4993SOL    HW215879   1.242   6.450   4.216
 4994SOL     OW15880   7.009   6.411   2.743
 4994SOL    HW115881   0.023   6.332   2.797
 4994SOL    HW215882   6.962   6.476   2.803
 4995SOL     OW15883   5.800   2.699   5.014
 4995SOL    HW115884   5.788   2.798   5.013
 4995SOL    HW215885   5.775   2.664   5.105
 4996SOL     OW15886   0.709   1.947   3.691
 4996SOL    HW115887   0.788   1.947   3.752
 4996SOL    HW215888   0.654   1.865   3.710
 4997SOL     OW15889   6.867   2.527   3.320
 4997SOL    HW115890   6.847   2.486   3.409
 4997SOL    HW215891   6.792   2.508   3.257
 4998SOL     OW15892   1.150   5.557   5.775
 4998SOL    HW115893   1.127   5.654   5.771
 4998SOL    HW215894   1.121   5.512   5.691
 4999SOL     OW15895   6.556   5.067   1.185
 4999SOL    HW115896   6.584   5.151   1.139
 4999SOL    HW215897   6.481   5.088   1.249
 5000SOL     OW15898   5.898   5.585   3.228
 5000SOL    HW115899   5.886   5.551   3.322
 5000SOL    HW215900   5.817   5.564   3.174
 5001SOL     OW15901   4.861   3.547   5.507
 5001SOL    HW115902   4.951   3.515   5.536
 5001SOL    HW215903   4.791   3.485   5.542
 5002SOL     OW15904   1.620   2.564   1.710
 5002SOL    HW115905   1.680   2.519   1.645
 5002SOL    HW215906   1.673   2.595   1.789
 5003SOL     OW15907   5.480   5.508   4.662
 5003SOL    HW115908   5.413   5.456   4.609
 5003SOL    HW215909   5.516   5.583   4.607
 5004SOL     OW15910   2.358   4.849   6.133
 5004SOL    HW115911   2.385   4.883   6.223
 5004SOL    HW215912   2.259   4.838   6.130
 5005SOL     OW15913   5.370   1.962   6.911
 5005SOL    HW115914   5.343   1.921   6.998
 5005SOL    HW215915   5.456   2.011   6.923
 5006SOL     OW15916   4.367   5.299   1.630
 5006SOL    HW115917   4.376   5.364   1.706
 5006SOL    HW215918   4.408   5.338   1.548
 5007SOL     OW15919   3.420   0.663   4.708
 5007SOL    HW115920   3.320   0.664   4.706
 5007SOL    HW215921   3.455   0.708   4.626
 5008SOL     OW15922   6.092   2.126   4.094
 5008SOL    HW115923   6.167   2.086   4.146
 5008SOL    HW215924   6.032   2.177   4.156
 5009SOL     OW15925   3.008   6.774   2.110
 5009SOL    HW115926   3.099   6.768   2.070
 5009SOL    HW215927   2.967   6.862   2.086
 5010SOL     OW15928   3.550   3.982   6.158
 5010SOL    HW115929   3.591   3.920   6.226
 5010SOL    HW215930   3.530   3.931   6.075
 5011SOL     OW15931   0.776   2.139   4.827
 5011SOL    HW115932   0.693   2.083   4.818
 5011SOL    HW215933   0.853   2.091   4.786
 5012SOL     OW15934   6.516   2.363   0.123
 5012SOL    HW115935   6.615   2.380   0.116
 5012SOL    HW215936   6.467   2.450   0.120
 5013SOL     OW15937   4.927   1.717   5.250
 5013SOL    HW115938   4.983   1.634   5.238
 5013SOL    HW215939   4.911   1.732   5.347
 5014SOL     OW15940   1.029   4.423   6.188
 5014SOL    HW115941   1.012   4.402   6.285
 5014SOL    HW215942   0.975   4.504   6.162
 5015SOL     OW15943   4.679   2.315   4.135
 5015SOL    HW115944   4.680   2.261   4.050
 5015SOL    HW215945   4.773   2.338   4.160
 5016SOL     OW15946   2.128   5.812   1.467
 5016SOL    HW115947   2.087   5.883   1.525
 5016SOL    HW215948   2.160   5.736   1.524
 5017SOL     OW15949   0.328   2.005   1.590
 5017SOL    HW115950   0.298   1.945   1.664
 5017SOL    HW215951   0.294   1.969   1.503
 5018SOL     OW15952   6.060   5.238   4.154
 5018SOL    HW115953   6.002   5.295   4.213
 5018SOL    HW215954   6.047   5.142   4.177
 5019SOL     OW15955   2.938   5.597   4.799
 5019SOL    HW115956   2.894   5.545   4.872
 5019SOL    HW215957   3.027   5.558   4.778
 5020SOL     OW15958   4.798   5.151   6.830
 5020SOL    HW115959   4.815   5.196   6.918
 5020SOL    HW215960   4.858   5.192   6.760
 5021SOL     OW15961   2.638   4.801   5.333
 5021SOL    HW115962   2.697   4.730   5.372
 5021SOL    HW215963   2.691   4.855   5.267
 5022SOL     OW15964   2.117   2.657   6.292
 5022SOL    HW115965   2.030   2.613   6.313
 5022SOL    HW215966   2.101   2.752   6.266
 5023SOL     OW15967   6.285   3.363   3.566
 5023SOL    HW115968   6.309   3.266   3.564
 5023SOL    HW215969   6.362   3.417   3.533
 5024SOL     OW15970   4.801   3.939   5.411
 5024SOL    HW115971   4.841   3.869   5.352
 5024SOL    HW215972   4.756   3.895   5.489
 5025SOL     OW15973   5.956   6.834   5.164
 5025SOL    HW115974   5.863   6.866   5.182
 5025SOL    HW215975   6.022   6.897   5.205
 5026SOL     OW15976   1.184   5.802   2.467
 5026SOL    HW115977   1.142   5.777   2.554
 5026SOL    HW215978   1.197   5.719   2.411
 5027SOL     OW15979   0.859   5.654   3.153
 5027SOL    HW115980   0.787   5.723   3.156
 5027SOL    HW215981   0.923   5.677   3.079
 5028SOL     OW15982   0.739   6.980   2.534
 5028SOL    HW115983   0.714   6.993   2.438
 5028SOL    HW215984   0.684   0.025   2.592
 5029SOL     OW15985   5.872   0.685   4.531
 5029SOL    HW115986   5.815   0.607   4.505
 5029SOL    HW215987   5.963   0.653   4.557
 5030SOL     OW15988   1.320   5.909   0.690
 5030SOL    HW115989   1.409   5.863   0.701
 5030SOL    HW215990   1.276   5.919   0.779
 5031SOL     OW15991   4.919   0.365   6.851
 5031SOL    HW115992   4.908   0.415   6.937
 5031SOL    HW215993   4.916   0.429   6.775
 5032SOL     OW15994   2.102   5.819   2.950
 5032SOL    HW115995   2.053   5.865   3.024
 5032SOL    HW215996   2.151   5.886   2.895
 5033SOL     OW15997   1.089   4.370   4.805
 5033SOL    HW115998   1.152   4.357   4.729
 5033SOL    HW215999   1.099   4.294   4.870
 5034SOL     OW16000   1.141   2.565   6.026
 5034SOL    HW116001   1.179   2.653   5.997
 5034SOL    HW216002   1.109   2.572   6.121
 5035SOL     OW16003   6.731   4.843   0.836
 5035SOL    HW116004   6.723   4.799   0.926
 5035SOL    HW216005   6.653   4.904   0.822
 5036SOL     OW16006   1.374   1.455   2.597
 5036SOL    HW116007   1.406   1.530   2.655
 5036SOL    HW216008   1.320   1.391   2.652
 5037SOL     OW16009   5.537   3.819   1.201
 5037SOL    HW116010   5.629   3.845   1.232
 5037SOL    HW216011   5.535   3.722   1.181
 5038SOL     OW16012   2.896   5.652   5.785
 5038SOL    HW116013   2.949   5.723   5.831
 5038SOL    HW216014   2.799   5.665   5.806
 5039SOL     OW16015   0.636   2.207   3.961
 5039SOL    HW116016   0.541   2.181   3.982
 5039SOL    HW216017   0.661   2.169   3.871
 5040SOL     OW16018   2.239   3.203   0.029
 5040SOL    HW116019   2.231   3.224   0.127
 5040SOL    HW216020   2.221   3.285   6.992
 5041SOL     OW16021   0.786   5.469   0.187
 5041SOL    HW116022   0.738   5.420   0.260
 5041SOL    HW216023   0.824   5.554   0.223
 5042SOL     OW16024   5.812   1.063   5.977
 5042SOL    HW116025   5.767   0.974   5.985
 5042SOL    HW216026   5.808   1.094   5.882
 5043SOL     OW16027   5.626   5.938   4.222
 5043SOL    HW116028   5.618   5.883   4.138
 5043SOL    HW216029   5.537   5.944   4.266
 5044SOL     OW16030   0.232   4.152   2.157
 5044SOL    HW116031   0.243   4.104   2.070
 5044SOL    HW216032   0.144   4.128   2.199
 5045SOL     OW16033   5.125   2.997   5.474
 5045SOL    HW116034   5.113   2.900   5.454
 5045SOL    HW216035   5.177   3.040   5.400
 5046SOL     OW16036   3.635   3.199   5.817
 5046SOL    HW116037   3.673   3.116   5.858
 5046SOL    HW216038   3.709   3.258   5.785
 5047SOL     OW16039   0.454   1.560   1.648
 5047SOL    HW116040   0.458   1.474   1.700
 5047SOL    HW216041   0.401   1.628   1.700
 5048SOL     OW16042   5.608   4.019   0.111
 5048SOL    HW116043   5.520   4.022   0.159
 5048SOL    HW216044   5.653   4.108   0.118
 5049SOL     OW16045   1.510   0.799   6.965
 5049SOL    HW116046   1.504   0.851   6.881
 5049SOL    HW216047   1.464   0.848   0.023
 5050SOL     OW16048   1.439   4.047   1.157
 5050SOL    HW116049   1.414   3.951   1.143
 5050SOL    HW216050   1.375   4.106   1.107
 5051SOL     OW16051   2.257   4.056   5.831
 5051SOL    HW116052   2.166   4.017   5.817
 5051SOL    HW216053   2.319   3.984   5.862
 5052SOL     OW16054   6.653   2.932   1.465
 5052SOL    HW116055   6.685   2.991   1.391
 5052SOL    HW216056   6.563   2.895   1.442
 5053SOL     OW16057   0.741   3.935   1.347
 5053SOL    HW116058   0.752   3.899   1.439
 5053SOL    HW216059   0.830   3.962   1.310
 5054SOL     OW16060   4.172   5.475   5.077
 5054SOL    HW116061   4.077   5.450   5.057
 5054SOL    HW216062   4.174   5.563   5.126
 5055SOL     OW16063   0.839   6.974   4.081
 5055SOL    HW116064   0.911   0.024   4.102
 5055SOL    HW216065   0.861   6.928   3.995
 5056SOL     OW16066   3.147   1.195   6.784
 5056SOL    HW116067   3.224   1.223   6.726
 5056SOL    HW216068   3.181   1.160   6.871
 5057SOL     OW16069   0.585   3.666   2.794
 5057SOL    HW116070   0.581   3.606   2.714
 5057SOL    HW216071   0.664   3.727   2.786
 5058SOL     OW16072   3.799   2.172   6.950
 5058SOL    HW116073   3.867   2.220   6.896
 5058SOL    HW216074   3.804   2.202   0.029
 5059SOL     OW16075   5.289   2.413   2.860
 5059SOL    HW116076   5.355   2.345   2.892
 5059SOL    HW216077   5.206   2.366   2.828
 5060SOL     OW16078   6.844   3.182   5.738
 5060SOL    HW116079   6.802   3.264   5.776
 5060SOL    HW216080   6.852   3.112   5.810
 5061SOL     OW16081   4.440   2.694   6.166
 5061SOL    HW116082   4.481   2.631   6.100
 5061SOL    HW216083   4.345   2.668   6.183
 5062SOL     OW16084   5.812   1.086   3.087
 5062SOL    HW116085   5.754   1.155   3.046
 5062SOL    HW216086   5.832   1.112   3.182
 5063SOL     OW16087   0.304   0.637   0.543
 5063SOL    HW116088   0.382   0.697   0.558
 5063SOL    HW216089   0.309   0.560   0.607
 5064SOL     OW16090   6.799   5.092   0.474
 5064SOL    HW116091   6.706   5.117   0.446
 5064SOL    HW216092   6.807   5.104   0.573
 5065SOL     OW16093   1.028   2.126   2.478
 5065SOL    HW116094   1.008   2.217   2.442
 5065SOL    HW216095   0.955   2.063   2.452
 5066SOL     OW16096   0.820   5.372   3.664
 5066SOL    HW116097   0.755   5.310   3.707
 5066SOL    HW216098   0.909   5.326   3.655
 5067SOL     OW16099   4.423   2.845   0.593
 5067SOL    HW116100   4.509   2.858   0.543
 5067SOL    HW216101   4.349   2.829   0.527
 5068SOL     OW16102   1.081   6.568   0.914
 5068SOL    HW116103   1.125   6.650   0.877
 5068SOL    HW216104   1.080   6.573   1.014
 5069SOL     OW16105   4.048   4.594   6.065
 5069SOL    HW116106   4.009   4.505   6.088
 5069SOL    HW216107   3.987   4.666   6.097
 5070SOL     OW16108   0.840   3.566   6.496
 5070SOL    HW116109   0.835   3.569   6.596
 5070SOL    HW216110   0.813   3.655   6.459
 5071SOL     OW16111   1.467   6.591   2.423
 5071SOL    HW116112   1.460   6.618   2.519
 5071SOL    HW216113   1.526   6.511   2.416
 5072SOL     OW16114   0.798   2.285   2.644
 5072SOL    HW116115   0.769   2.196   2.680
 5072SOL    HW216116   0.809   2.278   2.545
 5073SOL     OW16117   1.862   1.535   4.290
 5073SOL    HW116118   1.954   1.529   4.249
 5073SOL    HW216119   1.869   1.576   4.381
 5074SOL     OW16120   4.144   2.173   1.489
 5074SOL    HW116121   4.091   2.224   1.556
 5074SOL    HW216122   4.242   2.187   1.506
 5075SOL     OW16123   6.209   1.995   6.814
 5075SOL    HW116124   6.300   1.987   6.774
 5075SOL    HW216125   6.160   1.908   6.801
 5076SOL     OW16126   0.026   1.410   5.971
 5076SOL    HW116127   6.949   1.373   5.968
 5076SOL    HW216128   0.057   1.414   6.066
 5077SOL     OW16129   0.517   5.074   4.294
 5077SOL    HW116130   0.542   5.033   4.382
 5077SOL    HW216131   0.589   5.137   4.265
 5078SOL     OW16132   5.786   1.583   2.956
 5078SOL    HW116133   5.744   1.492   2.963
 5078SOL    HW216134   5.771   1.620   2.865
 5079SOL     OW16135   1.626   3.807   5.731
 5079SOL    HW116136   1.712   3.757   5.741
 5079SOL    HW216137   1.551   3.750   5.765
 5080SOL     OW16138   6.496   5.952   6.711
 5080SOL    HW116139   6.434   5.910   6.778
 5080SOL    HW216140   6.543   5.881   6.660
 5081SOL     OW16141   3.664   4.298   5.792
 5081SOL    HW116142   3.723   4.330   5.718
 5081SOL    HW216143   3.574   4.274   5.755
 5082SOL     OW16144   5.620   6.847   2.677
 5082SOL    HW116145   5.642   6.864   2.773
 5082SOL    HW216146   5.576   6.757   2.669
 5083SOL     OW16147   0.294   0.508   3.431
 5083SOL    HW116148   0.385   0.521   3.470
 5083SOL    HW216149   0.248   0.433   3.477
 5084SOL     OW16150   3.539   5.139   5.679
 5084SOL    HW116151   3.608   5.156   5.609
 5084SOL    HW216152   3.552   5.047   5.716
 5085SOL     OW16153   1.028   3.424   6.359
 5085SOL    HW116154   0.969   3.481   6.416
 5085SOL    HW216155   0.974   3.384   6.284
 5086SOL     OW16156   0.948   4.713   2.080
 5086SOL    HW116157   1.034   4.741   2.037
 5086SOL    HW216158   0.958   4.716   2.180
 5087SOL     OW16159   6.236   5.439   1.599
 5087SOL    HW116160   6.260   5.348   1.633
 5087SOL    HW216161   6.304   5.469   1.532
 5088SOL     OW16162   4.416   4.803   2.293
 5088SOL    HW116163   4.442   4.753   2.211
 5088SOL    HW216164   4.485   4.788   2.364
 5089SOL     OW16165   4.758   5.621   5.853
 5089SOL    HW116166   4.841   5.565   5.867
 5089SOL    HW216167   4.756   5.694   5.921
 5090SOL     OW16168   2.199   6.716   4.686
 5090SOL    HW116169   2.267   6.774   4.732
 5090SOL    HW216170   2.128   6.690   4.752
 5091SOL     OW16171   5.897   5.632   4.905
 5091SOL    HW116172   5.857   5.618   4.996
 5091SOL    HW216173   5.826   5.665   4.843
 5092SOL     OW16174   3.738   2.911   4.639
 5092SOL    HW116175   3.783   2.824   4.622
 5092SOL    HW216176   3.807   2.984   4.644
 5093SOL     OW16177   3.448   2.092   3.352
 5093SOL    HW116178   3.357   2.121   3.324
 5093SOL    HW216179   3.466   1.999   3.320
 5094SOL     OW16180   2.385   4.895   4.774
 5094SOL    HW116181   2.331   4.855   4.848
 5094SOL    HW216182   2.478   4.913   4.807
 5095SOL     OW16183   6.169   2.413   3.168
 5095SOL    HW116184   6.189   2.469   3.087
 5095SOL    HW216185   6.090   2.452   3.216
 5096SOL     OW16186   6.250   3.124   5.200
 5096SOL    HW116187   6.344   3.137   5.232
 5096SOL    HW216188   6.251   3.086   5.108
 5097SOL     OW16189   0.879   0.190   5.923
 5097SOL    HW116190   0.880   0.135   6.006
 5097SOL    HW216191   0.836   0.138   5.849
 5098SOL     OW16192   2.785   1.797   0.734
 5098SOL    HW116193   2.860   1.787   0.799
 5098SOL    HW216194   2.763   1.894   0.723
 5099SOL     OW16195   1.859   5.942   1.563
 5099SOL    HW116196   1.883   5.997   1.483
 5099SOL    HW216197   1.762   5.918   1.559
 5100SOL     OW16198   0.234   3.638   1.655
 5100SOL    HW116199   0.233   3.567   1.725
 5100SOL    HW216200   0.140   3.658   1.627
 5101SOL     OW16201   4.631   1.993   6.077
 5101SOL    HW116202   4.590   1.958   6.162
 5101SOL    HW216203   4.727   2.018   6.095
 5102SOL     OW16204   5.823   4.517   5.393
 5102SOL    HW116205   5.848   4.499   5.488
 5102SOL    HW216206   5.744   4.579   5.390
 5103SOL     OW16207   0.262   6.888   5.393
 5103SOL    HW116208   0.183   6.945   5.372
 5103SOL    HW216209   0.322   6.884   5.313
 5104SOL     OW16210   3.672   3.088   3.624
 5104SOL    HW116211   3.597   3.074   3.688
 5104SOL    HW216212   3.685   3.006   3.569
 5105SOL     OW16213   4.642   2.406   6.892
 5105SOL    HW116214   4.670   2.490   6.938
 5105SOL    HW216215   4.644   2.330   6.958
 5106SOL     OW16216   4.130   0.639   1.450
 5106SOL    HW116217   4.055   0.635   1.384
 5106SOL    HW216218   4.209   0.590   1.414
 5107SOL     OW16219   6.498   4.280   0.078
 5107SOL    HW116220   6.595   4.270   0.097
 5107SOL    HW216221   6.448   4.205   0.123
 5108SOL     OW16222   4.408   3.891   0.981
 5108SOL    HW116223   4.473   3.816   0.964
 5108SOL    HW216224   4.424   3.928   1.073
 5109SOL     OW16225   1.813   2.540   1.927
 5109SOL    HW116226   1.775   2.610   1.988
 5109SOL    HW216227   1.912   2.549   1.923
 5110SOL     OW16228   3.312   6.764   4.983
 5110SOL    HW116229   3.405   6.800   4.994
 5110SOL    HW216230   3.315   6.664   4.984
 5111SOL     OW16231   2.357   6.301   6.423
 5111SOL    HW116232   2.316   6.384   6.384
 5111SOL    HW216233   2.435   6.327   6.480
 5112SOL     OW16234   0.540   4.372   2.476
 5112SOL    HW116235   0.627   4.408   2.441
 5112SOL    HW216236   0.545   4.365   2.576
 5113SOL     OW16237   3.059   4.869   1.513
 5113SOL    HW116238   3.022   4.857   1.605
 5113SOL    HW216239   2.984   4.875   1.448
 5114SOL     OW16240   4.726   4.075   1.185
 5114SOL    HW116241   4.636   4.031   1.191
 5114SOL    HW216242   4.782   4.047   1.263
 5115SOL     OW16243   1.581   3.648   0.532
 5115SOL    HW116244   1.652   3.643   0.462
 5115SOL    HW216245   1.534   3.736   0.527
 5116SOL     OW16246   0.900   6.001   5.728
 5116SOL    HW116247   0.844   5.979   5.648
 5116SOL    HW216248   0.857   5.963   5.810
 5117SOL     OW16249   0.146   3.692   4.148
 5117SOL    HW116250   0.211   3.650   4.084
 5117SOL    HW216251   0.135   3.634   4.228
 5118SOL     OW16252   5.023   5.436   0.700
 5118SOL    HW116253   5.009   5.428   0.799
 5118SOL    HW216254   5.027   5.533   0.675
 5119SOL     OW16255   5.419   1.187   6.916
 5119SOL    HW116256   5.392   1.165   6.822
 5119SOL    HW216257   5.384   1.277   6.940
 5120SOL     OW16258   5.314   6.258   0.134
 5120SOL    HW116259   5.340   6.353   0.123
 5120SOL    HW216260   5.262   6.247   0.219
 5121SOL     OW16261   2.064   3.966   6.828
 5121SOL    HW116262   1.976   3.929   6.797
 5121SOL    HW216263   2.082   3.934   6.921
 5122SOL     OW16264   5.142   5.407   3.617
 5122SOL    HW116265   5.187   5.388   3.704
 5122SOL    HW216266   5.053   5.362   3.615
 5123SOL     OW16267   4.402   2.233   1.521
 5123SOL    HW116268   4.431   2.321   1.484
 5123SOL    HW216269   4.476   2.193   1.575
 5124SOL     OW16270   0.403   5.990   4.656
 5124SOL    HW116271   0.414   5.937   4.740
 5124SOL    HW216272   0.317   5.965   4.612
 5125SOL     OW16273   5.033   2.818   3.965
 5125SOL    HW116274   5.036   2.777   4.056
 5125SOL    HW216275   4.938   2.826   3.934
 5126SOL     OW16276   2.723   0.518   2.622
 5126SOL    HW116277   2.625   0.531   2.605
 5126SOL    HW216278   2.743   0.544   2.716
 5127SOL     OW16279   2.553   6.257   1.276
 5127SOL    HW116280   2.588   6.163   1.276
 5127SOL    HW216281   2.564   6.296   1.185
 5128SOL     OW16282   3.654   0.368   2.308
 5128SOL    HW116283   3.586   0.305   2.344
 5128SOL    HW216284   3.739   0.318   2.289
 5129SOL     OW16285   6.273   5.416   6.859
 5129SOL    HW116286   6.250   5.415   6.761
 5129SOL    HW216287   6.326   5.335   6.881
 5130SOL     OW16288   5.798   4.628   2.191
 5130SOL    HW116289   5.823   4.588   2.103
 5130SOL    HW216290   5.844   4.579   2.265
 5131SOL     OW16291   2.229   2.085   1.938
 5131SOL    HW116292   2.148   2.126   1.979
 5131SOL    HW216293   2.286   2.157   1.898
 5132SOL     OW16294   2.438   6.088   6.177
 5132SOL    HW116295   2.465   5.992   6.183
 5132SOL    HW216296   2.391   6.115   6.261
 5133SOL     OW16297   4.010   5.114   4.656
 5133SOL    HW116298   3.976   5.156   4.572
 5133SOL    HW216299   3.993   5.016   4.654
 5134SOL     OW16300   1.089   2.729   6.841
 5134SOL    HW116301   0.993   2.706   6.825
 5134SOL    HW216302   1.146   2.647   6.830
 5135SOL     OW16303   6.290   1.246   3.020
 5135SOL    HW116304   6.327   1.327   3.067
 5135SOL    HW216305   6.217   1.206   3.075
 5136SOL     OW16306   3.785   1.871   0.009
 5136SOL    HW116307   3.714   1.932   0.046
 5136SOL    HW216308   3.858   1.926   6.985
 5137SOL     OW16309   4.327   3.336   6.869
 5137SOL    HW116310   4.342   3.273   6.792
 5137SOL    HW216311   4.311   3.428   6.835
 5138SOL     OW16312   2.571   3.022   5.902
 5138SOL    HW116313   2.533   3.059   5.818
 5138SOL    HW216314   2.498   2.978   5.955
 5139SOL     OW16315   0.477   6.397   4.192
 5139SOL    HW116316   0.451   6.400   4.289
 5139SOL    HW216317   0.449   6.482   4.148
 5140SOL     OW16318   3.157   3.160   2.708
 5140SOL    HW116319   3.176   3.219   2.629
 5140SOL    HW216320   3.222   3.084   2.709
 5141SOL     OW16321   1.441   3.299   5.201
 5141SOL    HW116322   1.455   3.318   5.298
 5141SOL    HW216323   1.344   3.283   5.184
 5142SOL     OW16324   5.274   2.998   1.640
 5142SOL    HW116325   5.195   2.966   1.587
 5142SOL    HW216326   5.255   3.089   1.676
 5143SOL     OW16327   0.034   5.302   6.483
 5143SOL    HW116328   6.955   5.288   6.511
 5143SOL    HW216329   0.041   5.388   6.432
 5144SOL     OW16330   2.378   1.426   4.669
 5144SOL    HW116331   2.336   1.397   4.755
 5144SOL    HW216332   2.374   1.351   4.603
 5145SOL     OW16333   3.459   5.175   6.825
 5145SOL    HW116334   3.556   5.154   6.818
 5145SOL    HW216335   3.424   5.140   6.912
 5146SOL     OW16336   3.693   5.308   1.373
 5146SOL    HW116337   3.708   5.405   1.390
 5146SOL    HW216338   3.679   5.261   1.460
 5147SOL     OW16339   0.840   5.641   6.167
 5147SOL    HW116340   0.870   5.548   6.142
 5147SOL    HW216341   0.767   5.636   6.235
 5148SOL     OW16342   6.891   0.704   1.586
 5148SOL    HW116343   6.824   0.732   1.518
 5148SOL    HW216344   6.904   0.605   1.582
 5149SOL     OW16345   6.580   0.342   4.950
 5149SOL    HW116346   6.511   0.331   4.879
 5149SOL    HW216347   6.539   0.326   5.040
 5150SOL     OW16348   2.777   5.354   6.021
 5150SOL    HW116349   2.806   5.377   5.927
 5150SOL    HW216350   2.692   5.402   6.042
 5151SOL     OW16351   5.096   0.049   6.458
 5151SOL    HW116352   5.082   6.977   6.505
 5151SOL    HW216353   5.158   0.035   6.380
 5152SOL     OW16354   0.101   4.744   6.145
 5152SOL    HW116355   0.091   4.841   6.119
 5152SOL    HW216356   0.127   4.691   6.064
 5153SOL     OW16357   3.204   3.255   1.120
 5153SOL    HW116358   3.285   3.247   1.178
 5153SOL    HW216359   3.125   3.280   1.177
 5154SOL     OW16360   1.125   4.198   5.267
 5154SOL    HW116361   1.218   4.191   5.305
 5154SOL    HW216362   1.063   4.142   5.322
 5155SOL     OW16363   4.135   0.956   2.690
 5155SOL    HW116364   4.126   0.862   2.722
 5155SOL    HW216365   4.056   1.009   2.722
 5156SOL     OW16366   5.434   3.519   5.555
 5156SOL    HW116367   5.528   3.498   5.579
 5156SOL    HW216368   5.422   3.619   5.550
 5157SOL     OW16369   6.754   2.702   3.955
 5157SOL    HW116370   6.796   2.612   3.960
 5157SOL    HW216371   6.658   2.693   3.929
 5158SOL     OW16372   4.188   0.996   2.160
 5158SOL    HW116373   4.256   0.947   2.106
 5158SOL    HW216374   4.228   1.080   2.196
 5159SOL     OW16375   1.533   3.925   4.987
 5159SOL    HW116376   1.549   3.989   5.063
 5159SOL    HW216377   1.582   3.957   4.906
 5160SOL     OW16378   2.391   2.247   3.481
 5160SOL    HW116379   2.490   2.258   3.492
 5160SOL    HW216380   2.344   2.288   3.559
 5161SOL     OW16381   1.947   2.404   6.790
 5161SOL    HW116382   2.039   2.425   6.756
 5161SOL    HW216383   1.920   2.472   6.857
 5162SOL     OW16384   6.152   5.632   5.238
 5162SOL    HW116385   6.066   5.592   5.270
 5162SOL    HW216386   6.195   5.682   5.314
 5163SOL     OW16387   6.321   3.571   1.397
 5163SOL    HW116388   6.377   3.509   1.342
 5163SOL    HW216389   6.256   3.619   1.338
 5164SOL     OW16390   6.594   6.728   5.001
 5164SOL    HW116391   6.539   6.724   5.084
 5164SOL    HW216392   6.537   6.759   4.925
 5165SOL     OW16393   5.601   4.369   5.223
 5165SOL    HW116394   5.677   4.410   5.273
 5165SOL    HW216395   5.548   4.441   5.178
 5166SOL     OW16396   0.294   0.338   3.166
 5166SOL    HW116397   0.250   0.386   3.242
 5166SOL    HW216398   0.345   0.404   3.111
 5167SOL     OW16399   2.141   0.040   4.697
 5167SOL    HW116400   2.105   0.080   4.782
 5167SOL    HW216401   2.081   0.064   4.621
 5168SOL     OW16402   3.107   1.620   2.103
 5168SOL    HW116403   3.043   1.696   2.117
 5168SOL    HW216404   3.064   1.535   2.134
 5169SOL     OW16405   3.427   5.648   6.713
 5169SOL    HW116406   3.462   5.602   6.795
 5169SOL    HW216407   3.331   5.624   6.700
 5170SOL     OW16408   4.265   4.933   4.513
 5170SOL    HW116409   4.280   5.031   4.503
 5170SOL    HW216410   4.173   4.910   4.484
 5171SOL     OW16411   2.489   4.419   5.556
 5171SOL    HW116412   2.486   4.343   5.621
 5171SOL    HW216413   2.493   4.382   5.463
 5172SOL     OW16414   1.622   3.602   6.131
 5172SOL    HW116415   1.621   3.630   6.227
 5172SOL    HW216416   1.528   3.586   6.100
 5173SOL     OW16417   0.435   2.140   4.665
 5173SOL    HW116418   0.389   2.228   4.655
 5173SOL    HW216419   0.478   2.115   4.578
 5174SOL     OW16420   3.072   4.600   6.856
 5174SOL    HW116421   3.059   4.527   6.789
 5174SOL    HW216422   2.999   4.595   6.924
 5175SOL     OW16423   1.039   5.296   0.263
 5175SOL    HW116424   1.018   5.203   0.235
 5175SOL    HW216425   0.960   5.355   0.243
 5176SOL     OW16426   5.870   3.297   6.556
 5176SOL    HW116427   5.786   3.313   6.503
 5176SOL    HW216428   5.949   3.300   6.495
 5177SOL     OW16429   4.719   5.497   6.996
 5177SOL    HW116430   4.801   5.439   6.999
 5177SOL    HW216431   4.644   5.446   6.954
 5178SOL     OW16432   3.416   4.583   0.344
 5178SOL    HW116433   3.457   4.561   0.432
 5178SOL    HW216434   3.393   4.680   0.341
 5179SOL     OW16435   2.904   6.117   5.744
 5179SOL    HW116436   2.892   6.216   5.749
 5179SOL    HW216437   2.908   6.079   5.836
 5180SOL     OW16438   4.807   1.710   6.143
 5180SOL    HW116439   4.739   1.645   6.179
 5180SOL    HW216440   4.875   1.729   6.214
 5181SOL     OW16441   3.110   6.164   2.839
 5181SOL    HW116442   3.208   6.147   2.846
 5181SOL    HW216443   3.094   6.239   2.775
 5182SOL     OW16444   4.925   4.065   0.644
 5182SOL    HW116445   4.877   3.997   0.589
 5182SOL    HW216446   4.861   4.107   0.708
 5183SOL     OW16447   2.977   1.043   3.428
 5183SOL    HW116448   3.000   1.139   3.413
 5183SOL    HW216449   2.969   1.026   3.526
 5184SOL     OW16450   1.054   1.945   3.171
 5184SOL    HW116451   1.088   2.008   3.241
 5184SOL    HW216452   0.992   1.994   3.109
 5185SOL     OW16453   4.418   0.519   2.162
 5185SOL    HW116454   4.324   0.526   2.130
 5185SOL    HW216455   4.441   0.599   2.217
 5186SOL     OW16456   5.371   3.551   6.849
 5186SOL    HW116457   5.282   3.507   6.860
 5186SOL    HW216458   5.443   3.481   6.848
 5187SOL     OW16459   4.971   3.979   4.292
 5187SOL    HW116460   4.953   3.975   4.390
 5187SOL    HW216461   4.927   3.901   4.247
 5188SOL     OW16462   0.840   0.963   3.426
 5188SOL    HW116463   0.748   1.003   3.431
 5188SOL    HW216464   0.903   1.017   3.481
 5189SOL     OW16465   4.867   5.321   5.772
 5189SOL    HW116466   4.925   5.386   5.822
 5189SOL    HW216467   4.790   5.370   5.731
 5190SOL     OW16468   1.553   1.917   2.561
 5190SOL    HW116469   1.578   1.836   2.506
 5190SOL    HW216470   1.627   1.983   2.557
 5191SOL     OW16471   4.812   1.125   2.241
 5191SOL    HW116472   4.712   1.129   2.239
 5191SOL    HW216473   4.846   1.098   2.151
 5192SOL     OW16474   6.649   3.907   2.037
 5192SOL    HW116475   6.701   3.970   2.095
 5192SOL    HW216476   6.670   3.813   2.062
 5193SOL     OW16477   3.805   4.858   3.190
 5193SOL    HW116478   3.757   4.945   3.174
 5193SOL    HW216479   3.851   4.860   3.278
 5194SOL     OW16480   5.220   0.649   0.572
 5194SOL    HW116481   5.205   0.554   0.597
 5194SOL    HW216482   5.136   0.701   0.583
 5195SOL     OW16483   0.500   5.075   5.432
 5195SOL    HW116484   0.494   5.101   5.336
 5195SOL    HW216485   0.566   5.133   5.479
 5196SOL     OW16486   1.429   3.562   3.110
 5196SOL    HW116487   1.336   3.551   3.146
 5196SOL    HW216488   1.493   3.511   3.167
 5197SOL     OW16489   3.561   6.190   5.364
 5197SOL    HW116490   3.655   6.167   5.338
 5197SOL    HW216491   3.536   6.137   5.445
 5198SOL     OW16492   4.446   1.346   6.440
 5198SOL    HW116493   4.389   1.330   6.359
 5198SOL    HW216494   4.431   1.439   6.474
 5199SOL     OW16495   0.666   5.984   2.772
 5199SOL    HW116496   0.738   5.915   2.773
 5199SOL    HW216497   0.680   6.048   2.847
 5200SOL     OW16498   5.698   6.422   6.283
 5200SOL    HW116499   5.759   6.501   6.275
 5200SOL    HW216500   5.668   6.394   6.192
 5201SOL     OW16501   6.991   3.675   5.199
 5201SOL    HW116502   6.948   3.765   5.200
 5201SOL    HW216503   6.935   3.610   5.251
 5202SOL     OW16504   3.747   2.516   6.040
 5202SOL    HW116505   3.776   2.581   5.970
 5202SOL    HW216506   3.811   2.439   6.044
 5203SOL     OW16507   0.143   0.240   5.493
 5203SOL    HW116508   0.161   0.178   5.569
 5203SOL    HW216509   0.058   0.289   5.510
 5204SOL     OW16510   1.946   0.243   2.079
 5204SOL    HW116511   1.961   0.159   2.027
 5204SOL    HW216512   1.884   0.224   2.155
 5205SOL     OW16513   5.997   0.046   1.895
 5205SOL    HW116514   5.927   6.993   1.876
 5205SOL    HW216515   5.981   0.085   1.985
 5206SOL     OW16516   0.936   4.985   4.891
 5206SOL    HW116517   1.010   4.942   4.943
 5206SOL    HW216518   0.961   4.990   4.795
 5207SOL     OW16519   4.879   1.866   4.741
 5207SOL    HW116520   4.878   1.811   4.658
 5207SOL    HW216521   4.867   1.807   4.821
 5208SOL     OW16522   6.911   1.405   0.708
 5208SOL    HW116523   6.927   1.307   0.698
 5208SOL    HW216524   6.987   1.456   0.669
 5209SOL     OW16525   4.638   5.831   2.862
 5209SOL    HW116526   4.550   5.844   2.818
 5209SOL    HW216527   4.682   5.748   2.825
 5210SOL     OW16528   6.367   3.869   1.983
 5210SOL    HW116529   6.464   3.888   2.002
 5210SOL    HW216530   6.311   3.939   2.027
 5211SOL     OW16531   5.112   3.002   4.734
 5211SOL    HW116532   5.147   2.922   4.684
 5211SOL    HW216533   5.075   3.068   4.669
 5212SOL     OW16534   6.698   3.810   0.226
 5212SOL    HW116535   6.777   3.770   0.179
 5212SOL    HW216536   6.615   3.763   0.198
 5213SOL     OW16537   3.420   3.172   4.709
 5213SOL    HW116538   3.501   3.125   4.672
 5213SOL    HW216539   3.338   3.120   4.688
 5214SOL     OW16540   6.032   2.948   5.273
 5214SOL    HW116541   6.113   3.006   5.263
 5214SOL    HW216542   5.950   3.002   5.256
 5215SOL     OW16543   0.519   4.654   5.023
 5215SOL    HW116544   0.521   4.719   4.947
 5215SOL    HW216545   0.594   4.674   5.086
 5216SOL     OW16546   0.089   4.256   0.139
 5216SOL    HW116547   0.073   4.158   0.129
 5216SOL    HW216548   0.178   4.271   0.182
 5217SOL     OW16549   3.338   1.007   1.855
 5217SOL    HW116550   3.348   1.090   1.910
 5217SOL    HW216551   3.253   1.012   1.802
 5218SOL     OW16552   6.335   6.723   0.416
 5218SOL    HW116553   6.392   6.803   0.435
 5218SOL    HW216554   6.255   6.750   0.364
 5219SOL     OW16555   4.076   1.872   4.495
 5219SOL    HW116556   4.172   1.898   4.504
 5219SOL    HW216557   4.023   1.950   4.461
 5220SOL     OW16558   1.959   4.607   4.427
 5220SOL    HW116559   2.024   4.636   4.357
 5220SOL    HW216560   1.914   4.523   4.398
 5221SOL     OW16561   4.042   0.030   0.408
 5221SOL    HW116562   3.966   0.062   0.352
 5221SOL    HW216563   4.048   0.086   0.491
 5222SOL     OW16564   5.483   2.636   2.098
 5222SOL    HW116565   5.432   2.707   2.051
 5222SOL    HW216566   5.483   2.552   2.043
 5223SOL     OW16567   0.063   1.688   0.705
 5223SOL    HW116568   6.987   1.726   0.711
 5223SOL    HW216569   0.112   1.705   0.791
 5224SOL     OW16570   1.690   1.851   4.775
 5224SOL    HW116571   1.762   1.797   4.731
 5224SOL    HW216572   1.645   1.909   4.707
 5225SOL     OW16573   0.048   3.417   6.341
 5225SOL    HW116574   0.043   3.359   6.423
 5225SOL    HW216575   0.080   3.362   6.264
 5226SOL     OW16576   0.255   0.277   4.189
 5226SOL    HW116577   0.204   0.251   4.107
 5226SOL    HW216578   0.225   0.366   4.221
 5227SOL     OW16579   2.822   2.388   6.389
 5227SOL    HW116580   2.818   2.424   6.482
 5227SOL    HW216581   2.917   2.379   6.360
 5228SOL     OW16582   0.336   2.203   5.935
 5228SOL    HW116583   0.367   2.288   5.892
 5228SOL    HW216584   0.311   2.221   6.030
 5229SOL     OW16585   4.114   1.720   1.633
 5229SOL    HW116586   4.100   1.723   1.732
 5229SOL    HW216587   4.106   1.625   1.602
 5230SOL     OW16588   6.117   0.954   2.163
 5230SOL    HW116589   6.120   0.891   2.241
 5230SOL    HW216590   6.036   1.012   2.172
 5231SOL     OW16591   0.002   4.092   2.344
 5231SOL    HW116592   0.031   4.157   2.414
 5231SOL    HW216593   6.969   4.016   2.386
 5232SOL     OW16594   1.915   1.592   6.059
 5232SOL    HW116595   1.991   1.615   6.120
 5232SOL    HW216596   1.839   1.654   6.076
 5233SOL     OW16597   2.068   6.488   3.884
 5233SOL    HW116598   2.122   6.519   3.805
 5233SOL    HW216599   2.044   6.566   3.941
 5234SOL     OW16600   3.861   2.298   6.158
 5234SOL    HW116601   3.788   2.232   6.142
 5234SOL    HW216602   3.823   2.380   6.201
 5235SOL     OW16603   2.654   3.099   1.692
 5235SOL    HW116604   2.640   3.000   1.681
 5235SOL    HW216605   2.701   3.116   1.779
 5236SOL     OW16606   3.002   5.078   1.870
 5236SOL    HW116607   3.090   5.058   1.826
 5236SOL    HW216608   2.929   5.031   1.822
 5237SOL     OW16609   0.935   1.642   1.315
 5237SOL    HW116610   0.945   1.728   1.266
 5237SOL    HW216611   1.003   1.637   1.388
 5238SOL     OW16612   6.147   1.119   3.230
 5238SOL    HW116613   6.060   1.140   3.273
 5238SOL    HW216614   6.220   1.122   3.298
 5239SOL     OW16615   2.412   3.482   6.673
 5239SOL    HW116616   2.394   3.509   6.578
 5239SOL    HW216617   2.489   3.535   6.709
 5240SOL     OW16618   1.646   3.570   4.662
 5240SOL    HW116619   1.727   3.614   4.700
 5240SOL    HW216620   1.603   3.630   4.596
 5241SOL     OW16621   2.368   5.192   2.700
 5241SOL    HW116622   2.443   5.141   2.658
 5241SOL    HW216623   2.310   5.129   2.752
 5242SOL     OW16624   4.459   5.794   5.604
 5242SOL    HW116625   4.490   5.888   5.587
 5242SOL    HW216626   4.505   5.732   5.541
 5243SOL     OW16627   2.260   5.638   4.163
 5243SOL    HW116628   2.246   5.653   4.065
 5243SOL    HW216629   2.177   5.600   4.203
 5244SOL     OW16630   5.598   6.653   6.729
 5244SOL    HW116631   5.582   6.581   6.796
 5244SOL    HW216632   5.542   6.635   6.648
 5245SOL     OW16633   3.343   3.915   1.927
 5245SOL    HW116634   3.255   3.962   1.924
 5245SOL    HW216635   3.375   3.898   1.834
 5246SOL     OW16636   6.706   2.623   5.477
 5246SOL    HW116637   6.712   2.587   5.383
 5246SOL    HW216638   6.643   2.566   5.530
 5247SOL     OW16639   4.735   1.318   4.918
 5247SOL    HW116640   4.687   1.249   4.865
 5247SOL    HW216641   4.778   1.384   4.856
 5248SOL     OW16642   4.258   1.151   2.570
 5248SOL    HW116643   4.224   1.064   2.606
 5248SOL    HW216644   4.357   1.154   2.577
 5249SOL     OW16645   0.487   5.611   2.205
 5249SOL    HW116646   0.494   5.696   2.152
 5249SOL    HW216647   0.419   5.552   2.162
 5250SOL     OW16648   1.665   5.103   6.740
 5250SOL    HW116649   1.621   5.157   6.668
 5250SOL    HW216650   1.602   5.034   6.774
 5251SOL     OW16651   2.214   4.319   6.213
 5251SOL    HW116652   2.207   4.289   6.308
 5251SOL    HW216653   2.238   4.416   6.210
 5252SOL     OW16654   3.747   5.775   4.067
 5252SOL    HW116655   3.724   5.689   4.021
 5252SOL    HW216656   3.710   5.774   4.160
 5253SOL     OW16657   0.113   6.275   4.540
 5253SOL    HW116658   0.099   6.303   4.635
 5253SOL    HW216659   0.185   6.331   4.499
 5254SOL     OW16660   4.498   6.373   1.798
 5254SOL    HW116661   4.420   6.368   1.860
 5254SOL    HW216662   4.583   6.368   1.851
 5255SOL     OW16663   0.429   1.579   6.349
 5255SOL    HW116664   0.464   1.493   6.386
 5255SOL    HW216665   0.469   1.596   6.259
 5256SOL     OW16666   3.975   1.731   2.502
 5256SOL    HW116667   3.899   1.667   2.493
 5256SOL    HW216668   4.051   1.687   2.550
 5257SOL     OW16669   5.926   0.925   6.777
 5257SOL    HW116670   5.969   1.002   6.823
 5257SOL    HW216671   5.994   0.853   6.761
 5258SOL     OW16672   6.193   2.221   4.943
 5258SOL    HW116673   6.127   2.293   4.960
 5258SOL    HW216674   6.173   2.142   5.001
 5259SOL     OW16675   4.508   6.201   4.680
 5259SOL    HW116676   4.421   6.247   4.693
 5259SOL    HW216677   4.554   6.238   4.599
 5260SOL     OW16678   1.588   7.016   2.113
 5260SOL    HW116679   1.645   6.943   2.074
 5260SOL    HW216680   1.508   6.976   2.158
 5261SOL     OW16681   6.812   4.965   0.046
 5261SOL    HW116682   6.907   4.942   0.069
 5261SOL    HW216683   6.805   5.062   0.025
 5262SOL     OW16684   2.029   2.272   1.993
 5262SOL    HW116685   2.059   2.366   1.979
 5262SOL    HW216686   1.949   2.270   2.052
 5263SOL     OW16687   0.112   5.738   2.123
 5263SOL    HW116688   0.175   5.782   2.059
 5263SOL    HW216689   0.158   5.661   2.168
 5264SOL     OW16690   5.794   2.296   2.625
 5264SOL    HW116691   5.836   2.387   2.629
 5264SOL    HW216692   5.791   2.265   2.530
 5265SOL     OW16693   1.518   6.032   5.826
 5265SOL    HW116694   1.451   6.020   5.753
 5265SOL    HW216695   1.491   6.110   5.883
 5266SOL     OW16696   0.514   0.289   6.495
 5266SOL    HW116697   0.511   0.339   6.408
 5266SOL    HW216698   0.603   0.245   6.505
 5267SOL     OW16699   6.399   1.545   4.599
 5267SOL    HW116700   6.474   1.510   4.543
 5267SOL    HW216701   6.328   1.476   4.606
 5268SOL     OW16702   5.242   0.226   5.529
 5268SOL    HW116703   5.235   0.314   5.482
 5268SOL    HW216704   5.157   0.175   5.517
 5269SOL     OW16705   1.037   0.458   3.903
 5269SOL    HW116706   0.940   0.433   3.904
 5269SOL    HW216707   1.092   0.379   3.876
 5270SOL     OW16708   1.613   1.723   6.671
 5270SOL    HW116709   1.686   1.678   6.724
 5270SOL    HW216710   1.634   1.716   6.574
 5271SOL     OW16711   1.333   6.637   6.237
 5271SOL    HW116712   1.265   6.692   6.188
 5271SOL    HW216713   1.357   6.682   6.323
 5272SOL     OW16714   4.401   0.127   6.200
 5272SOL    HW116715   4.312   0.129   6.245
 5272SOL    HW216716   4.424   0.032   6.176
 5273SOL     OW16717   1.902   1.789   3.549
 5273SOL    HW116718   1.961   1.711   3.570
 5273SOL    HW216719   1.934   1.833   3.465
 5274SOL     OW16720   6.427   4.643   1.408
 5274SOL    HW116721   6.398   4.636   1.312
 5274SOL    HW216722   6.434   4.739   1.433
 5275SOL     OW16723   5.477   7.014   6.544
 5275SOL    HW116724   5.446   0.075   6.599
 5275SOL    HW216725   5.496   0.029   6.450
 5276SOL     OW16726   2.854   6.456   1.059
 5276SOL    HW116727   2.919   6.382   1.077
 5276SOL    HW216728   2.764   6.417   1.038
 5277SOL     OW16729   1.469   3.181   1.424
 5277SOL    HW116730   1.558   3.226   1.419
 5277SOL    HW216731   1.461   3.115   1.350
 5278SOL     OW16732   4.152   3.541   4.752
 5278SOL    HW116733   4.233   3.566   4.805
 5278SOL    HW216734   4.099   3.623   4.731
 5279SOL     OW16735   1.411   0.123   2.873
 5279SOL    HW116736   1.369   0.124   2.783
 5279SOL    HW216737   1.511   0.125   2.863
 5280SOL     OW16738   3.547   0.980   3.698
 5280SOL    HW116739   3.493   1.062   3.684
 5280SOL    HW216740   3.494   0.912   3.749
 5281SOL     OW16741   6.548   2.724   3.545
 5281SOL    HW116742   6.646   2.729   3.567
 5281SOL    HW216743   6.526   2.793   3.476
 5282SOL     OW16744   5.157   2.078   1.393
 5282SOL    HW116745   5.165   2.072   1.492
 5282SOL    HW216746   5.067   2.045   1.365
 5283SOL     OW16747   5.471   4.912   5.448
 5283SOL    HW116748   5.507   4.937   5.538
 5283SOL    HW216749   5.505   4.976   5.380
 5284SOL     OW16750   5.677   2.607   3.906
 5284SOL    HW116751   5.669   2.508   3.894
 5284SOL    HW216752   5.756   2.641   3.854
 5285SOL     OW16753   4.228   5.069   2.663
 5285SOL    HW116754   4.328   5.069   2.660
 5285SOL    HW216755   4.197   5.019   2.743
 5286SOL     OW16756   1.744   5.148   1.928
 5286SOL    HW116757   1.652   5.163   1.891
 5286SOL    HW216758   1.742   5.070   1.992
 5287SOL     OW16759   0.255   0.799   3.152
 5287SOL    HW116760   0.198   0.805   3.235
 5287SOL    HW216761   0.351   0.791   3.178
 5288SOL     OW16762   4.068   0.756   0.702
 5288SOL    HW116763   3.987   0.778   0.755
 5288SOL    HW216764   4.117   0.840   0.678
 5289SOL     OW16765   1.749   0.118   1.626
 5289SOL    HW116766   1.714   0.047   1.564
 5289SOL    HW216767   1.690   0.124   1.706
 5290SOL     OW16768   5.311   6.695   6.855
 5290SOL    HW116769   5.258   6.750   6.919
 5290SOL    HW216770   5.355   6.619   6.903
 5291SOL     OW16771   0.931   5.130   0.665
 5291SOL    HW116772   1.016   5.139   0.717
 5291SOL    HW216773   0.854   5.121   0.728
 5292SOL     OW16774   5.388   1.242   1.615
 5292SOL    HW116775   5.472   1.290   1.642
 5292SOL    HW216776   5.389   1.225   1.517
 5293SOL     OW16777   1.894   1.267   3.754
 5293SOL    HW116778   1.869   1.248   3.849
 5293SOL    HW216779   1.875   1.363   3.733
 5294SOL     OW16780   3.491   2.171   6.898
 5294SOL    HW116781   3.591   2.179   6.899
 5294SOL    HW216782   3.463   2.095   6.957
 5295SOL     OW16783   6.976   1.956   3.649
 5295SOL    HW116784   7.002   1.909   3.734
 5295SOL    HW216785   6.934   1.891   3.586
 5296SOL     OW16786   0.294   4.045   6.305
 5296SOL    HW116787   0.204   4.004   6.294
 5296SOL    HW216788   0.285   4.138   6.341
 5297SOL     OW16789   1.319   2.412   1.938
 5297SOL    HW116790   1.407   2.378   1.969
 5297SOL    HW216791   1.247   2.375   1.997
 5298SOL     OW16792   1.106   3.464   2.339
 5298SOL    HW116793   1.167   3.404   2.288
 5298SOL    HW216794   1.061   3.526   2.276
 5299SOL     OW16795   3.696   0.595   6.873
 5299SOL    HW116796   3.771   0.594   6.807
 5299SOL    HW216797   3.700   0.512   6.929
 5300SOL     OW16798   6.748   4.692   4.372
 5300SOL    HW116799   6.675   4.629   4.399
 5300SOL    HW216800   6.754   4.694   4.272
 5301SOL     OW16801   5.743   6.862   6.200
 5301SOL    HW116802   5.646   6.852   6.180
 5301SOL    HW216803   5.792   6.887   6.116
 5302SOL     OW16804   0.123   3.557   2.896
 5302SOL    HW116805   0.081   3.598   2.815
 5302SOL    HW216806   0.216   3.591   2.907
 5303SOL     OW16807   2.540   5.088   1.834
 5303SOL    HW116808   2.540   4.995   1.869
 5303SOL    HW216809   2.607   5.143   1.883
 5304SOL     OW16810   5.532   1.775   5.931
 5304SOL    HW116811   5.585   1.843   5.981
 5304SOL    HW216812   5.572   1.685   5.946
 5305SOL     OW16813   3.886   1.788   5.098
 5305SOL    HW116814   3.830   1.846   5.039
 5305SOL    HW216815   3.922   1.711   5.045
 5306SOL     OW16816   2.288   6.457   4.094
 5306SOL    HW116817   2.335   6.495   4.174
 5306SOL    HW216818   2.226   6.526   4.056
 5307SOL     OW16819   4.831   6.529   6.323
 5307SOL    HW116820   4.828   6.482   6.235
 5307SOL    HW216821   4.813   6.463   6.396
 5308SOL     OW16822   6.483   1.615   1.020
 5308SOL    HW116823   6.532   1.686   1.069
 5308SOL    HW216824   6.398   1.594   1.069
 5309SOL     OW16825   3.455   4.454   6.395
 5309SOL    HW116826   3.480   4.396   6.317
 5309SOL    HW216827   3.449   4.549   6.365
 5310SOL     OW16828   5.483   2.676   0.235
 5310SOL    HW116829   5.505   2.770   0.210
 5310SOL    HW216830   5.387   2.670   0.261
 5311SOL     OW16831   6.926   5.414   0.162
 5311SOL    HW116832   6.907   5.510   0.185
 5311SOL    HW216833   6.974   5.370   0.238
 5312SOL     OW16834   0.722   4.260   2.242
 5312SOL    HW116835   0.639   4.206   2.231
 5312SOL    HW216836   0.785   4.241   2.166
 5313SOL     OW16837   0.646   6.210   6.055
 5313SOL    HW116838   0.660   6.142   6.127
 5313SOL    HW216839   0.629   6.164   5.968
 5314SOL     OW16840   5.023   4.495   0.975
 5314SOL    HW116841   5.074   4.474   0.892
 5314SOL    HW216842   4.946   4.432   0.983
 5315SOL     OW16843   5.460   0.112   3.020
 5315SOL    HW116844   5.549   0.136   3.059
 5315SOL    HW216845   5.417   0.195   2.984
 5316SOL     OW16846   5.463   5.213   5.119
 5316SOL    HW116847   5.387   5.273   5.094
 5316SOL    HW216848   5.538   5.226   5.054
 5317SOL     OW16849   0.365   4.837   1.466
 5317SOL    HW116850   0.381   4.814   1.562
 5317SOL    HW216851   0.322   4.759   1.420
 5318SOL     OW16852   6.794   2.674   3.670
 5318SOL    HW116853   6.783   2.704   3.765
 5318SOL    HW216854   6.876   2.716   3.631
 5319SOL     OW16855   2.998   6.127   2.517
 5319SOL    HW116856   2.915   6.097   2.469
 5319SOL    HW216857   2.976   6.203   2.578
 5320SOL     OW16858   6.997   2.093   0.550
 5320SOL    HW116859   0.015   2.015   0.497
 5320SOL    HW216860   6.987   2.067   0.646
 5321SOL     OW16861   2.578   5.254   0.151
 5321SOL    HW116862   2.584   5.230   0.054
 5321SOL    HW216863   2.640   5.196   0.203
 5322SOL     OW16864   2.893   6.368   0.084
 5322SOL    HW116865   2.934   6.443   0.135
 5322SOL    HW216866   2.933   6.281   0.113
 5323SOL     OW16867   6.960   3.550   0.154
 5323SOL    HW116868   6.968   3.547   0.254
 5323SOL    HW216869   6.956   3.456   0.119
 5324SOL     OW16870   4.154   3.285   2.262
 5324SOL    HW116871   4.153   3.384   2.248
 5324SOL    HW216872   4.238   3.246   2.224
 5325SOL     OW16873   2.910   6.902   5.311
 5325SOL    HW116874   2.960   6.922   5.227
 5325SOL    HW216875   2.833   6.842   5.291
 5326SOL     OW16876   5.762   0.769   4.124
 5326SOL    HW116877   5.819   0.688   4.141
 5326SOL    HW216878   5.672   0.755   4.165
 5327SOL     OW16879   6.322   6.679   3.946
 5327SOL    HW116880   6.288   6.621   3.872
 5327SOL    HW216881   6.331   6.773   3.913
 5328SOL     OW16882   2.538   5.196   5.772
 5328SOL    HW116883   2.457   5.181   5.715
 5328SOL    HW216884   2.584   5.279   5.743
 5329SOL     OW16885   0.664   6.988   5.967
 5329SOL    HW116886   0.738   6.960   6.027
 5329SOL    HW216887   0.577   6.954   6.002
 5330SOL     OW16888   4.950   3.737   6.951
 5330SOL    HW116889   4.881   3.712   0.003
 5330SOL    HW216890   4.969   3.658   6.893
 5331SOL     OW16891   6.100   0.600   0.124
 5331SOL    HW116892   6.107   0.509   0.081
 5331SOL    HW216893   6.032   0.654   0.075
 5332SOL     OW16894   0.536   3.133   6.745
 5332SOL    HW116895   0.458   3.191   6.767
 5332SOL    HW216896   0.553   3.069   6.821
 5333SOL     OW16897   0.303   6.807   4.193
 5333SOL    HW116898   0.332   6.885   4.248
 5333SOL    HW216899   0.259   6.739   4.251
 5334SOL     OW16900   3.354   6.193   0.674
 5334SOL    HW116901   3.282   6.152   0.730
 5334SOL    HW216902   3.441   6.148   0.693
 5335SOL     OW16903   6.434   4.955   1.734
 5335SOL    HW116904   6.369   4.898   1.785
 5335SOL    HW216905   6.487   5.011   1.798
 5336SOL     OW16906   1.631   3.143   5.692
 5336SOL    HW116907   1.627   3.157   5.791
 5336SOL    HW216908   1.726   3.148   5.662
 5337SOL     OW16909   6.645   2.355   1.000
 5337SOL    HW116910   6.565   2.387   0.948
 5337SOL    HW216911   6.645   2.399   1.090
 5338SOL     OW16912   6.476   2.063   1.812
 5338SOL    HW116913   6.544   2.136   1.799
 5338SOL    HW216914   6.443   2.032   1.723
 5339SOL     OW16915   4.843   3.979   2.217
 5339SOL    HW116916   4.851   4.029   2.303
 5339SOL    HW216917   4.827   4.043   2.142
 5340SOL     OW16918   5.494   3.390   0.984
 5340SOL    HW116919   5.475   3.331   0.906
 5340SOL    HW216920   5.587   3.373   1.018
 5341SOL     OW16921   4.496   4.742   3.457
 5341SOL    HW116922   4.475   4.807   3.384
 5341SOL    HW216923   4.467   4.650   3.429
 5342SOL     OW16924   5.779   5.102   4.584
 5342SOL    HW116925   5.716   5.170   4.547
 5342SOL    HW216926   5.857   5.091   4.522
 5343SOL     OW16927   3.792   3.670   0.668
 5343SOL    HW116928   3.774   3.591   0.609
 5343SOL    HW216929   3.888   3.697   0.658
 5344SOL     OW16930   6.708   1.873   6.863
 5344SOL    HW116931   6.675   1.966   6.877
 5344SOL    HW216932   6.714   1.826   6.951
 5345SOL     OW16933   3.606   0.812   6.647
 5345SOL    HW116934   3.539   0.742   6.623
 5345SOL    HW216935   3.570   0.870   6.720
 5346SOL     OW16936   2.767   6.153   3.115
 5346SOL    HW116937   2.801   6.126   3.025
 5346SOL    HW216938   2.750   6.071   3.170
 5347SOL     OW16939   5.927   2.555   5.444
 5347SOL    HW116940   5.982   2.638   5.440
 5347SOL    HW216941   5.980   2.482   5.487
 5348SOL     OW16942   5.520   2.895   4.834
 5348SOL    HW116943   5.521   2.935   4.743
 5348SOL    HW216944   5.600   2.924   4.885
 5349SOL     OW16945   0.871   4.083   0.624
 5349SOL    HW116946   0.777   4.105   0.599
 5349SOL    HW216947   0.931   4.158   0.598
 5350SOL     OW16948   1.526   0.315   6.374
 5350SOL    HW116949   1.515   0.409   6.342
 5350SOL    HW216950   1.532   0.314   6.474
 5351SOL     OW16951   0.682   6.182   2.971
 5351SOL    HW116952   0.669   6.154   3.066
 5351SOL    HW216953   0.627   6.264   2.953
 5352SOL     OW16954   0.186   2.806   6.172
 5352SOL    HW116955   0.229   2.887   6.213
 5352SOL    HW216956   0.137   2.755   6.242
 5353SOL     OW16957   2.204   6.450   2.945
 5353SOL    HW116958   2.175   6.466   3.040
 5353SOL    HW216959   2.172   6.360   2.916
 5354SOL     OW16960   2.167   6.560   1.717
 5354SOL    HW116961   2.148   6.509   1.633
 5354SOL    HW216962   2.105   6.637   1.724
 5355SOL     OW16963   4.601   4.262   5.437
 5355SOL    HW116964   4.672   4.237   5.372
 5355SOL    HW216965   4.546   4.182   5.460
 5356SOL     OW16966   6.563   6.858   1.143
 5356SOL    HW116967   6.628   6.852   1.219
 5356SOL    HW216968   6.609   6.895   1.062
 5357SOL     OW16969   6.665   3.170   2.433
 5357SOL    HW116970   6.725   3.104   2.387
 5357SOL    HW216971   6.704   3.262   2.424
 5358SOL     OW16972   5.336   6.765   5.624
 5358SOL    HW116973   5.239   6.739   5.633
 5358SOL    HW216974   5.344   6.842   5.561
 5359SOL     OW16975   3.562   1.934   6.711
 5359SOL    HW116976   3.641   1.877   6.688
 5359SOL    HW216977   3.522   1.903   6.797
 5360SOL     OW16978   5.189   5.746   2.535
 5360SOL    HW116979   5.133   5.761   2.453
 5360SOL    HW216980   5.158   5.663   2.582
 5361SOL     OW16981   1.093   4.233   2.621
 5361SOL    HW116982   1.148   4.310   2.589
 5361SOL    HW216983   1.005   4.233   2.573
 5362SOL     OW16984   5.722   1.592   3.993
 5362SOL    HW116985   5.808   1.641   3.980
 5362SOL    HW216986   5.665   1.600   3.911
 5363SOL     OW16987   6.321   3.986   6.340
 5363SOL    HW116988   6.234   3.948   6.372
 5363SOL    HW216989   6.346   3.946   6.252
 5364SOL     OW16990   5.042   2.209   1.994
 5364SOL    HW116991   5.040   2.283   2.061
 5364SOL    HW216992   5.003   2.126   2.035
 5365SOL     OW16993   3.362   2.743   6.310
 5365SOL    HW116994   3.295   2.812   6.336
 5365SOL    HW216995   3.335   2.702   6.223
 5366SOL     OW16996   0.074   4.426   3.843
 5366SOL    HW116997   0.071   4.509   3.899
 5366SOL    HW216998   0.060   4.451   3.747
 5367SOL     OW16999   6.295   5.334   1.054
 5367SOL    HW117000   6.392   5.316   1.070
 5367SOL    HW217001   6.246   5.328   1.141
 5368SOL     OW17002   6.790   5.998   4.942
 5368SOL    HW117003   6.795   6.029   5.037
 5368SOL    HW217004   6.832   6.067   4.882
 5369SOL     OW17005   3.628   0.831   2.255
 5369SOL    HW117006   3.553   0.800   2.313
 5369SOL    HW217007   3.611   0.804   2.161
 5370SOL     OW17008   2.418   2.090   0.111
 5370SOL    HW117009   2.512   2.087   0.075
 5370SOL    HW217010   2.366   2.159   0.062
 5371SOL     OW17011   6.095   5.192   2.815
 5371SOL    HW117012   6.139   5.272   2.857
 5371SOL    HW217013   6.043   5.143   2.885
 5372SOL     OW17014   1.266   1.139   4.256
 5372SOL    HW117015   1.207   1.178   4.327
 5372SOL    HW217016   1.243   1.042   4.243
 5373SOL     OW17017   4.243   6.778   1.111
 5373SOL    HW117018   4.245   6.756   1.014
 5373SOL    HW217019   4.214   6.697   1.163
 5374SOL     OW17020   1.897   3.482   1.247
 5374SOL    HW117021   1.960   3.534   1.305
 5374SOL    HW217022   1.947   3.444   1.169
 5375SOL     OW17023   2.803   4.845   5.112
 5375SOL    HW117024   2.900   4.868   5.097
 5375SOL    HW217025   2.787   4.750   5.086
 5376SOL     OW17026   6.548   6.643   2.253
 5376SOL    HW117027   6.509   6.685   2.171
 5376SOL    HW217028   6.503   6.555   2.269
 5377SOL     OW17029   0.548   3.099   1.325
 5377SOL    HW117030   0.620   3.073   1.390
 5377SOL    HW217031   0.528   3.196   1.336
 5378SOL     OW17032   4.839   0.745   4.893
 5378SOL    HW117033   4.774   0.754   4.818
 5378SOL    HW217034   4.892   0.661   4.883
 5379SOL     OW17035   3.572   2.129   4.174
 5379SOL    HW117036   3.671   2.133   4.159
 5379SOL    HW217037   3.554   2.123   4.272
 5380SOL     OW17038   4.668   0.028   1.564
 5380SOL    HW117039   4.734   7.013   1.633
 5380SOL    HW217040   4.585   6.989   1.571
 5381SOL     OW17041   2.824   1.935   2.446
 5381SOL    HW117042   2.822   2.024   2.401
 5381SOL    HW217043   2.731   1.911   2.474
 5382SOL     OW17044   3.618   6.989   2.745
 5382SOL    HW117045   3.527   6.966   2.710
 5382SOL    HW217046   3.682   6.916   2.724
 5383SOL     OW17047   2.047   4.449   5.500
 5383SOL    HW117048   2.022   4.465   5.596
 5383SOL    HW217049   2.109   4.371   5.495
 5384SOL     OW17050   4.945   6.003   5.806
 5384SOL    HW117051   4.914   5.938   5.736
 5384SOL    HW217052   4.922   6.096   5.777
 5385SOL     OW17053   3.859   3.965   0.727
 5385SOL    HW117054   3.955   3.940   0.742
 5385SOL    HW217055   3.837   3.954   0.630
 5386SOL     OW17056   3.752   5.505   3.092
 5386SOL    HW117057   3.709   5.455   3.017
 5386SOL    HW217058   3.816   5.445   3.139
 5387SOL     OW17059   1.109   2.498   5.504
 5387SOL    HW117060   1.102   2.405   5.467
 5387SOL    HW217061   1.033   2.514   5.567
 5388SOL     OW17062   6.521   6.297   2.970
 5388SOL    HW117063   6.484   6.230   3.033
 5388SOL    HW217064   6.590   6.253   2.911
 5389SOL     OW17065   6.825   1.945   4.641
 5389SOL    HW117066   6.812   1.978   4.735
 5389SOL    HW217067   6.755   1.877   4.620
 5390SOL     OW17068   5.747   2.190   3.328
 5390SOL    HW117069   5.692   2.209   3.247
 5390SOL    HW217070   5.761   2.092   3.337
 5391SOL     OW17071   5.007   3.250   0.514
 5391SOL    HW117072   4.976   3.314   0.585
 5391SOL    HW217073   4.930   3.196   0.481
 5392SOL     OW17074   5.017   1.072   3.662
 5392SOL    HW117075   5.090   1.131   3.698
 5392SOL    HW217076   4.935   1.083   3.718
 5393SOL     OW17077   4.776   2.910   2.686
 5393SOL    HW117078   4.802   3.003   2.661
 5393SOL    HW217079   4.856   2.862   2.724
 5394SOL     OW17080   0.787   3.644   3.443
 5394SOL    HW117081   0.793   3.575   3.515
 5394SOL    HW217082   0.772   3.599   3.355
 5395SOL     OW17083   0.678   0.540   1.685
 5395SOL    HW117084   0.692   0.482   1.605
 5395SOL    HW217085   0.753   0.527   1.749
 5396SOL     OW17086   3.398   2.038   0.107
 5396SOL    HW117087   3.470   2.040   0.177
 5396SOL    HW217088   3.336   1.962   0.125
 5397SOL     OW17089   0.134   6.858   2.989
 5397SOL    HW117090   0.212   6.849   2.928
 5397SOL    HW217091   0.131   6.780   3.052
 5398SOL     OW17092   5.936   2.434   3.319
 5398SOL    HW117093   5.861   2.368   3.320
 5398SOL    HW217094   5.992   2.423   3.400
 5399SOL     OW17095   2.827   2.473   0.072
 5399SOL    HW117096   2.832   2.413   7.008
 5399SOL    HW217097   2.776   2.428   0.144
 5400SOL     OW17098   4.306   2.973   1.009
 5400SOL    HW117099   4.243   3.050   1.003
 5400SOL    HW217100   4.352   2.960   0.921
 5401SOL     OW17101   4.902   3.748   1.434
 5401SOL    HW117102   4.912   3.847   1.423
 5401SOL    HW217103   4.967   3.701   1.375
 5402SOL     OW17104   2.037   5.655   1.254
 5402SOL    HW117105   2.062   5.716   1.330
 5402SOL    HW217106   2.105   5.583   1.245
 5403SOL     OW17107   6.379   2.799   5.310
 5403SOL    HW117108   6.467   2.822   5.268
 5403SOL    HW217109   6.381   2.704   5.341
 5404SOL     OW17110   4.271   6.459   0.039
 5404SOL    HW117111   4.184   6.496   0.007
 5404SOL    HW217112   4.276   6.466   0.139
 5405SOL     OW17113   5.894   5.197   6.361
 5405SOL    HW117114   5.825   5.234   6.298
 5405SOL    HW217115   5.974   5.257   6.361
 5406SOL     OW17116   1.994   1.698   4.898
 5406SOL    HW117117   1.918   1.722   4.959
 5406SOL    HW217118   2.039   1.782   4.867
 5407SOL     OW17119   2.010   2.161   2.411
 5407SOL    HW117120   2.058   2.248   2.428
 5407SOL    HW217121   2.073   2.096   2.369
 5408SOL     OW17122   2.584   2.246   4.001
 5408SOL    HW117123   2.657   2.233   4.068
 5408SOL    HW217124   2.496   2.250   4.048
 5409SOL     OW17125   7.000   4.447   3.584
 5409SOL    HW117126   6.949   4.510   3.642
 5409SOL    HW217127   6.970   4.457   3.489
 5410SOL     OW17128   6.211   1.227   0.155
 5410SOL    HW117129   6.285   1.166   0.180
 5410SOL    HW217130   6.247   1.319   0.139
 5411SOL     OW17131   2.821   6.476   1.959
 5411SOL    HW117132   2.758   6.426   1.900
 5411SOL    HW217133   2.842   6.565   1.918
 5412SOL     OW17134   2.678   2.668   5.587
 5412SOL    HW117135   2.582   2.641   5.581
 5412SOL    HW217136   2.694   2.717   5.673
 5413SOL     OW17137   6.695   5.334   5.502
 5413SOL    HW117138   6.720   5.294   5.414
 5413SOL    HW217139   6.697   5.263   5.573
 5414SOL     OW17140   5.997   5.707   5.687
 5414SOL    HW117141   6.083   5.667   5.657
 5414SOL    HW217142   5.974   5.671   5.778
 5415SOL     OW17143   2.258   0.144   0.045
 5415SOL    HW117144   2.339   0.118   7.009
 5415SOL    HW217145   2.268   0.238   0.078
 5416SOL     OW17146   4.386   4.986   5.936
 5416SOL    HW117147   4.290   4.978   5.962
 5416SOL    HW217148   4.417   5.080   5.951
 5417SOL     OW17149   4.821   0.416   2.403
 5417SOL    HW117150   4.733   0.463   2.407
 5417SOL    HW217151   4.809   0.325   2.362
 5418SOL     OW17152   6.901   3.135   6.156
 5418SOL    HW117153   6.984   3.171   6.114
 5418SOL    HW217154   6.922   3.102   6.248
 5419SOL     OW17155   4.236   2.442   6.052
 5419SOL    HW117156   4.311   2.416   5.991
 5419SOL    HW217157   4.152   2.396   6.023
 5420SOL     OW17158   1.317   1.520   0.935
 5420SOL    HW117159   1.291   1.471   1.019
 5420SOL    HW217160   1.256   1.598   0.922
 5421SOL     OW17161   3.613   5.530   1.020
 5421SOL    HW117162   3.532   5.532   0.961
 5421SOL    HW217163   3.667   5.448   1.001
 5422SOL     OW17164   2.257   0.151   3.667
 5422SOL    HW117165   2.218   0.243   3.666
 5422SOL    HW217166   2.197   0.088   3.617
 5423SOL     OW17167   4.088   6.122   3.128
 5423SOL    HW117168   4.138   6.040   3.100
 5423SOL    HW217169   3.991   6.101   3.136
 5424SOL     OW17170   4.311   2.959   5.678
 5424SOL    HW117171   4.290   3.001   5.766
 5424SOL    HW217172   4.386   3.009   5.635
 5425SOL     OW17173   1.819   5.302   4.382
 5425SOL    HW117174   1.768   5.388   4.378
 5425SOL    HW217175   1.837   5.278   4.477
 5426SOL     OW17176   1.202   3.532   6.983
 5426SOL    HW117177   1.235   3.501   0.055
 5426SOL    HW217178   1.207   3.458   6.916
 5427SOL     OW17179   4.868   1.708   0.216
 5427SOL    HW117180   4.780   1.745   0.185
 5427SOL    HW217181   4.871   1.610   0.199
 5428SOL     OW17182   5.032   5.756   2.311
 5428SOL    HW117183   4.971   5.678   2.323
 5428SOL    HW217184   5.036   5.780   2.214
 5429SOL     OW17185   2.824   6.646   3.101
 5429SOL    HW117186   2.896   6.684   3.043
 5429SOL    HW217187   2.753   6.606   3.044
 5430SOL     OW17188   0.967   3.608   5.495
 5430SOL    HW117189   0.971   3.618   5.395
 5430SOL    HW217190   1.055   3.632   5.534
 5431SOL     OW17191   5.103   4.092   1.166
 5431SOL    HW117192   5.126   4.187   1.186
 5431SOL    HW217193   5.071   4.085   1.071
 5432SOL     OW17194   1.533   5.340   5.391
 5432SOL    HW117195   1.609   5.300   5.442
 5432SOL    HW217196   1.447   5.325   5.440
 5433SOL     OW17197   3.447   6.924   2.156
 5433SOL    HW117198   3.471   0.004   2.161
 5433SOL    HW217199   3.530   6.868   2.164
 5434SOL     OW17200   5.206   6.320   4.321
 5434SOL    HW117201   5.108   6.339   4.322
 5434SOL    HW217202   5.255   6.398   4.283
 5435SOL     OW17203   1.181   3.019   6.884
 5435SOL    HW117204   1.130   2.938   6.858
 5435SOL    HW217205   1.171   3.036   6.983
 5436SOL     OW17206   1.193   4.087   0.918
 5436SOL    HW117207   1.151   4.163   0.869
 5436SOL    HW217208   1.175   4.002   0.869
 5437SOL     OW17209   2.979   0.143   5.427
 5437SOL    HW117210   2.953   0.135   5.523
 5437SOL    HW217211   2.983   0.051   5.386
 5438SOL     OW17212   4.361   6.707   3.912
 5438SOL    HW117213   4.381   6.722   4.009
 5438SOL    HW217214   4.393   6.616   3.885
 5439SOL     OW17215   1.607   3.706   2.033
 5439SOL    HW117216   1.679   3.773   2.053
 5439SOL    HW217217   1.518   3.748   2.050
 5440SOL     OW17218   5.252   6.184   2.804
 5440SOL    HW117219   5.185   6.115   2.776
 5440SOL    HW217220   5.262   6.183   2.903
 5441SOL     OW17221   5.916   0.172   5.141
 5441SOL    HW117222   5.824   0.135   5.155
 5441SOL    HW217223   5.939   0.168   5.044
 5442SOL     OW17224   2.557   6.052   0.033
 5442SOL    HW117225   2.538   6.148   0.056
 5442SOL    HW217226   2.652   6.031   0.055
 5443SOL     OW17227   5.642   1.326   3.019
 5443SOL    HW117228   5.583   1.325   3.100
 5443SOL    HW217229   5.586   1.316   2.937
 5444SOL     OW17230   2.389   1.586   6.221
 5444SOL    HW117231   2.423   1.585   6.315
 5444SOL    HW217232   2.389   1.492   6.185
 5445SOL     OW17233   0.223   5.803   5.602
 5445SOL    HW117234   0.241   5.816   5.699
 5445SOL    HW217235   0.307   5.774   5.556
 5446SOL     OW17236   2.229   4.040   0.277
 5446SOL    HW117237   2.323   4.042   0.311
 5446SOL    HW217238   2.191   4.133   0.280
 5447SOL     OW17239   5.173   2.560   1.601
 5447SOL    HW117240   5.209   2.612   1.678
 5447SOL    HW217241   5.230   2.479   1.585
 5448SOL     OW17242   5.982   5.761   0.886
 5448SOL    HW117243   6.053   5.768   0.816
 5448SOL    HW217244   5.929   5.845   0.889
 5449SOL     OW17245   2.020   7.012   2.328
 5449SOL    HW117246   2.028   6.913   2.319
 5449SOL    HW217247   1.935   0.027   2.284
 5450SOL     OW17248   4.367   4.572   1.881
 5450SOL    HW117249   4.344   4.569   1.784
 5450SOL    HW217250   4.384   4.479   1.914
 5451SOL     OW17251   0.253   5.727   3.425
 5451SOL    HW117252   0.305   5.681   3.353
 5451SOL    HW217253   0.254   5.671   3.508
 5452SOL     OW17254   2.330   4.178   3.764
 5452SOL    HW117255   2.239   4.162   3.726
 5452SOL    HW217256   2.363   4.267   3.734
 5453SOL     OW17257   6.110   4.742   4.604
 5453SOL    HW117258   6.027   4.722   4.655
 5453SOL    HW217259   6.112   4.839   4.579
 5454SOL     OW17260   6.632   3.851   2.611
 5454SOL    HW117261   6.692   3.891   2.681
 5454SOL    HW217262   6.540   3.838   2.650
 5455SOL     OW17263   1.703   2.028   2.851
 5455SOL    HW117264   1.741   2.041   2.759
 5455SOL    HW217265   1.603   2.024   2.845
 5456SOL     OW17266   6.057   2.883   0.041
 5456SOL    HW117267   6.107   2.866   0.126
 5456SOL    HW217268   6.095   2.827   6.984
 5457SOL     OW17269   5.864   0.723   0.500
 5457SOL    HW117270   5.811   0.641   0.478
 5457SOL    HW217271   5.802   0.796   0.530
 5458SOL     OW17272   6.080   4.260   6.480
 5458SOL    HW117273   6.143   4.328   6.444
 5458SOL    HW217274   6.130   4.192   6.534
 5459SOL     OW17275   2.100   3.440   4.988
 5459SOL    HW117276   2.055   3.438   4.899
 5459SOL    HW217277   2.031   3.453   5.060
 5460SOL     OW17278   6.713   1.491   0.951
 5460SOL    HW117279   6.704   1.465   0.855
 5460SOL    HW217280   6.623   1.510   0.990
 5461SOL     OW17281   5.619   0.346   5.748
 5461SOL    HW117282   5.579   0.429   5.788
 5461SOL    HW217283   5.548   0.290   5.708
 5462SOL     OW17284   5.633   5.059   0.535
 5462SOL    HW117285   5.613   4.981   0.477
 5462SOL    HW217286   5.716   5.041   0.588
 5463SOL     OW17287   3.131   4.960   0.096
 5463SOL    HW117288   3.222   4.994   0.075
 5463SOL    HW217289   3.071   5.037   0.120
 5464SOL     OW17290   2.435   5.546   4.360
 5464SOL    HW117291   2.373   5.557   4.282
 5464SOL    HW217292   2.530   5.544   4.328
 5465SOL     OW17293   0.276   1.719   4.878
 5465SOL    HW117294   0.190   1.670   4.863
 5465SOL    HW217295   0.350   1.653   4.891
 5466SOL     OW17296   5.725   2.326   4.879
 5466SOL    HW117297   5.796   2.351   4.945
 5466SOL    HW217298   5.655   2.397   4.877
 5467SOL     OW17299   4.484   4.501   3.082
 5467SOL    HW117300   4.438   4.521   2.996
 5467SOL    HW217301   4.577   4.467   3.063
 5468SOL     OW17302   0.089   2.707   1.542
 5468SOL    HW117303   0.153   2.632   1.524
 5468SOL    HW217304   0.089   2.770   1.464
 5469SOL     OW17305   4.453   0.510   3.045
 5469SOL    HW117306   4.356   0.500   3.064
 5469SOL    HW217307   4.479   0.606   3.055
 5470SOL     OW17308   2.839   4.831   2.939
 5470SOL    HW117309   2.783   4.752   2.917
 5470SOL    HW217310   2.883   4.817   3.028
 5471SOL     OW17311   5.329   1.053   3.617
 5471SOL    HW117312   5.333   0.957   3.590
 5471SOL    HW217313   5.414   1.099   3.592
 5472SOL     OW17314   2.611   4.850   0.903
 5472SOL    HW117315   2.679   4.814   0.838
 5472SOL    HW217316   2.531   4.789   0.904
 5473SOL     OW17317   3.075   4.758   2.008
 5473SOL    HW117318   2.978   4.736   2.002
 5473SOL    HW217319   3.101   4.772   2.103
 5474SOL     OW17320   1.169   5.442   1.603
 5474SOL    HW117321   1.160   5.529   1.556
 5474SOL    HW217322   1.222   5.455   1.688
 5475SOL     OW17323   0.145   1.126   5.051
 5475SOL    HW117324   0.142   1.039   5.002
 5475SOL    HW217325   0.222   1.180   5.018
 5476SOL     OW17326   3.032   1.252   4.376
 5476SOL    HW117327   3.024   1.347   4.346
 5476SOL    HW217328   2.946   1.204   4.360
 5477SOL     OW17329   2.034   4.266   2.776
 5477SOL    HW117330   1.951   4.212   2.768
 5477SOL    HW217331   2.053   4.312   2.690
 5478SOL     OW17332   6.562   3.336   5.510
 5478SOL    HW117333   6.549   3.269   5.437
 5478SOL    HW217334   6.491   3.325   5.579
 5479SOL     OW17335   5.294   4.316   4.747
 5479SOL    HW117336   5.336   4.243   4.800
 5479SOL    HW217337   5.211   4.282   4.703
 5480SOL     OW17338   2.613   2.284   6.259
 5480SOL    HW117339   2.696   2.314   6.306
 5480SOL    HW217340   2.637   2.214   6.192
 5481SOL     OW17341   3.366   0.435   0.988
 5481SOL    HW117342   3.399   0.489   1.066
 5481SOL    HW217343   3.423   0.354   0.978
 5482SOL     OW17344   5.479   4.548   2.502
 5482SOL    HW117345   5.454   4.451   2.513
 5482SOL    HW217346   5.506   4.564   2.407
 5483SOL     OW17347   6.098   1.668   0.997
 5483SOL    HW117348   6.131   1.704   0.910
 5483SOL    HW217349   6.162   1.599   1.031
 5484SOL     OW17350   5.812   0.003   5.714
 5484SOL    HW117351   5.827   0.094   5.676
 5484SOL    HW217352   5.844   6.950   5.648
 5485SOL     OW17353   2.515   1.436   3.874
 5485SOL    HW117354   2.552   1.392   3.792
 5485SOL    HW217355   2.528   1.535   3.867
 5486SOL     OW17356   6.378   1.503   3.685
 5486SOL    HW117357   6.338   1.464   3.768
 5486SOL    HW217358   6.318   1.574   3.649
 5487SOL     OW17359   4.213   5.903   1.548
 5487SOL    HW117360   4.237   5.841   1.474
 5487SOL    HW217361   4.193   5.993   1.511
 5488SOL     OW17362   4.746   6.997   6.375
 5488SOL    HW117363   4.731   6.920   6.313
 5488SOL    HW217364   4.720   6.971   6.468
 5489SOL     OW17365   6.702   2.948   2.720
 5489SOL    HW117366   6.619   2.952   2.775
 5489SOL    HW217367   6.712   3.033   2.668
 5490SOL     OW17368   2.878   1.194   6.749
 5490SOL    HW117369   2.974   1.205   6.772
 5490SOL    HW217370   2.844   1.106   6.783
 5491SOL     OW17371   5.914   6.799   1.539
 5491SOL    HW117372   5.873   6.871   1.595
 5491SOL    HW217373   5.845   6.759   1.479
 5492SOL     OW17374   1.644   1.321   5.549
 5492SOL    HW117375   1.551   1.355   5.553
 5492SOL    HW217376   1.703   1.390   5.506
 5493SOL     OW17377   3.894   1.079   6.626
 5493SOL    HW117378   3.804   1.080   6.582
 5493SOL    HW217379   3.902   0.998   6.683
 5494SOL     OW17380   5.783   3.039   2.500
 5494SOL    HW117381   5.689   3.029   2.468
 5494SOL    HW217382   5.794   2.991   2.587
 5495SOL     OW17383   3.580   3.290   4.980
 5495SOL    HW117384   3.528   3.290   5.066
 5495SOL    HW217385   3.562   3.205   4.931
 5496SOL     OW17386   4.630   4.919   2.083
 5496SOL    HW117387   4.612   4.824   2.110
 5496SOL    HW217388   4.589   4.936   1.994
 5497SOL     OW17389   5.427   6.532   0.143
 5497SOL    HW117390   5.354   6.588   0.183
 5497SOL    HW217391   5.515   6.575   0.161
 5498SOL     OW17392   3.938   0.858   3.508
 5498SOL    HW117393   4.006   0.918   3.550
 5498SOL    HW217394   3.984   0.793   3.448
 5499SOL     OW17395   0.704   0.573   4.941
 5499SOL    HW117396   0.730   0.644   5.007
 5499SOL    HW217397   0.641   0.508   4.984
 5500SOL     OW17398   1.493   6.183   0.429
 5500SOL    HW117399   1.395   6.161   0.432
 5500SOL    HW217400   1.546   6.098   0.423
 5501SOL     OW17401   2.108   1.460   2.136
 5501SOL    HW117402   2.147   1.510   2.058
 5501SOL    HW217403   2.008   1.458   2.128
 5502SOL     OW17404   5.266   4.669   0.612
 5502SOL    HW117405   5.281   4.743   0.678
 5502SOL    HW217406   5.191   4.611   0.644
 5503SOL     OW17407   6.519   0.800   3.951
 5503SOL    HW117408   6.434   0.847   3.973
 5503SOL    HW217409   6.575   0.857   3.891
 5504SOL     OW17410   2.547   2.171   4.582
 5504SOL    HW117411   2.491   2.089   4.570
 5504SOL    HW217412   2.497   2.236   4.639
 5505SOL     OW17413   3.430   5.289   0.813
 5505SOL    HW117414   3.510   5.245   0.852
 5505SOL    HW217415   3.439   5.388   0.822
 5506SOL     OW17416   1.252   6.216   4.865
 5506SOL    HW117417   1.344   6.208   4.826
 5506SOL    HW217418   1.234   6.311   4.890
 5507SOL     OW17419   2.481   5.387   5.195
 5507SOL    HW117420   2.508   5.471   5.149
 5507SOL    HW217421   2.490   5.310   5.132
 5508SOL     OW17422   2.746   1.629   5.224
 5508SOL    HW117423   2.812   1.617   5.150
 5508SOL    HW217424   2.785   1.688   5.294
 5509SOL     OW17425   6.772   0.216   5.742
 5509SOL    HW117426   6.780   0.259   5.832
 5509SOL    HW217427   6.785   0.117   5.751
 5510SOL     OW17428   0.509   0.463   5.341
 5510SOL    HW117429   0.543   0.434   5.431
 5510SOL    HW217430   0.410   0.446   5.336
 5511SOL     OW17431   0.738   2.481   1.048
 5511SOL    HW117432   0.650   2.474   1.001
 5511SOL    HW217433   0.804   2.420   1.005
 5512SOL     OW17434   6.747   6.274   0.026
 5512SOL    HW117435   6.713   6.342   6.977
 5512SOL    HW217436   6.669   6.231   0.073
 5513SOL     OW17437   2.355   6.502   5.036
 5513SOL    HW117438   2.410   6.461   5.109
 5513SOL    HW217439   2.258   6.484   5.054
 5514SOL     OW17440   5.709   5.877   3.675
 5514SOL    HW117441   5.637   5.837   3.617
 5514SOL    HW217442   5.676   5.882   3.769
 5515SOL     OW17443   1.091   4.093   3.743
 5515SOL    HW117444   1.012   4.100   3.682
 5515SOL    HW217445   1.166   4.150   3.707
 5516SOL     OW17446   2.393   2.835   0.157
 5516SOL    HW117447   2.385   2.875   0.249
 5516SOL    HW217448   2.307   2.848   0.108
 5517SOL     OW17449   3.040   0.499   2.601
 5517SOL    HW117450   2.991   0.488   2.515
 5517SOL    HW217451   2.992   0.565   2.659
 5518SOL     OW17452   5.082   3.532   6.200
 5518SOL    HW117453   5.097   3.472   6.279
 5518SOL    HW217454   5.059   3.477   6.120
 5519SOL     OW17455   5.190   3.638   2.332
 5519SOL    HW117456   5.238   3.559   2.294
 5519SOL    HW217457   5.124   3.672   2.265
 5520SOL     OW17458   1.423   2.591   0.997
 5520SOL    HW117459   1.480   2.588   0.914
 5520SOL    HW217460   1.364   2.511   1.000
 5521SOL     OW17461   5.222   4.108   6.419
 5521SOL    HW117462   5.147   4.092   6.355
 5521SOL    HW217463   5.296   4.043   6.401
 5522SOL     OW17464   2.081   2.810   1.330
 5522SOL    HW117465   2.171   2.849   1.352
 5522SOL    HW217466   2.080   2.713   1.355
 5523SOL     OW17467   2.404   6.715   1.397
 5523SOL    HW117468   2.376   6.666   1.479
 5523SOL    HW217469   2.323   6.758   1.355
 5524SOL     OW17470   6.038   6.314   5.912
 5524SOL    HW117471   6.027   6.407   5.946
 5524SOL    HW217472   6.119   6.272   5.953
 5525SOL     OW17473   6.324   6.887   3.035
 5525SOL    HW117474   6.381   6.916   3.112
 5525SOL    HW217475   6.369   6.912   2.949
 5526SOL     OW17476   5.322   3.894   4.754
 5526SOL    HW117477   5.270   3.921   4.674
 5526SOL    HW217478   5.409   3.943   4.756
 5527SOL     OW17479   3.490   2.925   0.315
 5527SOL    HW117480   3.584   2.910   0.287
 5527SOL    HW217481   3.428   2.887   0.247
 5528SOL     OW17482   6.409   2.996   2.830
 5528SOL    HW117483   6.373   2.919   2.778
 5528SOL    HW217484   6.365   3.081   2.801
 5529SOL     OW17485   1.477   1.116   4.536
 5529SOL    HW117486   1.455   1.108   4.633
 5529SOL    HW217487   1.402   1.164   4.489
 5530SOL     OW17488   0.015   2.999   6.704
 5530SOL    HW117489   6.957   2.946   6.746
 5530SOL    HW217490   0.086   3.016   6.772
 5531SOL     OW17491   2.845   2.989   0.635
 5531SOL    HW117492   2.770   2.925   0.620
 5531SOL    HW217493   2.866   2.994   0.733
 5532SOL     OW17494   2.377   2.864   1.771
 5532SOL    HW117495   2.324   2.793   1.725
 5532SOL    HW217496   2.352   2.953   1.733
 5533SOL     OW17497   2.955   0.400   0.947
 5533SOL    HW117498   2.994   0.308   0.953
 5533SOL    HW217499   2.884   0.410   1.017
 5534SOL     OW17500   0.954   3.592   5.192
 5534SOL    HW117501   0.932   3.689   5.177
 5534SOL    HW217502   0.892   3.536   5.137
 5535SOL     OW17503   4.768   5.208   3.271
 5535SOL    HW117504   4.718   5.159   3.342
 5535SOL    HW217505   4.782   5.303   3.301
 5536SOL     OW17506   2.227   1.490   4.345
 5536SOL    HW117507   2.237   1.535   4.256
 5536SOL    HW217508   2.179   1.551   4.408
 5537SOL     OW17509   3.644   1.675   3.513
 5537SOL    HW117510   3.699   1.717   3.585
 5537SOL    HW217511   3.694   1.598   3.473
 5538SOL     OW17512   4.613   2.301   2.846
 5538SOL    HW117513   4.588   2.218   2.897
 5538SOL    HW217514   4.663   2.275   2.764
 5539SOL     OW17515   1.305   0.527   5.918
 5539SOL    HW117516   1.268   0.615   5.887
 5539SOL    HW217517   1.400   0.540   5.949
 5540SOL     OW17518   4.730   6.729   5.097
 5540SOL    HW117519   4.811   6.784   5.078
 5540SOL    HW217520   4.713   6.728   5.195
 5541SOL     OW17521   4.663   2.835   5.246
 5541SOL    HW117522   4.720   2.918   5.243
 5541SOL    HW217523   4.674   2.784   5.161
 5542SOL     OW17524   5.008   4.544   6.934
 5542SOL    HW117525   5.009   4.545   6.834
 5542SOL    HW217526   4.931   4.489   6.966
 5543SOL     OW17527   0.378   0.285   5.737
 5543SOL    HW117528   0.414   0.261   5.828
 5543SOL    HW217529   0.353   0.381   5.735
 5544SOL     OW17530   3.984   5.283   6.886
 5544SOL    HW117531   3.958   5.219   6.958
 5544SOL    HW217532   4.017   5.368   6.927
 5545SOL     OW17533   5.273   2.112   3.533
 5545SOL    HW117534   5.322   2.035   3.494
 5545SOL    HW217535   5.175   2.101   3.517
 5546SOL     OW17536   0.664   6.198   4.023
 5546SOL    HW117537   0.574   6.226   4.055
 5546SOL    HW217538   0.673   6.218   3.926
 5547SOL     OW17539   5.073   1.781   4.240
 5547SOL    HW117540   5.058   1.696   4.189
 5547SOL    HW217541   5.165   1.780   4.279
 5548SOL     OW17542   1.075   3.699   4.716
 5548SOL    HW117543   1.134   3.623   4.741
 5548SOL    HW217544   1.071   3.708   4.617
 5549SOL     OW17545   4.425   3.465   0.084
 5549SOL    HW117546   4.404   3.379   0.039
 5549SOL    HW217547   4.375   3.539   0.040
 5550SOL     OW17548   3.231   3.979   1.473
 5550SOL    HW117549   3.291   3.952   1.549
 5550SOL    HW217550   3.286   4.027   1.404
 5551SOL     OW17551   1.304   4.527   2.318
 5551SOL    HW117552   1.334   4.463   2.247
 5551SOL    HW217553   1.329   4.492   2.408
 5552SOL     OW17554   0.632   0.730   0.776
 5552SOL    HW117555   0.603   0.743   0.681
 5552SOL    HW217556   0.690   0.807   0.804
 5553SOL     OW17557   5.811   5.763   1.318
 5553SOL    HW117558   5.821   5.677   1.268
 5553SOL    HW217559   5.873   5.763   1.396
 5554SOL     OW17560   0.018   2.601   1.786
 5554SOL    HW117561   0.111   2.622   1.814
 5554SOL    HW217562   7.005   2.667   1.716
 5555SOL     OW17563   1.056   4.759   1.774
 5555SOL    HW117564   1.046   4.807   1.861
 5555SOL    HW217565   1.037   4.822   1.699
 5556SOL     OW17566   6.738   1.666   5.262
 5556SOL    HW117567   6.690   1.586   5.298
 5556SOL    HW217568   6.828   1.674   5.306
 5557SOL     OW17569   3.403   6.907   2.622
 5557SOL    HW117570   3.389   6.809   2.634
 5557SOL    HW217571   3.315   6.952   2.606
 5558SOL     OW17572   3.852   3.654   6.354
 5558SOL    HW117573   3.936   3.693   6.392
 5558SOL    HW217574   3.868   3.625   6.260
 5559SOL     OW17575   3.508   0.612   3.075
 5559SOL    HW117576   3.603   0.606   3.046
 5559SOL    HW217577   3.501   0.666   3.159
 5560SOL     OW17578   0.240   5.084   3.487
 5560SOL    HW117579   0.146   5.119   3.483
 5560SOL    HW217580   0.301   5.150   3.442
 5561SOL     OW17581   2.900   0.729   3.495
 5561SOL    HW117582   2.919   0.805   3.557
 5561SOL    HW217583   2.926   0.755   3.402
 5562SOL     OW17584   4.859   3.060   0.901
 5562SOL    HW117585   4.800   3.122   0.850
 5562SOL    HW217586   4.852   3.078   0.999
 5563SOL     OW17587   1.640   4.335   2.542
 5563SOL    HW117588   1.665   4.394   2.465
 5563SOL    HW217589   1.637   4.240   2.512
 5564SOL     OW17590   4.329   0.002   6.913
 5564SOL    HW117591   4.323   7.013   7.013
 5564SOL    HW217592   4.416   6.980   6.883
 5565SOL     OW17593   2.910   2.017   6.468
 5565SOL    HW117594   2.936   1.984   6.559
 5565SOL    HW217595   2.818   2.055   6.473
 5566SOL     OW17596   1.556   5.131   5.170
 5566SOL    HW117597   1.652   5.107   5.155
 5566SOL    HW217598   1.550   5.229   5.193
 5567SOL     OW17599   1.493   5.232   6.554
 5567SOL    HW117600   1.540   5.235   6.466
 5567SOL    HW217601   1.457   5.323   6.576
 5568SOL     OW17602   4.916   5.509   2.218
 5568SOL    HW117603   4.877   5.419   2.240
 5568SOL    HW217604   5.010   5.497   2.187
 5569SOL     OW17605   1.758   2.322   2.874
 5569SOL    HW117606   1.750   2.231   2.915
 5569SOL    HW217607   1.809   2.316   2.789
 5570SOL     OW17608   0.248   3.385   0.948
 5570SOL    HW117609   0.190   3.360   1.025
 5570SOL    HW217610   0.199   3.368   0.863
 5571SOL     OW17611   6.621   4.647   6.677
 5571SOL    HW117612   6.634   4.737   6.719
 5571SOL    HW217613   6.675   4.641   6.593
 5572SOL     OW17614   1.008   4.535   5.590
 5572SOL    HW117615   1.065   4.577   5.660
 5572SOL    HW217616   0.948   4.604   5.549
 5573SOL     OW17617   3.212   4.913   3.309
 5573SOL    HW117618   3.174   4.988   3.363
 5573SOL    HW217619   3.309   4.903   3.328
 5574SOL     OW17620   1.180   1.151   5.966
 5574SOL    HW117621   1.220   1.228   5.915
 5574SOL    HW217622   1.134   1.185   6.048
 5575SOL     OW17623   0.445   0.668   1.609
 5575SOL    HW117624   0.524   0.639   1.663
 5575SOL    HW217625   0.475   0.705   1.522
 5576SOL     OW17626   1.959   5.363   3.215
 5576SOL    HW117627   2.044   5.406   3.245
 5576SOL    HW217628   1.952   5.271   3.253
 5577SOL     OW17629   3.491   2.054   6.474
 5577SOL    HW117630   3.432   2.133   6.456
 5577SOL    HW217631   3.487   2.031   6.571
 5578SOL     OW17632   4.032   3.831   3.577
 5578SOL    HW117633   3.964   3.874   3.637
 5578SOL    HW217634   4.107   3.795   3.633
 5579SOL     OW17635   6.134   3.073   1.751
 5579SOL    HW117636   6.226   3.032   1.751
 5579SOL    HW217637   6.069   3.008   1.711
 5580SOL     OW17638   5.847   2.051   5.832
 5580SOL    HW117639   5.938   2.036   5.872
 5580SOL    HW217640   5.802   2.126   5.881
 5581SOL     OW17641   1.569   0.920   5.582
 5581SOL    HW117642   1.498   0.929   5.652
 5581SOL    HW217643   1.555   0.989   5.512
 5582SOL     OW17644   2.910   2.879   6.119
 5582SOL    HW117645   2.905   2.842   6.026
 5582SOL    HW217646   2.839   2.948   6.132
 5583SOL     OW17647   5.748   6.801   1.080
 5583SOL    HW117648   5.808   6.868   1.036
 5583SOL    HW217649   5.659   6.801   1.035
 5584SOL     OW17650   0.493   3.638   4.995
 5584SOL    HW117651   0.588   3.640   4.962
 5584SOL    HW217652   0.487   3.688   5.081
 5585SOL     OW17653   6.271   5.025   1.346
 5585SOL    HW117654   6.272   4.937   1.395
 5585SOL    HW217655   6.193   5.079   1.377
 5586SOL     OW17656   1.173   6.265   1.923
 5586SOL    HW117657   1.218   6.202   1.987
 5586SOL    HW217658   1.141   6.345   1.973
 5587SOL     OW17659   5.737   1.686   4.940
 5587SOL    HW117660   5.809   1.688   4.871
 5587SOL    HW217661   5.719   1.592   4.967
 5588SOL     OW17662   3.353   6.802   1.008
 5588SOL    HW117663   3.294   6.801   1.089
 5588SOL    HW217664   3.448   6.787   1.037
 5589SOL     OW17665   0.564   4.796   5.387
 5589SOL    HW117666   0.547   4.895   5.381
 5589SOL    HW217667   0.482   4.751   5.424
 5590SOL     OW17668   5.455   5.432   3.237
 5590SOL    HW117669   5.405   5.393   3.160
 5590SOL    HW217670   5.426   5.388   3.321
 5591SOL     OW17671   4.921   1.030   2.776
 5591SOL    HW117672   4.928   1.045   2.677
 5591SOL    HW217673   4.825   1.029   2.803
 5592SOL     OW17674   6.881   5.597   4.683
 5592SOL    HW117675   6.910   5.654   4.760
 5592SOL    HW217676   6.810   5.534   4.713
 5593SOL     OW17677   2.179   4.345   1.160
 5593SOL    HW117678   2.151   4.274   1.224
 5593SOL    HW217679   2.123   4.427   1.174
 5594SOL     OW17680   5.703   6.790   5.321
 5594SOL    HW117681   5.736   6.843   5.399
 5594SOL    HW217682   5.730   6.694   5.332
 5595SOL     OW17683   0.125   1.740   0.967
 5595SOL    HW117684   0.101   1.834   0.992
 5595SOL    HW217685   0.209   1.713   1.013
 5596SOL     OW17686   4.288   6.528   3.062
 5596SOL    HW117687   4.337   6.484   2.987
 5596SOL    HW217688   4.234   6.459   3.111
 5597SOL     OW17689   4.862   3.093   2.292
 5597SOL    HW117690   4.815   3.048   2.216
 5597SOL    HW217691   4.862   3.192   2.277
 5598SOL     OW17692   2.989   0.471   3.880
 5598SOL    HW117693   3.069   0.442   3.933
 5598SOL    HW217694   2.926   0.521   3.939
 5599SOL     OW17695   0.975   1.704   3.606
 5599SOL    HW117696   0.952   1.688   3.702
 5599SOL    HW217697   0.891   1.717   3.554
 5600SOL     OW17698   2.743   2.739   5.338
 5600SOL    HW117699   2.674   2.807   5.312
 5600SOL    HW217700   2.735   2.718   5.435
 5601SOL     OW17701   1.755   0.202   6.357
 5601SOL    HW117702   1.667   0.246   6.375
 5601SOL    HW217703   1.740   0.111   6.317
 5602SOL     OW17704   2.046   1.123   0.285
 5602SOL    HW117705   2.056   1.147   0.381
 5602SOL    HW217706   2.036   1.024   0.276
 5603SOL     OW17707   6.740   3.344   5.147
 5603SOL    HW117708   6.744   3.412   5.220
 5603SOL    HW217709   6.748   3.390   5.059
 5604SOL     OW17710   5.296   0.891   6.507
 5604SOL    HW117711   5.319   0.796   6.487
 5604SOL    HW217712   5.320   0.948   6.428
 5605SOL     OW17713   1.517   1.411   6.550
 5605SOL    HW117714   1.430   1.387   6.594
 5605SOL    HW217715   1.589   1.415   6.619
 5606SOL     OW17716   5.978   6.448   2.907
 5606SOL    HW117717   6.052   6.398   2.951
 5606SOL    HW217718   5.890   6.421   2.946
 5607SOL     OW17719   5.131   6.865   0.934
 5607SOL    HW117720   5.211   6.811   0.906
 5607SOL    HW217721   5.071   6.808   0.991
 5608SOL     OW17722   3.598   6.464   5.287
 5608SOL    HW117723   3.583   6.368   5.310
 5608SOL    HW217724   3.513   6.515   5.301
 5609SOL     OW17725   1.673   5.943   4.942
 5609SOL    HW117726   1.609   5.897   4.881
 5609SOL    HW217727   1.662   5.908   5.035
 5610SOL     OW17728   5.338   6.771   6.592
 5610SOL    HW117729   5.369   6.866   6.588
 5610SOL    HW217730   5.357   6.734   6.683
 5611SOL     OW17731   1.580   4.479   4.085
 5611SOL    HW117732   1.535   4.402   4.131
 5611SOL    HW217733   1.562   4.563   4.136
 5612SOL     OW17734   3.871   6.386   4.439
 5612SOL    HW117735   3.782   6.398   4.482
 5612SOL    HW217736   3.860   6.333   4.355
 5613SOL     OW17737   2.627   5.358   2.600
 5613SOL    HW117738   2.644   5.431   2.534
 5613SOL    HW217739   2.604   5.274   2.552
 5614SOL     OW17740   5.140   2.123   4.481
 5614SOL    HW117741   5.070   2.105   4.412
 5614SOL    HW217742   5.140   2.048   4.548
 5615SOL     OW17743   0.916   1.540   1.619
 5615SOL    HW117744   0.950   1.634   1.621
 5615SOL    HW217745   0.993   1.477   1.629
 5616SOL     OW17746   2.893   6.632   4.977
 5616SOL    HW117747   2.924   6.551   4.928
 5616SOL    HW217748   2.923   6.627   5.072
 5617SOL     OW17749   0.467   1.151   5.898
 5617SOL    HW117750   0.490   1.070   5.952
 5617SOL    HW217751   0.368   1.159   5.889
 5618SOL     OW17752   6.440   5.230   3.593
 5618SOL    HW117753   6.451   5.140   3.551
 5618SOL    HW217754   6.520   5.286   3.573
 5619SOL     OW17755   2.145   2.985   4.355
 5619SOL    HW117756   2.045   2.971   4.356
 5619SOL    HW217757   2.181   2.961   4.264
 5620SOL     OW17758   5.618   2.011   6.126
 5620SOL    HW117759   5.595   2.108   6.119
 5620SOL    HW217760   5.598   1.979   6.219
 5621SOL     OW17761   2.923   1.694   5.014
 5621SOL    HW117762   2.944   1.787   4.983
 5621SOL    HW217763   3.004   1.637   5.008
 5622SOL     OW17764   5.453   1.695   4.907
 5622SOL    HW117765   5.540   1.740   4.924
 5622SOL    HW217766   5.407   1.678   4.994
 5623SOL     OW17767   0.419   6.385   6.481
 5623SOL    HW117768   0.426   6.330   6.398
 5623SOL    HW217769   0.324   6.413   6.495
 5624SOL     OW17770   1.136   4.158   2.898
 5624SOL    HW117771   1.223   4.185   2.940
 5624SOL    HW217772   1.138   4.182   2.801
 5625SOL     OW17773   6.458   1.653   5.946
 5625SOL    HW117774   6.409   1.598   5.878
 5625SOL    HW217775   6.545   1.684   5.906
 5626SOL     OW17776   5.659   6.508   5.374
 5626SOL    HW117777   5.755   6.494   5.400
 5626SOL    HW217778   5.640   6.457   5.291
 5627SOL     OW17779   1.397   0.334   1.700
 5627SOL    HW117780   1.461   0.406   1.728
 5627SOL    HW217781   1.336   0.370   1.630
 5628SOL     OW17782   1.280   1.947   4.126
 5628SOL    HW117783   1.244   2.025   4.177
 5628SOL    HW217784   1.327   1.884   4.188
 5629SOL     OW17785   3.905   3.593   3.507
 5629SOL    HW117786   3.964   3.514   3.522
 5629SOL    HW217787   3.956   3.677   3.528
 5630SOL     OW17788   6.443   3.913   1.266
 5630SOL    HW117789   6.357   3.939   1.311
 5630SOL    HW217790   6.425   3.889   1.171
 5631SOL     OW17791   6.044   1.143   6.094
 5631SOL    HW117792   5.954   1.120   6.057
 5631SOL    HW217793   6.113   1.082   6.055
 5632SOL     OW17794   3.571   2.393   1.179
 5632SOL    HW117795   3.588   2.295   1.171
 5632SOL    HW217796   3.554   2.416   1.275
 5633SOL     OW17797   0.227   2.875   5.923
 5633SOL    HW117798   0.211   2.849   6.018
 5633SOL    HW217799   0.142   2.864   5.871
 5634SOL     OW17800   4.784   5.689   5.263
 5634SOL    HW117801   4.860   5.753   5.247
 5634SOL    HW217802   4.818   5.595   5.252
 5635SOL     OW17803   2.923   1.633   0.140
 5635SOL    HW117804   2.968   1.574   0.207
 5635SOL    HW217805   2.892   1.579   0.063
 5636SOL     OW17806   4.430   0.873   4.271
 5636SOL    HW117807   4.374   0.956   4.264
 5636SOL    HW217808   4.395   0.803   4.210
 5637SOL     OW17809   5.875   6.777   2.371
 5637SOL    HW117810   5.945   6.707   2.382
 5637SOL    HW217811   5.833   6.797   2.459
 5638SOL     OW17812   0.488   3.425   0.194
 5638SOL    HW117813   0.456   3.360   0.263
 5638SOL    HW217814   0.584   3.449   0.213
 5639SOL     OW17815   4.254   0.132   6.503
 5639SOL    HW117816   4.180   0.191   6.536
 5639SOL    HW217817   4.221   0.037   6.500
 5640SOL     OW17818   1.319   0.036   3.328
 5640SOL    HW117819   1.290   0.011   3.236
 5640SOL    HW217820   1.268   0.117   3.359
 5641SOL     OW17821   6.547   5.931   4.794
 5641SOL    HW117822   6.633   5.926   4.845
 5641SOL    HW217823   6.544   5.858   4.726
 5642SOL     OW17824   1.498   0.722   0.337
 5642SOL    HW117825   1.420   0.780   0.363
 5642SOL    HW217826   1.518   0.658   0.411
 5643SOL     OW17827   5.067   2.293   0.128
 5643SOL    HW117828   5.036   2.323   0.039
 5643SOL    HW217829   5.054   2.194   0.136
 5644SOL     OW17830   2.651   0.293   5.703
 5644SOL    HW117831   2.683   0.372   5.651
 5644SOL    HW217832   2.558   0.309   5.735
 5645SOL     OW17833   4.967   3.859   3.866
 5645SOL    HW117834   4.894   3.924   3.890
 5645SOL    HW217835   5.054   3.908   3.863
 5646SOL     OW17836   1.347   4.583   2.740
 5646SOL    HW117837   1.340   4.656   2.673
 5646SOL    HW217838   1.276   4.595   2.810
 5647SOL     OW17839   4.214   5.610   2.773
 5647SOL    HW117840   4.278   5.549   2.819
 5647SOL    HW217841   4.157   5.558   2.709
 5648SOL     OW17842   5.402   6.491   3.332
 5648SOL    HW117843   5.462   6.503   3.411
 5648SOL    HW217844   5.416   6.566   3.268
 5649SOL     OW17845   0.542   0.682   4.730
 5649SOL    HW117846   0.601   0.667   4.809
 5649SOL    HW217847   0.491   0.599   4.710
 5650SOL     OW17848   0.412   3.654   6.241
 5650SOL    HW117849   0.429   3.746   6.206
 5650SOL    HW217850   0.498   3.603   6.244
 5651SOL     OW17851   3.096   1.020   1.732
 5651SOL    HW117852   3.125   0.974   1.649
 5651SOL    HW217853   3.021   1.083   1.711
 5652SOL     OW17854   0.192   5.930   1.906
 5652SOL    HW117855   0.284   5.922   1.868
 5652SOL    HW217856   0.192   5.998   1.979
 5653SOL     OW17857   6.931   0.553   2.576
 5653SOL    HW117858   6.842   0.523   2.610
 5653SOL    HW217859   6.959   0.495   2.499
 5654SOL     OW17860   3.256   5.985   6.041
 5654SOL    HW117861   3.312   5.904   6.060
 5654SOL    HW217862   3.251   6.042   6.123
 5655SOL     OW17863   6.397   3.199   4.004
 5655SOL    HW117864   6.329   3.139   4.046
 5655SOL    HW217865   6.374   3.294   4.023
 5656SOL     OW17866   0.425   4.810   1.720
 5656SOL    HW117867   0.384   4.752   1.790
 5656SOL    HW217868   0.498   4.865   1.760
 5657SOL     OW17869   5.874   6.222   5.714
 5657SOL    HW117870   5.929   6.270   5.784
 5657SOL    HW217871   5.905   6.128   5.707
 5658SOL     OW17872   3.009   2.476   5.331
 5658SOL    HW117873   3.092   2.424   5.309
 5658SOL    HW217874   2.935   2.446   5.271
 5659SOL     OW17875   2.664   4.090   5.510
 5659SOL    HW117876   2.680   4.117   5.605
 5659SOL    HW217877   2.646   4.171   5.454
 5660SOL     OW17878   4.008   0.769   4.457
 5660SOL    HW117879   4.084   0.745   4.517
 5660SOL    HW217880   3.922   0.740   4.499
 5661SOL     OW17881   0.285   5.895   5.891
 5661SOL    HW117882   0.365   5.839   5.909
 5661SOL    HW217883   0.307   5.991   5.908
 5662SOL     OW17884   2.838   5.835   0.911
 5662SOL    HW117885   2.918   5.793   0.954
 5662SOL    HW217886   2.827   5.798   0.819
 5663SOL     OW17887   3.574   1.812   6.371
 5663SOL    HW117888   3.525   1.891   6.407
 5663SOL    HW217889   3.617   1.761   6.446
 5664SOL     OW17890   4.836   6.056   4.974
 5664SOL    HW117891   4.817   6.032   4.879
 5664SOL    HW217892   4.759   6.110   5.010
 5665SOL     OW17893   2.352   1.110   0.595
 5665SOL    HW117894   2.428   1.048   0.611
 5665SOL    HW217895   2.280   1.094   0.663
 5666SOL     OW17896   6.042   3.332   5.022
 5666SOL    HW117897   6.023   3.261   4.955
 5666SOL    HW217898   5.956   3.379   5.045
 5667SOL     OW17899   2.622   4.625   3.997
 5667SOL    HW117900   2.542   4.565   3.995
 5667SOL    HW217901   2.655   4.640   3.904
 5668SOL     OW17902   4.369   4.685   3.885
 5668SOL    HW117903   4.434   4.734   3.828
 5668SOL    HW217904   4.279   4.687   3.841
 5669SOL     OW17905   5.778   3.499   5.880
 5669SOL    HW117906   5.869   3.459   5.872
 5669SOL    HW217907   5.762   3.525   5.975
 5670SOL     OW17908   0.819   3.348   4.358
 5670SOL    HW117909   0.733   3.324   4.312
 5670SOL    HW217910   0.799   3.381   4.450
 5671SOL     OW17911   5.950   6.020   2.631
 5671SOL    HW117912   6.014   6.036   2.706
 5671SOL    HW217913   5.863   5.988   2.668
 5672SOL     OW17914   6.000   3.173   4.746
 5672SOL    HW117915   5.905   3.200   4.725
 5672SOL    HW217916   6.051   3.166   4.661
 5673SOL     OW17917   1.124   2.171   0.566
 5673SOL    HW117918   1.073   2.222   0.635
 5673SOL    HW217919   1.158   2.235   0.496
 5674SOL     OW17920   3.093   5.344   5.289
 5674SOL    HW117921   3.009   5.316   5.243
 5674SOL    HW217922   3.135   5.263   5.332
 5675SOL     OW17923   3.600   1.678   0.865
 5675SOL    HW117924   3.537   1.745   0.905
 5675SOL    HW217925   3.686   1.678   0.916
 5676SOL     OW17926   3.726   1.375   1.999
 5676SOL    HW117927   3.733   1.292   2.056
 5676SOL    HW217928   3.694   1.451   2.055
 5677SOL     OW17929   1.441   1.104   5.895
 5677SOL    HW117930   1.345   1.120   5.916
 5677SOL    HW217931   1.490   1.191   5.892
 5678SOL     OW17932   4.023   1.905   2.083
 5678SOL    HW117933   4.024   1.905   2.183
 5678SOL    HW217934   3.955   1.970   2.050
 5679SOL     OW17935   1.159   4.010   5.775
 5679SOL    HW117936   1.114   4.095   5.749
 5679SOL    HW217937   1.251   4.008   5.735
 5680SOL     OW17938   0.852   6.055   4.148
 5680SOL    HW117939   0.818   5.961   4.142
 5680SOL    HW217940   0.789   6.116   4.099
 5681SOL     OW17941   1.737   3.716   3.032
 5681SOL    HW117942   1.701   3.690   3.122
 5681SOL    HW217943   1.674   3.686   2.961
 5682SOL     OW17944   1.977   4.575   6.990
 5682SOL    HW117945   1.957   4.546   6.897
 5682SOL    HW217946   2.062   4.533   0.005
 5683SOL     OW17947   6.855   6.251   6.088
 5683SOL    HW117948   6.955   6.246   6.084
 5683SOL    HW217949   6.815   6.185   6.025
 5684SOL     OW17950   2.113   3.659   4.230
 5684SOL    HW117951   2.128   3.715   4.311
 5684SOL    HW217952   2.096   3.564   4.258
 5685SOL     OW17953   1.876   2.268   1.755
 5685SOL    HW117954   1.955   2.263   1.694
 5685SOL    HW217955   1.907   2.275   1.850
 5686SOL     OW17956   5.667   5.346   5.606
 5686SOL    HW117957   5.573   5.347   5.573
 5686SOL    HW217958   5.668   5.328   5.704
 5687SOL     OW17959   1.435   0.295   6.665
 5687SOL    HW117960   1.408   0.229   6.734
 5687SOL    HW217961   1.353   0.330   6.619
 5688SOL     OW17962   1.236   3.067   2.343
 5688SOL    HW117963   1.164   3.039   2.406
 5688SOL    HW217964   1.301   2.992   2.331
 5689SOL     OW17965   0.365   1.531   0.823
 5689SOL    HW117966   0.392   1.627   0.810
 5689SOL    HW217967   0.441   1.480   0.861
 5690SOL     OW17968   3.393   5.383   0.117
 5690SOL    HW117969   3.473   5.437   0.142
 5690SOL    HW217970   3.354   5.342   0.199
 5691SOL     OW17971   4.879   3.170   3.508
 5691SOL    HW117972   4.951   3.151   3.576
 5691SOL    HW217973   4.886   3.265   3.478
 5692SOL     OW17974   6.350   4.620   2.096
 5692SOL    HW117975   6.445   4.596   2.076
 5692SOL    HW217976   6.298   4.536   2.114
 5693SOL     OW17977   2.982   0.935   2.292
 5693SOL    HW117978   3.031   0.932   2.379
 5693SOL    HW217979   3.016   0.863   2.232
 5694SOL     OW17980   0.051   6.548   1.233
 5694SOL    HW117981   0.125   6.611   1.256
 5694SOL    HW217982   6.993   6.598   1.190
 5695SOL     OW17983   1.983   0.751   2.362
 5695SOL    HW117984   1.942   0.777   2.274
 5695SOL    HW217985   2.022   0.660   2.354
 5696SOL     OW17986   6.792   1.101   3.366
 5696SOL    HW117987   6.741   1.023   3.402
 5696SOL    HW217988   6.798   1.094   3.267
 5697SOL     OW17989   5.870   1.691   0.342
 5697SOL    HW117990   5.954   1.688   0.288
 5697SOL    HW217991   5.868   1.776   0.396
 5698SOL     OW17992   2.915   2.284   2.989
 5698SOL    HW117993   2.984   2.353   2.965
 5698SOL    HW217994   2.947   2.194   2.956
 5699SOL     OW17995   2.356   2.702   2.524
 5699SOL    HW117996   2.383   2.744   2.611
 5699SOL    HW217997   2.297   2.765   2.473
 5700SOL     OW17998   5.636   0.843   2.122
 5700SOL    HW117999   5.713   0.905   2.104
 5700SOL    HW218000   5.664   0.774   2.189
 5701SOL     OW18001   2.107   1.008   0.789
 5701SOL    HW118002   2.066   1.092   0.824
 5701SOL    HW218003   2.045   0.966   0.722
 5702SOL     OW18004   1.374   6.062   4.577
 5702SOL    HW118005   1.379   5.985   4.513
 5702SOL    HW218006   1.465   6.077   4.616
 5703SOL     OW18007   0.997   3.310   6.086
 5703SOL    HW118008   1.031   3.388   6.034
 5703SOL    HW218009   0.897   3.311   6.087
 5704SOL     OW18010   4.356   5.547   4.336
 5704SOL    HW118011   4.393   5.481   4.401
 5704SOL    HW218012   4.257   5.533   4.326
 5705SOL     OW18013   6.070   1.440   4.840
 5705SOL    HW118014   5.986   1.390   4.862
 5705SOL    HW218015   6.140   1.375   4.809
 5706SOL     OW18016   5.681   0.865   1.579
 5706SOL    HW118017   5.641   0.893   1.492
 5706SOL    HW218018   5.609   0.857   1.648
 5707SOL     OW18019   5.971   5.998   1.570
 5707SOL    HW118020   5.902   6.028   1.504
 5707SOL    HW218021   5.959   5.900   1.588
 5708SOL     OW18022   4.577   6.739   1.834
 5708SOL    HW118023   4.569   6.803   1.758
 5708SOL    HW218024   4.613   6.652   1.799
 5709SOL     OW18025   6.538   2.303   2.418
 5709SOL    HW118026   6.597   2.288   2.339
 5709SOL    HW218027   6.455   2.247   2.409
 5710SOL     OW18028   5.452   1.285   0.567
 5710SOL    HW118029   5.381   1.285   0.638
 5710SOL    HW218030   5.438   1.207   0.507
 5711SOL     OW18031   4.028   1.536   2.881
 5711SOL    HW118032   4.126   1.546   2.894
 5711SOL    HW218033   4.010   1.459   2.819
 5712SOL     OW18034   6.629   5.734   6.619
 5712SOL    HW118035   6.636   5.679   6.702
 5712SOL    HW218036   6.569   5.689   6.553
 5713SOL     OW18037   1.307   1.594   0.314
 5713SOL    HW118038   1.403   1.608   0.338
 5713SOL    HW218039   1.297   1.510   0.261
 5714SOL     OW18040   4.863   0.454   1.032
 5714SOL    HW118041   4.926   0.415   1.098
 5714SOL    HW218042   4.769   0.436   1.061
 5715SOL     OW18043   0.471   6.023   0.843
 5715SOL    HW118044   0.439   6.108   0.801
 5715SOL    HW218045   0.403   5.991   0.909
 5716SOL     OW18046   6.985   4.940   5.800
 5716SOL    HW118047   7.009   4.967   5.893
 5716SOL    HW218048   6.899   4.887   5.802
 5717SOL     OW18049   0.024   6.018   2.627
 5717SOL    HW118050   6.942   6.008   2.609
 5717SOL    HW218051   0.047   6.115   2.636
 5718SOL     OW18052   1.513   4.650   6.104
 5718SOL    HW118053   1.548   4.678   6.014
 5718SOL    HW218054   1.507   4.550   6.108
 5719SOL     OW18055   3.494   3.558   1.520
 5719SOL    HW118056   3.477   3.621   1.596
 5719SOL    HW218057   3.448   3.471   1.538
 5720SOL     OW18058   2.499   3.970   6.723
 5720SOL    HW118059   2.401   3.956   6.717
 5720SOL    HW218060   2.546   3.882   6.725
 5721SOL     OW18061   0.584   2.906   0.607
 5721SOL    HW118062   0.510   2.915   0.673
 5721SOL    HW218063   0.671   2.896   0.655
 5722SOL     OW18064   1.559   0.654   6.008
 5722SOL    HW118065   1.584   0.589   6.080
 5722SOL    HW218066   1.637   0.712   5.986
 5723SOL     OW18067   4.570   3.910   0.277
 5723SOL    HW118068   4.549   4.007   0.293
 5723SOL    HW218069   4.491   3.867   0.234
 5724SOL     OW18070   6.833   1.914   6.476
 5724SOL    HW118071   6.774   1.993   6.491
 5724SOL    HW218072   6.925   1.945   6.452
 5725SOL     OW18073   6.593   4.224   4.589
 5725SOL    HW118074   6.554   4.173   4.512
 5725SOL    HW218075   6.676   4.271   4.559
 5726SOL     OW18076   4.204   4.741   2.024
 5726SOL    HW118077   4.211   4.744   2.123
 5726SOL    HW218078   4.273   4.679   1.987
 5727SOL     OW18079   1.066   3.126   6.279
 5727SOL    HW118080   1.034   3.190   6.209
 5727SOL    HW218081   0.987   3.090   6.329
 5728SOL     OW18082   2.104   5.891   3.797
 5728SOL    HW118083   2.187   5.933   3.836
 5728SOL    HW218084   2.027   5.953   3.810
 5729SOL     OW18085   2.889   1.754   4.343
 5729SOL    HW118086   2.849   1.831   4.392
 5729SOL    HW218087   2.977   1.731   4.383
 5730SOL     OW18088   6.315   4.952   4.338
 5730SOL    HW118089   6.403   4.949   4.386
 5730SOL    HW218090   6.331   4.968   4.240
 5731SOL     OW18091   6.905   6.652   2.615
 5731SOL    HW118092   6.944   6.728   2.564
 5731SOL    HW218093   6.976   6.586   2.636
 5732SOL     OW18094   5.108   0.326   3.557
 5732SOL    HW118095   5.060   0.366   3.479
 5732SOL    HW218096   5.053   0.338   3.640
 5733SOL     OW18097   2.974   0.809   5.122
 5733SOL    HW118098   2.917   0.890   5.102
 5733SOL    HW218099   2.917   0.738   5.163
 5734SOL     OW18100   2.012   6.083   4.216
 5734SOL    HW118101   2.061   6.112   4.133
 5734SOL    HW218102   2.034   6.145   4.291
 5735SOL     OW18103   2.554   0.832   1.697
 5735SOL    HW118104   2.455   0.829   1.713
 5735SOL    HW218105   2.590   0.919   1.731
 5736SOL     OW18106   1.601   4.457   1.456
 5736SOL    HW118107   1.562   4.433   1.367
 5736SOL    HW218108   1.535   4.513   1.506
 5737SOL     OW18109   6.009   3.731   0.327
 5737SOL    HW118110   5.960   3.811   0.293
 5737SOL    HW218111   6.099   3.759   0.361
 5738SOL     OW18112   1.075   5.727   4.259
 5738SOL    HW118113   1.035   5.636   4.243
 5738SOL    HW218114   1.033   5.768   4.339
 5739SOL     OW18115   0.903   2.265   0.895
 5739SOL    HW118116   0.923   2.171   0.869
 5739SOL    HW218117   0.968   2.295   0.965
 5740SOL     OW18118   4.570   4.924   0.255
 5740SOL    HW118119   4.583   4.990   0.181
 5740SOL    HW218120   4.479   4.933   0.294
 5741SOL     OW18121   0.077   2.321   1.963
 5741SOL    HW118122   6.996   2.342   1.970
 5741SOL    HW218123   0.092   2.254   1.890
 5742SOL     OW18124   6.927   5.293   3.690
 5742SOL    HW118125   6.849   5.313   3.749
 5742SOL    HW218126   6.952   5.197   3.699
 5743SOL     OW18127   0.982   0.929   4.952
 5743SOL    HW118128   0.942   0.845   4.987
 5743SOL    HW218129   0.925   1.007   4.981
 5744SOL     OW18130   6.071   0.602   2.273
 5744SOL    HW118131   6.112   0.512   2.288
 5744SOL    HW218132   6.120   0.670   2.327
 5745SOL     OW18133   6.634   3.640   2.397
 5745SOL    HW118134   6.555   3.586   2.369
 5745SOL    HW218135   6.607   3.704   2.469
 5746SOL     OW18136   0.675   3.576   6.254
 5746SOL    HW118137   0.765   3.576   6.296
 5746SOL    HW218138   0.679   3.530   6.165
 5747SOL     OW18139   6.573   6.285   3.782
 5747SOL    HW118140   6.665   6.263   3.751
 5747SOL    HW218141   6.562   6.385   3.785
 5748SOL     OW18142   1.191   1.550   4.114
 5748SOL    HW118143   1.176   1.634   4.061
 5748SOL    HW218144   1.224   1.478   4.054
 5749SOL     OW18145   0.290   1.606   3.022
 5749SOL    HW118146   0.262   1.621   3.117
 5749SOL    HW218147   0.386   1.577   3.019
 5750SOL     OW18148   4.233   6.114   2.832
 5750SOL    HW118149   4.330   6.118   2.806
 5750SOL    HW218150   4.219   6.169   2.914
 5751SOL     OW18151   1.294   2.000   6.810
 5751SOL    HW118152   1.323   1.909   6.842
 5751SOL    HW218153   1.206   1.992   6.763
 5752SOL     OW18154   1.959   0.850   6.775
 5752SOL    HW118155   2.019   0.899   6.711
 5752SOL    HW218156   1.986   0.872   6.869
 5753SOL     OW18157   4.327   1.637   6.411
 5753SOL    HW118158   4.262   1.583   6.464
 5753SOL    HW218159   4.281   1.717   6.373
 5754SOL     OW18160   6.018   5.903   0.469
 5754SOL    HW118161   6.118   5.895   0.464
 5754SOL    HW218162   5.978   5.811   0.473
 5755SOL     OW18163   3.332   3.738   2.134
 5755SOL    HW118164   3.387   3.778   2.206
 5755SOL    HW218165   3.332   3.798   2.054
 5756SOL     OW18166   6.156   0.058   3.934
 5756SOL    HW118167   6.089   0.022   3.870
 5756SOL    HW218168   6.126   0.147   3.968
 5757SOL     OW18169   6.655   6.864   1.765
 5757SOL    HW118170   6.709   6.822   1.839
 5757SOL    HW218171   6.682   6.960   1.756
 5758SOL     OW18172   2.775   0.787   5.682
 5758SOL    HW118173   2.752   0.869   5.629
 5758SOL    HW218174   2.709   0.778   5.757
 5759SOL     OW18175   0.623   1.231   5.632
 5759SOL    HW118176   0.593   1.162   5.567
 5759SOL    HW218177   0.661   1.187   5.714
 5760SOL     OW18178   6.662   5.764   2.057
 5760SOL    HW118179   6.631   5.673   2.085
 5760SOL    HW218180   6.583   5.826   2.052
 5761SOL     OW18181   3.495   0.770   4.463
 5761SOL    HW118182   3.522   0.723   4.379
 5761SOL    HW218183   3.467   0.864   4.442
 5762SOL     OW18184   4.678   0.462   1.289
 5762SOL    HW118185   4.639   0.549   1.260
 5762SOL    HW218186   4.778   0.468   1.291
 5763SOL     OW18187   3.839   0.857   1.142
 5763SOL    HW118188   3.744   0.856   1.173
 5763SOL    HW218189   3.853   0.933   1.079
 5764SOL     OW18190   3.597   2.726   6.690
 5764SOL    HW118191   3.640   2.803   6.738
 5764SOL    HW218192   3.498   2.738   6.690
 5765SOL     OW18193   6.877   4.928   6.140
 5765SOL    HW118194   6.851   4.971   6.054
 5765SOL    HW218195   6.957   4.973   6.178
 5766SOL     OW18196   2.309   1.762   3.441
 5766SOL    HW118197   2.237   1.727   3.500
 5766SOL    HW218198   2.333   1.692   3.373
 5767SOL     OW18199   4.634   6.280   0.373
 5767SOL    HW118200   4.661   6.344   0.302
 5767SOL    HW218201   4.701   6.206   0.379
 5768SOL     OW18202   5.507   0.011   2.287
 5768SOL    HW118203   5.525   0.065   2.369
 5768SOL    HW218204   5.414   6.991   2.290
 5769SOL     OW18205   6.974   5.027   3.683
 5769SOL    HW118206   0.007   5.003   3.767
 5769SOL    HW218207   6.988   4.955   3.615
 5770SOL     OW18208   5.060   2.555   0.859
 5770SOL    HW118209   5.063   2.576   0.761
 5770SOL    HW218210   4.988   2.610   0.902
 5771SOL     OW18211   0.699   0.372   1.455
 5771SOL    HW118212   0.770   0.303   1.444
 5771SOL    HW218213   0.628   0.359   1.387
 5772SOL     OW18214   5.996   4.992   5.658
 5772SOL    HW118215   5.926   4.922   5.671
 5772SOL    HW218216   6.066   4.981   5.728
 5773SOL     OW18217   5.024   6.127   5.471
 5773SOL    HW118218   5.009   6.119   5.569
 5773SOL    HW218219   4.962   6.195   5.433
 5774SOL     OW18220   1.740   4.443   1.688
 5774SOL    HW118221   1.707   4.352   1.716
 5774SOL    HW218222   1.696   4.469   1.602
 5775SOL     OW18223   1.495   1.234   0.578
 5775SOL    HW118224   1.504   1.165   0.507
 5775SOL    HW218225   1.495   1.189   0.668
 5776SOL     OW18226   5.182   0.734   5.850
 5776SOL    HW118227   5.138   0.824   5.855
 5776SOL    HW218228   5.147   0.676   5.923
 5777SOL     OW18229   4.715   6.474   5.025
 5777SOL    HW118230   4.728   6.566   5.063
 5777SOL    HW218231   4.678   6.481   4.932
 5778SOL     OW18232   2.322   6.662   3.675
 5778SOL    HW118233   2.344   6.757   3.700
 5778SOL    HW218234   2.371   6.600   3.736
 5779SOL     OW18235   3.304   6.423   2.218
 5779SOL    HW118236   3.359   6.491   2.266
 5779SOL    HW218237   3.232   6.469   2.165
 5780SOL     OW18238   6.883   4.619   6.827
 5780SOL    HW118239   6.836   4.559   6.762
 5780SOL    HW218240   6.864   4.588   6.920
 5781SOL     OW18241   4.814   4.942   5.598
 5781SOL    HW118242   4.777   4.959   5.506
 5781SOL    HW218243   4.900   4.992   5.608
 5782SOL     OW18244   4.713   1.725   2.701
 5782SOL    HW118245   4.677   1.792   2.636
 5782SOL    HW218246   4.789   1.675   2.658
 5783SOL     OW18247   3.005   6.417   3.669
 5783SOL    HW118248   2.922   6.402   3.615
 5783SOL    HW218249   3.022   6.337   3.727
 5784SOL     OW18250   0.070   6.647   2.315
 5784SOL    HW118251   0.063   6.718   2.385
 5784SOL    HW218252   0.156   6.597   2.326
 5785SOL     OW18253   2.668   1.059   5.585
 5785SOL    HW118254   2.570   1.073   5.598
 5785SOL    HW218255   2.695   1.094   5.496
 5786SOL     OW18256   2.351   1.332   6.108
 5786SOL    HW118257   2.425   1.301   6.047
 5786SOL    HW218258   2.286   1.258   6.121
 5787SOL     OW18259   0.605   2.185   6.306
 5787SOL    HW118260   0.567   2.121   6.239
 5787SOL    HW218261   0.579   2.278   6.281
 5788SOL     OW18262   0.508   2.468   1.823
 5788SOL    HW118263   0.601   2.437   1.803
 5788SOL    HW218264   0.487   2.549   1.768
 5789SOL     OW18265   3.459   1.588   6.803
 5789SOL    HW118266   3.466   1.670   6.860
 5789SOL    HW218267   3.378   1.536   6.830
 5790SOL     OW18268   6.154   6.046   2.466
 5790SOL    HW118269   6.108   6.123   2.422
 5790SOL    HW218270   6.099   6.014   2.543
 5791SOL     OW18271   3.781   0.793   1.765
 5791SOL    HW118272   3.770   0.853   1.685
 5791SOL    HW218273   3.844   0.836   1.830
 5792SOL     OW18274   4.761   1.884   2.367
 5792SOL    HW118275   4.830   1.935   2.419
 5792SOL    HW218276   4.702   1.948   2.318
 5793SOL     OW18277   4.391   1.726   0.417
 5793SOL    HW118278   4.361   1.777   0.498
 5793SOL    HW218279   4.437   1.642   0.446
 5794SOL     OW18280   3.340   6.484   6.796
 5794SOL    HW118281   3.406   6.523   6.732
 5794SOL    HW218282   3.345   6.384   6.792
 5795SOL     OW18283   0.524   0.049   1.850
 5795SOL    HW118284   0.437   0.012   1.883
 5795SOL    HW218285   0.511   0.089   1.760
 5796SOL     OW18286   4.731   0.952   5.979
 5796SOL    HW118287   4.635   0.969   6.001
 5796SOL    HW218288   4.787   0.962   6.061
 5797SOL     OW18289   5.949   1.503   6.241
 5797SOL    HW118290   5.959   1.423   6.299
 5797SOL    HW218291   5.852   1.527   6.233
 5798SOL     OW18292   2.307   2.812   4.490
 5798SOL    HW118293   2.364   2.851   4.562
 5798SOL    HW218294   2.267   2.886   4.435
 5799SOL     OW18295   2.903   0.997   3.759
 5799SOL    HW118296   2.854   1.077   3.723
 5799SOL    HW218297   2.845   0.951   3.826
 5800SOL     OW18298   1.878   6.160   1.378
 5800SOL    HW118299   1.893   6.139   1.282
 5800SOL    HW218300   1.789   6.204   1.390
 5801SOL     OW18301   1.343   2.162   3.240
 5801SOL    HW118302   1.323   2.253   3.205
 5801SOL    HW218303   1.291   2.147   3.324
 5802SOL     OW18304   0.341   6.562   2.393
 5802SOL    HW118305   0.429   6.602   2.420
 5802SOL    HW218306   0.338   6.466   2.421
 5803SOL     OW18307   0.120   6.963   4.426
 5803SOL    HW118308   0.115   6.936   4.330
 5803SOL    HW218309   0.035   6.939   4.472
 5804SOL     OW18310   6.286   2.692   3.029
 5804SOL    HW118311   6.374   2.683   2.982
 5804SOL    HW218312   6.261   2.789   3.036
 5805SOL     OW18313   0.677   1.655   1.572
 5805SOL    HW118314   0.591   1.625   1.613
 5805SOL    HW218315   0.750   1.591   1.597
 5806SOL     OW18316   6.568   3.782   1.760
 5806SOL    HW118317   6.568   3.845   1.838
 5806SOL    HW218318   6.520   3.825   1.684
 5807SOL     OW18319   1.047   0.847   3.006
 5807SOL    HW118320   1.033   0.936   2.962
 5807SOL    HW218321   1.037   0.775   2.937
 5808SOL     OW18322   5.920   5.627   5.927
 5808SOL    HW118323   5.822   5.641   5.914
 5808SOL    HW218324   5.935   5.541   5.976
 5809SOL     OW18325   6.614   3.578   5.271
 5809SOL    HW118326   6.636   3.664   5.316
 5809SOL    HW218327   6.522   3.548   5.299
 5810SOL     OW18328   0.946   6.199   4.703
 5810SOL    HW118329   0.851   6.213   4.730
 5810SOL    HW218330   0.956   6.218   4.605
 5811SOL     OW18331   2.958   5.199   0.168
 5811SOL    HW118332   2.978   5.289   0.204
 5811SOL    HW218333   2.955   5.203   0.068
 5812SOL     OW18334   6.270   2.399   6.034
 5812SOL    HW118335   6.170   2.396   6.032
 5812SOL    HW218336   6.304   2.326   6.094
 5813SOL     OW18337   6.692   5.507   0.785
 5813SOL    HW118338   6.672   5.587   0.729
 5813SOL    HW218339   6.758   5.449   0.738
 5814SOL     OW18340   4.972   1.627   2.674
 5814SOL    HW118341   5.012   1.681   2.599
 5814SOL    HW218342   4.990   1.673   2.761
 5815SOL     OW18343   0.218   4.672   4.667
 5815SOL    HW118344   0.167   4.670   4.581
 5815SOL    HW218345   0.216   4.581   4.709
 5816SOL     OW18346   6.778   3.596   1.307
 5816SOL    HW118347   6.725   3.680   1.313
 5816SOL    HW218348   6.729   3.523   1.355
 5817SOL     OW18349   0.001   2.210   3.482
 5817SOL    HW118350   6.934   2.221   3.429
 5817SOL    HW218351   0.062   2.146   3.436
 5818SOL     OW18352   2.772   1.649   3.842
 5818SOL    HW118353   2.811   1.692   3.924
 5818SOL    HW218354   2.685   1.694   3.820
 5819SOL     OW18355   4.252   4.547   1.612
 5819SOL    HW118356   4.241   4.449   1.593
 5819SOL    HW218357   4.167   4.582   1.653
 5820SOL     OW18358   0.969   6.312   2.181
 5820SOL    HW118359   0.910   6.308   2.261
 5820SOL    HW218360   0.969   6.223   2.135
 5821SOL     OW18361   4.853   5.839   1.659
 5821SOL    HW118362   4.810   5.881   1.740
 5821SOL    HW218363   4.858   5.906   1.585
 5822SOL     OW18364   1.177   4.207   3.326
 5822SOL    HW118365   1.225   4.120   3.334
 5822SOL    HW218366   1.242   4.279   3.303
 5823SOL     OW18367   1.915   6.555   5.121
 5823SOL    HW118368   1.822   6.554   5.086
 5823SOL    HW218369   1.937   6.647   5.155
 5824SOL     OW18370   1.718   5.659   2.176
 5824SOL    HW118371   1.637   5.601   2.188
 5824SOL    HW218372   1.690   5.754   2.167
 5825SOL     OW18373   3.507   2.047   4.439
 5825SOL    HW118374   3.441   2.112   4.477
 5825SOL    HW218375   3.481   1.954   4.464
 5826SOL     OW18376   1.266   6.221   5.752
 5826SOL    HW118377   1.176   6.197   5.788
 5826SOL    HW218378   1.329   6.236   5.828
 5827SOL     OW18379   1.189   5.124   4.026
 5827SOL    HW118380   1.150   5.172   4.105
 5827SOL    HW218381   1.227   5.036   4.056
 5828SOL     OW18382   4.844   0.310   4.880
 5828SOL    HW118383   4.866   0.358   4.796
 5828SOL    HW218384   4.884   0.359   4.958
 5829SOL     OW18385   1.672   1.234   2.739
 5829SOL    HW118386   1.714   1.276   2.658
 5829SOL    HW218387   1.730   1.160   2.772
 5830SOL     OW18388   4.805   4.962   3.730
 5830SOL    HW118389   4.838   4.931   3.819
 5830SOL    HW218390   4.741   5.038   3.743
 5831SOL     OW18391   2.184   1.272   3.665
 5831SOL    HW118392   2.191   1.362   3.708
 5831SOL    HW218393   2.100   1.227   3.695
 5832SOL     OW18394   3.204   5.547   3.605
 5832SOL    HW118395   3.143   5.502   3.670
 5832SOL    HW218396   3.215   5.643   3.630
 5833SOL     OW18397   2.495   4.504   1.387
 5833SOL    HW118398   2.465   4.568   1.458
 5833SOL    HW218399   2.493   4.550   1.298
 5834SOL     OW18400   6.552   1.068   6.495
 5834SOL    HW118401   6.527   0.976   6.524
 5834SOL    HW218402   6.490   1.098   6.422
 5835SOL     OW18403   3.552   0.924   3.378
 5835SOL    HW118404   3.545   0.969   3.466
 5835SOL    HW218405   3.509   0.834   3.383
 5836SOL     OW18406   5.956   4.623   1.230
 5836SOL    HW118407   5.896   4.678   1.172
 5836SOL    HW218408   6.050   4.634   1.199
 5837SOL     OW18409   1.815   3.868   6.820
 5837SOL    HW118410   1.815   3.785   6.876
 5837SOL    HW218411   1.721   3.888   6.790
 5838SOL     OW18412   3.346   3.374   0.273
 5838SOL    HW118413   3.309   3.321   0.348
 5838SOL    HW218414   3.285   3.452   0.254
 5839SOL     OW18415   2.450   1.899   0.708
 5839SOL    HW118416   2.427   1.841   0.631
 5839SOL    HW218417   2.545   1.929   0.700
 5840SOL     OW18418   6.208   3.458   2.541
 5840SOL    HW118419   6.185   3.395   2.467
 5840SOL    HW218420   6.126   3.508   2.570
 5841SOL     OW18421   5.024   1.491   6.890
 5841SOL    HW118422   5.105   1.465   6.838
 5841SOL    HW218423   5.050   1.547   6.968
 5842SOL     OW18424   3.492   1.707   2.331
 5842SOL    HW118425   3.397   1.737   2.319
 5842SOL    HW218426   3.540   1.771   2.391
 5843SOL     OW18427   3.419   2.665   1.483
 5843SOL    HW118428   3.339   2.692   1.428
 5843SOL    HW218429   3.388   2.634   1.573
 5844SOL     OW18430   6.212   5.554   4.969
 5844SOL    HW118431   6.162   5.583   5.050
 5844SOL    HW218432   6.262   5.631   4.930
 5845SOL     OW18433   2.155   6.125   2.953
 5845SOL    HW118434   2.079   6.121   2.889
 5845SOL    HW218435   2.234   6.078   2.913
 5846SOL     OW18436   0.389   4.128   5.225
 5846SOL    HW118437   0.472   4.090   5.266
 5846SOL    HW218438   0.341   4.057   5.173
 5847SOL     OW18439   2.076   3.722   5.601
 5847SOL    HW118440   2.165   3.730   5.646
 5847SOL    HW218441   2.088   3.689   5.508
 5848SOL     OW18442   3.132   6.490   2.000
 5848SOL    HW118443   3.112   6.574   1.950
 5848SOL    HW218444   3.050   6.433   2.005
 5849SOL     OW18445   3.074   6.496   6.588
 5849SOL    HW118446   3.152   6.559   6.598
 5849SOL    HW218447   3.042   6.469   6.679
 5850SOL     OW18448   5.951   2.939   0.931
 5850SOL    HW118449   5.855   2.959   0.910
 5850SOL    HW218450   5.971   2.844   0.911
 5851SOL     OW18451   1.269   2.984   6.155
 5851SOL    HW118452   1.305   2.921   6.224
 5851SOL    HW218453   1.217   3.057   6.200
 5852SOL     OW18454   3.946   4.870   3.438
 5852SOL    HW118455   4.014   4.797   3.424
 5852SOL    HW218456   3.982   4.937   3.502
 5853SOL     OW18457   4.535   4.865   6.917
 5853SOL    HW118458   4.467   4.823   6.977
 5853SOL    HW218459   4.620   4.812   6.922
 5854SOL     OW18460   2.457   4.226   5.317
 5854SOL    HW118461   2.410   4.158   5.260
 5854SOL    HW218462   2.504   4.292   5.259
 5855SOL     OW18463   1.072   2.158   4.541
 5855SOL    HW118464   1.000   2.189   4.479
 5855SOL    HW218465   1.071   2.058   4.545
 5856SOL     OW18466   0.433   1.065   2.400
 5856SOL    HW118467   0.431   1.049   2.498
 5856SOL    HW218468   0.491   0.996   2.357
 5857SOL     OW18469   6.319   5.839   6.884
 5857SOL    HW118470   6.229   5.824   6.842
 5857SOL    HW218471   6.307   5.880   6.974
 5858SOL     OW18472   3.001   1.807   0.922
 5858SOL    HW118473   2.963   1.794   1.013
 5858SOL    HW218474   3.087   1.757   0.913
 5859SOL     OW18475   6.486   4.909   1.480
 5859SOL    HW118476   6.486   4.949   1.571
 5859SOL    HW218477   6.458   4.979   1.414
 5860SOL     OW18478   1.751   2.900   1.754
 5860SOL    HW118479   1.834   2.846   1.739
 5860SOL    HW218480   1.705   2.867   1.837
 5861SOL     OW18481   4.894   6.306   4.728
 5861SOL    HW118482   4.860   6.221   4.768
 5861SOL    HW218483   4.969   6.286   4.665
 5862SOL     OW18484   0.166   5.200   1.651
 5862SOL    HW118485   0.222   5.234   1.576
 5862SOL    HW218486   0.161   5.269   1.723
 5863SOL     OW18487   3.869   0.158   5.724
 5863SOL    HW118488   3.829   0.248   5.744
 5863SOL    HW218489   3.819   0.116   5.648
 5864SOL     OW18490   3.889   3.829   3.320
 5864SOL    HW118491   3.974   3.853   3.366
 5864SOL    HW218492   3.811   3.864   3.372
 5865SOL     OW18493   6.966   6.109   1.243
 5865SOL    HW118494   0.037   6.105   1.291
 5865SOL    HW218495   6.905   6.038   1.277
 5866SOL     OW18496   3.034   3.675   3.697
 5866SOL    HW118497   3.121   3.626   3.702
 5866SOL    HW218498   2.971   3.625   3.637
 5867SOL     OW18499   5.079   0.951   0.215
 5867SOL    HW118500   5.010   0.983   0.280
 5867SOL    HW218501   5.044   0.871   0.166
 5868SOL     OW18502   1.519   1.015   0.431
 5868SOL    HW118503   1.519   1.068   0.346
 5868SOL    HW218504   1.430   0.972   0.444
 5869SOL     OW18505   2.188   5.430   3.349
 5869SOL    HW118506   2.196   5.425   3.449
 5869SOL    HW218507   2.259   5.373   3.308
 5870SOL     OW18508   4.005   6.241   3.931
 5870SOL    HW118509   3.918   6.289   3.923
 5870SOL    HW218510   3.989   6.142   3.933
 5871SOL     OW18511   4.111   3.534   3.266
 5871SOL    HW118512   4.182   3.488   3.214
 5871SOL    HW218513   4.134   3.531   3.364
 5872SOL     OW18514   4.035   5.125   1.532
 5872SOL    HW118515   4.079   5.122   1.442
 5872SOL    HW218516   3.972   5.048   1.541
 5873SOL     OW18517   3.729   6.906   2.279
 5873SOL    HW118518   3.672   6.973   2.326
 5873SOL    HW218519   3.769   6.947   2.197
 5874SOL     OW18520   0.516   3.336   4.061
 5874SOL    HW118521   0.517   3.436   4.055
 5874SOL    HW218522   0.562   3.297   3.981
 5875SOL     OW18523   3.914   2.447   1.494
 5875SOL    HW118524   4.013   2.457   1.509
 5875SOL    HW218525   3.872   2.538   1.497
 5876SOL     OW18526   4.053   3.760   2.764
 5876SOL    HW118527   3.958   3.790   2.774
 5876SOL    HW218528   4.080   3.768   2.668
 5877SOL     OW18529   4.466   4.954   1.871
 5877SOL    HW118530   4.384   4.944   1.814
 5877SOL    HW218531   4.542   4.985   1.814
 5878SOL     OW18532   0.502   3.921   2.520
 5878SOL    HW118533   0.463   3.992   2.460
 5878SOL    HW218534   0.573   3.962   2.577
 5879SOL     OW18535   1.811   4.151   5.143
 5879SOL    HW118536   1.810   4.210   5.062
 5879SOL    HW218537   1.847   4.061   5.119
 5880SOL     OW18538   2.383   5.350   0.347
 5880SOL    HW118539   2.432   5.281   0.293
 5880SOL    HW218540   2.305   5.307   0.392
 5881SOL     OW18541   1.668   5.850   4.537
 5881SOL    HW118542   1.746   5.850   4.600
 5881SOL    HW218543   1.601   5.782   4.567
 5882SOL     OW18544   4.990   0.380   3.288
 5882SOL    HW118545   5.055   0.307   3.268
 5882SOL    HW218546   4.916   0.378   3.221
 5883SOL     OW18547   0.844   3.374   5.559
 5883SOL    HW118548   0.887   3.462   5.539
 5883SOL    HW218549   0.914   3.306   5.579
 5884SOL     OW18550   0.112   1.282   3.753
 5884SOL    HW118551   0.024   1.239   3.734
 5884SOL    HW218552   0.102   1.382   3.746
 5885SOL     OW18553   6.414   5.298   0.582
 5885SOL    HW118554   6.319   5.267   0.586
 5885SOL    HW218555   6.470   5.228   0.537
 5886SOL     OW18556   6.103   2.039   5.945
 5886SOL    HW118557   6.198   2.039   5.913
 5886SOL    HW218558   6.074   2.133   5.960
 5887SOL     OW18559   3.547   0.030   2.435
 5887SOL    HW118560   3.507   6.988   2.506
 5887SOL    HW218561   3.498   0.117   2.431
 5888SOL     OW18562   0.084   6.108   2.154
 5888SOL    HW118563   0.043   6.030   2.200
 5888SOL    HW218564   0.014   6.160   2.106
 5889SOL     OW18565   2.980   6.977   1.085
 5889SOL    HW118566   3.010   0.035   1.024
 5889SOL    HW218567   2.885   6.954   1.063
 5890SOL     OW18568   4.341   5.258   5.959
 5890SOL    HW118569   4.293   5.299   6.037
 5890SOL    HW218570   4.297   5.287   5.874
 5891SOL     OW18571   2.308   3.128   6.631
 5891SOL    HW118572   2.271   3.217   6.659
 5891SOL    HW218573   2.348   3.082   6.710
 5892SOL     OW18574   3.296   5.369   1.245
 5892SOL    HW118575   3.390   5.355   1.213
 5892SOL    HW218576   3.281   5.318   1.330
 5893SOL     OW18577   0.488   3.299   2.219
 5893SOL    HW118578   0.565   3.363   2.208
 5893SOL    HW218579   0.523   3.210   2.250
 5894SOL     OW18580   2.153   4.564   3.602
 5894SOL    HW118581   2.144   4.527   3.510
 5894SOL    HW218582   2.063   4.594   3.634
 5895SOL     OW18583   4.621   5.126   3.037
 5895SOL    HW118584   4.685   5.152   3.110
 5895SOL    HW218585   4.671   5.079   2.964
 5896SOL     OW18586   5.753   2.352   5.634
 5896SOL    HW118587   5.660   2.386   5.649
 5896SOL    HW218588   5.753   2.285   5.560
 5897SOL     OW18589   4.533   4.453   0.092
 5897SOL    HW118590   4.546   4.522   0.163
 5897SOL    HW218591   4.440   4.459   0.056
 5898SOL     OW18592   1.923   5.829   2.560
 5898SOL    HW118593   1.845   5.845   2.620
 5898SOL    HW218594   1.968   5.744   2.585
 5899SOL     OW18595   5.047   0.805   3.605
 5899SOL    HW118596   4.955   0.771   3.583
 5899SOL    HW218597   5.051   0.903   3.585
 5900SOL     OW18598   3.884   5.132   2.202
 5900SOL    HW118599   3.870   5.094   2.294
 5900SOL    HW218600   3.935   5.217   2.209
 5901SOL     OW18601   2.808   6.378   3.246
 5901SOL    HW118602   2.793   6.309   3.175
 5901SOL    HW218603   2.834   6.465   3.202
 5902SOL     OW18604   0.098   1.831   0.483
 5902SOL    HW118605   0.053   1.809   0.397
 5902SOL    HW218606   0.075   1.762   0.551
 5903SOL     OW18607   1.111   1.851   6.302
 5903SOL    HW118608   1.174   1.906   6.248
 5903SOL    HW218609   1.035   1.907   6.334
 5904SOL     OW18610   0.247   3.007   2.416
 5904SOL    HW118611   0.264   3.096   2.457
 5904SOL    HW218612   0.158   2.972   2.447
 5905SOL     OW18613   0.040   3.493   2.409
 5905SOL    HW118614   0.089   3.578   2.394
 5905SOL    HW218615   0.090   3.417   2.368
 5906SOL     OW18616   6.100   1.538   3.173
 5906SOL    HW118617   6.196   1.512   3.159
 5906SOL    HW218618   6.072   1.514   3.266
 5907SOL     OW18619   1.553   0.777   1.845
 5907SOL    HW118620   1.573   0.853   1.907
 5907SOL    HW218621   1.458   0.748   1.858
 5908SOL     OW18622   0.446   2.938   5.160
 5908SOL    HW118623   0.525   2.925   5.220
 5908SOL    HW218624   0.427   3.036   5.152
 5909SOL     OW18625   0.005   4.325   6.122
 5909SOL    HW118626   0.105   4.335   6.121
 5909SOL    HW218627   6.991   4.273   6.043
 5910SOL     OW18628   1.625   1.834   3.542
 5910SOL    HW118629   1.574   1.780   3.475
 5910SOL    HW218630   1.722   1.834   3.519
 5911SOL     OW18631   5.712   4.641   6.550
 5911SOL    HW118632   5.750   4.551   6.532
 5911SOL    HW218633   5.717   4.697   6.466
 5912SOL     OW18634   0.968   1.822   2.189
 5912SOL    HW118635   0.870   1.836   2.175
 5912SOL    HW218636   1.021   1.882   2.130
 5913SOL     OW18637   0.008   3.385   1.248
 5913SOL    HW118638   6.973   3.305   1.218
 5913SOL    HW218639   6.977   3.468   1.217
 5914SOL     OW18640   1.223   6.417   0.512
 5914SOL    HW118641   1.219   6.348   0.440
 5914SOL    HW218642   1.141   6.475   0.506
 5915SOL     OW18643   5.256   0.658   5.191
 5915SOL    HW118644   5.203   0.726   5.242
 5915SOL    HW218645   5.343   0.699   5.162
 5916SOL     OW18646   0.835   0.830   3.177
 5916SOL    HW118647   0.841   0.887   3.259
 5916SOL    HW218648   0.906   0.858   3.113
 5917SOL     OW18649   3.684   3.669   0.901
 5917SOL    HW118650   3.753   3.680   0.973
 5917SOL    HW218651   3.728   3.673   0.811
 5918SOL     OW18652   3.331   6.476   5.460
 5918SOL    HW118653   3.253   6.498   5.519
 5918SOL    HW218654   3.375   6.561   5.430
 5919SOL     OW18655   2.872   3.477   4.484
 5919SOL    HW118656   2.846   3.565   4.444
 5919SOL    HW218657   2.887   3.489   4.582
 5920SOL     OW18658   1.799   0.491   5.217
 5920SOL    HW118659   1.703   0.476   5.242
 5920SOL    HW218660   1.806   0.506   5.118
 5921SOL     OW18661   3.206   4.635   1.294
 5921SOL    HW118662   3.232   4.602   1.385
 5921SOL    HW218663   3.115   4.601   1.271
 5922SOL     OW18664   5.182   2.378   2.493
 5922SOL    HW118665   5.159   2.465   2.449
 5922SOL    HW218666   5.281   2.367   2.496
 5923SOL     OW18667   5.912   1.089   2.327
 5923SOL    HW118668   5.946   1.143   2.404
 5923SOL    HW218669   5.872   1.004   2.360
 5924SOL     OW18670   0.304   5.795   3.100
 5924SOL    HW118671   0.206   5.774   3.099
 5924SOL    HW218672   0.345   5.766   3.014
 5925SOL     OW18673   4.037   0.500   0.852
 5925SOL    HW118674   4.130   0.473   0.830
 5925SOL    HW218675   4.010   0.578   0.795
 5926SOL     OW18676   4.864   3.351   3.181
 5926SOL    HW118677   4.885   3.448   3.164
 5926SOL    HW218678   4.848   3.338   3.279
 5927SOL     OW18679   1.195   0.319   1.193
 5927SOL    HW118680   1.279   0.266   1.183
 5927SOL    HW218681   1.119   0.258   1.213
 5928SOL     OW18682   3.145   0.489   6.181
 5928SOL    HW118683   3.234   0.444   6.179
 5928SOL    HW218684   3.074   0.423   6.206
 5929SOL     OW18685   1.841   0.946   1.031
 5929SOL    HW118686   1.781   0.937   1.110
 5929SOL    HW218687   1.935   0.962   1.062
 5930SOL     OW18688   6.901   4.934   2.173
 5930SOL    HW118689   6.925   4.992   2.096
 5930SOL    HW218690   6.913   4.984   2.258
 5931SOL     OW18691   5.020   0.912   4.995
 5931SOL    HW118692   5.017   0.911   5.095
 5931SOL    HW218693   4.944   0.857   4.960
 5932SOL     OW18694   2.702   5.432   0.967
 5932SOL    HW118695   2.730   5.375   0.890
 5932SOL    HW218696   2.608   5.464   0.952
 5933SOL     OW18697   6.188   5.459   4.357
 5933SOL    HW118698   6.248   5.399   4.304
 5933SOL    HW218699   6.183   5.548   4.312
 5934SOL     OW18700   2.776   4.449   0.195
 5934SOL    HW118701   2.801   4.490   0.283
 5934SOL    HW218702   2.693   4.394   0.206
 5935SOL     OW18703   1.552   0.353   5.276
 5935SOL    HW118704   1.587   0.356   5.370
 5935SOL    HW218705   1.516   0.261   5.258
 5936SOL     OW18706   3.856   3.010   1.974
 5936SOL    HW118707   3.857   2.961   1.887
 5936SOL    HW218708   3.767   2.997   2.018
 5937SOL     OW18709   0.770   2.741   0.705
 5937SOL    HW118710   0.809   2.787   0.785
 5937SOL    HW218711   0.840   2.686   0.661
 5938SOL     OW18712   0.892   3.061   3.850
 5938SOL    HW118713   0.856   2.979   3.893
 5938SOL    HW218714   0.881   3.139   3.912
 5939SOL     OW18715   5.191   2.199   6.126
 5939SOL    HW118716   5.222   2.226   6.217
 5939SOL    HW218717   5.218   2.104   6.108
 5940SOL     OW18718   4.266   5.115   1.074
 5940SOL    HW118719   4.337   5.057   1.114
 5940SOL    HW218720   4.306   5.203   1.048
 5941SOL     OW18721   1.686   1.907   3.799
 5941SOL    HW118722   1.653   1.912   3.705
 5941SOL    HW218723   1.784   1.928   3.802
 5942SOL     OW18724   4.797   2.445   6.280
 5942SOL    HW118725   4.872   2.378   6.291
 5942SOL    HW218726   4.794   2.504   6.360
 5943SOL     OW18727   2.112   4.877   2.176
 5943SOL    HW118728   2.106   4.966   2.220
 5943SOL    HW218729   2.102   4.805   2.245
 5944SOL     OW18730   6.758   3.449   5.791
 5944SOL    HW118731   6.729   3.479   5.700
 5944SOL    HW218732   6.692   3.481   5.859
 5945SOL     OW18733   0.373   6.399   4.494
 5945SOL    HW118734   0.416   6.313   4.467
 5945SOL    HW218735   0.441   6.458   4.538
 5946SOL     OW18736   3.206   2.679   6.935
 5946SOL    HW118737   3.148   2.662   7.015
 5946SOL    HW218738   3.195   2.604   6.870
 5947SOL     OW18739   3.487   3.868   5.938
 5947SOL    HW118740   3.449   3.779   5.962
 5947SOL    HW218741   3.444   3.901   5.854
 5948SOL     OW18742   4.739   3.133   1.125
 5948SOL    HW118743   4.646   3.101   1.142
 5948SOL    HW218744   4.751   3.224   1.164
 5949SOL     OW18745   1.199   4.909   4.340
 5949SOL    HW118746   1.269   4.968   4.379
 5949SOL    HW218747   1.151   4.861   4.414
 5950SOL     OW18748   1.824   6.164   4.986
 5950SOL    HW118749   1.755   6.237   4.984
 5950SOL    HW218750   1.777   6.076   4.985
 5951SOL     OW18751   6.628   3.422   6.577
 5951SOL    HW118752   6.542   3.470   6.595
 5951SOL    HW218753   6.684   3.476   6.514
 5952SOL     OW18754   3.907   4.179   1.701
 5952SOL    HW118755   3.879   4.127   1.620
 5952SOL    HW218756   3.950   4.118   1.767
 5953SOL     OW18757   0.213   2.959   6.509
 5953SOL    HW118758   0.284   3.028   6.498
 5953SOL    HW218759   0.152   2.985   6.583
 5954SOL     OW18760   2.819   5.508   3.751
 5954SOL    HW118761   2.805   5.428   3.809
 5954SOL    HW218762   2.744   5.515   3.686
 5955SOL     OW18763   4.776   2.638   0.001
 5955SOL    HW118764   4.761   2.716   6.956
 5955SOL    HW218765   4.869   2.642   0.037
 5956SOL     OW18766   3.865   2.019   6.701
 5956SOL    HW118767   3.911   2.066   6.625
 5956SOL    HW218768   3.832   2.087   6.767
 5957SOL     OW18769   6.736   3.005   3.656
 5957SOL    HW118770   6.670   3.032   3.585
 5957SOL    HW218771   6.821   3.056   3.644
 5958SOL     OW18772   2.212   6.594   1.994
 5958SOL    HW118773   2.199   6.566   1.899
 5958SOL    HW218774   2.285   6.539   2.035
 5959SOL     OW18775   4.907   4.384   3.338
 5959SOL    HW118776   4.876   4.469   3.382
 5959SOL    HW218777   4.828   4.336   3.301
 5960SOL     OW18778   6.738   6.579   6.641
 5960SOL    HW118779   6.750   6.495   6.588
 5960SOL    HW218780   6.826   6.625   6.651
 5961SOL     OW18781   1.625   2.220   3.603
 5961SOL    HW118782   1.568   2.138   3.599
 5961SOL    HW218783   1.702   2.211   3.541
 5962SOL     OW18784   5.577   5.456   0.664
 5962SOL    HW118785   5.481   5.434   0.650
 5962SOL    HW218786   5.595   5.465   0.762
 5963SOL     OW18787   2.266   3.969   1.436
 5963SOL    HW118788   2.239   3.931   1.525
 5963SOL    HW218789   2.364   3.992   1.439
 5964SOL     OW18790   1.627   6.413   4.329
 5964SOL    HW118791   1.627   6.374   4.236
 5964SOL    HW218792   1.539   6.395   4.372
 5965SOL     OW18793   1.948   0.473   1.476
 5965SOL    HW118794   1.937   0.403   1.405
 5965SOL    HW218795   1.995   0.552   1.437
 5966SOL     OW18796   2.712   1.555   4.881
 5966SOL    HW118797   2.746   1.472   4.924
 5966SOL    HW218798   2.753   1.635   4.924
 5967SOL     OW18799   5.100   2.194   5.582
 5967SOL    HW118800   5.103   2.294   5.574
 5967SOL    HW218801   5.006   2.165   5.598
 5968SOL     OW18802   6.371   1.454   3.148
 5968SOL    HW118803   6.393   1.527   3.084
 5968SOL    HW218804   6.405   1.477   3.239
 5969SOL     OW18805   5.435   6.223   1.611
 5969SOL    HW118806   5.424   6.126   1.594
 5969SOL    HW218807   5.410   6.275   1.529
 5970SOL     OW18808   6.580   1.265   0.471
 5970SOL    HW118809   6.594   1.309   0.382
 5970SOL    HW218810   6.496   1.211   0.469
 5971SOL     OW18811   6.683   5.650   3.903
 5971SOL    HW118812   6.751   5.723   3.895
 5971SOL    HW218813   6.730   5.562   3.912
 5972SOL     OW18814   6.664   5.313   0.125
 5972SOL    HW118815   6.596   5.386   0.123
 5972SOL    HW218816   6.756   5.353   0.128
 5973SOL     OW18817   3.560   0.460   1.916
 5973SOL    HW118818   3.557   0.505   2.005
 5973SOL    HW218819   3.488   0.498   1.858
 5974SOL     OW18820   5.826   0.867   4.776
 5974SOL    HW118821   5.769   0.940   4.739
 5974SOL    HW218822   5.834   0.794   4.709
 5975SOL     OW18823   3.883   4.279   0.355
 5975SOL    HW118824   3.823   4.207   0.390
 5975SOL    HW218825   3.929   4.324   0.432
 5976SOL     OW18826   0.834   2.062   6.340
 5976SOL    HW118827   0.746   2.107   6.325
 5976SOL    HW218828   0.819   1.966   6.363
 5977SOL     OW18829   0.303   5.511   1.768
 5977SOL    HW118830   0.371   5.477   1.703
 5977SOL    HW218831   0.276   5.604   1.743
 5978SOL     OW18832   2.974   3.848   6.257
 5978SOL    HW118833   3.067   3.863   6.222
 5978SOL    HW218834   2.979   3.801   6.345
 5979SOL     OW18835   5.958   1.266   1.622
 5979SOL    HW118836   5.883   1.316   1.664
 5979SOL    HW218837   5.934   1.169   1.613
 5980SOL     OW18838   3.770   2.825   0.248
 5980SOL    HW118839   3.814   2.766   0.181
 5980SOL    HW218840   3.810   2.809   0.338
 5981SOL     OW18841   4.318   1.953   0.629
 5981SOL    HW118842   4.336   2.043   0.668
 5981SOL    HW218843   4.225   1.924   0.653
 5982SOL     OW18844   5.911   2.855   1.317
 5982SOL    HW118845   5.950   2.933   1.268
 5982SOL    HW218846   5.838   2.887   1.378
 5983SOL     OW18847   0.579   1.703   3.643
 5983SOL    HW118848   0.636   1.625   3.671
 5983SOL    HW218849   0.483   1.681   3.659
 5984SOL     OW18850   6.778   5.988   1.882
 5984SOL    HW118851   6.791   5.910   1.943
 5984SOL    HW218852   6.682   5.993   1.854
 5985SOL     OW18853   0.153   4.473   2.427
 5985SOL    HW118854   0.237   4.524   2.443
 5985SOL    HW218855   0.129   4.478   2.330
 5986SOL     OW18856   4.067   3.249   3.528
 5986SOL    HW118857   4.009   3.218   3.453
 5986SOL    HW218858   4.065   3.181   3.602
 5987SOL     OW18859   0.198   6.074   3.685
 5987SOL    HW118860   0.175   6.163   3.725
 5987SOL    HW218861   0.291   6.076   3.649
 5988SOL     OW18862   1.902   1.956   0.171
 5988SOL    HW118863   1.946   1.949   0.261
 5988SOL    HW218864   1.855   1.870   0.150
 5989SOL     OW18865   2.702   6.417   6.042
 5989SOL    HW118866   2.750   6.340   6.084
 5989SOL    HW218867   2.766   6.492   6.027
 5990SOL     OW18868   2.450   4.091   1.808
 5990SOL    HW118869   2.540   4.049   1.811
 5990SOL    HW218870   2.458   4.186   1.776
 5991SOL     OW18871   5.129   1.305   0.077
 5991SOL    HW118872   5.091   1.219   0.042
 5991SOL    HW218873   5.203   1.336   0.017
 5992SOL     OW18874   2.476   4.461   2.218
 5992SOL    HW118875   2.472   4.504   2.128
 5992SOL    HW218876   2.571   4.436   2.238
 5993SOL     OW18877   5.887   0.733   7.010
 5993SOL    HW118878   5.925   0.811   6.959
 5993SOL    HW218879   5.806   0.700   6.963
 5994SOL     OW18880   0.394   5.168   1.269
 5994SOL    HW118881   0.369   5.186   1.174
 5994SOL    HW218882   0.334   5.097   1.307
 5995SOL     OW18883   5.488   4.440   1.496
 5995SOL    HW118884   5.543   4.521   1.474
 5995SOL    HW218885   5.502   4.371   1.425
 5996SOL     OW18886   2.617   1.071   1.795
 5996SOL    HW118887   2.685   1.044   1.862
 5996SOL    HW218888   2.531   1.094   1.841
 5997SOL     OW18889   6.632   0.871   4.710
 5997SOL    HW118890   6.651   0.920   4.795
 5997SOL    HW218891   6.534   0.855   4.702
 5998SOL     OW18892   5.737   6.324   0.227
 5998SOL    HW118893   5.806   6.261   0.262
 5998SOL    HW218894   5.667   6.339   0.296
 5999SOL     OW18895   6.055   3.032   1.151
 5999SOL    HW118896   6.014   3.006   1.064
 5999SOL    HW218897   6.089   3.126   1.145
 6000SOL     OW18898   0.510   5.262   1.979
 6000SOL    HW118899   0.413   5.272   2.001
 6000SOL    HW218900   0.529   5.168   1.951
 6001SOL     OW18901   0.104   6.224   6.132
 6001SOL    HW118902   0.161   6.173   6.197
 6001SOL    HW218903   0.156   6.303   6.098
 6002SOL     OW18904   5.820   4.694   4.686
 6002SOL    HW118905   5.859   4.692   4.778
 6002SOL    HW218906   5.779   4.784   4.669
 6003SOL     OW18907   2.366   0.517   4.780
 6003SOL    HW118908   2.308   0.454   4.728
 6003SOL    HW218909   2.348   0.505   4.878
 6004SOL     OW18910   5.278   2.934   4.949
 6004SOL    HW118911   5.219   2.950   4.870
 6004SOL    HW218912   5.367   2.900   4.918
 6005SOL     OW18913   3.851   3.871   0.464
 6005SOL    HW118914   3.808   3.801   0.520
 6005SOL    HW218915   3.917   3.830   0.401
 6006SOL     OW18916   3.064   6.480   5.992
 6006SOL    HW118917   3.017   6.564   5.965
 6006SOL    HW218918   3.014   6.437   6.067
 6007SOL     OW18919   2.949   6.916   4.059
 6007SOL    HW118920   2.893   6.835   4.070
 6007SOL    HW218921   2.892   6.998   4.062
 6008SOL     OW18922   2.234   3.956   6.616
 6008SOL    HW118923   2.198   3.902   6.540
 6008SOL    HW218924   2.160   3.980   6.679
 6009SOL     OW18925   2.143   5.505   1.990
 6009SOL    HW118926   2.072   5.559   2.035
 6009SOL    HW218927   2.159   5.421   2.041
 6010SOL     OW18928   0.465   5.350   6.189
 6010SOL    HW118929   0.428   5.432   6.232
 6010SOL    HW218930   0.544   5.318   6.241
 6011SOL     OW18931   5.427   1.600   3.421
 6011SOL    HW118932   5.373   1.516   3.424
 6011SOL    HW218933   5.488   1.598   3.342
 6012SOL     OW18934   6.389   1.305   5.475
 6012SOL    HW118935   6.386   1.305   5.375
 6012SOL    HW218936   6.296   1.310   5.511
 6013SOL     OW18937   5.802   2.014   3.089
 6013SOL    HW118938   5.845   1.926   3.106
 6013SOL    HW218939   5.858   2.066   3.024
 6014SOL     OW18940   4.134   3.652   4.114
 6014SOL    HW118941   4.089   3.571   4.078
 6014SOL    HW218942   4.128   3.652   4.214
 6015SOL     OW18943   6.859   0.227   3.265
 6015SOL    HW118944   6.900   0.183   3.185
 6015SOL    HW218945   6.764   0.250   3.246
 6016SOL     OW18946   4.457   2.055   4.292
 6016SOL    HW118947   4.393   2.041   4.367
 6016SOL    HW218948   4.424   2.129   4.233
 6017SOL     OW18949   1.054   2.641   5.274
 6017SOL    HW118950   1.118   2.604   5.207
 6017SOL    HW218951   1.072   2.598   5.363
 6018SOL     OW18952   2.336   1.032   4.134
 6018SOL    HW118953   2.317   0.934   4.130
 6018SOL    HW218954   2.276   1.075   4.202
 6019SOL     OW18955   6.687   3.326   6.168
 6019SOL    HW118956   6.750   3.263   6.124
 6019SOL    HW218957   6.686   3.413   6.119
 6020SOL     OW18958   0.352   5.628   4.756
 6020SOL    HW118959   0.387   5.553   4.701
 6020SOL    HW218960   0.368   5.608   4.853
 6021SOL     OW18961   5.359   0.158   4.033
 6021SOL    HW118962   5.278   0.130   3.983
 6021SOL    HW218963   5.425   0.199   3.970
 6022SOL     OW18964   6.657   3.488   1.713
 6022SOL    HW118965   6.686   3.436   1.794
 6022SOL    HW218966   6.698   3.579   1.716
 6023SOL     OW18967   3.976   0.476   2.910
 6023SOL    HW118968   4.026   0.453   2.827
 6023SOL    HW218969   4.001   0.413   2.983
 6024SOL     OW18970   0.322   6.635   7.006
 6024SOL    HW118971   0.226   6.611   0.005
 6024SOL    HW218972   0.329   6.734   6.992
 6025SOL     OW18973   3.736   0.484   5.360
 6025SOL    HW118974   3.719   0.467   5.264
 6025SOL    HW218975   3.664   0.442   5.415
 6026SOL     OW18976   5.054   6.520   3.713
 6026SOL    HW118977   5.093   6.453   3.649
 6026SOL    HW218978   5.114   6.530   3.792
 6027SOL     OW18979   6.085   4.061   6.203
 6027SOL    HW118980   6.180   4.070   6.173
 6027SOL    HW218981   6.075   3.977   6.257
 6028SOL     OW18982   6.280   5.691   6.544
 6028SOL    HW118983   6.215   5.616   6.552
 6028SOL    HW218984   6.372   5.658   6.563
 6029SOL     OW18985   2.558   1.838   2.482
 6029SOL    HW118986   2.509   1.891   2.412
 6029SOL    HW218987   2.579   1.747   2.445
 6030SOL     OW18988   6.171   3.022   4.947
 6030SOL    HW118989   6.109   3.023   4.868
 6030SOL    HW218990   6.164   2.934   4.993
 6031SOL     OW18991   0.191   0.227   3.681
 6031SOL    HW118992   0.134   0.304   3.709
 6031SOL    HW218993   0.142   0.170   3.615
 6032SOL     OW18994   2.854   0.313   3.176
 6032SOL    HW118995   2.899   0.234   3.134
 6032SOL    HW218996   2.883   0.396   3.129
 6033SOL     OW18997   1.066   1.735   2.600
 6033SOL    HW118998   1.142   1.708   2.660
 6033SOL    HW218999   1.085   1.825   2.561
 6034SOL     OW19000   0.761   0.607   1.152
 6034SOL    HW119001   0.800   0.606   1.244
 6034SOL    HW219002   0.669   0.647   1.155
 6035SOL     OW19003   2.093   1.194   2.732
 6035SOL    HW119004   2.070   1.238   2.645
 6035SOL    HW219005   2.046   1.241   2.807
 6036SOL     OW19006   0.190   3.350   0.287
 6036SOL    HW119007   0.264   3.284   0.299
 6036SOL    HW219008   0.112   3.304   0.243
 6037SOL     OW19009   4.321   0.245   6.855
 6037SOL    HW119010   4.374   0.253   6.770
 6037SOL    HW219011   4.321   0.150   6.885
 6038SOL     OW19012   2.452   1.623   0.149
 6038SOL    HW119013   2.528   1.687   0.158
 6038SOL    HW219014   2.480   1.533   0.180
 6039SOL     OW19015   3.179   3.100   3.840
 6039SOL    HW119016   3.123   3.089   3.922
 6039SOL    HW219017   3.120   3.117   3.761
 6040SOL     OW19018   6.852   0.728   0.864
 6040SOL    HW119019   6.900   0.786   0.930
 6040SOL    HW219020   6.912   0.655   0.833
 6041SOL     OW19021   0.571   3.249   4.304
 6041SOL    HW119022   0.529   3.262   4.215
 6041SOL    HW219023   0.505   3.209   4.367
 6042SOL     OW19024   2.948   5.755   2.859
 6042SOL    HW119025   2.872   5.741   2.923
 6042SOL    HW219026   2.978   5.667   2.823
 6043SOL     OW19027   1.942   4.514   1.179
 6043SOL    HW119028   1.944   4.609   1.151
 6043SOL    HW219029   1.927   4.508   1.278
 6044SOL     OW19030   6.505   3.933   6.999
 6044SOL    HW119031   6.474   3.998   0.052
 6044SOL    HW219032   6.429   3.877   6.968
 6045SOL     OW19033   4.471   1.238   4.098
 6045SOL    HW119034   4.483   1.291   4.014
 6045SOL    HW219035   4.375   1.241   4.127
 6046SOL     OW19036   3.299   3.823   2.442
 6046SOL    HW119037   3.271   3.901   2.387
 6046SOL    HW219038   3.398   3.811   2.435
 6047SOL     OW19039   0.179   1.313   0.808
 6047SOL    HW119040   0.141   1.286   0.896
 6047SOL    HW219041   0.231   1.399   0.818
 6048SOL     OW19042   6.192   5.861   3.470
 6048SOL    HW119043   6.215   5.901   3.559
 6048SOL    HW219044   6.212   5.763   3.472
 6049SOL     OW19045   5.682   4.637   0.285
 6049SOL    HW119046   5.727   4.578   0.352
 6049SOL    HW219047   5.589   4.604   0.268
 6050SOL     OW19048   2.315   5.801   3.197
 6050SOL    HW119049   2.274   5.892   3.206
 6050SOL    HW219050   2.256   5.734   3.241
 6051SOL     OW19051   0.257   2.120   2.883
 6051SOL    HW119052   0.174   2.065   2.874
 6051SOL    HW219053   0.233   2.217   2.879
 6052SOL     OW19054   5.070   5.850   0.027
 6052SOL    HW119055   5.167   5.832   0.038
 6052SOL    HW219056   5.046   5.846   6.946
 6053SOL     OW19057   3.494   2.151   6.008
 6053SOL    HW119058   3.521   2.173   5.914
 6053SOL    HW219059   3.418   2.086   6.006
 6054SOL     OW19060   4.075   3.731   6.488
 6054SOL    HW119061   4.101   3.646   6.533
 6054SOL    HW219062   4.145   3.800   6.506
 6055SOL     OW19063   3.084   4.659   1.753
 6055SOL    HW119064   3.006   4.599   1.772
 6055SOL    HW219065   3.092   4.728   1.824
 6056SOL     OW19066   5.174   6.626   3.139
 6056SOL    HW119067   5.166   6.617   3.238
 6056SOL    HW219068   5.269   6.610   3.111
 6057SOL     OW19069   5.499   1.256   3.918
 6057SOL    HW119070   5.447   1.317   3.859
 6057SOL    HW219071   5.476   1.275   4.014
 6058SOL     OW19072   6.817   3.810   6.562
 6058SOL    HW119073   6.736   3.854   6.523
 6058SOL    HW219074   6.849   3.738   6.501
 6059SOL     OW19075   4.378   2.190   6.219
 6059SOL    HW119076   4.284   2.223   6.213
 6059SOL    HW219077   4.380   2.093   6.194
 6060SOL     OW19078   2.215   2.056   1.453
 6060SOL    HW119079   2.206   1.958   1.471
 6060SOL    HW219080   2.284   2.070   1.381
 6061SOL     OW19081   2.509   4.623   6.381
 6061SOL    HW119082   2.537   4.590   6.291
 6061SOL    HW219083   2.504   4.722   6.380
 6062SOL     OW19084   1.911   2.364   5.086
 6062SOL    HW119085   1.909   2.396   4.991
 6062SOL    HW219086   1.884   2.438   5.147
 6063SOL     OW19087   4.242   3.506   5.557
 6063SOL    HW119088   4.217   3.543   5.647
 6063SOL    HW219089   4.341   3.513   5.545
 6064SOL     OW19090   5.679   5.405   0.069
 6064SOL    HW119091   5.683   5.433   0.165
 6064SOL    HW219092   5.762   5.355   0.045
 6065SOL     OW19093   1.404   5.291   1.224
 6065SOL    HW119094   1.395   5.218   1.156
 6065SOL    HW219095   1.318   5.342   1.230
 6066SOL     OW19096   5.140   5.829   3.015
 6066SOL    HW119097   5.060   5.866   2.968
 6066SOL    HW219098   5.161   5.738   2.977
 6067SOL     OW19099   6.670   5.041   5.418
 6067SOL    HW119100   6.586   5.013   5.464
 6067SOL    HW219101   6.737   4.966   5.424
 6068SOL     OW19102   4.644   2.051   3.512
 6068SOL    HW119103   4.636   2.036   3.414
 6068SOL    HW219104   4.733   2.092   3.533
 6069SOL     OW19105   1.150   5.135   5.344
 6069SOL    HW119106   1.210   5.177   5.412
 6069SOL    HW219107   1.186   5.152   5.253
 6070SOL     OW19108   2.831   0.734   1.559
 6070SOL    HW119109   2.815   0.832   1.562
 6070SOL    HW219110   2.769   0.692   1.493
 6071SOL     OW19111   6.583   6.812   6.617
 6071SOL    HW119112   6.646   6.734   6.625
 6071SOL    HW219113   6.557   6.842   6.709
 6072SOL     OW19114   0.124   2.763   6.944
 6072SOL    HW119115   0.148   2.860   6.954
 6072SOL    HW219116   0.044   2.742   7.001
 6073SOL     OW19117   4.473   4.327   6.839
 6073SOL    HW119118   4.497   4.398   6.905
 6073SOL    HW219119   4.542   4.325   6.766
 6074SOL     OW19120   1.575   6.085   2.272
 6074SOL    HW119121   1.529   6.026   2.338
 6074SOL    HW219122   1.630   6.029   2.210
 6075SOL     OW19123   6.754   6.598   6.966
 6075SOL    HW119124   6.748   6.657   0.031
 6075SOL    HW219125   6.673   6.612   6.909
 6076SOL     OW19126   0.102   6.234   2.913
 6076SOL    HW119127   0.013   6.226   2.958
 6076SOL    HW219128   0.153   6.149   2.925
 6077SOL     OW19129   4.908   5.927   2.872
 6077SOL    HW119130   4.917   6.020   2.906
 6077SOL    HW219131   4.811   5.902   2.869
 6078SOL     OW19132   5.670   3.801   0.417
 6078SOL    HW119133   5.596   3.809   0.351
 6078SOL    HW219134   5.699   3.705   0.422
 6079SOL     OW19135   3.396   1.804   6.927
 6079SOL    HW119136   3.358   1.789   0.002
 6079SOL    HW219137   3.333   1.859   6.873
 6080SOL     OW19138   5.933   3.500   5.449
 6080SOL    HW119139   5.944   3.427   5.381
 6080SOL    HW219140   6.014   3.558   5.449
 6081SOL     OW19141   1.884   4.589   4.023
 6081SOL    HW119142   1.841   4.676   4.048
 6081SOL    HW219143   1.959   4.570   4.087
 6082SOL     OW19144   4.163   1.542   1.250
 6082SOL    HW119145   4.183   1.640   1.250
 6082SOL    HW219146   4.123   1.516   1.161
 6083SOL     OW19147   5.176   1.068   5.504
 6083SOL    HW119148   5.257   1.108   5.548
 6083SOL    HW219149   5.104   1.137   5.498
 6084SOL     OW19150   6.277   5.038   3.302
 6084SOL    HW119151   6.325   4.974   3.242
 6084SOL    HW219152   6.323   5.042   3.390
 6085SOL     OW19153   0.730   6.389   1.262
 6085SOL    HW119154   0.765   6.468   1.314
 6085SOL    HW219155   0.807   6.333   1.232
 6086SOL     OW19156   4.854   3.029   0.443
 6086SOL    HW119157   4.756   3.013   0.456
 6086SOL    HW219158   4.905   2.946   0.465
 6087SOL     OW19159   4.061   1.237   6.463
 6087SOL    HW119160   3.983   1.196   6.510
 6087SOL    HW219161   4.131   1.167   6.449
 6088SOL     OW19162   4.006   6.370   2.932
 6088SOL    HW119163   4.031   6.325   3.018
 6088SOL    HW219164   3.935   6.316   2.886
 6089SOL     OW19165   5.874   5.262   2.618
 6089SOL    HW119166   5.876   5.186   2.554
 6089SOL    HW219167   5.941   5.247   2.690
 6090SOL     OW19168   3.844   6.002   4.713
 6090SOL    HW119169   3.780   5.989   4.637
 6090SOL    HW219170   3.931   5.957   4.691
 6091SOL     OW19171   0.520   3.032   2.269
 6091SOL    HW119172   0.513   3.018   2.170
 6091SOL    HW219173   0.437   2.998   2.313
 6092SOL     OW19174   1.788   6.710   0.942
 6092SOL    HW119175   1.831   6.778   0.883
 6092SOL    HW219176   1.787   6.622   0.895
 6093SOL     OW19177   3.822   3.405   2.389
 6093SOL    HW119178   3.912   3.448   2.388
 6093SOL    HW219179   3.810   3.356   2.475
 6094SOL     OW19180   0.367   6.813   5.631
 6094SOL    HW119181   0.442   6.747   5.636
 6094SOL    HW219182   0.356   6.845   5.537
 6095SOL     OW19183   5.622   4.999   2.273
 6095SOL    HW119184   5.608   4.955   2.362
 6095SOL    HW219185   5.584   5.091   2.274
 6096SOL     OW19186   4.920   6.189   2.952
 6096SOL    HW119187   4.934   6.209   3.049
 6096SOL    HW219188   4.954   6.265   2.897
 6097SOL     OW19189   1.783   4.942   0.931
 6097SOL    HW119190   1.822   4.898   1.013
 6097SOL    HW219191   1.739   5.028   0.958
 6098SOL     OW19192   6.022   1.429   5.212
 6098SOL    HW119193   6.063   1.420   5.302
 6098SOL    HW219194   5.996   1.524   5.196
 6099SOL     OW19195   3.252   6.816   5.611
 6099SOL    HW119196   3.152   6.822   5.609
 6099SOL    HW219197   3.291   6.889   5.556
 6100SOL     OW19198   6.557   5.572   6.029
 6100SOL    HW119199   6.493   5.648   6.016
 6100SOL    HW219200   6.584   5.535   5.940
 6101SOL     OW19201   1.105   2.868   0.732
 6101SOL    HW119202   1.092   2.781   0.683
 6101SOL    HW219203   1.037   2.934   0.700
 6102SOL     OW19204   2.444   0.240   2.590
 6102SOL    HW119205   2.496   0.285   2.518
 6102SOL    HW219206   2.475   0.145   2.599
 6103SOL     OW19207   5.666   0.504   2.896
 6103SOL    HW119208   5.679   0.420   2.947
 6103SOL    HW219209   5.589   0.555   2.934
 6104SOL     OW19210   0.249   0.222   5.211
 6104SOL    HW119211   0.244   0.216   5.311
 6104SOL    HW219212   0.344   0.214   5.182
 6105SOL     OW19213   3.778   5.153   6.567
 6105SOL    HW119214   3.706   5.172   6.500
 6105SOL    HW219215   3.845   5.228   6.566
 6106SOL     OW19216   6.355   3.725   5.824
 6106SOL    HW119217   6.282   3.786   5.855
 6106SOL    HW219218   6.382   3.665   5.899
 6107SOL     OW19219   6.679   4.618   4.905
 6107SOL    HW119220   6.682   4.521   4.928
 6107SOL    HW219221   6.767   4.646   4.866
 6108SOL     OW19222   3.366   0.613   5.912
 6108SOL    HW119223   3.269   0.627   5.928
 6108SOL    HW219224   3.379   0.533   5.854
 6109SOL     OW19225   6.372   6.711   3.567
 6109SOL    HW119226   6.410   6.637   3.512
 6109SOL    HW219227   6.416   6.712   3.657
 6110SOL     OW19228   0.865   1.825   4.302
 6110SOL    HW119229   0.815   1.909   4.281
 6110SOL    HW219230   0.962   1.837   4.279
 6111SOL     OW19231   3.032   3.036   1.244
 6111SOL    HW119232   2.991   3.127   1.232
 6111SOL    HW219233   3.107   3.024   1.180
 6112SOL     OW19234   4.871   6.031   4.097
 6112SOL    HW119235   4.946   5.971   4.070
 6112SOL    HW219236   4.784   5.982   4.086
 6113SOL     OW19237   3.273   5.004   1.444
 6113SOL    HW119238   3.249   5.101   1.439
 6113SOL    HW219239   3.198   4.953   1.486
 6114SOL     OW19240   5.223   3.809   1.459
 6114SOL    HW119241   5.184   3.749   1.389
 6114SOL    HW219242   5.155   3.875   1.489
 6115SOL     OW19243   5.905   0.985   4.529
 6115SOL    HW119244   5.926   0.989   4.431
 6115SOL    HW219245   5.852   0.902   4.548
 6116SOL     OW19246   5.897   2.500   0.614
 6116SOL    HW119247   5.978   2.441   0.612
 6116SOL    HW219248   5.864   2.515   0.520
 6117SOL     OW19249   3.182   1.841   1.295
 6117SOL    HW119250   3.132   1.849   1.381
 6117SOL    HW219251   3.217   1.930   1.267
 6118SOL     OW19252   5.998   0.246   1.409
 6118SOL    HW119253   6.015   0.214   1.502
 6118SOL    HW219254   6.007   0.345   1.405
 6119SOL     OW19255   0.584   1.397   6.079
 6119SOL    HW119256   0.503   1.455   6.070
 6119SOL    HW219257   0.578   1.322   6.014
 6120SOL     OW19258   3.338   1.206   3.537
 6120SOL    HW119259   3.299   1.292   3.504
 6120SOL    HW219260   3.354   1.212   3.635
 6121SOL     OW19261   4.090   1.038   5.553
 6121SOL    HW119262   4.084   1.039   5.454
 6121SOL    HW219263   4.035   1.113   5.591
 6122SOL     OW19264   4.907   4.231   5.016
 6122SOL    HW119265   4.985   4.291   5.031
 6122SOL    HW219266   4.822   4.284   5.017
 6123SOL     OW19267   6.425   2.058   5.321
 6123SOL    HW119268   6.441   2.047   5.223
 6123SOL    HW219269   6.343   2.112   5.336
 6124SOL     OW19270   1.889   6.041   3.870
 6124SOL    HW119271   1.839   6.055   3.955
 6124SOL    HW219272   1.911   6.130   3.829
 6125SOL     OW19273   3.048   1.245   5.715
 6125SOL    HW119274   2.994   1.172   5.757
 6125SOL    HW219275   3.125   1.267   5.774
 6126SOL     OW19276   6.309   3.118   6.606
 6126SOL    HW119277   6.356   3.041   6.562
 6126SOL    HW219278   6.216   3.092   6.630
 6127SOL     OW19279   5.004   2.037   3.157
 6127SOL    HW119280   4.959   2.000   3.238
 6127SOL    HW219281   4.937   2.048   3.084
 6128SOL     OW19282   5.931   5.144   4.825
 6128SOL    HW119283   5.998   5.218   4.836
 6128SOL    HW219284   5.928   5.118   4.729
 6129SOL     OW19285   2.147   6.048   3.214
 6129SOL    HW119286   2.053   6.027   3.242
 6129SOL    HW219287   2.148   6.079   3.119
 6130SOL     OW19288   6.779   2.394   0.118
 6130SOL    HW119289   6.835   2.382   0.036
 6130SOL    HW219290   6.786   2.312   0.175
 6131SOL     OW19291   6.177   3.112   2.571
 6131SOL    HW119292   6.249   3.122   2.503
 6131SOL    HW219293   6.088   3.130   2.529
 6132SOL     OW19294   4.595   5.894   6.780
 6132SOL    HW119295   4.634   5.873   6.691
 6132SOL    HW219296   4.535   5.974   6.772
 6133SOL     OW19297   0.104   2.672   3.595
 6133SOL    HW119298   0.118   2.579   3.627
 6133SOL    HW219299   0.077   2.670   3.499
 6134SOL     OW19300   0.898   6.850   4.774
 6134SOL    HW119301   0.850   6.768   4.743
 6134SOL    HW219302   0.878   6.926   4.713
 6135SOL     OW19303   6.096   6.174   0.201
 6135SOL    HW119304   6.077   6.265   0.237
 6135SOL    HW219305   6.032   6.108   0.241
 6136SOL     OW19306   0.877   2.713   2.748
 6136SOL    HW119307   0.829   2.727   2.661
 6136SOL    HW219308   0.938   2.791   2.765
 6137SOL     OW19309   0.087   4.626   0.986
 6137SOL    HW119310   0.012   4.570   0.950
 6137SOL    HW219311   0.050   4.706   1.032
 6138SOL     OW19312   4.689   0.775   2.989
 6138SOL    HW119313   4.713   0.678   2.991
 6138SOL    HW219314   4.741   0.824   3.060
 6139SOL     OW19315   1.693   1.944   5.556
 6139SOL    HW119316   1.754   2.013   5.593
 6139SOL    HW219317   1.598   1.977   5.561
 6140SOL     OW19318   2.237   0.577   3.821
 6140SOL    HW119319   2.210   0.496   3.770
 6140SOL    HW219320   2.240   0.656   3.760
 6141SOL     OW19321   0.963   0.586   0.656
 6141SOL    HW119322   0.913   0.519   0.601
 6141SOL    HW219323   0.957   0.561   0.752
 6142SOL     OW19324   0.492   0.171   1.602
 6142SOL    HW119325   0.438   0.248   1.633
 6142SOL    HW219326   0.566   0.203   1.543
 6143SOL     OW19327   1.731   3.069   5.360
 6143SOL    HW119328   1.780   3.088   5.275
 6143SOL    HW219329   1.651   3.128   5.366
 6144SOL     OW19330   3.388   6.087   2.857
 6144SOL    HW119331   3.412   6.121   2.948
 6144SOL    HW219332   3.458   6.117   2.791
 6145SOL     OW19333   5.645   3.431   4.277
 6145SOL    HW119334   5.667   3.439   4.374
 6145SOL    HW219335   5.582   3.355   4.262
 6146SOL     OW19336   6.331   1.492   5.786
 6146SOL    HW119337   6.323   1.416   5.851
 6146SOL    HW219338   6.255   1.489   5.722
 6147SOL     OW19339   1.272   1.820   5.241
 6147SOL    HW119340   1.183   1.816   5.287
 6147SOL    HW219341   1.280   1.743   5.178
 6148SOL     OW19342   3.919   5.402   6.622
 6148SOL    HW119343   4.019   5.408   6.619
 6148SOL    HW219344   3.891   5.357   6.707
 6149SOL     OW19345   4.082   1.702   1.924
 6149SOL    HW119346   4.038   1.757   1.994
 6149SOL    HW219347   4.044   1.609   1.925
 6150SOL     OW19348   0.437   4.849   3.952
 6150SOL    HW119349   0.429   4.925   3.889
 6150SOL    HW219350   0.516   4.863   4.012
 6151SOL     OW19351   4.071   5.512   2.510
 6151SOL    HW119352   4.018   5.502   2.426
 6151SOL    HW219353   4.169   5.510   2.489
 6152SOL     OW19354   0.528   4.027   3.334
 6152SOL    HW119355   0.608   3.969   3.349
 6152SOL    HW219356   0.459   3.976   3.283
 6153SOL     OW19357   5.999   6.534   1.634
 6153SOL    HW119358   6.096   6.556   1.647
 6153SOL    HW219359   5.952   6.614   1.595
 6154SOL     OW19360   3.694   5.270   2.869
 6154SOL    HW119361   3.666   5.222   2.952
 6154SOL    HW219362   3.684   5.210   2.790
 6155SOL     OW19363   1.700   1.814   4.461
 6155SOL    HW119364   1.786   1.786   4.503
 6155SOL    HW219365   1.719   1.867   4.379
 6156SOL     OW19366   4.667   4.404   2.785
 6156SOL    HW119367   4.683   4.335   2.856
 6156SOL    HW219368   4.716   4.488   2.808
 6157SOL     OW19369   0.351   2.559   1.450
 6157SOL    HW119370   0.410   2.618   1.504
 6157SOL    HW219371   0.336   2.473   1.499
 6158SOL     OW19372   3.418   0.635   6.567
 6158SOL    HW119373   3.397   0.550   6.518
 6158SOL    HW219374   3.347   0.652   6.636
 6159SOL     OW19375   6.641   1.440   0.657
 6159SOL    HW119376   6.608   1.391   0.576
 6159SOL    HW219377   6.739   1.422   0.669
 6160SOL     OW19378   1.222   6.840   0.777
 6160SOL    HW119379   1.183   6.837   0.685
 6160SOL    HW219380   1.322   6.841   0.771
 6161SOL     OW19381   6.123   4.030   0.082
 6161SOL    HW119382   6.086   4.076   0.001
 6161SOL    HW219383   6.051   4.021   0.150
 6162SOL     OW19384   6.518   5.984   0.834
 6162SOL    HW119385   6.477   5.969   0.924
 6162SOL    HW219386   6.446   5.995   0.766
 6163SOL     OW19387   5.030   5.576   2.700
 6163SOL    HW119388   5.079   5.533   2.775
 6163SOL    HW219389   4.935   5.546   2.700
 6164SOL     OW19390   3.526   4.116   4.480
 6164SOL    HW119391   3.505   4.164   4.395
 6164SOL    HW219392   3.504   4.019   4.471
 6165SOL     OW19393   3.424   0.641   6.980
 6165SOL    HW119394   3.395   0.558   6.931
 6165SOL    HW219395   3.523   0.643   6.986
 6166SOL     OW19396   3.188   1.540   5.903
 6166SOL    HW119397   3.233   1.451   5.896
 6166SOL    HW219398   3.127   1.540   5.983
 6167SOL     OW19399   1.550   3.758   2.342
 6167SOL    HW119400   1.553   3.846   2.295
 6167SOL    HW219401   1.462   3.714   2.325
 6168SOL     OW19402   0.931   3.874   3.869
 6168SOL    HW119403   0.999   3.932   3.825
 6168SOL    HW219404   0.860   3.930   3.911
 6169SOL     OW19405   2.785   1.195   0.922
 6169SOL    HW119406   2.816   1.226   0.832
 6169SOL    HW219407   2.778   1.095   0.922
 6170SOL     OW19408   2.758   4.479   0.882
 6170SOL    HW119409   2.709   4.428   0.953
 6170SOL    HW219410   2.820   4.545   0.924
 6171SOL     OW19411   2.162   4.236   1.878
 6171SOL    HW119412   2.239   4.253   1.816
 6171SOL    HW219413   2.176   4.149   1.925
 6172SOL     OW19414   2.276   4.906   1.704
 6172SOL    HW119415   2.347   4.973   1.722
 6172SOL    HW219416   2.199   4.921   1.766
 6173SOL     OW19417   0.857   5.612   2.836
 6173SOL    HW119418   0.876   5.518   2.864
 6173SOL    HW219419   0.771   5.642   2.877
 6174SOL     OW19420   6.166   4.461   1.862
 6174SOL    HW119421   6.224   4.380   1.865
 6174SOL    HW219422   6.182   4.511   1.777
 6175SOL     OW19423   5.663   0.288   4.118
 6175SOL    HW119424   5.589   0.258   4.179
 6175SOL    HW219425   5.717   0.209   4.090
 6176SOL     OW19426   0.109   3.049   0.483
 6176SOL    HW119427   0.025   3.074   0.530
 6176SOL    HW219428   0.104   3.076   0.387
 6177SOL     OW19429   5.947   2.535   2.599
 6177SOL    HW119430   5.993   2.583   2.674
 6177SOL    HW219431   5.955   2.590   2.515
 6178SOL     OW19432   6.922   3.658   1.042
 6178SOL    HW119433   6.998   3.711   1.080
 6178SOL    HW219434   6.855   3.640   1.114
 6179SOL     OW19435   0.321   1.444   5.729
 6179SOL    HW119436   0.299   1.370   5.665
 6179SOL    HW219437   0.405   1.422   5.777
 6180SOL     OW19438   3.200   0.939   6.523
 6180SOL    HW119439   3.121   0.989   6.489
 6180SOL    HW219440   3.236   0.880   6.451
 6181SOL     OW19441   4.494   6.623   6.138
 6181SOL    HW119442   4.544   6.544   6.173
 6181SOL    HW219443   4.406   6.630   6.184
 6182SOL     OW19444   4.642   6.941   5.459
 6182SOL    HW119445   4.633   6.852   5.415
 6182SOL    HW219446   4.551   6.977   5.482
 6183SOL     OW19447   2.456   6.794   2.295
 6183SOL    HW119448   2.543   6.767   2.254
 6183SOL    HW219449   2.410   6.859   2.234
 6184SOL     OW19450   6.795   0.215   5.341
 6184SOL    HW119451   6.804   0.260   5.252
 6184SOL    HW219452   6.884   0.214   5.387
 6185SOL     OW19453   2.413   2.443   0.102
 6185SOL    HW119454   2.490   2.453   0.040
 6185SOL    HW219455   2.327   2.439   0.050
 6186SOL     OW19456   4.240   1.090   4.244
 6186SOL    HW119457   4.210   1.105   4.338
 6186SOL    HW219458   4.162   1.100   4.182
 6187SOL     OW19459   3.193   4.888   4.668
 6187SOL    HW119460   3.282   4.910   4.708
 6187SOL    HW219461   3.128   4.864   4.740
 6188SOL     OW19462   2.566   6.989   2.576
 6188SOL    HW119463   2.586   0.008   2.484
 6188SOL    HW219464   2.645   6.941   2.612
 6189SOL     OW19465   5.454   5.034   3.223
 6189SOL    HW119466   5.408   5.058   3.308
 6189SOL    HW219467   5.498   4.945   3.233
 6190SOL     OW19468   5.423   3.064   5.562
 6190SOL    HW119469   5.354   3.132   5.586
 6190SOL    HW219470   5.392   3.012   5.482
 6191SOL     OW19471   0.132   1.423   6.563
 6191SOL    HW119472   0.121   1.517   6.532
 6191SOL    HW219473   0.041   1.381   6.575
 6192SOL     OW19474   3.311   1.748   0.163
 6192SOL    HW119475   3.215   1.761   0.189
 6192SOL    HW219476   3.369   1.760   0.244
 6193SOL     OW19477   0.074   6.971   1.659
 6193SOL    HW119478   0.061   6.882   1.703
 6193SOL    HW219479   0.168   6.977   1.624
 6194SOL     OW19480   3.204   0.268   1.279
 6194SOL    HW119481   3.173   0.363   1.271
 6194SOL    HW219482   3.303   0.266   1.292
 6195SOL     OW19483   2.548   0.667   5.525
 6195SOL    HW119484   2.563   0.733   5.451
 6195SOL    HW219485   2.609   0.588   5.512
 6196SOL     OW19486   1.326   2.006   5.578
 6196SOL    HW119487   1.317   2.073   5.652
 6196SOL    HW219488   1.237   1.988   5.537
 6197SOL     OW19489   2.595   2.517   1.513
 6197SOL    HW119490   2.589   2.480   1.606
 6197SOL    HW219491   2.669   2.471   1.464
 6198SOL     OW19492   3.005   5.704   2.057
 6198SOL    HW119493   3.102   5.728   2.052
 6198SOL    HW219494   2.954   5.759   1.992
 6199SOL     OW19495   0.310   0.436   6.579
 6199SOL    HW119496   0.225   0.403   6.538
 6199SOL    HW219497   0.385   0.375   6.555
 6200SOL     OW19498   4.054   0.475   5.620
 6200SOL    HW119499   3.969   0.443   5.662
 6200SOL    HW219500   4.132   0.430   5.665
 6201SOL     OW19501   2.551   5.405   4.881
 6201SOL    HW119502   2.496   5.469   4.827
 6201SOL    HW219503   2.490   5.338   4.925
 6202SOL     OW19504   2.090   2.458   1.059
 6202SOL    HW119505   2.111   2.384   0.996
 6202SOL    HW219506   2.165   2.524   1.059
 6203SOL     OW19507   5.729   2.464   4.364
 6203SOL    HW119508   5.723   2.371   4.398
 6203SOL    HW219509   5.824   2.496   4.368
 6204SOL     OW19510   1.104   6.892   5.442
 6204SOL    HW119511   1.170   6.824   5.408
 6204SOL    HW219512   1.152   6.962   5.494
 6205SOL     OW19513   4.196   6.890   6.671
 6205SOL    HW119514   4.218   6.950   6.748
 6205SOL    HW219515   4.264   6.817   6.666
 6206SOL     OW19516   4.800   0.132   3.869
 6206SOL    HW119517   4.841   0.216   3.835
 6206SOL    HW219518   4.823   0.120   3.966
 6207SOL     OW19519   2.391   4.593   4.407
 6207SOL    HW119520   2.351   4.684   4.414
 6207SOL    HW219521   2.370   4.541   4.490
 6208SOL     OW19522   5.152   4.376   5.554
 6208SOL    HW119523   5.190   4.456   5.508
 6208SOL    HW219524   5.215   4.299   5.545
 6209SOL     OW19525   1.563   5.785   0.735
 6209SOL    HW119526   1.581   5.754   0.828
 6209SOL    HW219527   1.645   5.772   0.679
 6210SOL     OW19528   0.192   4.217   2.962
 6210SOL    HW119529   0.284   4.184   2.940
 6210SOL    HW219530   0.199   4.293   3.027
 6211SOL     OW19531   2.640   0.395   4.947
 6211SOL    HW119532   2.602   0.393   4.854
 6211SOL    HW219533   2.576   0.440   5.009
 6212SOL     OW19534   6.618   0.746   4.194
 6212SOL    HW119535   6.589   0.757   4.099
 6212SOL    HW219536   6.602   0.832   4.243
 6213SOL     OW19537   6.708   6.807   0.181
 6213SOL    HW119538   6.623   6.834   0.135
 6213SOL    HW219539   6.703   6.832   0.277
 6214SOL     OW19540   4.804   4.449   1.690
 6214SOL    HW119541   4.763   4.440   1.781
 6214SOL    HW219542   4.901   4.468   1.699
 6215SOL     OW19543   3.831   4.352   1.433
 6215SOL    HW119544   3.783   4.308   1.509
 6215SOL    HW219545   3.811   4.450   1.433
 6216SOL     OW19546   6.166   1.463   2.718
 6216SOL    HW119547   6.240   1.413   2.674
 6216SOL    HW219548   6.128   1.409   2.793
 6217SOL     OW19549   4.471   1.411   1.647
 6217SOL    HW119550   4.391   1.376   1.695
 6217SOL    HW219551   4.497   1.500   1.685
 6218SOL     OW19552   4.625   6.341   4.448
 6218SOL    HW119553   4.635   6.424   4.394
 6218SOL    HW219554   4.573   6.273   4.397
 6219SOL     OW19555   0.459   0.939   4.762
 6219SOL    HW119556   0.530   1.008   4.744
 6219SOL    HW219557   0.494   0.848   4.739
 6220SOL     OW19558   0.970   3.450   4.889
 6220SOL    HW119559   1.063   3.486   4.895
 6220SOL    HW219560   0.964   3.385   4.814
 6221SOL     OW19561   4.691   4.426   4.313
 6221SOL    HW119562   4.729   4.362   4.247
 6221SOL    HW219563   4.612   4.473   4.272
 6222SOL     OW19564   6.843   2.143   1.483
 6222SOL    HW119565   6.892   2.214   1.433
 6222SOL    HW219566   6.908   2.078   1.522
 6223SOL     OW19567   5.290   4.573   3.635
 6223SOL    HW119568   5.281   4.661   3.680
 6223SOL    HW219569   5.386   4.545   3.637
 6224SOL     OW19570   2.655   0.170   4.258
 6224SOL    HW119571   2.558   0.171   4.233
 6224SOL    HW219572   2.670   0.110   4.336
 6225SOL     OW19573   4.023   1.793   6.627
 6225SOL    HW119574   3.954   1.863   6.646
 6225SOL    HW219575   4.000   1.709   6.676
 6226SOL     OW19576   6.836   5.934   4.608
 6226SOL    HW119577   6.884   5.860   4.656
 6226SOL    HW219578   6.756   5.896   4.562
 6227SOL     OW19579   2.777   4.051   6.764
 6227SOL    HW119580   2.800   4.035   6.668
 6227SOL    HW219581   2.678   4.054   6.774
 6228SOL     OW19582   0.071   2.387   3.258
 6228SOL    HW119583   7.004   2.440   3.272
 6228SOL    HW219584   0.073   2.310   3.322
 6229SOL     OW19585   1.406   2.864   2.350
 6229SOL    HW119586   1.379   2.769   2.336
 6229SOL    HW219587   1.475   2.890   2.282
 6230SOL     OW19588   2.102   2.749   3.869
 6230SOL    HW119589   2.003   2.753   3.881
 6230SOL    HW219590   2.123   2.754   3.771
 6231SOL     OW19591   6.556   4.396   2.509
 6231SOL    HW119592   6.603   4.308   2.513
 6231SOL    HW219593   6.623   4.469   2.498
 6232SOL     OW19594   1.012   0.965   6.975
 6232SOL    HW119595   1.003   1.013   0.046
 6232SOL    HW219596   0.921   0.945   6.938
 6233SOL     OW19597   4.164   0.980   6.296
 6233SOL    HW119598   4.244   0.922   6.282
 6233SOL    HW219599   4.144   1.030   6.211
 6234SOL     OW19600   2.672   2.325   3.460
 6234SOL    HW119601   2.766   2.312   3.427
 6234SOL    HW219602   2.672   2.328   3.560
 6235SOL     OW19603   1.715   5.313   1.569
 6235SOL    HW119604   1.771   5.241   1.609
 6235SOL    HW219605   1.768   5.362   1.500
 6236SOL     OW19606   0.406   3.893   0.139
 6236SOL    HW119607   0.377   3.804   0.174
 6236SOL    HW219608   0.331   3.958   0.146
 6237SOL     OW19609   3.641   5.945   6.288
 6237SOL    HW119610   3.617   6.042   6.297
 6237SOL    HW219611   3.588   5.891   6.353
 6238SOL     OW19612   4.951   3.324   1.078
 6238SOL    HW119613   4.931   3.310   1.175
 6238SOL    HW219614   5.044   3.292   1.059
 6239SOL     OW19615   3.308   6.239   4.287
 6239SOL    HW119616   3.279   6.166   4.225
 6239SOL    HW219617   3.228   6.293   4.314
 6240SOL     OW19618   2.398   4.059   0.503
 6240SOL    HW119619   2.373   3.986   0.566
 6240SOL    HW219620   2.495   4.081   0.514
 6241SOL     OW19621   4.146   6.996   2.649
 6241SOL    HW119622   4.102   6.911   2.618
 6241SOL    HW219623   4.241   6.976   2.673
 6242SOL     OW19624   3.529   2.108   2.436
 6242SOL    HW119625   3.543   2.131   2.340
 6242SOL    HW219626   3.571   2.020   2.457
 6243SOL     OW19627   6.123   6.042   2.824
 6243SOL    HW119628   6.140   6.006   2.916
 6243SOL    HW219629   6.199   6.100   2.796
 6244SOL     OW19630   1.485   1.918   1.677
 6244SOL    HW119631   1.497   2.015   1.658
 6244SOL    HW219632   1.436   1.874   1.602
 6245SOL     OW19633   2.537   3.401   0.058
 6245SOL    HW119634   2.460   3.379   7.014
 6245SOL    HW219635   2.529   3.348   0.143
 6246SOL     OW19636   4.030   6.890   0.093
 6246SOL    HW119637   4.075   6.942   0.165
 6246SOL    HW219638   4.047   6.793   0.105
 6247SOL     OW19639   6.438   6.978   2.773
 6247SOL    HW119640   6.345   6.983   2.739
 6247SOL    HW219641   6.480   6.892   2.742
 6248SOL     OW19642   1.041   5.511   0.912
 6248SOL    HW119643   1.078   5.601   0.888
 6248SOL    HW219644   0.945   5.521   0.938
 6249SOL     OW19645   6.514   2.961   6.049
 6249SOL    HW119646   6.517   2.865   6.077
 6249SOL    HW219647   6.423   2.998   6.069
 6250SOL     OW19648   6.926   4.298   6.380
 6250SOL    HW119649   6.945   4.208   6.420
 6250SOL    HW219650   6.964   4.301   6.287
 6251SOL     OW19651   4.806   1.225   0.467
 6251SOL    HW119652   4.777   1.200   0.560
 6251SOL    HW219653   4.802   1.324   0.457
 6252SOL     OW19654   1.655   6.237   5.303
 6252SOL    HW119655   1.754   6.244   5.316
 6252SOL    HW219656   1.627   6.300   5.229
 6253SOL     OW19657   2.561   3.643   1.073
 6253SOL    HW119658   2.462   3.644   1.078
 6253SOL    HW219659   2.598   3.723   1.120
 6254SOL     OW19660   5.536   0.291   6.884
 6254SOL    HW119661   5.557   0.197   6.858
 6254SOL    HW219662   5.449   0.292   6.935
 6255SOL     OW19663   0.844   3.793   2.791
 6255SOL    HW119664   0.856   3.812   2.694
 6255SOL    HW219665   0.916   3.839   2.843
 6256SOL     OW19666   4.571   5.277   4.376
 6256SOL    HW119667   4.473   5.265   4.363
 6256SOL    HW219668   4.588   5.336   4.455
 6257SOL     OW19669   4.182   2.964   6.698
 6257SOL    HW119670   4.197   2.892   6.630
 6257SOL    HW219671   4.087   2.994   6.693
 6258SOL     OW19672   4.453   2.017   2.941
 6258SOL    HW119673   4.388   2.091   2.923
 6258SOL    HW219674   4.403   1.932   2.957
 6259SOL     OW19675   3.453   2.237   1.698
 6259SOL    HW119676   3.482   2.150   1.659
 6259SOL    HW219677   3.533   2.288   1.729
 6260SOL     OW19678   4.058   4.180   1.317
 6260SOL    HW119679   4.021   4.243   1.386
 6260SOL    HW219680   4.127   4.122   1.360
 6261SOL     OW19681   4.800   6.436   6.070
 6261SOL    HW119682   4.878   6.374   6.077
 6261SOL    HW219683   4.826   6.517   6.016
 6262SOL     OW19684   0.108   5.966   5.207
 6262SOL    HW119685   0.144   6.058   5.190
 6262SOL    HW219686   0.067   5.964   5.299
 6263SOL     OW19687   6.770   0.691   1.313
 6263SOL    HW119688   6.724   0.755   1.252
 6263SOL    HW219689   6.840   0.641   1.261
 6264SOL     OW19690   2.766   1.103   0.381
 6264SOL    HW119691   2.681   1.147   0.409
 6264SOL    HW219692   2.778   1.018   0.432
 6265SOL     OW19693   6.667   3.487   0.398
 6265SOL    HW119694   6.684   3.433   0.480
 6265SOL    HW219695   6.618   3.571   0.423
 6266SOL     OW19696   2.369   6.524   2.743
 6266SOL    HW119697   2.327   6.495   2.829
 6266SOL    HW219698   2.415   6.612   2.756
 6267SOL     OW19699   2.975   6.433   6.841
 6267SOL    HW119700   2.950   6.409   6.935
 6267SOL    HW219701   2.926   6.517   6.814
 6268SOL     OW19702   2.465   6.481   2.059
 6268SOL    HW119703   2.506   6.426   1.986
 6268SOL    HW219704   2.533   6.497   2.130
 6269SOL     OW19705   6.884   4.582   6.171
 6269SOL    HW119706   6.947   4.658   6.186
 6269SOL    HW219707   6.936   4.498   6.154
 6270SOL     OW19708   0.700   1.405   4.013
 6270SOL    HW119709   0.747   1.328   4.057
 6270SOL    HW219710   0.601   1.392   4.021
 6271SOL     OW19711   5.738   1.706   1.112
 6271SOL    HW119712   5.759   1.717   1.015
 6271SOL    HW219713   5.681   1.782   1.143
 6272SOL     OW19714   2.960   2.177   3.641
 6272SOL    HW119715   3.046   2.130   3.660
 6272SOL    HW219716   2.963   2.216   3.549
 6273SOL     OW19717   3.513   1.506   2.758
 6273SOL    HW119718   3.442   1.532   2.693
 6273SOL    HW219719   3.475   1.443   2.826
 6274SOL     OW19720   2.763   5.565   6.771
 6274SOL    HW119721   2.831   5.515   6.824
 6274SOL    HW219722   2.796   5.658   6.753
 6275SOL     OW19723   3.090   1.014   4.500
 6275SOL    HW119724   3.007   1.014   4.556
 6275SOL    HW219725   3.089   1.094   4.439
 6276SOL     OW19726   0.621   5.758   3.630
 6276SOL    HW119727   0.531   5.715   3.624
 6276SOL    HW219728   0.689   5.689   3.655
 6277SOL     OW19729   6.433   3.357   4.298
 6277SOL    HW119730   6.505   3.288   4.288
 6277SOL    HW219731   6.472   3.441   4.337
 6278SOL     OW19732   4.606   1.156   3.240
 6278SOL    HW119733   4.636   1.245   3.204
 6278SOL    HW219734   4.682   1.113   3.289
 6279SOL     OW19735   3.732   1.730   5.623
 6279SOL    HW119736   3.751   1.796   5.696
 6279SOL    HW219737   3.756   1.771   5.535
 6280SOL     OW19738   1.501   4.885   5.330
 6280SOL    HW119739   1.505   4.977   5.291
 6280SOL    HW219740   1.413   4.873   5.376
 6281SOL     OW19741   3.405   6.116   5.076
 6281SOL    HW119742   3.461   6.084   4.999
 6281SOL    HW219743   3.454   6.099   5.162
 6282SOL     OW19744   0.775   6.093   4.398
 6282SOL    HW119745   0.823   6.076   4.312
 6282SOL    HW219746   0.797   6.185   4.430
 6283SOL     OW19747   0.996   2.753   4.712
 6283SOL    HW119748   0.988   2.778   4.808
 6283SOL    HW219749   1.053   2.821   4.665
 6284SOL     OW19750   2.466   4.652   0.162
 6284SOL    HW119751   2.378   4.699   0.175
 6284SOL    HW219752   2.452   4.554   0.168
 6285SOL     OW19753   2.181   3.927   2.598
 6285SOL    HW119754   2.272   3.911   2.638
 6285SOL    HW219755   2.182   4.013   2.547
 6286SOL     OW19756   6.944   6.249   3.960
 6286SOL    HW119757   6.870   6.300   4.002
 6286SOL    HW219758   7.004   6.211   4.031
 6287SOL     OW19759   3.493   4.943   3.368
 6287SOL    HW119760   3.588   4.911   3.360
 6287SOL    HW219761   3.486   5.005   3.446
 6288SOL     OW19762   0.070   3.797   1.259
 6288SOL    HW119763   0.036   3.798   1.353
 6288SOL    HW219764   0.168   3.780   1.259
 6289SOL     OW19765   0.346   0.179   2.914
 6289SOL    HW119766   0.324   0.241   2.989
 6289SOL    HW219767   0.366   0.088   2.951
 6290SOL     OW19768   5.642   3.445   3.844
 6290SOL    HW119769   5.712   3.462   3.774
 6290SOL    HW219770   5.678   3.468   3.934
 6291SOL     OW19771   3.667   3.756   3.779
 6291SOL    HW119772   3.598   3.784   3.845
 6291SOL    HW219773   3.756   3.791   3.807
 6292SOL     OW19774   6.927   1.242   1.356
 6292SOL    HW119775   6.867   1.241   1.436
 6292SOL    HW219776   6.901   1.168   1.293
 6293SOL     OW19777   5.625   4.075   5.902
 6293SOL    HW119778   5.637   4.137   5.824
 6293SOL    HW219779   5.599   4.128   5.983
 6294SOL     OW19780   2.831   6.503   0.626
 6294SOL    HW119781   2.847   6.474   0.531
 6294SOL    HW219782   2.908   6.475   0.683
 6295SOL     OW19783   6.162   5.788   6.305
 6295SOL    HW119784   6.197   5.747   6.389
 6295SOL    HW219785   6.065   5.809   6.315
 6296SOL     OW19786   6.089   2.164   3.309
 6296SOL    HW119787   6.157   2.097   3.280
 6296SOL    HW219788   6.101   2.248   3.258
 6297SOL     OW19789   5.345   2.279   5.860
 6297SOL    HW119790   5.348   2.184   5.829
 6297SOL    HW219791   5.251   2.304   5.881
 6298SOL     OW19792   6.223   2.937   4.396
 6298SOL    HW119793   6.282   3.002   4.445
 6298SOL    HW219794   6.249   2.843   4.422
 6299SOL     OW19795   0.556   2.170   0.014
 6299SOL    HW119796   0.610   2.188   6.948
 6299SOL    HW219797   0.481   2.108   7.008
 6300SOL     OW19798   5.225   1.087   3.358
 6300SOL    HW119799   5.260   1.006   3.310
 6300SOL    HW219800   5.243   1.077   3.456
 6301SOL     OW19801   2.992   0.093   1.339
 6301SOL    HW119802   2.960   0.062   1.249
 6301SOL    HW219803   3.078   0.143   1.328
 6302SOL     OW19804   6.406   0.849   2.945
 6302SOL    HW119805   6.485   0.837   3.004
 6302SOL    HW219806   6.323   0.822   2.995
 6303SOL     OW19807   2.424   5.185   5.000
 6303SOL    HW119808   2.345   5.136   4.963
 6303SOL    HW219809   2.505   5.127   4.993
 6304SOL     OW19810   4.401   0.916   5.082
 6304SOL    HW119811   4.420   1.003   5.036
 6304SOL    HW219812   4.427   0.840   5.023
 6305SOL     OW19813   5.256   7.003   3.242
 6305SOL    HW119814   5.189   6.977   3.311
 6305SOL    HW219815   5.229   6.965   3.153
 6306SOL     OW19816   6.442   3.096   4.529
 6306SOL    HW119817   6.483   3.058   4.611
 6306SOL    HW219818   6.513   3.119   4.463
 6307SOL     OW19819   2.071   4.382   0.517
 6307SOL    HW119820   2.006   4.327   0.465
 6307SOL    HW219821   2.028   4.412   0.602
 6308SOL     OW19822   3.750   2.407   6.374
 6308SOL    HW119823   3.698   2.331   6.414
 6308SOL    HW219824   3.694   2.489   6.374
 6309SOL     OW19825   6.445   2.402   5.122
 6309SOL    HW119826   6.433   2.367   5.029
 6309SOL    HW219827   6.370   2.372   5.180
 6310SOL     OW19828   6.809   5.872   5.375
 6310SOL    HW119829   6.866   5.805   5.422
 6310SOL    HW219830   6.800   5.847   5.279
 6311SOL     OW19831   6.318   6.755   4.894
 6311SOL    HW119832   6.307   6.757   4.994
 6311SOL    HW219833   6.337   6.848   4.861
 6312SOL     OW19834   5.775   3.846   5.861
 6312SOL    HW119835   5.835   3.851   5.781
 6312SOL    HW219836   5.738   3.937   5.880
 6313SOL     OW19837   2.550   5.802   3.994
 6313SOL    HW119838   2.516   5.748   3.917
 6313SOL    HW219839   2.542   5.748   4.078
 6314SOL     OW19840   1.311   0.278   3.105
 6314SOL    HW119841   1.309   0.255   3.008
 6314SOL    HW219842   1.397   0.246   3.145
 6315SOL     OW19843   1.412   3.627   0.756
 6315SOL    HW119844   1.483   3.599   0.693
 6315SOL    HW219845   1.453   3.654   0.843
 6316SOL     OW19846   4.394   1.198   4.628
 6316SOL    HW119847   4.382   1.234   4.721
 6316SOL    HW219848   4.437   1.269   4.571
 6317SOL     OW19849   6.576   5.817   4.086
 6317SOL    HW119850   6.630   5.901   4.081
 6317SOL    HW219851   6.570   5.775   3.996
 6318SOL     OW19852   1.570   2.740   3.889
 6318SOL    HW119853   1.511   2.678   3.941
 6318SOL    HW219854   1.524   2.827   3.876
 6319SOL     OW19855   1.113   2.289   3.011
 6319SOL    HW119856   1.135   2.335   3.098
 6319SOL    HW219857   1.174   2.323   2.940
 6320SOL     OW19858   0.221   2.267   2.265
 6320SOL    HW119859   0.231   2.286   2.167
 6320SOL    HW219860   0.303   2.219   2.298
 6321SOL     OW19861   2.267   4.244   5.564
 6321SOL    HW119862   2.288   4.196   5.650
 6321SOL    HW219863   2.339   4.226   5.497
 6322SOL     OW19864   2.153   6.678   0.155
 6322SOL    HW119865   2.204   6.712   0.234
 6322SOL    HW219866   2.152   6.747   0.083
 6323SOL     OW19867   4.500   1.610   2.087
 6323SOL    HW119868   4.467   1.699   2.120
 6323SOL    HW219869   4.593   1.595   2.120
 6324SOL     OW19870   3.096   1.628   1.746
 6324SOL    HW119871   3.157   1.569   1.799
 6324SOL    HW219872   3.055   1.576   1.672
 6325SOL     OW19873   2.099   3.337   3.165
 6325SOL    HW119874   2.141   3.349   3.255
 6325SOL    HW219875   2.097   3.425   3.117
 6326SOL     OW19876   4.345   6.382   1.534
 6326SOL    HW119877   4.393   6.358   1.619
 6326SOL    HW219878   4.251   6.350   1.539
 6327SOL     OW19879   3.734   5.658   5.185
 6327SOL    HW119880   3.675   5.590   5.141
 6327SOL    HW219881   3.752   5.630   5.280
 6328SOL     OW19882   3.236   4.381   0.480
 6328SOL    HW119883   3.293   4.338   0.550
 6328SOL    HW219884   3.274   4.470   0.456
 6329SOL     OW19885   0.734   2.560   3.221
 6329SOL    HW119886   0.700   2.631   3.284
 6329SOL    HW219887   0.743   2.599   3.129
 6330SOL     OW19888   3.443   0.173   6.781
 6330SOL    HW119889   3.536   0.169   6.820
 6330SOL    HW219890   3.386   0.103   6.824
 6331SOL     OW19891   5.410   2.615   1.777
 6331SOL    HW119892   5.437   2.669   1.857
 6331SOL    HW219893   5.448   2.656   1.694
 6332SOL     OW19894   4.099   6.153   1.984
 6332SOL    HW119895   4.110   6.060   2.019
 6332SOL    HW219896   4.014   6.193   2.019
 6333SOL     OW19897   2.077   5.806   2.335
 6333SOL    HW119898   2.166   5.771   2.365
 6333SOL    HW219899   2.021   5.827   2.415
 6334SOL     OW19900   2.409   0.455   1.763
 6334SOL    HW119901   2.439   0.419   1.675
 6334SOL    HW219902   2.328   0.406   1.794
 6335SOL     OW19903   6.392   0.944   0.000
 6335SOL    HW119904   6.342   0.999   6.949
 6335SOL    HW219905   6.459   1.002   0.047
 6336SOL     OW19906   1.837   2.838   5.223
 6336SOL    HW119907   1.778   2.764   5.191
 6336SOL    HW219908   1.788   2.892   5.292
 6337SOL     OW19909   0.801   4.476   5.028
 6337SOL    HW119910   0.780   4.560   5.078
 6337SOL    HW219911   0.718   4.444   4.981
 6338SOL     OW19912   3.544   1.188   4.090
 6338SOL    HW119913   3.492   1.254   4.144
 6338SOL    HW219914   3.635   1.225   4.072
 6339SOL     OW19915   6.560   2.647   4.648
 6339SOL    HW119916   6.636   2.592   4.683
 6339SOL    HW219917   6.594   2.708   4.576
 6340SOL     OW19918   3.235   5.439   4.053
 6340SOL    HW119919   3.198   5.376   4.121
 6340SOL    HW219920   3.181   5.434   3.969
 6341SOL     OW19921   5.701   4.705   1.854
 6341SOL    HW119922   5.728   4.796   1.887
 6341SOL    HW219923   5.613   4.680   1.895
 6342SOL     OW19924   1.109   3.721   0.136
 6342SOL    HW119925   1.141   3.657   0.065
 6342SOL    HW219926   1.184   3.743   0.197
 6343SOL     OW19927   3.581   1.583   0.074
 6343SOL    HW119928   3.653   1.580   0.004
 6343SOL    HW219929   3.515   1.654   0.052
 6344SOL     OW19930   6.033   4.985   4.201
 6344SOL    HW119931   6.082   4.971   4.287
 6344SOL    HW219932   6.092   4.960   4.125
 6345SOL     OW19933   2.201   2.029   1.116
 6345SOL    HW119934   2.283   2.064   1.162
 6345SOL    HW219935   2.120   2.059   1.167
 6346SOL     OW19936   0.569   4.824   4.184
 6346SOL    HW119937   0.551   4.768   4.266
 6346SOL    HW219938   0.532   4.916   4.199
 6347SOL     OW19939   3.015   0.343   0.473
 6347SOL    HW119940   2.984   0.377   0.385
 6347SOL    HW219941   3.099   0.391   0.500
 6348SOL     OW19942   0.052   2.109   4.479
 6348SOL    HW119943   6.971   2.120   4.458
 6348SOL    HW219944   0.107   2.150   4.406
 6349SOL     OW19945   0.381   0.591   0.205
 6349SOL    HW119946   0.304   0.638   0.248
 6349SOL    HW219947   0.356   0.563   0.113
 6350SOL     OW19948   0.034   5.449   3.507
 6350SOL    HW119949   0.008   5.380   3.575
 6350SOL    HW219950   6.982   5.522   3.505
 6351SOL     OW19951   0.324   2.462   2.578
 6351SOL    HW119952   0.414   2.469   2.620
 6351SOL    HW219953   0.334   2.434   2.482
 6352SOL     OW19954   6.103   4.266   3.048
 6352SOL    HW119955   6.058   4.194   2.994
 6352SOL    HW219956   6.120   4.233   3.140
 6353SOL     OW19957   6.350   0.311   1.983
 6353SOL    HW119958   6.251   0.315   1.971
 6353SOL    HW219959   6.374   0.240   2.049
 6354SOL     OW19960   6.506   0.114   5.394
 6354SOL    HW119961   6.479   0.055   5.469
 6354SOL    HW219962   6.604   0.132   5.398
 6355SOL     OW19963   1.107   1.432   0.712
 6355SOL    HW119964   1.123   1.426   0.811
 6355SOL    HW219965   1.192   1.457   0.666
 6356SOL     OW19966   3.402   3.847   1.665
 6356SOL    HW119967   3.468   3.815   1.733
 6356SOL    HW219968   3.451   3.884   1.586
 6357SOL     OW19969   5.215   1.617   0.699
 6357SOL    HW119970   5.283   1.575   0.759
 6357SOL    HW219971   5.233   1.715   0.691
 6358SOL     OW19972   1.023   2.871   5.446
 6358SOL    HW119973   1.046   2.815   5.366
 6358SOL    HW219974   1.096   2.937   5.462
 6359SOL     OW19975   0.240   0.225   6.199
 6359SOL    HW119976   0.295   0.171   6.135
 6359SOL    HW219977   0.299   0.294   6.243
 6360SOL     OW19978   2.243   5.222   3.864
 6360SOL    HW119979   2.150   5.186   3.861
 6360SOL    HW219980   2.265   5.251   3.958
 6361SOL     OW19981   3.079   5.920   5.666
 6361SOL    HW119982   3.001   5.983   5.675
 6361SOL    HW219983   3.163   5.973   5.658
 6362SOL     OW19984   6.590   4.520   5.820
 6362SOL    HW119985   6.491   4.534   5.817
 6362SOL    HW219986   6.618   4.505   5.915
 6363SOL     OW19987   1.055   5.866   3.345
 6363SOL    HW119988   0.960   5.851   3.316
 6363SOL    HW219989   1.103   5.778   3.346
 6364SOL     OW19990   2.785   1.555   6.938
 6364SOL    HW119991   2.751   1.461   6.952
 6364SOL    HW219992   2.709   1.613   6.910
 6365SOL     OW19993   3.926   5.816   2.228
 6365SOL    HW119994   3.948   5.884   2.298
 6365SOL    HW219995   4.010   5.772   2.196
 6366SOL     OW19996   0.587   3.988   5.023
 6366SOL    HW119997   0.672   4.018   5.068
 6366SOL    HW219998   0.542   4.067   4.981
 6367SOL     OW19999   5.205   5.429   2.189
 6367SOL    HW120000   5.263   5.401   2.266
 6367SOL    HW220001   5.254   5.494   2.132
 6368SOL     OW20002   2.712   1.626   2.143
 6368SOL    HW120003   2.647   1.622   2.219
 6368SOL    HW220004   2.665   1.656   2.060
 6369SOL     OW20005   2.219   5.994   5.085
 6369SOL    HW120006   2.259   5.983   5.176
 6369SOL    HW220007   2.255   6.076   5.042
 6370SOL     OW20008   4.953   2.223   2.324
 6370SOL    HW120009   5.020   2.289   2.356
 6370SOL    HW220010   4.862   2.265   2.323
 6371SOL     OW20011   4.529   1.717   3.433
 6371SOL    HW120012   4.536   1.715   3.333
 6371SOL    HW220013   4.465   1.789   3.460
 6372SOL     OW20014   2.737   0.196   2.755
 6372SOL    HW120015   2.675   0.245   2.693
 6372SOL    HW220016   2.791   0.130   2.703
 6373SOL     OW20017   3.341   4.733   6.955
 6373SOL    HW120018   3.278   4.726   6.877
 6373SOL    HW220019   3.290   4.757   0.021
 6374SOL     OW20020   3.151   3.134   4.572
 6374SOL    HW120021   3.102   3.156   4.657
 6374SOL    HW220022   3.142   3.209   4.507
 6375SOL     OW20023   2.102   5.470   1.695
 6375SOL    HW120024   2.092   5.466   1.795
 6375SOL    HW220025   2.035   5.534   1.658
 6376SOL     OW20026   1.091   1.182   5.405
 6376SOL    HW120027   1.101   1.099   5.351
 6376SOL    HW220028   1.169   1.242   5.389
 6377SOL     OW20029   0.362   2.621   3.467
 6377SOL    HW120030   0.271   2.636   3.507
 6377SOL    HW220031   0.352   2.596   3.371
 6378SOL     OW20032   3.964   5.257   3.810
 6378SOL    HW120033   4.005   5.348   3.821
 6378SOL    HW220034   3.967   5.208   3.897
 6379SOL     OW20035   1.966   4.015   1.768
 6379SOL    HW120036   1.879   3.979   1.735
 6379SOL    HW220037   1.957   4.113   1.786
 6380SOL     OW20038   0.928   0.343   6.283
 6380SOL    HW120039   0.870   0.409   6.235
 6380SOL    HW220040   1.022   0.352   6.252
 6381SOL     OW20041   3.853   3.405   3.174
 6381SOL    HW120042   3.753   3.408   3.184
 6381SOL    HW220043   3.889   3.332   3.232
 6382SOL     OW20044   1.049   4.474   5.121
 6382SOL    HW120045   1.085   4.386   5.152
 6382SOL    HW220046   0.972   4.459   5.060
 6383SOL     OW20047   4.023   1.841   3.950
 6383SOL    HW120048   3.936   1.891   3.948
 6383SOL    HW220049   4.077   1.872   4.028
 6384SOL     OW20050   6.584   4.522   2.017
 6384SOL    HW120051   6.588   4.424   2.036
 6384SOL    HW220052   6.663   4.567   2.059
 6385SOL     OW20053   0.796   5.806   5.070
 6385SOL    HW120054   0.841   5.826   5.156
 6385SOL    HW220055   0.794   5.889   5.013
 6386SOL     OW20056   2.187   5.633   2.673
 6386SOL    HW120057   2.282   5.615   2.697
 6386SOL    HW220058   2.131   5.636   2.756
 6387SOL     OW20059   5.775   1.432   5.063
 6387SOL    HW120060   5.852   1.422   5.126
 6387SOL    HW220061   5.718   1.349   5.066
 6388SOL     OW20062   2.182   5.281   1.500
 6388SOL    HW120063   2.277   5.310   1.510
 6388SOL    HW220064   2.122   5.344   1.549
 6389SOL     OW20065   1.524   3.679   1.015
 6389SOL    HW120066   1.592   3.708   1.082
 6389SOL    HW220067   1.434   3.716   1.041
 6390SOL     OW20068   0.698   3.204   4.750
 6390SOL    HW120069   0.776   3.192   4.811
 6390SOL    HW220070   0.722   3.170   4.659
 6391SOL     OW20071   4.111   0.510   0.562
 6391SOL    HW120072   4.116   0.599   0.607
 6391SOL    HW220073   4.188   0.454   0.591
 6392SOL     OW20074   1.324   5.814   4.461
 6392SOL    HW120075   1.367   5.737   4.413
 6392SOL    HW220076   1.229   5.790   4.482
 6393SOL     OW20077   5.119   1.426   6.385
 6393SOL    HW120078   5.134   1.343   6.330
 6393SOL    HW220079   5.084   1.400   6.475
 6394SOL     OW20080   3.675   5.665   2.681
 6394SOL    HW120081   3.635   5.756   2.672
 6394SOL    HW220082   3.733   5.661   2.762
 6395SOL     OW20083   5.735   1.901   0.062
 6395SOL    HW120084   5.777   1.852   7.001
 6395SOL    HW220085   5.667   1.966   0.027
 6396SOL     OW20086   6.802   1.722   6.665
 6396SOL    HW120087   6.772   1.771   6.747
 6396SOL    HW220088   6.826   1.789   6.594
 6397SOL     OW20089   0.218   0.278   0.318
 6397SOL    HW120090   0.271   0.252   0.237
 6397SOL    HW220091   0.125   0.303   0.291
 6398SOL     OW20092   4.606   1.053   1.694
 6398SOL    HW120093   4.545   1.078   1.769
 6398SOL    HW220094   4.693   1.021   1.731
 6399SOL     OW20095   0.854   6.684   6.499
 6399SOL    HW120096   0.934   6.625   6.490
 6399SOL    HW220097   0.776   6.630   6.531
 6400SOL     OW20098   2.903   4.977   4.794
 6400SOL    HW120099   2.933   4.924   4.874
 6400SOL    HW220100   2.876   5.068   4.823
 6401SOL     OW20101   6.818   4.813   5.455
 6401SOL    HW120102   6.914   4.824   5.430
 6401SOL    HW220103   6.806   4.728   5.506
 6402SOL     OW20104   2.164   4.100   3.039
 6402SOL    HW120105   2.067   4.078   3.032
 6402SOL    HW220106   2.183   4.186   2.991
 6403SOL     OW20107   0.342   6.166   2.107
 6403SOL    HW120108   0.335   6.230   2.030
 6403SOL    HW220109   0.251   6.153   2.147
 6404SOL     OW20110   5.010   0.317   2.075
 6404SOL    HW120111   5.005   0.415   2.055
 6404SOL    HW220112   4.932   0.270   2.032
 6405SOL     OW20113   3.688   6.050   2.184
 6405SOL    HW120114   3.592   6.064   2.162
 6405SOL    HW220115   3.696   6.008   2.274
 6406SOL     OW20116   2.088   2.267   3.464
 6406SOL    HW120117   2.091   2.275   3.564
 6406SOL    HW220118   2.178   2.242   3.429
 6407SOL     OW20119   5.490   6.399   0.426
 6407SOL    HW120120   5.492   6.463   0.350
 6407SOL    HW220121   5.404   6.348   0.425
 6408SOL     OW20122   6.705   2.045   0.905
 6408SOL    HW120123   6.715   1.947   0.920
 6408SOL    HW220124   6.709   2.092   0.994
 6409SOL     OW20125   0.882   5.145   1.553
 6409SOL    HW120126   0.841   5.178   1.638
 6409SOL    HW220127   0.970   5.101   1.574
 6410SOL     OW20128   6.681   6.946   0.893
 6410SOL    HW120129   6.609   6.947   0.824
 6410SOL    HW220130   6.770   6.931   0.849
 6411SOL     OW20131   1.803   1.668   3.260
 6411SOL    HW120132   1.724   1.683   3.201
 6411SOL    HW220133   1.842   1.756   3.288
 6412SOL     OW20134   6.049   2.548   4.973
 6412SOL    HW120135   5.984   2.623   4.971
 6412SOL    HW220136   6.038   2.497   5.059
 6413SOL     OW20137   0.052   5.440   1.062
 6413SOL    HW120138   0.037   5.466   1.158
 6413SOL    HW220139   0.053   5.340   1.055
 6414SOL     OW20140   6.680   0.111   3.717
 6414SOL    HW120141   6.595   0.089   3.670
 6414SOL    HW220142   6.667   0.099   3.816
 6415SOL     OW20143   1.522   1.773   2.263
 6415SOL    HW120144   1.449   1.704   2.270
 6415SOL    HW220145   1.603   1.741   2.312
 6416SOL     OW20146   3.048   6.166   6.769
 6416SOL    HW120147   3.022   6.260   6.790
 6416SOL    HW220148   2.995   6.134   6.690
 6417SOL     OW20149   6.713   6.323   4.088
 6417SOL    HW120150   6.646   6.344   4.159
 6417SOL    HW220151   6.717   6.398   4.022
 6418SOL     OW20152   6.520   5.052   2.182
 6418SOL    HW120153   6.483   4.963   2.206
 6418SOL    HW220154   6.541   5.055   2.084
 6419SOL     OW20155   3.126   2.112   0.848
 6419SOL    HW120156   3.203   2.165   0.813
 6419SOL    HW220157   3.159   2.025   0.885
 6420SOL     OW20158   0.812   2.006   0.096
 6420SOL    HW120159   0.793   2.075   0.026
 6420SOL    HW220160   0.756   2.024   0.177
 6421SOL     OW20161   5.961   1.706   0.680
 6421SOL    HW120162   6.030   1.699   0.752
 6421SOL    HW220163   5.911   1.620   0.673
 6422SOL     OW20164   5.331   2.532   3.137
 6422SOL    HW120165   5.325   2.481   3.051
 6422SOL    HW220166   5.408   2.498   3.191
 6423SOL     OW20167   5.721   3.544   0.711
 6423SOL    HW120168   5.740   3.574   0.617
 6423SOL    HW220169   5.623   3.546   0.726
 6424SOL     OW20170   6.430   3.550   4.876
 6424SOL    HW120171   6.395   3.495   4.952
 6424SOL    HW220172   6.468   3.635   4.911
 6425SOL     OW20173   0.799   5.479   1.076
 6425SOL    HW120174   0.751   5.400   1.112
 6425SOL    HW220175   0.842   5.529   1.151
 6426SOL     OW20176   6.599   4.177   3.625
 6426SOL    HW120177   6.587   4.203   3.529
 6426SOL    HW220178   6.696   4.179   3.647
 6427SOL     OW20179   1.138   3.479   5.912
 6427SOL    HW120180   1.150   3.557   5.850
 6427SOL    HW220181   1.203   3.407   5.889
 6428SOL     OW20182   6.540   3.868   5.692
 6428SOL    HW120183   6.463   3.815   5.727
 6428SOL    HW220184   6.509   3.960   5.668
 6429SOL     OW20185   1.414   0.123   4.584
 6429SOL    HW120186   1.411   0.173   4.498
 6429SOL    HW220187   1.423   0.188   4.660
 6430SOL     OW20188   6.493   3.307   6.825
 6430SOL    HW120189   6.549   3.389   6.840
 6430SOL    HW220190   6.488   3.288   6.727
 6431SOL     OW20191   5.490   1.527   1.981
 6431SOL    HW120192   5.557   1.453   1.982
 6431SOL    HW220193   5.505   1.586   2.060
 6432SOL     OW20194   6.434   3.893   0.943
 6432SOL    HW120195   6.452   3.859   0.850
 6432SOL    HW220196   6.397   3.986   0.938
 6433SOL     OW20197   2.169   3.226   1.712
 6433SOL    HW120198   2.154   3.153   1.645
 6433SOL    HW220199   2.267   3.243   1.721
 6434SOL     OW20200   1.670   6.090   0.694
 6434SOL    HW120201   1.594   6.034   0.725
 6434SOL    HW220202   1.662   6.105   0.595
 6435SOL     OW20203   6.195   3.492   0.563
 6435SOL    HW120204   6.144   3.574   0.588
 6435SOL    HW220205   6.132   3.416   0.548
 6436SOL     OW20206   3.372   2.185   0.806
 6436SOL    HW120207   3.395   2.264   0.864
 6436SOL    HW220208   3.405   2.201   0.713
 6437SOL     OW20209   6.833   1.181   2.335
 6437SOL    HW120210   6.874   1.223   2.416
 6437SOL    HW220211   6.889   1.104   2.304
 6438SOL     OW20212   0.476   4.039   4.564
 6438SOL    HW120213   0.444   3.966   4.503
 6438SOL    HW220214   0.491   4.122   4.510
 6439SOL     OW20215   0.326   5.620   2.427
 6439SOL    HW120216   0.398   5.632   2.358
 6439SOL    HW220217   0.288   5.710   2.450
 6440SOL     OW20218   0.366   0.810   2.052
 6440SOL    HW120219   0.418   0.839   1.971
 6440SOL    HW220220   0.425   0.812   2.132
 6441SOL     OW20221   5.257   2.161   3.203
 6441SOL    HW120222   5.275   2.234   3.269
 6441SOL    HW220223   5.159   2.143   3.200
 6442SOL     OW20224   1.278   2.291   3.776
 6442SOL    HW120225   1.192   2.244   3.757
 6442SOL    HW220226   1.354   2.236   3.740
 6443SOL     OW20227   2.487   0.830   0.742
 6443SOL    HW120228   2.553   0.904   0.750
 6443SOL    HW220229   2.516   0.766   0.671
 6444SOL     OW20230   0.754   1.750   2.946
 6444SOL    HW120231   0.683   1.688   2.981
 6444SOL    HW220232   0.841   1.728   2.989
 6445SOL     OW20233   3.729   4.229   6.355
 6445SOL    HW120234   3.646   4.231   6.410
 6445SOL    HW220235   3.710   4.269   6.265
 6446SOL     OW20236   0.611   1.159   1.045
 6446SOL    HW120237   0.622   1.208   1.132
 6446SOL    HW220238   0.630   1.062   1.060
 6447SOL     OW20239   1.575   1.184   3.572
 6447SOL    HW120240   1.627   1.102   3.547
 6447SOL    HW220241   1.633   1.265   3.561
 6448SOL     OW20242   6.015   2.183   1.877
 6448SOL    HW120243   6.081   2.120   1.918
 6448SOL    HW220244   5.924   2.143   1.882
 6449SOL     OW20245   4.445   2.555   0.419
 6449SOL    HW120246   4.456   2.636   0.477
 6449SOL    HW220247   4.534   2.511   0.408
 6450SOL     OW20248   6.428   2.413   0.398
 6450SOL    HW120249   6.341   2.375   0.367
 6450SOL    HW220250   6.480   2.446   0.319
 6451SOL     OW20251   2.988   6.405   4.811
 6451SOL    HW120252   3.030   6.382   4.899
 6451SOL    HW220253   2.923   6.333   4.786
 6452SOL     OW20254   3.598   6.044   4.886
 6452SOL    HW120255   3.655   6.122   4.911
 6452SOL    HW220256   3.634   6.001   4.804
 6453SOL     OW20257   2.761   4.955   6.897
 6453SOL    HW120258   2.716   4.906   6.972
 6453SOL    HW220259   2.854   4.919   6.885
 6454SOL     OW20260   3.951   0.823   5.149
 6454SOL    HW120261   3.872   0.866   5.193
 6454SOL    HW220262   4.033   0.839   5.204
 6455SOL     OW20263   6.024   3.168   0.185
 6455SOL    HW120264   6.040   3.086   0.130
 6455SOL    HW220265   5.987   3.240   0.128
 6456SOL     OW20266   6.489   2.085   4.071
 6456SOL    HW120267   6.421   2.033   4.123
 6456SOL    HW220268   6.447   2.123   3.989
 6457SOL     OW20269   6.074   3.293   1.435
 6457SOL    HW120270   6.143   3.247   1.490
 6457SOL    HW220271   5.983   3.270   1.469
 6458SOL     OW20272   1.181   5.770   3.897
 6458SOL    HW120273   1.280   5.764   3.910
 6458SOL    HW220274   1.139   5.681   3.914
 6459SOL     OW20275   5.940   3.829   6.952
 6459SOL    HW120276   5.870   3.892   6.918
 6459SOL    HW220277   5.982   3.868   0.018
 6460SOL     OW20278   3.957   5.422   2.241
 6460SOL    HW120279   4.038   5.416   2.183
 6460SOL    HW220280   3.885   5.471   2.191
 6461SOL     OW20281   3.108   5.906   4.541
 6461SOL    HW120282   3.027   5.849   4.559
 6461SOL    HW220283   3.180   5.882   4.606
 6462SOL     OW20284   1.886   4.589   2.579
 6462SOL    HW120285   1.799   4.586   2.530
 6462SOL    HW220286   1.924   4.681   2.576
 6463SOL     OW20287   2.464   3.058   5.671
 6463SOL    HW120288   2.465   2.972   5.620
 6463SOL    HW220289   2.401   3.122   5.626
 6464SOL     OW20290   0.834   5.695   2.008
 6464SOL    HW120291   0.786   5.770   2.053
 6464SOL    HW220292   0.812   5.695   1.910
 6465SOL     OW20293   6.121   0.051   3.060
 6465SOL    HW120294   6.153   0.132   3.011
 6465SOL    HW220295   6.187   6.993   3.050
 6466SOL     OW20296   6.638   2.971   4.722
 6466SOL    HW120297   6.657   3.061   4.760
 6466SOL    HW220298   6.577   2.921   4.784
 6467SOL     OW20299   3.815   0.412   5.786
 6467SOL    HW120300   3.743   0.479   5.769
 6467SOL    HW220301   3.847   0.421   5.881
 6468SOL     OW20302   6.605   4.793   2.503
 6468SOL    HW120303   6.606   4.867   2.570
 6468SOL    HW220304   6.540   4.814   2.430
 6469SOL     OW20305   6.491   2.446   5.886
 6469SOL    HW120306   6.579   2.444   5.933
 6469SOL    HW220307   6.422   2.400   5.941
 6470SOL     OW20308   6.570   6.401   4.850
 6470SOL    HW120309   6.555   6.303   4.841
 6470SOL    HW220310   6.552   6.446   4.763
 6471SOL     OW20311   6.623   6.832   5.285
 6471SOL    HW120312   6.685   6.790   5.351
 6471SOL    HW220313   6.674   6.862   5.205
 6472SOL     OW20314   1.552   6.973   1.758
 6472SOL    HW120315   1.486   6.995   1.831
 6472SOL    HW220316   1.511   6.995   1.670
 6473SOL     OW20317   2.209   1.731   5.793
 6473SOL    HW120318   2.271   1.724   5.715
 6473SOL    HW220319   2.133   1.792   5.769
 6474SOL     OW20320   1.836   2.897   6.757
 6474SOL    HW120321   1.775   2.954   6.811
 6474SOL    HW220322   1.917   2.873   6.810
 6475SOL     OW20323   4.042   5.074   3.614
 6475SOL    HW120324   4.057   5.125   3.529
 6475SOL    HW220325   4.028   5.138   3.689
 6476SOL     OW20326   4.658   5.859   3.166
 6476SOL    HW120327   4.646   5.825   3.073
 6476SOL    HW220328   4.744   5.823   3.203
 6477SOL     OW20329   6.580   5.740   0.538
 6477SOL    HW120330   6.592   5.646   0.508
 6477SOL    HW220331   6.573   5.801   0.459
 6478SOL     OW20332   4.354   6.379   0.800
 6478SOL    HW120333   4.393   6.454   0.853
 6478SOL    HW220334   4.375   6.292   0.844
 6479SOL     OW20335   2.817   5.869   2.407
 6479SOL    HW120336   2.892   5.809   2.384
 6479SOL    HW220337   2.776   5.841   2.494
 6480SOL     OW20338   2.227   1.359   0.831
 6480SOL    HW120339   2.322   1.389   0.821
 6480SOL    HW220340   2.224   1.276   0.887
 6481SOL     OW20341   4.495   0.962   0.798
 6481SOL    HW120342   4.458   1.014   0.875
 6481SOL    HW220343   4.542   0.881   0.832
 6482SOL     OW20344   6.929   0.363   5.591
 6482SOL    HW120345   6.874   0.435   5.549
 6482SOL    HW220346   6.872   0.307   5.652
 6483SOL     OW20347   1.180   5.504   1.221
 6483SOL    HW120348   1.141   5.593   1.195
 6483SOL    HW220349   1.112   5.452   1.272
 6484SOL     OW20350   4.070   0.440   2.666
 6484SOL    HW120351   4.132   0.376   2.622
 6484SOL    HW220352   4.022   0.493   2.596
 6485SOL     OW20353   6.758   2.327   2.245
 6485SOL    HW120354   6.827   2.324   2.317
 6485SOL    HW220355   6.800   2.308   2.157
 6486SOL     OW20356   1.677   3.303   2.958
 6486SOL    HW120357   1.594   3.288   3.011
 6486SOL    HW220358   1.725   3.383   2.994
 6487SOL     OW20359   6.198   5.615   2.872
 6487SOL    HW120360   6.203   5.552   2.950
 6487SOL    HW220361   6.121   5.677   2.885
 6488SOL     OW20362   3.510   5.101   4.261
 6488SOL    HW120363   3.419   5.061   4.264
 6488SOL    HW220364   3.528   5.151   4.345
 6489SOL     OW20365   2.860   0.723   6.420
 6489SOL    HW120366   2.814   0.746   6.506
 6489SOL    HW220367   2.945   0.675   6.440
 6490SOL     OW20368   3.757   0.973   6.945
 6490SOL    HW120369   3.662   0.954   6.920
 6490SOL    HW220370   3.763   0.990   0.027
 6491SOL     OW20371   4.856   0.991   5.753
 6491SOL    HW120372   4.789   0.971   5.825
 6491SOL    HW220373   4.943   1.017   5.794
 6492SOL     OW20374   5.776   5.109   6.574
 6492SOL    HW120375   5.748   5.013   6.569
 6492SOL    HW220376   5.835   5.130   6.497
 6493SOL     OW20377   6.932   6.309   5.285
 6493SOL    HW120378   6.941   6.267   5.376
 6493SOL    HW220379   6.940   6.408   5.294
 6494SOL     OW20380   0.050   2.976   3.211
 6494SOL    HW120381   0.074   2.975   3.114
 6494SOL    HW220382   0.072   3.065   3.250
 6495SOL     OW20383   5.521   4.511   2.213
 6495SOL    HW120384   5.614   4.536   2.185
 6495SOL    HW220385   5.520   4.416   2.245
 6496SOL     OW20386   6.804   6.746   3.455
 6496SOL    HW120387   6.888   6.734   3.401
 6496SOL    HW220388   6.818   6.815   3.525
 6497SOL     OW20389   1.144   0.513   0.973
 6497SOL    HW120390   1.191   0.599   0.955
 6497SOL    HW220391   1.184   0.470   1.054
 6498SOL     OW20392   1.182   3.387   4.597
 6498SOL    HW120393   1.261   3.346   4.551
 6498SOL    HW220394   1.142   3.457   4.538
 6499SOL     OW20395   6.032   1.391   2.953
 6499SOL    HW120396   5.953   1.433   2.908
 6499SOL    HW220397   6.059   1.447   3.032
 6500SOL     OW20398   5.585   4.955   2.010
 6500SOL    HW120399   5.538   4.868   1.994
 6500SOL    HW220400   5.576   4.981   2.106
 6501SOL     OW20401   6.646   4.088   0.525
 6501SOL    HW120402   6.718   4.088   0.456
 6501SOL    HW220403   6.565   4.134   0.488
 6502SOL     OW20404   0.238   5.249   2.072
 6502SOL    HW120405   0.258   5.165   2.123
 6502SOL    HW220406   0.139   5.260   2.062
 6503SOL     OW20407   3.654   0.392   3.877
 6503SOL    HW120408   3.562   0.353   3.885
 6503SOL    HW220409   3.722   0.319   3.883
 6504SOL     OW20410   2.442   2.552   0.362
 6504SOL    HW120411   2.537   2.565   0.391
 6504SOL    HW220412   2.440   2.490   0.283
 6505SOL     OW20413   5.467   5.148   0.819
 6505SOL    HW120414   5.541   5.163   0.753
 6505SOL    HW220415   5.409   5.229   0.822
 6506SOL     OW20416   2.457   1.435   1.847
 6506SOL    HW120417   2.527   1.386   1.795
 6506SOL    HW220418   2.465   1.533   1.828
 6507SOL     OW20419   3.045   0.578   1.575
 6507SOL    HW120420   3.002   0.494   1.541
 6507SOL    HW220421   2.975   0.647   1.592
 6508SOL     OW20422   1.305   3.177   1.745
 6508SOL    HW120423   1.235   3.112   1.774
 6508SOL    HW220424   1.279   3.218   1.657
 6509SOL     OW20425   1.470   3.046   3.935
 6509SOL    HW120426   1.505   3.133   3.902
 6509SOL    HW220427   1.534   3.007   4.001
 6510SOL     OW20428   6.189   4.108   6.686
 6510SOL    HW120429   6.189   4.009   6.703
 6510SOL    HW220430   6.259   4.152   6.743
 6511SOL     OW20431   6.612   6.838   6.033
 6511SOL    HW120432   6.571   6.754   5.997
 6511SOL    HW220433   6.571   6.917   5.987
 6512SOL     OW20434   5.646   6.546   4.355
 6512SOL    HW120435   5.559   6.591   4.374
 6512SOL    HW220436   5.632   6.447   4.348
 6513SOL     OW20437   1.171   6.991   3.669
 6513SOL    HW120438   1.230   6.915   3.640
 6513SOL    HW220439   1.091   6.995   3.610
 6514SOL     OW20440   2.695   0.915   3.936
 6514SOL    HW120441   2.625   0.892   3.868
 6514SOL    HW220442   2.669   0.876   4.024
 6515SOL     OW20443   1.303   1.092   3.590
 6515SOL    HW120444   1.306   1.007   3.641
 6515SOL    HW220445   1.397   1.125   3.575
 6516SOL     OW20446   2.289   1.392   5.782
 6516SOL    HW120447   2.360   1.326   5.806
 6516SOL    HW220448   2.259   1.441   5.864
 6517SOL     OW20449   3.409   1.940   0.993
 6517SOL    HW120450   3.420   1.966   0.897
 6517SOL    HW220451   3.483   1.981   1.047
 6518SOL     OW20452   5.123   6.048   1.448
 6518SOL    HW120453   5.214   6.008   1.464
 6518SOL    HW220454   5.134   6.143   1.419
 6519SOL     OW20455   0.363   2.003   3.745
 6519SOL    HW120456   0.420   1.939   3.796
 6519SOL    HW220457   0.387   2.000   3.648
 6520SOL     OW20458   5.933   5.411   1.424
 6520SOL    HW120459   5.892   5.452   1.343
 6520SOL    HW220460   5.948   5.314   1.408
 6521SOL     OW20461   1.489   2.213   6.223
 6521SOL    HW120462   1.501   2.248   6.316
 6521SOL    HW220463   1.565   2.244   6.165
 6522SOL     OW20464   2.475   4.829   4.166
 6522SOL    HW120465   2.509   4.749   4.214
 6522SOL    HW220466   2.552   4.877   4.123
 6523SOL     OW20467   2.810   2.640   1.110
 6523SOL    HW120468   2.842   2.722   1.158
 6523SOL    HW220469   2.884   2.603   1.055
 6524SOL     OW20470   4.036   2.371   5.454
 6524SOL    HW120471   4.008   2.356   5.549
 6524SOL    HW220472   3.998   2.458   5.421
 6525SOL     OW20473   0.278   2.359   4.686
 6525SOL    HW120474   0.203   2.425   4.693
 6525SOL    HW220475   0.275   2.297   4.765
 6526SOL     OW20476   1.857   6.302   2.921
 6526SOL    HW120477   1.914   6.226   2.888
 6526SOL    HW220478   1.834   6.361   2.844
 6527SOL     OW20479   1.708   1.370   4.553
 6527SOL    HW120480   1.797   1.416   4.559
 6527SOL    HW220481   1.717   1.276   4.586
 6528SOL     OW20482   6.606   0.739   2.753
 6528SOL    HW120483   6.510   0.758   2.776
 6528SOL    HW220484   6.646   0.680   2.824
 6529SOL     OW20485   6.021   3.041   2.312
 6529SOL    HW120486   5.944   3.035   2.376
 6529SOL    HW220487   5.989   3.022   2.219
 6530SOL     OW20488   0.135   0.767   0.332
 6530SOL    HW120489   0.197   0.737   0.404
 6530SOL    HW220490   0.074   0.838   0.369
 6531SOL     OW20491   4.978   2.251   5.963
 6531SOL    HW120492   4.942   2.157   5.960
 6531SOL    HW220493   5.058   2.254   6.023
 6532SOL     OW20494   1.774   1.320   6.418
 6532SOL    HW120495   1.683   1.361   6.414
 6532SOL    HW220496   1.768   1.223   6.394
 6533SOL     OW20497   5.000   0.719   0.088
 6533SOL    HW120498   5.094   0.685   0.095
 6533SOL    HW220499   4.979   0.738   7.008
 6534SOL     OW20500   4.182   2.645   6.780
 6534SOL    HW120501   4.216   2.685   6.696
 6534SOL    HW220502   4.220   2.553   6.791
 6535SOL     OW20503   1.804   2.478   4.867
 6535SOL    HW120504   1.838   2.489   4.774
 6535SOL    HW220505   1.709   2.447   4.864
 6536SOL     OW20506   0.710   1.580   0.921
 6536SOL    HW120507   0.653   1.498   0.922
 6536SOL    HW220508   0.677   1.643   0.851
 6537SOL     OW20509   0.071   0.900   5.986
 6537SOL    HW120510   0.089   0.936   6.077
 6537SOL    HW220511   0.138   0.937   5.921
 6538SOL     OW20512   3.215   2.617   5.595
 6538SOL    HW120513   3.192   2.657   5.506
 6538SOL    HW220514   3.234   2.520   5.583
 6539SOL     OW20515   3.379   1.289   6.632
 6539SOL    HW120516   3.404   1.380   6.601
 6539SOL    HW220517   3.422   1.271   6.721
 6540SOL     OW20518   3.998   2.213   3.168
 6540SOL    HW120519   4.050   2.253   3.092
 6540SOL    HW220520   4.051   2.224   3.252
 6541SOL     OW20521   2.974   1.806   5.326
 6541SOL    HW120522   3.061   1.759   5.308
 6541SOL    HW220523   2.949   1.861   5.246
 6542SOL     OW20524   4.485   4.862   2.731
 6542SOL    HW120525   4.469   4.830   2.825
 6542SOL    HW220526   4.542   4.796   2.682
 6543SOL     OW20527   1.463   6.365   6.469
 6543SOL    HW120528   1.532   6.436   6.452
 6543SOL    HW220529   1.454   6.306   6.389
 6544SOL     OW20530   0.734   4.914   2.674
 6544SOL    HW120531   0.730   5.014   2.674
 6544SOL    HW220532   0.718   4.880   2.766
 6545SOL     OW20533   6.329   2.273   6.710
 6545SOL    HW120534   6.318   2.347   6.776
 6545SOL    HW220535   6.240   2.232   6.689
 6546SOL     OW20536   3.121   4.620   6.270
 6546SOL    HW120537   3.193   4.686   6.246
 6546SOL    HW220538   3.081   4.645   6.358
 6547SOL     OW20539   4.331   1.296   6.136
 6547SOL    HW120540   4.374   1.219   6.090
 6547SOL    HW220541   4.252   1.328   6.083
 6548SOL     OW20542   4.758   3.798   5.675
 6548SOL    HW120543   4.833   3.736   5.650
 6548SOL    HW220544   4.793   3.890   5.686
 6549SOL     OW20545   2.599   1.996   2.221
 6549SOL    HW120546   2.508   2.020   2.187
 6549SOL    HW220547   2.645   1.937   2.155
 6550SOL     OW20548   0.890   6.003   2.142
 6550SOL    HW120549   0.827   5.940   2.189
 6550SOL    HW220550   0.852   6.028   2.053
 6551SOL     OW20551   3.413   5.119   2.014
 6551SOL    HW120552   3.498   5.118   1.962
 6551SOL    HW220553   3.362   5.035   1.998
 6552SOL     OW20554   4.556   4.738   5.788
 6552SOL    HW120555   4.491   4.662   5.784
 6552SOL    HW220556   4.508   4.824   5.771
 6553SOL     OW20557   6.426   3.488   2.988
 6553SOL    HW120558   6.450   3.392   3.004
 6553SOL    HW220559   6.328   3.500   2.998
 6554SOL     OW20560   6.652   3.181   4.352
 6554SOL    HW120561   6.659   3.087   4.319
 6554SOL    HW220562   6.731   3.201   4.411
 6555SOL     OW20563   0.678   1.160   1.401
 6555SOL    HW120564   0.688   1.257   1.379
 6555SOL    HW220565   0.592   1.146   1.450
 6556SOL     OW20566   2.558   6.728   3.204
 6556SOL    HW120567   2.648   6.693   3.228
 6556SOL    HW220568   2.527   6.793   3.273
 6557SOL     OW20569   4.695   6.399   0.639
 6557SOL    HW120570   4.785   6.361   0.657
 6557SOL    HW220571   4.661   6.364   0.551
 6558SOL     OW20572   5.913   6.832   6.418
 6558SOL    HW120573   5.980   6.898   6.384
 6558SOL    HW220574   5.836   6.827   6.353
 6559SOL     OW20575   3.141   3.947   0.791
 6559SOL    HW120576   3.087   3.862   0.788
 6559SOL    HW220577   3.112   4.008   0.718
 6560SOL     OW20578   4.666   1.931   1.016
 6560SOL    HW120579   4.585   1.955   1.070
 6560SOL    HW220580   4.734   2.003   1.023
 6561SOL     OW20581   3.039   3.190   4.819
 6561SOL    HW120582   3.100   3.219   4.893
 6561SOL    HW220583   2.992   3.106   4.845
 6562SOL     OW20584   0.132   4.659   5.029
 6562SOL    HW120585   0.103   4.588   5.094
 6562SOL    HW220586   0.207   4.625   4.973
 6563SOL     OW20587   0.918   6.585   2.581
 6563SOL    HW120588   0.892   6.488   2.585
 6563SOL    HW220589   0.982   6.599   2.506
 6564SOL     OW20590   1.933   5.166   2.966
 6564SOL    HW120591   1.927   5.237   3.036
 6564SOL    HW220592   2.004   5.100   2.992
 6565SOL     OW20593   0.242   3.529   5.363
 6565SOL    HW120594   0.173   3.457   5.367
 6565SOL    HW220595   0.203   3.614   5.396
 6566SOL     OW20596   4.585   1.416   0.891
 6566SOL    HW120597   4.558   1.491   0.951
 6566SOL    HW220598   4.684   1.418   0.877
 6567SOL     OW20599   6.818   2.534   0.659
 6567SOL    HW120600   6.839   2.566   0.567
 6567SOL    HW220601   6.821   2.434   0.661
 6568SOL     OW20602   5.281   3.451   1.364
 6568SOL    HW120603   5.208   3.432   1.430
 6568SOL    HW220604   5.366   3.470   1.413
 6569SOL     OW20605   1.249   4.647   5.704
 6569SOL    HW120606   1.284   4.558   5.733
 6569SOL    HW220607   1.314   4.718   5.732
 6570SOL     OW20608   0.725   3.900   2.182
 6570SOL    HW120609   0.680   3.838   2.246
 6570SOL    HW220610   0.677   3.987   2.180
 6571SOL     OW20611   2.025   5.446   4.204
 6571SOL    HW120612   1.972   5.516   4.157
 6571SOL    HW220613   1.977   5.419   4.288
 6572SOL     OW20614   1.864   3.514   5.126
 6572SOL    HW120615   1.882   3.609   5.154
 6572SOL    HW220616   1.826   3.464   5.204
 6573SOL     OW20617   1.376   2.145   1.497
 6573SOL    HW120618   1.326   2.153   1.583
 6573SOL    HW220619   1.313   2.154   1.420
 6574SOL     OW20620   2.036   4.891   4.568
 6574SOL    HW120621   2.119   4.835   4.563
 6574SOL    HW220622   2.060   4.985   4.590
 6575SOL     OW20623   1.539   1.377   2.398
 6575SOL    HW120624   1.502   1.419   2.316
 6575SOL    HW220625   1.480   1.398   2.476
 6576SOL     OW20626   0.111   5.426   4.374
 6576SOL    HW120627   0.013   5.413   4.360
 6576SOL    HW220628   0.126   5.493   4.447
 6577SOL     OW20629   0.824   3.879   5.581
 6577SOL    HW120630   0.741   3.858   5.631
 6577SOL    HW220631   0.832   3.818   5.502
 6578SOL     OW20632   5.504   5.913   4.608
 6578SOL    HW120633   5.539   5.838   4.551
 6578SOL    HW220634   5.552   5.997   4.585
 6579SOL     OW20635   0.472   3.931   4.078
 6579SOL    HW120636   0.396   3.967   4.024
 6579SOL    HW220637   0.489   3.836   4.052
 6580SOL     OW20638   5.659   2.388   0.890
 6580SOL    HW120639   5.715   2.470   0.873
 6580SOL    HW220640   5.648   2.337   0.805
 6581SOL     OW20641   2.682   2.087   5.202
 6581SOL    HW120642   2.758   2.122   5.147
 6581SOL    HW220643   2.649   2.158   5.263
 6582SOL     OW20644   6.051   0.369   2.535
 6582SOL    HW120645   6.134   0.379   2.481
 6582SOL    HW220646   6.011   0.459   2.551
 6583SOL     OW20647   5.777   0.439   6.092
 6583SOL    HW120648   5.856   0.455   6.152
 6583SOL    HW220649   5.693   0.460   6.142
 6584SOL     OW20650   5.914   2.220   0.677
 6584SOL    HW120651   5.920   2.145   0.611
 6584SOL    HW220652   6.000   2.271   0.676
 6585SOL     OW20653   2.118   0.935   2.795
 6585SOL    HW120654   2.106   1.034   2.792
 6585SOL    HW220655   2.174   0.911   2.874
 6586SOL     OW20656   6.014   0.469   6.227
 6586SOL    HW120657   6.087   0.498   6.164
 6586SOL    HW220658   6.046   0.478   6.321
 6587SOL     OW20659   1.763   5.943   2.107
 6587SOL    HW120660   1.855   5.944   2.146
 6587SOL    HW220661   1.770   5.952   2.007
 6588SOL     OW20662   3.507   3.597   0.218
 6588SOL    HW120663   3.468   3.509   0.246
 6588SOL    HW220664   3.606   3.588   0.210
 6589SOL     OW20665   4.509   1.760   5.983
 6589SOL    HW120666   4.535   1.684   6.042
 6589SOL    HW220667   4.569   1.839   6.002
 6590SOL     OW20668   6.587   1.977   5.649
 6590SOL    HW120669   6.575   1.899   5.588
 6590SOL    HW220670   6.677   2.018   5.634
 6591SOL     OW20671   4.496   0.171   2.432
 6591SOL    HW120672   4.483   0.072   2.430
 6591SOL    HW220673   4.534   0.201   2.345
 6592SOL     OW20674   6.268   4.603   5.487
 6592SOL    HW120675   6.272   4.515   5.440
 6592SOL    HW220676   6.205   4.663   5.439
 6593SOL     OW20677   5.305   1.516   2.376
 6593SOL    HW120678   5.218   1.565   2.387
 6593SOL    HW220679   5.329   1.473   2.463
 6594SOL     OW20680   5.460   0.356   6.621
 6594SOL    HW120681   5.389   0.287   6.629
 6594SOL    HW220682   5.501   0.373   6.711
 6595SOL     OW20683   3.947   2.803   6.470
 6595SOL    HW120684   3.860   2.806   6.421
 6595SOL    HW220685   3.965   2.892   6.513
 6596SOL     OW20686   2.209   5.449   5.024
 6596SOL    HW120687   2.184   5.521   5.088
 6596SOL    HW220688   2.236   5.367   5.075
 6597SOL     OW20689   0.428   4.274   0.680
 6597SOL    HW120690   0.341   4.307   0.643
 6597SOL    HW220691   0.411   4.226   0.767
 6598SOL     OW20692   3.054   6.313   4.346
 6598SOL    HW120693   2.971   6.367   4.334
 6598SOL    HW220694   3.039   6.244   4.417
 6599SOL     OW20695   4.084   3.812   5.866
 6599SOL    HW120696   4.073   3.908   5.888
 6599SOL    HW220697   4.084   3.800   5.767
 6600SOL     OW20698   4.469   4.763   5.059
 6600SOL    HW120699   4.430   4.683   5.013
 6600SOL    HW220700   4.559   4.784   5.019
 6601SOL     OW20701   1.191   1.235   2.387
 6601SOL    HW120702   1.180   1.328   2.421
 6601SOL    HW220703   1.270   1.193   2.431
 6602SOL     OW20704   5.384   1.519   0.883
 6602SOL    HW120705   5.479   1.509   0.854
 6602SOL    HW220706   5.331   1.440   0.851
 6603SOL     OW20707   3.115   2.089   1.526
 6603SOL    HW120708   3.183   2.092   1.599
 6603SOL    HW220709   3.054   2.011   1.541
 6604SOL     OW20710   4.417   5.062   5.006
 6604SOL    HW120711   4.449   4.967   5.018
 6604SOL    HW220712   4.385   5.075   4.913
 6605SOL     OW20713   4.767   5.508   0.912
 6605SOL    HW120714   4.841   5.508   0.979
 6605SOL    HW220715   4.764   5.597   0.866
 6606SOL     OW20716   0.604   3.064   3.182
 6606SOL    HW120717   0.613   3.163   3.169
 6606SOL    HW220718   0.642   3.016   3.103
 6607SOL     OW20719   1.913   3.925   2.955
 6607SOL    HW120720   1.957   3.869   2.885
 6607SOL    HW220721   1.850   3.868   3.009
 6608SOL     OW20722   5.020   4.225   4.528
 6608SOL    HW120723   5.008   4.311   4.480
 6608SOL    HW220724   4.931   4.189   4.555
 6609SOL     OW20725   5.699   2.770   6.386
 6609SOL    HW120726   5.795   2.746   6.397
 6609SOL    HW220727   5.644   2.687   6.381
 6610SOL     OW20728   4.170   1.008   0.609
 6610SOL    HW120729   4.259   1.035   0.572
 6610SOL    HW220730   4.150   1.060   0.692
 6611SOL     OW20731   5.565   2.940   2.190
 6611SOL    HW120732   5.648   2.928   2.136
 6611SOL    HW220733   5.526   3.030   2.172
 6612SOL     OW20734   0.732   5.394   6.591
 6612SOL    HW120735   0.760   5.336   6.667
 6612SOL    HW220736   0.670   5.466   6.624
 6613SOL     OW20737   6.125   5.246   0.613
 6613SOL    HW120738   6.111   5.160   0.661
 6613SOL    HW220739   6.069   5.248   0.530
 6614SOL     OW20740   5.677   4.066   6.301
 6614SOL    HW120741   5.724   3.999   6.244
 6614SOL    HW220742   5.589   4.030   6.330
 6615SOL     OW20743   0.351   3.467   4.535
 6615SOL    HW120744   0.426   3.532   4.520
 6615SOL    HW220745   0.327   3.466   4.632
 6616SOL     OW20746   4.822   1.499   3.918
 6616SOL    HW120747   4.895   1.563   3.942
 6616SOL    HW220748   4.859   1.406   3.917
 6617SOL     OW20749   3.769   0.567   4.616
 6617SOL    HW120750   3.695   0.620   4.657
 6617SOL    HW220751   3.737   0.522   4.533
 6618SOL     OW20752   6.928   4.304   1.322
 6618SOL    HW120753   6.930   4.257   1.411
 6618SOL    HW220754   6.835   4.301   1.285
 6619SOL     OW20755   5.964   5.788   2.480
 6619SOL    HW120756   5.958   5.872   2.534
 6619SOL    HW220757   6.060   5.761   2.472
 6620SOL     OW20758   5.143   3.458   5.538
 6620SOL    HW120759   5.127   3.517   5.459
 6620SOL    HW220760   5.240   3.455   5.560
 6621SOL     OW20761   4.262   3.589   1.248
 6621SOL    HW120762   4.177   3.559   1.290
 6621SOL    HW220763   4.322   3.511   1.234
 6622SOL     OW20764   5.859   5.390   0.616
 6622SOL    HW120765   5.760   5.397   0.601
 6622SOL    HW220766   5.877   5.319   0.684
 6623SOL     OW20767   2.942   3.755   2.746
 6623SOL    HW120768   2.857   3.728   2.792
 6623SOL    HW220769   3.015   3.692   2.773
 6624SOL     OW20770   4.463   4.834   4.347
 6624SOL    HW120771   4.550   4.836   4.396
 6624SOL    HW220772   4.388   4.855   4.411
 6625SOL     OW20773   5.278   6.250   0.455
 6625SOL    HW120774   5.242   6.275   0.544
 6625SOL    HW220775   5.320   6.159   0.461
 6626SOL     OW20776   2.764   5.385   4.622
 6626SOL    HW120777   2.862   5.378   4.638
 6626SOL    HW220778   2.742   5.347   4.532
 6627SOL     OW20779   0.342   0.749   1.164
 6627SOL    HW120780   0.427   0.801   1.175
 6627SOL    HW220781   0.318   0.743   1.067
 6628SOL     OW20782   3.517   6.158   4.482
 6628SOL    HW120783   3.464   6.161   4.397
 6628SOL    HW220784   3.455   6.152   4.560
 6629SOL     OW20785   2.821   4.515   0.469
 6629SOL    HW120786   2.915   4.544   0.487
 6629SOL    HW220787   2.799   4.435   0.525
 6630SOL     OW20788   2.768   1.067   5.861
 6630SOL    HW120789   2.775   1.163   5.888
 6630SOL    HW220790   2.747   1.061   5.764
 6631SOL     OW20791   3.523   6.482   2.018
 6631SOL    HW120792   3.458   6.509   1.947
 6631SOL    HW220793   3.485   6.405   2.070
 6632SOL     OW20794   6.167   3.371   1.828
 6632SOL    HW120795   6.165   3.272   1.837
 6632SOL    HW220796   6.258   3.400   1.797
 6633SOL     OW20797   0.990   6.143   3.064
 6633SOL    HW120798   1.032   6.112   2.979
 6633SOL    HW220799   0.948   6.233   3.049
 6634SOL     OW20800   6.546   2.079   5.044
 6634SOL    HW120801   6.613   2.023   4.996
 6634SOL    HW220802   6.538   2.168   4.998
 6635SOL     OW20803   3.988   5.110   4.032
 6635SOL    HW120804   3.962   5.115   4.128
 6635SOL    HW220805   3.984   5.014   4.002
 6636SOL     OW20806   2.069   3.510   2.508
 6636SOL    HW120807   2.010   3.590   2.517
 6636SOL    HW220808   2.094   3.498   2.412
 6637SOL     OW20809   0.346   2.486   0.101
 6637SOL    HW120810   0.344   2.497   0.200
 6637SOL    HW220811   0.437   2.458   0.071
 6638SOL     OW20812   2.056   0.472   6.520
 6638SOL    HW120813   2.047   0.411   6.442
 6638SOL    HW220814   2.153   0.492   6.536
 6639SOL     OW20815   4.242   5.306   6.263
 6639SOL    HW120816   4.170   5.300   6.195
 6639SOL    HW220817   4.204   5.339   6.349
 6640SOL     OW20818   5.088   4.033   3.210
 6640SOL    HW120819   5.162   3.987   3.258
 6640SOL    HW220820   5.000   4.005   3.249
 6641SOL     OW20821   2.480   5.197   6.285
 6641SOL    HW120822   2.521   5.152   6.206
 6641SOL    HW220823   2.552   5.223   6.350
 6642SOL     OW20824   6.265   6.185   5.992
 6642SOL    HW120825   6.243   6.111   6.057
 6642SOL    HW220826   6.336   6.243   6.032
 6643SOL     OW20827   4.096   5.588   1.094
 6643SOL    HW120828   4.071   5.527   1.168
 6643SOL    HW220829   4.059   5.554   1.008
 6644SOL     OW20830   0.884   3.009   1.978
 6644SOL    HW120831   0.964   3.051   2.021
 6644SOL    HW220832   0.914   2.935   1.918
 6645SOL     OW20833   0.298   5.057   5.617
 6645SOL    HW120834   0.224   5.121   5.598
 6645SOL    HW220835   0.357   5.050   5.536
 6646SOL     OW20836   1.796   5.480   3.621
 6646SOL    HW120837   1.851   5.451   3.699
 6646SOL    HW220838   1.765   5.400   3.570
 6647SOL     OW20839   4.343   1.396   2.044
 6647SOL    HW120840   4.299   1.421   1.957
 6647SOL    HW220841   4.391   1.476   2.080
 6648SOL     OW20842   3.546   5.279   2.267
 6648SOL    HW120843   3.635   5.273   2.222
 6648SOL    HW220844   3.494   5.354   2.226
 6649SOL     OW20845   4.086   1.799   5.629
 6649SOL    HW120846   4.039   1.843   5.553
 6649SOL    HW220847   4.062   1.702   5.633
 6650SOL     OW20848   3.339   1.524   3.985
 6650SOL    HW120849   3.356   1.471   3.902
 6650SOL    HW220850   3.363   1.469   4.065
 6651SOL     OW20851   0.588   1.810   1.275
 6651SOL    HW120852   0.561   1.722   1.316
 6651SOL    HW220853   0.640   1.863   1.342
 6652SOL     OW20854   0.374   5.588   3.688
 6652SOL    HW120855   0.338   5.499   3.715
 6652SOL    HW220856   0.328   5.660   3.740
 6653SOL     OW20857   3.504   4.174   4.209
 6653SOL    HW120858   3.491   4.266   4.171
 6653SOL    HW220859   3.602   4.153   4.213
 6654SOL     OW20860   1.351   3.604   1.818
 6654SOL    HW120861   1.307   3.576   1.733
 6654SOL    HW220862   1.399   3.526   1.858
 6655SOL     OW20863   1.661   0.978   6.779
 6655SOL    HW120864   1.752   0.971   6.819
 6655SOL    HW220865   1.603   1.033   6.839
 6656SOL     OW20866   6.531   1.617   1.355
 6656SOL    HW120867   6.537   1.704   1.307
 6656SOL    HW220868   6.439   1.604   1.391
 6657SOL     OW20869   3.713   4.854   5.473
 6657SOL    HW120870   3.761   4.767   5.483
 6657SOL    HW220871   3.619   4.844   5.505
 6658SOL     OW20872   5.925   6.883   5.476
 6658SOL    HW120873   5.988   6.936   5.419
 6658SOL    HW220874   5.959   6.789   5.483
 6659SOL     OW20875   2.408   2.974   0.385
 6659SOL    HW120876   2.376   3.035   0.458
 6659SOL    HW220877   2.470   2.906   0.423
 6660SOL     OW20878   6.575   6.595   3.020
 6660SOL    HW120879   6.547   6.634   2.933
 6660SOL    HW220880   6.580   6.495   3.012
 6661SOL     OW20881   6.675   0.050   4.002
 6661SOL    HW120882   6.637   0.115   4.068
 6661SOL    HW220883   6.774   0.061   3.997
 6662SOL     OW20884   1.853   3.675   5.734
 6662SOL    HW120885   1.944   3.681   5.692
 6662SOL    HW220886   1.862   3.684   5.833
 6663SOL     OW20887   0.759   5.505   1.646
 6663SOL    HW120888   0.827   5.560   1.696
 6663SOL    HW220889   0.766   5.525   1.549
 6664SOL     OW20890   7.005   1.951   1.546
 6664SOL    HW120891   0.023   1.916   1.458
 6664SOL    HW220892   6.955   1.879   1.593
 6665SOL     OW20893   2.043   6.988   3.622
 6665SOL    HW120894   2.061   6.952   3.531
 6665SOL    HW220895   1.983   6.924   3.671
 6666SOL     OW20896   6.082   0.414   0.341
 6666SOL    HW120897   6.060   0.481   0.270
 6666SOL    HW220898   6.127   0.460   0.417
 6667SOL     OW20899   5.536   4.921   5.734
 6667SOL    HW120900   5.537   5.019   5.756
 6667SOL    HW220901   5.491   4.870   5.806
 6668SOL     OW20902   6.319   6.205   0.831
 6668SOL    HW120903   6.291   6.224   0.925
 6668SOL    HW220904   6.240   6.216   0.770
 6669SOL     OW20905   0.628   4.927   3.397
 6669SOL    HW120906   0.690   4.852   3.421
 6669SOL    HW220907   0.583   4.960   3.480
 6670SOL     OW20908   5.540   4.566   0.588
 6670SOL    HW120909   5.499   4.474   0.593
 6670SOL    HW220910   5.468   4.634   0.576
 6671SOL     OW20911   1.115   2.086   5.426
 6671SOL    HW120912   1.093   2.111   5.332
 6671SOL    HW220913   1.043   2.119   5.487
 6672SOL     OW20914   6.899   1.195   5.028
 6672SOL    HW120915   6.996   1.177   5.045
 6672SOL    HW220916   6.885   1.293   5.014
 6673SOL     OW20917   3.450   6.092   1.596
 6673SOL    HW120918   3.402   6.105   1.682
 6673SOL    HW220919   3.515   6.017   1.604
 6674SOL     OW20920   1.130   5.865   4.909
 6674SOL    HW120921   1.078   5.779   4.904
 6674SOL    HW220922   1.139   5.903   4.817
 6675SOL     OW20923   6.524   6.714   6.346
 6675SOL    HW120924   6.601   6.759   6.303
 6675SOL    HW220925   6.537   6.713   6.445
 6676SOL     OW20926   0.556   1.357   0.900
 6676SOL    HW120927   0.575   1.288   0.970
 6676SOL    HW220928   0.587   1.323   0.811
 6677SOL     OW20929   0.917   4.538   0.738
 6677SOL    HW120930   0.835   4.534   0.681
 6677SOL    HW220931   0.995   4.562   0.681
 6678SOL     OW20932   0.422   3.844   4.370
 6678SOL    HW120933   0.487   3.773   4.398
 6678SOL    HW220934   0.424   3.854   4.271
 6679SOL     OW20935   2.298   1.797   4.190
 6679SOL    HW120936   2.338   1.706   4.199
 6679SOL    HW220937   2.362   1.858   4.144
 6680SOL     OW20938   3.029   0.677   6.970
 6680SOL    HW120939   3.067   0.749   6.912
 6680SOL    HW220940   3.072   0.681   0.044
 6681SOL     OW20941   5.987   4.994   6.699
 6681SOL    HW120942   6.050   4.958   6.630
 6681SOL    HW220943   5.914   5.045   6.654
 6682SOL     OW20944   6.106   4.665   2.447
 6682SOL    HW120945   6.137   4.747   2.398
 6682SOL    HW220946   6.156   4.657   2.533
 6683SOL     OW20947   5.846   3.062   3.867
 6683SOL    HW120948   5.881   3.055   3.961
 6683SOL    HW220949   5.877   3.148   3.827
 6684SOL     OW20950   1.849   0.852   1.689
 6684SOL    HW120951   1.788   0.846   1.609
 6684SOL    HW220952   1.863   0.949   1.712
 6685SOL     OW20953   6.277   2.470   6.894
 6685SOL    HW120954   6.371   2.475   6.928
 6685SOL    HW220955   6.215   2.510   6.963
 6686SOL     OW20956   5.213   4.316   3.760
 6686SOL    HW120957   5.120   4.302   3.724
 6686SOL    HW220958   5.241   4.410   3.745
 6687SOL     OW20959   0.351   6.942   6.933
 6687SOL    HW120960   0.286   7.010   6.901
 6687SOL    HW220961   0.444   6.979   6.929
 6688SOL     OW20962   0.474   4.682   3.065
 6688SOL    HW120963   0.476   4.584   3.046
 6688SOL    HW220964   0.539   4.729   3.005
 6689SOL     OW20965   5.811   3.421   0.215
 6689SOL    HW120966   5.798   3.433   0.117
 6689SOL    HW220967   5.753   3.346   0.247
 6690SOL     OW20968   0.438   1.078   0.533
 6690SOL    HW120969   0.352   1.125   0.514
 6690SOL    HW220970   0.501   1.140   0.579
 6691SOL     OW20971   0.751   5.538   1.380
 6691SOL    HW120972   0.801   5.598   1.317
 6691SOL    HW220973   0.721   5.456   1.331
 6692SOL     OW20974   4.913   3.285   6.506
 6692SOL    HW120975   4.854   3.297   6.585
 6692SOL    HW220976   4.862   3.308   6.422
 6693SOL     OW20977   3.922   3.099   5.962
 6693SOL    HW120978   3.829   3.068   5.983
 6693SOL    HW220979   3.987   3.027   5.987
 6694SOL     OW20980   2.504   5.573   0.253
 6694SOL    HW120981   2.559   5.528   0.182
 6694SOL    HW220982   2.443   5.506   0.295
 6695SOL     OW20983   1.939   1.534   6.979
 6695SOL    HW120984   1.958   1.479   0.044
 6695SOL    HW220985   2.022   1.540   6.923
 6696SOL     OW20986   1.666   1.834   1.243
 6696SOL    HW120987   1.573   1.805   1.266
 6696SOL    HW220988   1.694   1.791   1.157
 6697SOL     OW20989   5.417   3.433   4.935
 6697SOL    HW120990   5.428   3.450   5.033
 6697SOL    HW220991   5.466   3.503   4.884
 6698SOL     OW20992   2.300   4.557   5.405
 6698SOL    HW120993   2.246   4.597   5.479
 6698SOL    HW220994   2.371   4.497   5.443
 6699SOL     OW20995   1.668   3.185   6.664
 6699SOL    HW120996   1.581   3.137   6.668
 6699SOL    HW220997   1.730   3.137   6.602
 6700SOL     OW20998   0.171   6.464   6.623
 6700SOL    HW120999   0.115   6.471   6.540
 6700SOL    HW221000   0.115   6.428   6.697
 6701SOL     OW21001   1.793   2.103   6.416
 6701SOL    HW121002   1.757   2.010   6.408
 6701SOL    HW221003   1.805   2.126   6.513
 6702SOL     OW21004   3.189   3.280   0.467
 6702SOL    HW121005   3.091   3.263   0.468
 6702SOL    HW221006   3.213   3.341   0.542
 6703SOL     OW21007   0.636   1.843   0.393
 6703SOL    HW121008   0.607   1.931   0.430
 6703SOL    HW221009   0.565   1.807   0.333
 6704SOL     OW21010   5.459   3.318   2.740
 6704SOL    HW121011   5.380   3.261   2.761
 6704SOL    HW221012   5.466   3.391   2.808
 6705SOL     OW21013   5.016   2.487   1.157
 6705SOL    HW121014   4.978   2.436   1.080
 6705SOL    HW221015   5.056   2.572   1.125
 6706SOL     OW21016   1.333   6.783   6.474
 6706SOL    HW121017   1.360   6.705   6.531
 6706SOL    HW221018   1.235   6.802   6.487
 6707SOL     OW21019   1.264   5.492   3.475
 6707SOL    HW121020   1.171   5.530   3.478
 6707SOL    HW221021   1.297   5.492   3.381
 6708SOL     OW21022   2.351   6.126   0.920
 6708SOL    HW121023   2.315   6.185   0.992
 6708SOL    HW221024   2.429   6.171   0.876
 6709SOL     OW21025   4.695   1.662   3.730
 6709SOL    HW121026   4.742   1.609   3.800
 6709SOL    HW221027   4.726   1.631   3.639
 6710SOL     OW21028   2.938   2.126   0.610
 6710SOL    HW121029   2.990   2.141   0.694
 6710SOL    HW221030   3.001   2.109   0.534
 6711SOL     OW21031   5.556   3.554   6.192
 6711SOL    HW121032   5.551   3.618   6.115
 6711SOL    HW221033   5.524   3.464   6.162
 6712SOL     OW21034   3.429   6.334   0.321
 6712SOL    HW121035   3.345   6.288   0.349
 6712SOL    HW221036   3.468   6.383   0.400
 6713SOL     OW21037   0.454   2.739   3.124
 6713SOL    HW121038   0.511   2.771   3.199
 6713SOL    HW221039   0.386   2.674   3.159
 6714SOL     OW21040   6.654   1.412   5.254
 6714SOL    HW121041   6.718   1.392   5.180
 6714SOL    HW221042   6.561   1.412   5.218
 6715SOL     OW21043   4.921   2.919   1.630
 6715SOL    HW121044   4.958   2.844   1.685
 6715SOL    HW221045   4.892   2.993   1.691
 6716SOL     OW21046   3.457   5.760   1.161
 6716SOL    HW121047   3.534   5.780   1.221
 6716SOL    HW221048   3.484   5.692   1.093
 6717SOL     OW21049   3.448   0.887   6.861
 6717SOL    HW121050   3.448   0.803   6.914
 6717SOL    HW221051   3.434   0.965   6.923
 6718SOL     OW21052   4.477   0.471   6.519
 6718SOL    HW121053   4.433   0.548   6.565
 6718SOL    HW221054   4.468   0.482   6.420
 6719SOL     OW21055   1.007   2.122   5.171
 6719SOL    HW121056   0.964   2.048   5.119
 6719SOL    HW221057   0.979   2.210   5.133
 6720SOL     OW21058   1.754   4.502   0.136
 6720SOL    HW121059   1.826   4.550   0.086
 6720SOL    HW221060   1.740   4.546   0.225
 6721SOL     OW21061   6.055   6.621   2.524
 6721SOL    HW121062   6.005   6.535   2.516
 6721SOL    HW221063   6.109   6.621   2.608
 6722SOL     OW21064   3.712   4.706   6.513
 6722SOL    HW121065   3.665   4.663   6.590
 6722SOL    HW221066   3.768   4.782   6.547
 6723SOL     OW21067   3.683   1.880   2.467
 6723SOL    HW121068   3.716   1.848   2.555
 6723SOL    HW221069   3.757   1.873   2.399
 6724SOL     OW21070   3.700   4.922   5.874
 6724SOL    HW121071   3.602   4.911   5.887
 6724SOL    HW221072   3.739   4.968   5.954
 6725SOL     OW21073   0.473   6.319   1.316
 6725SOL    HW121074   0.416   6.337   1.236
 6725SOL    HW221075   0.569   6.317   1.288
 6726SOL     OW21076   2.301   2.492   1.752
 6726SOL    HW121077   2.398   2.504   1.773
 6726SOL    HW221078   2.275   2.551   1.676
 6727SOL     OW21079   2.853   3.628   1.343
 6727SOL    HW121080   2.812   3.717   1.364
 6727SOL    HW221081   2.952   3.632   1.358
 6728SOL     OW21082   4.366   1.585   3.975
 6728SOL    HW121083   4.359   1.648   4.053
 6728SOL    HW221084   4.289   1.598   3.914
 6729SOL     OW21085   3.890   5.470   3.559
 6729SOL    HW121086   3.915   5.406   3.486
 6729SOL    HW221087   3.861   5.557   3.518
 6730SOL     OW21088   1.237   6.691   2.760
 6730SOL    HW121089   1.237   6.718   2.664
 6730SOL    HW221090   1.163   6.737   2.808
 6731SOL     OW21091   1.825   3.855   1.109
 6731SOL    HW121092   1.839   3.948   1.077
 6731SOL    HW221093   1.890   3.834   1.182
 6732SOL     OW21094   3.413   5.593   0.339
 6732SOL    HW121095   3.368   5.657   0.402
 6732SOL    HW221096   3.419   5.503   0.382
 6733SOL     OW21097   6.234   5.788   4.352
 6733SOL    HW121098   6.249   5.876   4.397
 6733SOL    HW221099   6.251   5.796   4.254
 6734SOL     OW21100   2.859   3.798   6.825
 6734SOL    HW121101   2.951   3.759   6.827
 6734SOL    HW221102   2.864   3.896   6.808
 6735SOL     OW21103   0.285   6.409   6.037
 6735SOL    HW121104   0.354   6.466   5.991
 6735SOL    HW221105   0.212   6.468   6.072
 6736SOL     OW21106   2.095   4.494   1.845
 6736SOL    HW121107   2.121   4.398   1.846
 6736SOL    HW221108   2.151   4.545   1.910
 6737SOL     OW21109   1.597   0.214   1.386
 6737SOL    HW121110   1.543   0.298   1.390
 6737SOL    HW221111   1.690   0.233   1.419
 6738SOL     OW21112   5.298   1.781   0.491
 6738SOL    HW121113   5.300   1.681   0.494
 6738SOL    HW221114   5.337   1.818   0.575
 6739SOL     OW21115   4.021   5.324   6.085
 6739SOL    HW121116   3.931   5.342   6.125
 6739SOL    HW221117   4.019   5.342   5.987
 6740SOL     OW21118   5.748   2.544   5.253
 6740SOL    HW121119   5.649   2.547   5.265
 6740SOL    HW221120   5.793   2.554   5.341
 6741SOL     OW21121   0.203   0.799   5.421
 6741SOL    HW121122   0.247   0.812   5.332
 6741SOL    HW221123   0.118   0.748   5.409
 6742SOL     OW21124   5.747   5.979   5.248
 6742SOL    HW121125   5.843   5.968   5.225
 6742SOL    HW221126   5.732   6.071   5.284
 6743SOL     OW21127   5.870   2.042   0.912
 6743SOL    HW121128   5.781   2.035   0.957
 6743SOL    HW221129   5.864   2.109   0.838
 6744SOL     OW21130   4.286   0.766   3.730
 6744SOL    HW121131   4.341   0.828   3.786
 6744SOL    HW221132   4.231   0.707   3.790
 6745SOL     OW21133   0.947   3.901   3.421
 6745SOL    HW121134   1.036   3.910   3.465
 6745SOL    HW221135   0.905   3.815   3.448
 6746SOL     OW21136   6.266   0.241   6.876
 6746SOL    HW121137   6.284   0.164   6.937
 6746SOL    HW221138   6.345   0.304   6.878
 6747SOL     OW21139   5.174   5.249   5.963
 6747SOL    HW121140   5.228   5.249   6.047
 6747SOL    HW221141   5.097   5.187   5.973
 6748SOL     OW21142   6.152   6.821   2.165
 6748SOL    HW121143   6.238   6.792   2.206
 6748SOL    HW221144   6.098   6.872   2.232
 6749SOL     OW21145   3.182   4.976   1.023
 6749SOL    HW121146   3.239   4.924   1.087
 6749SOL    HW221147   3.085   4.959   1.043
 6750SOL     OW21148   2.126   3.070   5.063
 6750SOL    HW121149   2.218   3.031   5.052
 6750SOL    HW221150   2.099   3.114   4.977
 6751SOL     OW21151   4.840   2.625   5.698
 6751SOL    HW121152   4.778   2.704   5.692
 6751SOL    HW221153   4.801   2.549   5.646
 6752SOL     OW21154   6.309   1.009   0.333
 6752SOL    HW121155   6.228   0.950   0.333
 6752SOL    HW221156   6.315   1.058   0.420
 6753SOL     OW21157   5.545   0.475   6.249
 6753SOL    HW121158   5.480   0.417   6.297
 6753SOL    HW221159   5.516   0.571   6.255
 6754SOL     OW21160   4.385   1.497   6.678
 6754SOL    HW121161   4.377   1.497   6.777
 6754SOL    HW221162   4.303   1.457   6.638
 6755SOL     OW21163   5.030   1.717   2.911
 6755SOL    HW121164   5.094   1.639   2.905
 6755SOL    HW221165   5.082   1.802   2.914
 6756SOL     OW21166   4.186   4.912   2.869
 6756SOL    HW121167   4.111   4.864   2.915
 6756SOL    HW221168   4.229   4.976   2.932
 6757SOL     OW21169   6.226   3.798   1.763
 6757SOL    HW121170   6.289   3.740   1.711
 6757SOL    HW221171   6.266   3.818   1.852
 6758SOL     OW21172   6.985   2.318   2.396
 6758SOL    HW121173   0.058   2.302   2.353
 6758SOL    HW221174   6.980   2.269   2.483
 6759SOL     OW21175   6.790   5.648   4.212
 6759SOL    HW121176   6.694   5.634   4.185
 6759SOL    HW221177   6.829   5.721   4.155
 6760SOL     OW21178   0.957   3.865   5.161
 6760SOL    HW121179   0.964   3.876   5.061
 6760SOL    HW221180   0.881   3.920   5.195
 6761SOL     OW21181   6.556   2.789   6.679
 6761SOL    HW121182   6.648   2.821   6.655
 6761SOL    HW221183   6.496   2.800   6.600
 6762SOL     OW21184   6.993   1.771   4.474
 6762SOL    HW121185   0.044   1.720   4.527
 6762SOL    HW221186   6.961   1.850   4.526
 6763SOL     OW21187   5.013   6.663   5.323
 6763SOL    HW121188   5.101   6.621   5.301
 6763SOL    HW221189   5.009   6.683   5.421
 6764SOL     OW21190   1.809   3.641   7.014
 6764SOL    HW121191   1.712   3.623   0.015
 6764SOL    HW221192   1.846   3.698   0.071
 6765SOL     OW21193   4.775   5.607   1.990
 6765SOL    HW121194   4.817   5.572   2.073
 6765SOL    HW221195   4.687   5.562   1.975
 6766SOL     OW21196   2.675   2.359   4.874
 6766SOL    HW121197   2.613   2.280   4.880
 6766SOL    HW221198   2.644   2.429   4.938
 6767SOL     OW21199   0.787   2.557   6.020
 6767SOL    HW121200   0.810   2.640   6.071
 6767SOL    HW221201   0.870   2.509   5.993
 6768SOL     OW21202   6.483   0.408   5.453
 6768SOL    HW121203   6.491   0.370   5.545
 6768SOL    HW221204   6.484   0.334   5.386
 6769SOL     OW21205   1.391   2.815   6.347
 6769SOL    HW121206   1.475   2.832   6.398
 6769SOL    HW221207   1.380   2.717   6.332
 6770SOL     OW21208   0.304   2.284   3.789
 6770SOL    HW121209   0.315   2.223   3.868
 6770SOL    HW221210   0.328   2.235   3.706
 6771SOL     OW21211   5.646   2.311   1.852
 6771SOL    HW121212   5.557   2.341   1.886
 6771SOL    HW221213   5.711   2.386   1.859
 6772SOL     OW21214   1.461   6.662   1.584
 6772SOL    HW121215   1.452   6.682   1.682
 6772SOL    HW221216   1.489   6.567   1.571
 6773SOL     OW21217   1.682   1.423   3.515
 6773SOL    HW121218   1.600   1.479   3.527
 6773SOL    HW221219   1.680   1.380   3.424
 6774SOL     OW21220   3.780   0.982   5.310
 6774SOL    HW121221   3.723   0.901   5.322
 6774SOL    HW221222   3.721   1.063   5.300
 6775SOL     OW21223   1.544   3.017   5.113
 6775SOL    HW121224   1.547   3.116   5.126
 6775SOL    HW221225   1.637   2.980   5.117
 6776SOL     OW21226   3.361   3.007   4.144
 6776SOL    HW121227   3.301   2.974   4.217
 6776SOL    HW221228   3.306   3.050   4.073
 6777SOL     OW21229   0.018   0.186   5.079
 6777SOL    HW121230   6.963   0.255   5.092
 6777SOL    HW221231   0.103   0.219   5.119
 6778SOL     OW21232   6.794   5.793   1.659
 6778SOL    HW121233   6.891   5.799   1.681
 6778SOL    HW221234   6.741   5.852   1.721
 6779SOL     OW21235   5.673   3.179   5.570
 6779SOL    HW121236   5.575   3.167   5.553
 6779SOL    HW221237   5.705   3.106   5.630
 6780SOL     OW21238   4.646   0.818   2.098
 6780SOL    HW121239   4.621   0.729   2.059
 6780SOL    HW221240   4.617   0.821   2.193
 6781SOL     OW21241   5.229   3.737   3.152
 6781SOL    HW121242   5.192   3.816   3.201
 6781SOL    HW221243   5.164   3.707   3.082
 6782SOL     OW21244   6.464   1.589   2.947
 6782SOL    HW121245   6.544   1.582   2.887
 6782SOL    HW221246   6.410   1.669   2.921
 6783SOL     OW21247   0.591   7.008   6.621
 6783SOL    HW121248   0.598   0.014   6.719
 6783SOL    HW221249   0.530   6.930   6.608
 6784SOL     OW21250   1.402   4.621   6.564
 6784SOL    HW121251   1.496   4.651   6.578
 6784SOL    HW221252   1.367   4.659   6.478
 6785SOL     OW21253   5.481   4.230   1.334
 6785SOL    HW121254   5.459   4.221   1.237
 6785SOL    HW221255   5.475   4.141   1.379
 6786SOL     OW21256   6.355   1.203   6.329
 6786SOL    HW121257   6.289   1.250   6.270
 6786SOL    HW221258   6.307   1.135   6.385
 6787SOL     OW21259   4.303   2.436   1.801
 6787SOL    HW121260   4.241   2.458   1.726
 6787SOL    HW221261   4.397   2.432   1.767
 6788SOL     OW21262   1.378   4.609   1.280
 6788SOL    HW121263   1.326   4.693   1.265
 6788SOL    HW221264   1.367   4.547   1.202
 6789SOL     OW21265   6.141   2.499   2.339
 6789SOL    HW121266   6.194   2.454   2.410
 6789SOL    HW221267   6.135   2.597   2.358
 6790SOL     OW21268   0.947   5.754   6.990
 6790SOL    HW121269   0.925   5.808   0.055
 6790SOL    HW221270   0.987   5.667   0.002
 6791SOL     OW21271   1.840   6.311   3.840
 6791SOL    HW121272   1.821   6.279   3.933
 6791SOL    HW221273   1.925   6.365   3.840
 6792SOL     OW21274   3.173   5.846   0.206
 6792SOL    HW121275   3.125   5.780   0.149
 6792SOL    HW221276   3.271   5.843   0.186
 6793SOL     OW21277   1.851   3.317   5.762
 6793SOL    HW121278   1.920   3.300   5.832
 6793SOL    HW221279   1.834   3.415   5.755
 6794SOL     OW21280   4.287   2.356   3.610
 6794SOL    HW121281   4.255   2.450   3.626
 6794SOL    HW221282   4.385   2.357   3.590
 6795SOL     OW21283   0.642   0.160   2.246
 6795SOL    HW121284   0.552   0.199   2.230
 6795SOL    HW221285   0.636   0.060   2.243
 6796SOL     OW21286   5.920   2.347   2.103
 6796SOL    HW121287   5.975   2.391   2.174
 6796SOL    HW221288   5.976   2.281   2.053
 6797SOL     OW21289   1.937   4.141   0.416
 6797SOL    HW121290   1.902   4.095   0.497
 6797SOL    HW221291   1.989   4.076   0.360
 6798SOL     OW21292   5.293   2.335   1.497
 6798SOL    HW121293   5.247   2.262   1.549
 6798SOL    HW221294   5.280   2.320   1.399
 6799SOL     OW21295   4.050   6.699   2.974
 6799SOL    HW121296   4.139   6.742   2.956
 6799SOL    HW221297   4.055   6.601   2.955
 6800SOL     OW21298   6.799   2.650   2.901
 6800SOL    HW121299   6.849   2.573   2.942
 6800SOL    HW221300   6.837   2.669   2.810
 6801SOL     OW21301   1.917   5.119   5.079
 6801SOL    HW121302   1.899   5.197   5.139
 6801SOL    HW221303   1.936   5.038   5.134
 6802SOL     OW21304   2.351   4.576   2.459
 6802SOL    HW121305   2.433   4.608   2.507
 6802SOL    HW221306   2.378   4.529   2.375
 6803SOL     OW21307   6.115   4.982   6.093
 6803SOL    HW121308   6.128   5.068   6.141
 6803SOL    HW221309   6.152   4.989   6.001
 6804SOL     OW21310   3.156   5.978   1.333
 6804SOL    HW121311   3.157   5.882   1.363
 6804SOL    HW221312   3.106   6.033   1.400
 6805SOL     OW21313   0.273   4.298   4.258
 6805SOL    HW121314   0.367   4.265   4.263
 6805SOL    HW221315   0.265   4.386   4.304
 6806SOL     OW21316   5.488   3.664   2.449
 6806SOL    HW121317   5.404   3.717   2.461
 6806SOL    HW221318   5.536   3.657   2.536
 6807SOL     OW21319   4.071   3.291   2.687
 6807SOL    HW121320   3.992   3.351   2.688
 6807SOL    HW221321   4.101   3.274   2.781
 6808SOL     OW21322   2.315   6.290   4.615
 6808SOL    HW121323   2.217   6.293   4.599
 6808SOL    HW221324   2.350   6.383   4.629
 6809SOL     OW21325   6.128   2.355   0.600
 6809SOL    HW121326   6.176   2.289   0.542
 6809SOL    HW221327   6.194   2.423   0.634
 6810SOL     OW21328   3.573   0.161   4.839
 6810SOL    HW121329   3.540   0.255   4.831
 6810SOL    HW221330   3.613   0.132   4.752
 6811SOL     OW21331   6.561   2.057   1.532
 6811SOL    HW121332   6.528   1.966   1.557
 6811SOL    HW221333   6.658   2.050   1.506
 6812SOL     OW21334   3.475   4.821   5.650
 6812SOL    HW121335   3.498   4.724   5.639
 6812SOL    HW221336   3.474   4.844   5.747
 6813SOL     OW21337   0.445   3.317   1.664
 6813SOL    HW121338   0.526   3.265   1.691
 6813SOL    HW221339   0.407   3.365   1.743
 6814SOL     OW21340   4.771   2.433   1.450
 6814SOL    HW121341   4.816   2.521   1.467
 6814SOL    HW221342   4.820   2.361   1.497
 6815SOL     OW21343   1.612   6.048   1.099
 6815SOL    HW121344   1.692   6.107   1.090
 6815SOL    HW221345   1.560   6.075   1.180
 6816SOL     OW21346   5.518   0.523   3.481
 6816SOL    HW121347   5.602   0.496   3.527
 6816SOL    HW221348   5.453   0.447   3.482
 6817SOL     OW21349   6.170   0.734   0.975
 6817SOL    HW121350   6.208   0.696   0.890
 6817SOL    HW221351   6.161   0.662   1.043
 6818SOL     OW21352   0.069   6.326   5.783
 6818SOL    HW121353   7.009   6.324   5.718
 6818SOL    HW221354   0.095   6.421   5.800
 6819SOL     OW21355   6.384   4.159   0.926
 6819SOL    HW121356   6.473   4.185   0.889
 6819SOL    HW221357   6.314   4.168   0.855
 6820SOL     OW21358   2.597   4.426   1.101
 6820SOL    HW121359   2.514   4.370   1.100
 6820SOL    HW221360   2.572   4.523   1.110
 6821SOL     OW21361   2.655   3.860   5.803
 6821SOL    HW121362   2.582   3.894   5.862
 6821SOL    HW221363   2.651   3.760   5.800
 6822SOL     OW21364   0.849   4.429   4.722
 6822SOL    HW121365   0.928   4.397   4.776
 6822SOL    HW221366   0.769   4.435   4.781
 6823SOL     OW21367   6.791   3.514   5.505
 6823SOL    HW121368   6.877   3.464   5.517
 6823SOL    HW221369   6.714   3.450   5.512
 6824SOL     OW21370   1.314   0.832   3.705
 6824SOL    HW121371   1.340   0.814   3.800
 6824SOL    HW221372   1.314   0.746   3.654
 6825SOL     OW21373   5.062   5.293   1.675
 6825SOL    HW121374   5.095   5.300   1.770
 6825SOL    HW221375   4.998   5.367   1.657
 6826SOL     OW21376   5.417   0.575   4.227
 6826SOL    HW121377   5.343   0.509   4.220
 6826SOL    HW221378   5.418   0.633   4.145
 6827SOL     OW21379   5.680   5.072   5.322
 6827SOL    HW121380   5.718   5.106   5.407
 6827SOL    HW221381   5.638   5.148   5.271
 6828SOL     OW21382   2.318   1.561   2.777
 6828SOL    HW121383   2.331   1.650   2.734
 6828SOL    HW221384   2.268   1.501   2.714
 6829SOL     OW21385   5.695   6.407   5.082
 6829SOL    HW121386   5.675   6.331   5.144
 6829SOL    HW221387   5.668   6.382   4.989
 6830SOL     OW21388   3.803   6.408   3.810
 6830SOL    HW121389   3.778   6.367   3.722
 6830SOL    HW221390   3.786   6.506   3.806
 6831SOL     OW21391   1.959   0.206   0.121
 6831SOL    HW121392   1.952   0.301   0.092
 6831SOL    HW221393   2.055   0.178   0.120
 6832SOL     OW21394   4.262   3.615   0.268
 6832SOL    HW121395   4.229   3.568   0.351
 6832SOL    HW221396   4.306   3.549   0.208
 6833SOL     OW21397   3.975   5.489   0.854
 6833SOL    HW121398   4.042   5.524   0.789
 6833SOL    HW221399   3.916   5.564   0.884
 6834SOL     OW21400   6.389   6.065   4.985
 6834SOL    HW121401   6.441   6.011   4.919
 6834SOL    HW221402   6.372   6.010   5.067
 6835SOL     OW21403   3.501   0.380   3.387
 6835SOL    HW121404   3.501   0.340   3.295
 6835SOL    HW221405   3.506   0.480   3.379
 6836SOL     OW21406   1.053   4.412   6.477
 6836SOL    HW121407   1.118   4.339   6.498
 6836SOL    HW221408   0.975   4.407   6.540
 6837SOL     OW21409   5.837   2.558   1.608
 6837SOL    HW121410   5.828   2.521   1.701
 6837SOL    HW221411   5.807   2.490   1.542
 6838SOL     OW21412   2.291   4.575   6.849
 6838SOL    HW121413   2.258   4.521   6.926
 6838SOL    HW221414   2.240   4.550   6.766
 6839SOL     OW21415   0.079   2.830   5.184
 6839SOL    HW121416   0.143   2.810   5.259
 6839SOL    HW221417   0.072   2.929   5.172
 6840SOL     OW21418   3.309   0.211   4.212
 6840SOL    HW121419   3.302   0.309   4.233
 6840SOL    HW221420   3.236   0.186   4.148
 6841SOL     OW21421   5.170   5.729   0.822
 6841SOL    HW121422   5.248   5.686   0.868
 6841SOL    HW221423   5.152   5.818   0.864
 6842SOL     OW21424   6.926   3.444   3.022
 6842SOL    HW121425   7.013   3.480   2.987
 6842SOL    HW221426   6.856   3.514   3.016
 6843SOL     OW21427   4.397   3.260   1.732
 6843SOL    HW121428   4.485   3.225   1.765
 6843SOL    HW221429   4.325   3.195   1.757
 6844SOL     OW21430   3.142   6.738   4.027
 6844SOL    HW121431   3.072   6.810   4.027
 6844SOL    HW221432   3.135   6.684   4.111
 6845SOL     OW21433   3.824   4.423   0.121
 6845SOL    HW121434   3.758   4.496   0.142
 6845SOL    HW221435   3.839   4.368   0.202
 6846SOL     OW21436   3.614   2.889   4.051
 6846SOL    HW121437   3.653   2.813   4.102
 6846SOL    HW221438   3.548   2.937   4.110
 6847SOL     OW21439   5.151   3.421   0.819
 6847SOL    HW121440   5.177   3.360   0.895
 6847SOL    HW221441   5.069   3.473   0.846
 6848SOL     OW21442   0.969   5.836   4.514
 6848SOL    HW121443   0.878   5.877   4.505
 6848SOL    HW221444   1.024   5.893   4.575
 6849SOL     OW21445   2.465   0.563   4.450
 6849SOL    HW121446   2.367   0.551   4.436
 6849SOL    HW221447   2.483   0.655   4.486
 6850SOL     OW21448   0.302   2.339   1.611
 6850SOL    HW121449   0.365   2.280   1.662
 6850SOL    HW221450   0.245   2.390   1.676
 6851SOL     OW21451   1.991   5.082   0.827
 6851SOL    HW121452   1.917   5.017   0.844
 6851SOL    HW221453   2.022   5.119   0.915
 6852SOL     OW21454   4.740   4.665   2.798
 6852SOL    HW121455   4.787   4.731   2.739
 6852SOL    HW221456   4.727   4.703   2.889
 6853SOL     OW21457   6.129   4.174   4.727
 6853SOL    HW121458   6.032   4.197   4.716
 6853SOL    HW221459   6.185   4.254   4.705
 6854SOL     OW21460   5.884   0.643   6.492
 6854SOL    HW121461   5.889   0.682   6.400
 6854SOL    HW221462   5.844   0.551   6.487
 6855SOL     OW21463   2.504   6.833   3.444
 6855SOL    HW121464   2.576   6.785   3.494
 6855SOL    HW221465   2.439   6.872   3.509
 6856SOL     OW21466   0.824   5.192   5.683
 6856SOL    HW121467   0.853   5.138   5.604
 6856SOL    HW221468   0.731   5.166   5.709
 6857SOL     OW21469   4.962   1.156   6.438
 6857SOL    HW121470   4.916   1.094   6.502
 6857SOL    HW221471   4.907   1.238   6.426
 6858SOL     OW21472   3.499   3.179   6.353
 6858SOL    HW121473   3.414   3.157   6.402
 6858SOL    HW221474   3.486   3.162   6.255
 6859SOL     OW21475   4.379   6.636   1.501
 6859SOL    HW121476   4.344   6.543   1.514
 6859SOL    HW221477   4.477   6.633   1.480
 6860SOL     OW21478   4.740   3.229   0.178
 6860SOL    HW121479   4.830   3.265   0.203
 6860SOL    HW221480   4.711   3.270   0.091
 6861SOL     OW21481   6.389   3.239   0.138
 6861SOL    HW121482   6.313   3.256   0.201
 6861SOL    HW221483   6.385   3.305   0.063
 6862SOL     OW21484   2.627   4.713   4.387
 6862SOL    HW121485   2.532   4.682   4.393
 6862SOL    HW221486   2.659   4.739   4.478
 6863SOL     OW21487   0.846   3.449   3.620
 6863SOL    HW121488   0.908   3.373   3.602
 6863SOL    HW221489   0.897   3.527   3.654
 6864SOL     OW21490   3.329   5.639   5.928
 6864SOL    HW121491   3.245   5.596   5.962
 6864SOL    HW221492   3.322   5.651   5.828
 6865SOL     OW21493   0.700   2.423   5.675
 6865SOL    HW121494   0.726   2.404   5.580
 6865SOL    HW221495   0.762   2.375   5.737
 6866SOL     OW21496   0.553   4.455   2.789
 6866SOL    HW121497   0.488   4.530   2.775
 6866SOL    HW221498   0.522   4.398   2.866
 6867SOL     OW21499   2.998   5.659   3.907
 6867SOL    HW121500   3.058   5.714   3.848
 6867SOL    HW221501   2.921   5.625   3.854
 6868SOL     OW21502   2.280   5.840   5.523
 6868SOL    HW121503   2.290   5.741   5.534
 6868SOL    HW221504   2.203   5.871   5.578
 6869SOL     OW21505   0.264   2.446   4.011
 6869SOL    HW121506   0.289   2.393   3.930
 6869SOL    HW221507   0.183   2.406   4.053
 6870SOL     OW21508   4.778   4.098   2.905
 6870SOL    HW121509   4.686   4.072   2.935
 6870SOL    HW221510   4.798   4.054   2.817
 6871SOL     OW21511   4.207   6.016   2.403
 6871SOL    HW121512   4.111   6.005   2.432
 6871SOL    HW221513   4.239   6.107   2.428
 6872SOL     OW21514   3.341   4.163   1.288
 6872SOL    HW121515   3.441   4.172   1.280
 6872SOL    HW221516   3.297   4.200   1.207
 6873SOL     OW21517   4.715   4.646   5.252
 6873SOL    HW121518   4.798   4.591   5.242
 6873SOL    HW221519   4.727   4.710   5.329
 6874SOL     OW21520   1.473   1.511   6.292
 6874SOL    HW121521   1.481   1.488   6.389
 6874SOL    HW221522   1.460   1.610   6.281
 6875SOL     OW21523   3.281   6.489   4.963
 6875SOL    HW121524   3.210   6.420   4.974
 6875SOL    HW221525   3.367   6.446   4.935
 6876SOL     OW21526   2.902   7.004   4.999
 6876SOL    HW121527   2.989   7.004   4.949
 6876SOL    HW221528   2.890   0.075   5.046
 6877SOL     OW21529   1.447   4.179   0.785
 6877SOL    HW121530   1.358   4.166   0.829
 6877SOL    HW221531   1.508   4.104   0.811
 6878SOL     OW21532   2.403   1.782   5.118
 6878SOL    HW121533   2.449   1.696   5.100
 6878SOL    HW221534   2.445   1.828   5.196
 6879SOL     OW21535   6.251   0.991   5.964
 6879SOL    HW121536   6.321   0.949   6.022
 6879SOL    HW221537   6.267   0.964   5.869
 6880SOL     OW21538   1.186   5.279   4.308
 6880SOL    HW121539   1.281   5.278   4.275
 6880SOL    HW221540   1.185   5.263   4.407
 6881SOL     OW21541   4.867   6.609   1.201
 6881SOL    HW121542   4.896   6.649   1.288
 6881SOL    HW221543   4.827   6.680   1.143
 6882SOL     OW21544   2.785   5.963   5.489
 6882SOL    HW121545   2.858   6.005   5.544
 6882SOL    HW221546   2.706   5.945   5.548
 6883SOL     OW21547   2.510   6.813   1.933
 6883SOL    HW121548   2.527   6.770   2.022
 6883SOL    HW221549   2.430   6.872   1.939
 6884SOL     OW21550   1.625   5.286   2.962
 6884SOL    HW121551   1.642   5.287   3.060
 6884SOL    HW221552   1.638   5.193   2.926
 6885SOL     OW21553   4.441   4.561   4.697
 6885SOL    HW121554   4.500   4.484   4.670
 6885SOL    HW221555   4.420   4.554   4.795
 6886SOL     OW21556   5.561   6.733   0.859
 6886SOL    HW121557   5.614   6.657   0.821
 6886SOL    HW221558   5.522   6.788   0.784
 6887SOL     OW21559   6.918   0.643   5.098
 6887SOL    HW121560   6.855   0.720   5.104
 6887SOL    HW221561   6.927   0.614   5.003
 6888SOL     OW21562   6.751   6.580   3.982
 6888SOL    HW121563   6.739   6.647   4.055
 6888SOL    HW221564   6.847   6.579   3.953
 6889SOL     OW21565   2.000   4.178   6.131
 6889SOL    HW121566   1.913   4.220   6.105
 6889SOL    HW221567   2.072   4.248   6.128
 6890SOL     OW21568   1.447   0.480   1.402
 6890SOL    HW121569   1.372   0.426   1.440
 6890SOL    HW221570   1.425   0.577   1.408
 6891SOL     OW21571   5.204   5.555   5.362
 6891SOL    HW121572   5.278   5.620   5.379
 6891SOL    HW221573   5.177   5.560   5.266
 6892SOL     OW21574   3.091   2.170   4.208
 6892SOL    HW121575   3.122   2.236   4.140
 6892SOL    HW221576   3.132   2.081   4.189
 6893SOL     OW21577   4.900   0.426   0.561
 6893SOL    HW121578   4.900   0.497   0.491
 6893SOL    HW221579   4.993   0.396   0.579
 6894SOL     OW21580   5.631   4.236   4.989
 6894SOL    HW121581   5.728   4.213   4.997
 6894SOL    HW221582   5.599   4.280   5.073
 6895SOL     OW21583   5.022   4.386   3.981
 6895SOL    HW121584   4.959   4.428   3.915
 6895SOL    HW221585   5.095   4.450   4.004
 6896SOL     OW21586   5.159   1.832   2.062
 6896SOL    HW121587   5.069   1.865   2.089
 6896SOL    HW221588   5.222   1.842   2.139
 6897SOL     OW21589   4.454   1.649   1.478
 6897SOL    HW121590   4.434   1.554   1.502
 6897SOL    HW221591   4.377   1.687   1.425
 6898SOL     OW21592   4.268   1.326   1.774
 6898SOL    HW121593   4.320   1.240   1.774
 6898SOL    HW221594   4.179   1.311   1.817
 6899SOL     OW21595   5.233   4.426   5.833
 6899SOL    HW121596   5.200   4.377   5.752
 6899SOL    HW221597   5.240   4.523   5.812
 6900SOL     OW21598   4.260   0.308   5.738
 6900SOL    HW121599   4.335   0.276   5.796
 6900SOL    HW221600   4.218   0.231   5.691
 6901SOL     OW21601   1.662   0.577   6.943
 6901SOL    HW121602   1.727   0.585   6.868
 6901SOL    HW221603   1.594   0.650   6.937
 6902SOL     OW21604   6.237   5.190   2.567
 6902SOL    HW121605   6.226   5.280   2.526
 6902SOL    HW221606   6.194   5.188   2.657
 6903SOL     OW21607   6.219   4.703   0.279
 6903SOL    HW121608   6.277   4.624   0.260
 6903SOL    HW221609   6.226   4.770   0.205
 6904SOL     OW21610   0.594   1.278   2.344
 6904SOL    HW121611   0.608   1.331   2.428
 6904SOL    HW221612   0.531   1.203   2.363
 6905SOL     OW21613   3.418   4.983   0.852
 6905SOL    HW121614   3.485   5.003   0.923
 6905SOL    HW221615   3.334   4.949   0.894
 6906SOL     OW21616   5.728   6.188   2.258
 6906SOL    HW121617   5.822   6.196   2.292
 6906SOL    HW221618   5.713   6.257   2.187
 6907SOL     OW21619   3.681   1.395   1.707
 6907SOL    HW121620   3.656   1.393   1.804
 6907SOL    HW221621   3.771   1.352   1.696
 6908SOL     OW21622   5.109   6.676   0.119
 6908SOL    HW121623   5.095   6.775   0.106
 6908SOL    HW221624   5.128   6.658   0.216
 6909SOL     OW21625   2.696   2.114   6.720
 6909SOL    HW121626   2.599   2.114   6.695
 6909SOL    HW221627   2.717   2.197   6.771
 6910SOL     OW21628   4.081   1.193   0.829
 6910SOL    HW121629   4.151   1.250   0.872
 6910SOL    HW221630   4.041   1.242   0.751
 6911SOL     OW21631   3.823   6.353   5.469
 6911SOL    HW121632   3.728   6.374   5.494
 6911SOL    HW221633   3.840   6.255   5.482
 6912SOL     OW21634   3.484   5.708   1.864
 6912SOL    HW121635   3.512   5.804   1.862
 6912SOL    HW221636   3.491   5.672   1.957
 6913SOL     OW21637   3.854   6.124   6.012
 6913SOL    HW121638   3.942   6.171   6.005
 6913SOL    HW221639   3.855   6.060   6.088
 6914SOL     OW21640   0.132   5.108   0.202
 6914SOL    HW121641   0.184   5.059   0.132
 6914SOL    HW221642   0.099   5.043   0.270
 6915SOL     OW21643   0.923   0.183   6.816
 6915SOL    HW121644   0.996   0.147   6.758
 6915SOL    HW221645   0.865   0.244   6.763
 6916SOL     OW21646   6.176   0.495   6.433
 6916SOL    HW121647   6.222   0.419   6.386
 6916SOL    HW221648   6.173   0.475   6.531
 6917SOL     OW21649   4.278   6.163   6.382
 6917SOL    HW121650   4.261   6.096   6.309
 6917SOL    HW221651   4.236   6.132   6.467
 6918SOL     OW21652   1.839   2.690   3.920
 6918SOL    HW121653   1.746   2.728   3.919
 6918SOL    HW221654   1.852   2.639   4.005
 6919SOL     OW21655   1.710   6.005   3.409
 6919SOL    HW121656   1.711   5.982   3.506
 6919SOL    HW221657   1.686   5.924   3.355
 6920SOL     OW21658   5.951   5.695   3.707
 6920SOL    HW121659   5.934   5.774   3.648
 6920SOL    HW221660   5.974   5.727   3.799
 6921SOL     OW21661   1.749   5.028   2.477
 6921SOL    HW121662   1.807   5.100   2.438
 6921SOL    HW221663   1.709   5.060   2.563
 6922SOL     OW21664   1.472   6.375   1.595
 6922SOL    HW121665   1.533   6.311   1.548
 6922SOL    HW221666   1.427   6.328   1.671
 6923SOL     OW21667   5.180   5.649   4.897
 6923SOL    HW121668   5.223   5.739   4.892
 6923SOL    HW221669   5.123   5.635   4.816
 6924SOL     OW21670   5.441   5.897   2.494
 6924SOL    HW121671   5.463   5.930   2.402
 6924SOL    HW221672   5.372   5.825   2.488
 6925SOL     OW21673   4.203   5.911   2.020
 6925SOL    HW121674   4.272   5.975   2.053
 6925SOL    HW221675   4.204   5.828   2.075
 6926SOL     OW21676   2.751   4.341   5.369
 6926SOL    HW121677   2.757   4.387   5.458
 6926SOL    HW221678   2.744   4.410   5.296
 6927SOL     OW21679   4.172   3.528   0.516
 6927SOL    HW121680   4.111   3.581   0.575
 6927SOL    HW221681   4.257   3.510   0.565
 6928SOL     OW21682   6.740   0.263   6.556
 6928SOL    HW121683   6.650   0.219   6.550
 6928SOL    HW221684   6.729   0.355   6.593
 6929SOL     OW21685   3.944   6.112   1.140
 6929SOL    HW121686   4.004   6.041   1.104
 6929SOL    HW221687   3.908   6.083   1.229
 6930SOL     OW21688   0.103   0.720   3.385
 6930SOL    HW121689   0.135   0.630   3.354
 6930SOL    HW221690   0.138   0.738   3.476
 6931SOL     OW21691   2.243   0.075   1.108
 6931SOL    HW121692   2.301   0.015   1.052
 6931SOL    HW221693   2.148   0.066   1.078
 6932SOL     OW21694   3.332   2.847   0.665
 6932SOL    HW121695   3.248   2.894   0.636
 6932SOL    HW221696   3.390   2.831   0.585
 6933SOL     OW21697   2.846   6.284   5.409
 6933SOL    HW121698   2.835   6.186   5.425
 6933SOL    HW221699   2.937   6.302   5.372
 6934SOL     OW21700   5.465   4.815   6.997
 6934SOL    HW121701   5.379   4.768   6.976
 6934SOL    HW221702   5.522   4.756   0.039
 6935SOL     OW21703   4.304   5.649   3.485
 6935SOL    HW121704   4.296   5.555   3.519
 6935SOL    HW221705   4.220   5.675   3.437
 6936SOL     OW21706   1.430   4.747   0.545
 6936SOL    HW121707   1.367   4.670   0.541
 6936SOL    HW221708   1.497   4.732   0.617
 6937SOL     OW21709   4.437   6.094   6.743
 6937SOL    HW121710   4.435   6.126   6.648
 6937SOL    HW221711   4.366   6.024   6.755
 6938SOL     OW21712   6.615   2.258   5.441
 6938SOL    HW121713   6.568   2.318   5.505
 6938SOL    HW221714   6.561   2.174   5.428
 6939SOL     OW21715   6.360   4.254   2.195
 6939SOL    HW121716   6.441   4.256   2.137
 6939SOL    HW221717   6.367   4.325   2.265
 6940SOL     OW21718   3.926   0.716   4.024
 6940SOL    HW121719   3.926   0.805   4.071
 6940SOL    HW221720   3.849   0.661   4.056
 6941SOL     OW21721   3.534   2.915   5.208
 6941SOL    HW121722   3.549   2.962   5.121
 6941SOL    HW221723   3.613   2.857   5.229
 6942SOL     OW21724   6.628   1.290   6.247
 6942SOL    HW121725   6.650   1.379   6.287
 6942SOL    HW221726   6.531   1.270   6.260
 6943SOL     OW21727   5.964   4.143   0.354
 6943SOL    HW121728   5.964   4.221   0.291
 6943SOL    HW221729   6.047   4.144   0.409
 6944SOL     OW21730   2.227   0.417   0.089
 6944SOL    HW121731   2.153   0.447   0.149
 6944SOL    HW221732   2.292   0.493   0.076
 6945SOL     OW21733   3.319   1.181   6.394
 6945SOL    HW121734   3.219   1.181   6.397
 6945SOL    HW221735   3.355   1.212   6.482
 6946SOL     OW21736   6.059   3.869   2.770
 6946SOL    HW121737   6.037   3.913   2.683
 6946SOL    HW221738   5.994   3.795   2.787
 6947SOL     OW21739   4.039   6.736   0.861
 6947SOL    HW121740   4.098   6.678   0.806
 6947SOL    HW221741   3.988   6.679   0.926
 6948SOL     OW21742   3.578   1.847   6.074
 6948SOL    HW121743   3.552   1.943   6.070
 6948SOL    HW221744   3.586   1.818   6.170
 6949SOL     OW21745   5.142   6.857   2.739
 6949SOL    HW121746   5.107   6.950   2.732
 6949SOL    HW221747   5.212   6.842   2.669
 6950SOL     OW21748   3.069   1.826   3.299
 6950SOL    HW121749   3.139   1.757   3.278
 6950SOL    HW221750   3.026   1.803   3.387
 6951SOL     OW21751   4.154   3.820   5.590
 6951SOL    HW121752   4.184   3.742   5.535
 6951SOL    HW221753   4.173   3.905   5.542
 6952SOL     OW21754   0.219   3.598   6.470
 6952SOL    HW121755   0.151   3.538   6.430
 6952SOL    HW221756   0.304   3.593   6.418
 6953SOL     OW21757   6.155   2.288   4.538
 6953SOL    HW121758   6.091   2.351   4.582
 6953SOL    HW221759   6.130   2.194   4.560
 6954SOL     OW21760   0.049   4.776   1.838
 6954SOL    HW121761   0.048   4.834   1.758
 6954SOL    HW221762   0.121   4.707   1.829
 6955SOL     OW21763   6.939   1.000   3.841
 6955SOL    HW121764   6.926   0.971   3.936
 6955SOL    HW221765   6.860   1.054   3.811
 6956SOL     OW21766   3.573   3.972   1.493
 6956SOL    HW121767   3.671   3.981   1.509
 6956SOL    HW221768   3.557   3.941   1.399
 6957SOL     OW21769   1.551   4.428   0.737
 6957SOL    HW121770   1.502   4.342   0.754
 6957SOL    HW221771   1.640   4.408   0.697
 6958SOL     OW21772   2.011   3.424   5.994
 6958SOL    HW121773   1.963   3.511   5.985
 6958SOL    HW221774   2.109   3.438   5.981
 6959SOL     OW21775   4.163   1.413   5.102
 6959SOL    HW121776   4.131   1.333   5.153
 6959SOL    HW221777   4.230   1.463   5.158
 6960SOL     OW21778   1.041   6.092   6.812
 6960SOL    HW121779   0.999   6.020   6.758
 6960SOL    HW221780   1.127   6.121   6.770
 6961SOL     OW21781   5.888   0.794   3.801
 6961SOL    HW121782   5.821   0.842   3.857
 6961SOL    HW221783   5.865   0.696   3.798
 6962SOL     OW21784   3.435   3.038   0.943
 6962SOL    HW121785   3.491   3.116   0.970
 6962SOL    HW221786   3.447   3.021   0.845
 6963SOL     OW21787   6.488   6.157   1.497
 6963SOL    HW121788   6.573   6.208   1.482
 6963SOL    HW221789   6.480   6.085   1.427
 6964SOL     OW21790   4.246   5.241   5.574
 6964SOL    HW121791   4.206   5.328   5.543
 6964SOL    HW221792   4.346   5.245   5.564
 6965SOL     OW21793   5.781   0.775   6.061
 6965SOL    HW121794   5.709   0.772   6.131
 6965SOL    HW221795   5.776   0.693   6.005
 6966SOL     OW21796   4.121   2.230   3.427
 6966SOL    HW121797   4.051   2.172   3.468
 6966SOL    HW221798   4.188   2.255   3.496
 6967SOL     OW21799   2.892   2.890   6.700
 6967SOL    HW121800   2.795   2.868   6.692
 6967SOL    HW221801   2.923   2.869   6.793
 6968SOL     OW21802   3.414   0.639   3.459
 6968SOL    HW121803   3.322   0.672   3.483
 6968SOL    HW221804   3.463   0.613   3.542
 6969SOL     OW21805   3.895   3.448   1.839
 6969SOL    HW121806   3.954   3.406   1.908
 6969SOL    HW221807   3.811   3.394   1.830
 6970SOL     OW21808   5.023   3.975   0.284
 6970SOL    HW121809   4.933   3.939   0.307
 6970SOL    HW221810   5.019   4.075   0.278
 6971SOL     OW21811   6.054   1.864   2.227
 6971SOL    HW121812   6.024   1.922   2.303
 6971SOL    HW221813   5.975   1.836   2.173
 6972SOL     OW21814   4.966   5.879   4.412
 6972SOL    HW121815   5.043   5.845   4.465
 6972SOL    HW221816   4.955   5.977   4.428
 6973SOL     OW21817   1.782   4.457   2.827
 6973SOL    HW121818   1.717   4.385   2.801
 6973SOL    HW221819   1.838   4.481   2.747
 6974SOL     OW21820   2.757   3.424   5.307
 6974SOL    HW121821   2.694   3.400   5.381
 6974SOL    HW221822   2.745   3.520   5.282
 6975SOL     OW21823   1.528   6.554   6.038
 6975SOL    HW121824   1.591   6.495   6.088
 6975SOL    HW221825   1.466   6.599   6.102
 6976SOL     OW21826   1.175   6.128   1.541
 6976SOL    HW121827   1.147   6.184   1.464
 6976SOL    HW221828   1.260   6.081   1.518
 6977SOL     OW21829   5.799   2.650   1.162
 6977SOL    HW121830   5.852   2.724   1.204
 6977SOL    HW221831   5.845   2.619   1.079
 6978SOL     OW21832   5.222   2.852   3.743
 6978SOL    HW121833   5.279   2.931   3.770
 6978SOL    HW221834   5.153   2.835   3.813
 6979SOL     OW21835   0.087   3.542   4.356
 6979SOL    HW121836   0.035   3.549   4.441
 6979SOL    HW221837   0.176   3.500   4.374
 6980SOL     OW21838   4.987   2.067   4.889
 6980SOL    HW121839   4.968   2.016   4.973
 6980SOL    HW221840   4.952   2.016   4.811
 6981SOL     OW21841   3.228   3.445   6.418
 6981SOL    HW121842   3.179   3.517   6.467
 6981SOL    HW221843   3.321   3.475   6.397
 6982SOL     OW21844   1.191   0.063   4.336
 6982SOL    HW121845   1.247   0.001   4.282
 6982SOL    HW221846   1.214   0.053   4.433
 6983SOL     OW21847   6.071   0.719   2.651
 6983SOL    HW121848   6.053   0.792   2.717
 6983SOL    HW221849   5.984   0.682   2.618
 6984SOL     OW21850   2.189   0.878   6.562
 6984SOL    HW121851   2.288   0.881   6.574
 6984SOL    HW221852   2.158   0.964   6.523
 6985SOL     OW21853   4.462   6.979   4.100
 6985SOL    HW121854   4.484   0.003   4.011
 6985SOL    HW221855   4.546   6.970   4.154
 6986SOL     OW21856   2.636   6.368   5.789
 6986SOL    HW121857   2.667   6.371   5.884
 6986SOL    HW221858   2.578   6.287   5.776
 6987SOL     OW21859   6.781   3.548   6.407
 6987SOL    HW121860   6.743   3.586   6.323
 6987SOL    HW221861   6.876   3.522   6.391
 6988SOL     OW21862   5.255   2.048   6.662
 6988SOL    HW121863   5.171   2.097   6.642
 6988SOL    HW221864   5.265   2.040   6.762
 6989SOL     OW21865   2.196   3.999   4.292
 6989SOL    HW121866   2.102   4.034   4.295
 6989SOL    HW221867   2.239   4.027   4.207
 6990SOL     OW21868   4.321   3.792   1.772
 6990SOL    HW121869   4.278   3.701   1.766
 6990SOL    HW221870   4.398   3.796   1.708
 6991SOL     OW21871   4.719   4.702   5.544
 6991SOL    HW121872   4.640   4.693   5.605
 6991SOL    HW221873   4.760   4.793   5.556
 6992SOL     OW21874   6.660   6.471   5.191
 6992SOL    HW121875   6.686   6.499   5.283
 6992SOL    HW221876   6.602   6.390   5.196
 6993SOL     OW21877   0.483   0.650   2.746
 6993SOL    HW121878   0.388   0.675   2.729
 6993SOL    HW221879   0.540   0.732   2.745
 6994SOL     OW21880   2.162   2.646   0.308
 6994SOL    HW121881   2.130   2.726   0.359
 6994SOL    HW221882   2.262   2.639   0.316
 6995SOL     OW21883   0.838   5.614   3.803
 6995SOL    HW121884   0.817   5.519   3.778
 6995SOL    HW221885   0.832   5.624   3.902
 6996SOL     OW21886   1.499   6.901   5.075
 6996SOL    HW121887   1.588   6.857   5.060
 6996SOL    HW221888   1.489   6.979   5.012
 6997SOL     OW21889   4.710   4.883   4.456
 6997SOL    HW121890   4.678   4.862   4.549
 6997SOL    HW221891   4.728   4.981   4.448
 6998SOL     OW21892   2.463   2.214   1.823
 6998SOL    HW121893   2.479   2.176   1.732
 6998SOL    HW221894   2.549   2.216   1.874
 6999SOL     OW21895   5.697   2.211   6.669
 6999SOL    HW121896   5.776   2.165   6.630
 6999SOL    HW221897   5.713   2.310   6.672
 7000SOL     OW21898   6.718   0.121   1.752
 7000SOL    HW121899   6.618   0.127   1.751
 7000SOL    HW221900   6.756   0.196   1.806
 7001SOL     OW21901   2.717   1.278   6.960
 7001SOL    HW121902   2.627   1.234   6.950
 7001SOL    HW221903   2.776   1.249   6.885
 7002SOL     OW21904   2.880   5.550   1.279
 7002SOL    HW121905   2.929   5.519   1.198
 7002SOL    HW221906   2.792   5.503   1.285
 7003SOL     OW21907   1.189   6.119   6.113
 7003SOL    HW121908   1.125   6.146   6.040
 7003SOL    HW221909   1.221   6.201   6.161
 7004SOL     OW21910   2.464   4.105   6.237
 7004SOL    HW121911   2.395   4.174   6.215
 7004SOL    HW221912   2.523   4.140   6.309
 7005SOL     OW21913   6.233   0.464   5.541
 7005SOL    HW121914   6.305   0.480   5.474
 7005SOL    HW221915   6.226   0.366   5.559
 7006SOL     OW21916   4.912   5.427   4.398
 7006SOL    HW121917   4.872   5.515   4.374
 7006SOL    HW221918   4.930   5.375   4.315
 7007SOL     OW21919   5.420   4.753   1.281
 7007SOL    HW121920   5.375   4.773   1.193
 7007SOL    HW221921   5.470   4.667   1.274
 7008SOL     OW21922   0.692   6.599   3.911
 7008SOL    HW121923   0.737   6.620   3.998
 7008SOL    HW221924   0.606   6.552   3.929
 7009SOL     OW21925   6.842   3.949   1.548
 7009SOL    HW121926   6.911   4.021   1.535
 7009SOL    HW221927   6.789   3.938   1.464
 7010SOL     OW21928   4.949   4.282   5.728
 7010SOL    HW121929   5.034   4.301   5.678
 7010SOL    HW221930   4.872   4.323   5.679
 7011SOL     OW21931   1.248   0.334   5.753
 7011SOL    HW121932   1.338   0.296   5.734
 7011SOL    HW221933   1.252   0.392   5.835
 7012SOL     OW21934   0.053   0.544   1.892
 7012SOL    HW121935   0.002   0.622   1.854
 7012SOL    HW221936   0.149   0.552   1.866
 7013SOL     OW21937   6.234   1.946   1.299
 7013SOL    HW121938   6.288   2.031   1.301
 7013SOL    HW221939   6.158   1.956   1.235
 7014SOL     OW21940   2.424   5.325   1.081
 7014SOL    HW121941   2.435   5.365   0.990
 7014SOL    HW221942   2.442   5.226   1.076
 7015SOL     OW21943   4.553   2.055   2.277
 7015SOL    HW121944   4.482   2.001   2.323
 7015SOL    HW221945   4.530   2.152   2.283
 7016SOL     OW21946   5.441   4.360   0.396
 7016SOL    HW121947   5.466   4.357   0.299
 7016SOL    HW221948   5.455   4.271   0.437
 7017SOL     OW21949   5.341   2.510   5.422
 7017SOL    HW121950   5.250   2.484   5.455
 7017SOL    HW221951   5.408   2.442   5.453
 7018SOL     OW21952   0.584   4.562   3.726
 7018SOL    HW121953   0.558   4.465   3.726
 7018SOL    HW221954   0.502   4.617   3.743
 7019SOL     OW21955   6.554   6.280   2.167
 7019SOL    HW121956   6.477   6.343   2.175
 7019SOL    HW221957   6.524   6.187   2.188
 7020SOL     OW21958   6.638   5.464   0.482
 7020SOL    HW121959   6.733   5.448   0.505
 7020SOL    HW221960   6.579   5.402   0.533
 7021SOL     OW21961   2.976   6.778   5.565
 7021SOL    HW121962   2.905   6.741   5.625
 7021SOL    HW221963   2.933   6.833   5.494
 7022SOL     OW21964   3.902   4.633   5.557
 7022SOL    HW121965   3.910   4.597   5.464
 7022SOL    HW221966   3.895   4.556   5.622
 7023SOL     OW21967   5.047   5.096   2.355
 7023SOL    HW121968   4.984   5.143   2.416
 7023SOL    HW221969   5.046   5.140   2.265
 7024SOL     OW21970   6.240   0.012   2.010
 7024SOL    HW121971   6.178   0.071   1.958
 7024SOL    HW221972   6.195   6.941   2.029
 7025SOL     OW21973   3.177   0.287   1.605
 7025SOL    HW121974   3.173   0.269   1.507
 7025SOL    HW221975   3.099   0.345   1.631
 7026SOL     OW21976   4.141   2.554   0.441
 7026SOL    HW121977   4.207   2.624   0.415
 7026SOL    HW221978   4.148   2.536   0.539
 7027SOL     OW21979   5.594   5.848   4.977
 7027SOL    HW121980   5.655   5.926   4.967
 7027SOL    HW221981   5.624   5.773   4.918
 7028SOL     OW21982   3.143   0.738   4.707
 7028SOL    HW121983   3.169   0.795   4.785
 7028SOL    HW221984   3.080   0.788   4.648
 7029SOL     OW21985   3.701   6.977   4.135
 7029SOL    HW121986   3.606   6.971   4.104
 7029SOL    HW221987   3.759   6.924   4.073
 7030SOL     OW21988   0.993   3.657   3.694
 7030SOL    HW121989   0.963   3.740   3.741
 7030SOL    HW221990   1.065   3.680   3.628
 7031SOL     OW21991   2.008   0.843   4.239
 7031SOL    HW121992   2.006   0.772   4.169
 7031SOL    HW221993   1.973   0.929   4.201
 7032SOL     OW21994   6.314   2.330   3.610
 7032SOL    HW121995   6.328   2.231   3.599
 7032SOL    HW221996   6.396   2.379   3.581
 7033SOL     OW21997   6.894   0.774   4.689
 7033SOL    HW121998   6.894   0.702   4.759
 7033SOL    HW221999   6.803   0.815   4.683
 7034SOL     OW22000   6.799   4.993   4.125
 7034SOL    HW122001   6.768   4.902   4.100
 7034SOL    HW222002   6.885   5.014   4.077
 7035SOL     OW22003   6.732   4.472   0.988
 7035SOL    HW122004   6.693   4.411   1.057
 7035SOL    HW222005   6.659   4.519   0.939
 7036SOL     OW22006   6.207   5.780   0.737
 7036SOL    HW122007   6.243   5.818   0.651
 7036SOL    HW222008   6.252   5.693   0.756
 7037SOL     OW22009   1.109   0.152   6.615
 7037SOL    HW122010   1.175   0.125   6.686
 7037SOL    HW222011   1.151   0.219   6.554
 7038SOL     OW22012   2.330   2.393   3.723
 7038SOL    HW122013   2.335   2.474   3.782
 7038SOL    HW222014   2.248   2.340   3.747
 7039SOL     OW22015   4.174   1.921   6.419
 7039SOL    HW122016   4.115   1.892   6.495
 7039SOL    HW222017   4.241   1.987   6.453
 7040SOL     OW22018   6.782   2.242   6.666
 7040SOL    HW122019   6.716   2.225   6.739
 7040SOL    HW222020   6.749   2.200   6.581
 7041SOL     OW22021   1.952   1.452   3.447
 7041SOL    HW122022   1.863   1.425   3.485
 7041SOL    HW222023   1.966   1.404   3.361
 7042SOL     OW22024   2.011   0.920   0.017
 7042SOL    HW122025   2.057   0.836   0.047
 7042SOL    HW222026   1.914   0.916   0.040
 7043SOL     OW22027   1.871   2.619   0.957
 7043SOL    HW122028   1.819   2.556   0.900
 7043SOL    HW222029   1.918   2.568   1.029
 7044SOL     OW22030   0.181   5.778   0.697
 7044SOL    HW122031   0.115   5.705   0.712
 7044SOL    HW222032   0.171   5.848   0.767
 7045SOL     OW22033   0.311   4.259   0.268
 7045SOL    HW122034   0.315   4.359   0.268
 7045SOL    HW222035   0.353   4.224   0.352
 7046SOL     OW22036   2.492   1.925   3.570
 7046SOL    HW122037   2.431   1.886   3.501
 7046SOL    HW222038   2.447   2.001   3.617
 7047SOL     OW22039   1.100   6.740   3.289
 7047SOL    HW122040   1.134   6.646   3.280
 7047SOL    HW222041   1.121   6.791   3.205
 7048SOL     OW22042   0.490   5.316   6.774
 7048SOL    HW122043   0.392   5.298   6.762
 7048SOL    HW222044   0.514   5.402   6.729
 7049SOL     OW22045   2.711   1.160   6.523
 7049SOL    HW122046   2.766   1.209   6.456
 7049SOL    HW222047   2.757   1.161   6.611
 7050SOL     OW22048   3.555   3.593   6.074
 7050SOL    HW122049   3.650   3.618   6.055
 7050SOL    HW222050   3.523   3.526   6.006
 7051SOL     OW22051   5.638   6.415   1.636
 7051SOL    HW122052   5.725   6.413   1.686
 7051SOL    HW222053   5.589   6.330   1.651
 7052SOL     OW22054   6.367   0.813   4.668
 7052SOL    HW122055   6.290   0.876   4.675
 7052SOL    HW222056   6.351   0.748   4.594
 7053SOL     OW22057   6.401   3.583   6.572
 7053SOL    HW122058   6.449   3.668   6.593
 7053SOL    HW222059   6.308   3.587   6.609
 7054SOL     OW22060   5.698   2.676   2.573
 7054SOL    HW122061   5.760   2.600   2.593
 7054SOL    HW222062   5.726   2.721   2.488
 7055SOL     OW22063   4.148   1.825   3.577
 7055SOL    HW122064   4.077   1.858   3.514
 7055SOL    HW222065   4.235   1.870   3.557
 7056SOL     OW22066   4.540   5.767   4.368
 7056SOL    HW122067   4.481   5.687   4.377
 7056SOL    HW222068   4.526   5.829   4.445
 7057SOL     OW22069   5.681   6.099   3.134
 7057SOL    HW122070   5.662   6.067   3.041
 7057SOL    HW222071   5.623   6.178   3.155
 7058SOL     OW22072   7.015   4.076   4.713
 7058SOL    HW122073   0.014   4.096   4.616
 7058SOL    HW222074   6.918   4.061   4.729
 7059SOL     OW22075   1.510   0.502   2.063
 7059SOL    HW122076   1.499   0.527   2.160
 7059SOL    HW222077   1.526   0.404   2.056
 7060SOL     OW22078   4.111   0.164   1.559
 7060SOL    HW122079   4.015   0.191   1.544
 7060SOL    HW222080   4.146   0.117   1.478
 7061SOL     OW22081   0.869   1.423   2.891
 7061SOL    HW122082   0.843   1.385   2.980
 7061SOL    HW222083   0.962   1.457   2.896
 7062SOL     OW22084   6.539   1.142   5.652
 7062SOL    HW122085   6.484   1.185   5.581
 7062SOL    HW222086   6.634   1.171   5.644
 7063SOL     OW22087   1.768   6.443   1.609
 7063SOL    HW122088   1.817   6.456   1.522
 7063SOL    HW222089   1.705   6.366   1.600
 7064SOL     OW22090   3.192   3.099   0.842
 7064SOL    HW122091   3.257   3.102   0.919
 7064SOL    HW222092   3.227   3.154   0.767
 7065SOL     OW22093   2.947   3.654   2.490
 7065SOL    HW122094   2.948   3.722   2.563
 7065SOL    HW222095   3.041   3.628   2.468
 7066SOL     OW22096   2.454   4.705   1.597
 7066SOL    HW122097   2.370   4.748   1.631
 7066SOL    HW222098   2.519   4.695   1.672
 7067SOL     OW22099   1.220   4.075   4.696
 7067SOL    HW122100   1.205   4.003   4.764
 7067SOL    HW222101   1.137   4.086   4.641
 7068SOL     OW22102   0.745   1.108   3.127
 7068SOL    HW122103   0.652   1.135   3.153
 7068SOL    HW222104   0.747   1.011   3.106
 7069SOL     OW22105   1.356   3.882   5.450
 7069SOL    HW122106   1.386   3.929   5.533
 7069SOL    HW222107   1.431   3.826   5.414
 7070SOL     OW22108   5.536   5.509   2.801
 7070SOL    HW122109   5.628   5.548   2.801
 7070SOL    HW222110   5.534   5.427   2.744
 7071SOL     OW22111   1.690   6.683   5.425
 7071SOL    HW122112   1.745   6.624   5.485
 7071SOL    HW222113   1.677   6.772   5.470
 7072SOL     OW22114   7.010   6.998   6.400
 7072SOL    HW122115   6.923   6.970   6.440
 7072SOL    HW222116   0.022   0.070   6.439
 7073SOL     OW22117   2.207   2.573   6.908
 7073SOL    HW122118   2.226   2.666   6.939
 7073SOL    HW222119   2.180   2.516   6.986
 7074SOL     OW22120   4.145   1.470   6.570
 7074SOL    HW122121   4.079   1.499   6.640
 7074SOL    HW222122   4.116   1.383   6.530
 7075SOL     OW22123   0.582   6.307   3.369
 7075SOL    HW122124   0.681   6.317   3.378
 7075SOL    HW222125   0.553   6.223   3.416
 7076SOL     OW22126   2.832   1.309   5.958
 7076SOL    HW122127   2.810   1.406   5.946
 7076SOL    HW222128   2.930   1.295   5.942
 7077SOL     OW22129   0.945   5.808   6.355
 7077SOL    HW122130   0.988   5.754   6.428
 7077SOL    HW222131   0.907   5.747   6.286
 7078SOL     OW22132   0.335   0.474   1.154
 7078SOL    HW122133   0.254   0.431   1.114
 7078SOL    HW222134   0.318   0.572   1.168
 7079SOL     OW22135   5.348   6.518   4.187
 7079SOL    HW122136   5.377   6.596   4.243
 7079SOL    HW222137   5.413   6.505   4.112
 7080SOL     OW22138   6.134   0.483   3.856
 7080SOL    HW122139   6.051   0.518   3.901
 7080SOL    HW222140   6.127   0.499   3.758
 7081SOL     OW22141   4.470   0.941   4.535
 7081SOL    HW122142   4.484   0.928   4.437
 7081SOL    HW222143   4.457   1.038   4.554
 7082SOL     OW22144   5.950   1.146   0.316
 7082SOL    HW122145   5.906   1.058   0.300
 7082SOL    HW222146   6.030   1.154   0.257
 7083SOL     OW22147   4.423   0.228   5.031
 7083SOL    HW122148   4.339   0.255   5.078
 7083SOL    HW222149   4.483   0.307   5.022
 7084SOL     OW22150   6.206   5.533   0.278
 7084SOL    HW122151   6.181   5.609   0.218
 7084SOL    HW222152   6.157   5.450   0.250
 7085SOL     OW22153   5.049   1.677   1.027
 7085SOL    HW122154   5.117   1.713   0.963
 7085SOL    HW222155   5.045   1.577   1.018
 7086SOL     OW22156   1.424   0.840   5.858
 7086SOL    HW122157   1.478   0.786   5.923
 7086SOL    HW222158   1.432   0.937   5.880
 7087SOL     OW22159   2.460   2.585   4.395
 7087SOL    HW122160   2.505   2.576   4.483
 7087SOL    HW222161   2.388   2.653   4.401
 7088SOL     OW22162   6.564   1.395   4.440
 7088SOL    HW122163   6.481   1.372   4.389
 7088SOL    HW222164   6.643   1.392   4.379
 7089SOL     OW22165   2.673   1.934   1.935
 7089SOL    HW122166   2.683   2.031   1.917
 7089SOL    HW222167   2.753   1.885   1.899
 7090SOL     OW22168   3.452   0.795   5.078
 7090SOL    HW122169   3.425   0.821   4.985
 7090SOL    HW222170   3.378   0.741   5.119
 7091SOL     OW22171   6.686   4.909   6.800
 7091SOL    HW122172   6.741   4.967   6.741
 7091SOL    HW222173   6.738   4.888   6.883
 7092SOL     OW22174   3.707   2.221   0.945
 7092SOL    HW122175   3.664   2.173   0.868
 7092SOL    HW222176   3.748   2.306   0.911
 7093SOL     OW22177   3.888   3.632   6.060
 7093SOL    HW122178   3.952   3.561   6.031
 7093SOL    HW222179   3.857   3.684   5.981
 7094SOL     OW22180   6.210   1.085   6.515
 7094SOL    HW122181   6.225   1.162   6.578
 7094SOL    HW222182   6.113   1.059   6.518
 7095SOL     OW22183   1.121   4.340   1.648
 7095SOL    HW122184   1.062   4.404   1.597
 7095SOL    HW222185   1.180   4.291   1.584
 7096SOL     OW22186   3.623   6.890   3.316
 7096SOL    HW122187   3.556   6.940   3.262
 7096SOL    HW222188   3.608   6.909   3.413
 7097SOL     OW22189   1.856   1.679   1.484
 7097SOL    HW122190   1.878   1.651   1.578
 7097SOL    HW222191   1.828   1.775   1.484
 7098SOL     OW22192   1.559   0.579   6.655
 7098SOL    HW122193   1.654   0.567   6.682
 7098SOL    HW222194   1.512   0.491   6.658
 7099SOL     OW22195   0.026   1.342   4.378
 7099SOL    HW122196   7.008   1.248   4.380
 7099SOL    HW222197   6.968   1.403   4.348
 7100SOL     OW22198   5.642   2.297   0.631
 7100SOL    HW122199   5.607   2.369   0.572
 7100SOL    HW222200   5.742   2.298   0.631
 7101SOL     OW22201   1.608   0.677   4.881
 7101SOL    HW122202   1.654   0.761   4.853
 7101SOL    HW222203   1.538   0.653   4.814
 7102SOL     OW22204   4.365   2.455   0.108
 7102SOL    HW122205   4.424   2.467   0.188
 7102SOL    HW222206   4.286   2.516   0.117
 7103SOL     OW22207   1.953   6.974   6.285
 7103SOL    HW122208   1.965   0.053   6.257
 7103SOL    HW222209   1.890   6.928   6.222
 7104SOL     OW22210   0.486   3.730   1.548
 7104SOL    HW122211   0.403   3.694   1.590
 7104SOL    HW222212   0.566   3.691   1.593
 7105SOL     OW22213   2.114   2.487   4.689
 7105SOL    HW122214   2.160   2.487   4.778
 7105SOL    HW222215   2.070   2.576   4.675
 7106SOL     OW22216   3.010   3.093   5.103
 7106SOL    HW122217   3.040   3.188   5.117
 7106SOL    HW222218   2.938   3.071   5.169
 7107SOL     OW22219   2.219   1.572   0.044
 7107SOL    HW122220   2.313   1.589   0.071
 7107SOL    HW222221   2.157   1.596   0.119
 7108SOL     OW22222   4.236   6.707   2.693
 7108SOL    HW122223   4.268   6.771   2.763
 7108SOL    HW222224   4.256   6.613   2.722
 7109SOL     OW22225   4.803   5.725   6.839
 7109SOL    HW122226   4.777   5.643   6.889
 7109SOL    HW222227   4.723   5.783   6.825
 7110SOL     OW22228   3.789   5.439   4.286
 7110SOL    HW122229   3.773   5.399   4.376
 7110SOL    HW222230   3.724   5.401   4.220
 7111SOL     OW22231   1.254   3.183   2.992
 7111SOL    HW122232   1.204   3.258   2.949
 7111SOL    HW222233   1.281   3.209   3.085
 7112SOL     OW22234   1.977   6.124   2.701
 7112SOL    HW122235   2.041   6.183   2.651
 7112SOL    HW222236   1.912   6.084   2.637
 7113SOL     OW22237   3.755   4.108   5.954
 7113SOL    HW122238   3.691   4.092   6.029
 7113SOL    HW222239   3.713   4.170   5.887
 7114SOL     OW22240   3.752   6.742   0.649
 7114SOL    HW122241   3.738   6.816   0.583
 7114SOL    HW222242   3.849   6.716   0.651
 7115SOL     OW22243   4.114   2.271   1.910
 7115SOL    HW122244   4.172   2.341   1.868
 7115SOL    HW222245   4.114   2.284   2.009
 7116SOL     OW22246   6.451   4.283   3.882
 7116SOL    HW122247   6.488   4.270   3.791
 7116SOL    HW222248   6.354   4.257   3.883
 7117SOL     OW22249   5.491   0.089   2.592
 7117SOL    HW122250   5.497   0.136   2.680
 7117SOL    HW222251   5.530   7.013   2.600
 7118SOL     OW22252   6.788   3.544   3.655
 7118SOL    HW122253   6.885   3.549   3.632
 7118SOL    HW222254   6.777   3.498   3.743
 7119SOL     OW22255   0.635   2.319   2.203
 7119SOL    HW122256   0.636   2.230   2.158
 7119SOL    HW222257   0.577   2.316   2.284
 7120SOL     OW22258   4.678   6.653   4.287
 7120SOL    HW122259   4.652   6.629   4.193
 7120SOL    HW222260   4.610   6.714   4.326
 7121SOL     OW22261   1.503   6.328   0.864
 7121SOL    HW122262   1.517   6.262   0.790
 7121SOL    HW222263   1.411   6.367   0.858
 7122SOL     OW22264   0.078   6.113   7.008
 7122SOL    HW122265   0.035   6.149   0.074
 7122SOL    HW222266   0.087   6.014   7.016
 7123SOL     OW22267   3.192   4.578   0.862
 7123SOL    HW122268   3.228   4.490   0.891
 7123SOL    HW222269   3.266   4.635   0.826
 7124SOL     OW22270   0.102   5.053   6.831
 7124SOL    HW122271   0.187   5.063   6.884
 7124SOL    HW222272   0.047   5.136   6.842
 7125SOL     OW22273   1.302   5.771   3.087
 7125SOL    HW122274   1.388   5.731   3.054
 7125SOL    HW222275   1.309   5.786   3.186
 7126SOL     OW22276   1.426   4.347   1.167
 7126SOL    HW122277   1.432   4.403   1.085
 7126SOL    HW222278   1.334   4.355   1.206
 7127SOL     OW22279   2.387   0.474   5.063
 7127SOL    HW122280   2.412   0.549   5.124
 7127SOL    HW222281   2.295   0.442   5.085
 7128SOL     OW22282   3.219   3.848   2.725
 7128SOL    HW122283   3.152   3.812   2.661
 7128SOL    HW222284   3.250   3.938   2.694
 7129SOL     OW22285   3.453   1.781   0.407
 7129SOL    HW122286   3.465   1.691   0.449
 7129SOL    HW222287   3.462   1.852   0.477
 7130SOL     OW22288   1.485   0.577   2.867
 7130SOL    HW122289   1.483   0.669   2.906
 7130SOL    HW222290   1.522   0.513   2.934
 7131SOL     OW22291   2.822   0.981   2.995
 7131SOL    HW122292   2.837   1.028   2.907
 7131SOL    HW222293   2.905   0.987   3.050
 7132SOL     OW22294   3.029   4.044   2.142
 7132SOL    HW122295   3.020   3.945   2.128
 7132SOL    HW222296   2.953   4.076   2.199
 7133SOL     OW22297   6.202   4.059   2.088
 7133SOL    HW122298   6.234   4.141   2.135
 7133SOL    HW222299   6.102   4.063   2.078
 7134SOL     OW22300   4.456   4.537   2.497
 7134SOL    HW122301   4.516   4.618   2.499
 7134SOL    HW222302   4.512   4.454   2.504
 7135SOL     OW22303   0.008   1.652   5.865
 7135SOL    HW122304   0.030   1.567   5.913
 7135SOL    HW222305   0.036   1.730   5.921
 7136SOL     OW22306   2.114   1.915   6.470
 7136SOL    HW122307   2.197   1.899   6.417
 7136SOL    HW222308   2.124   2.000   6.522
 7137SOL     OW22309   5.572   1.895   5.292
 7137SOL    HW122310   5.604   1.801   5.291
 7137SOL    HW222311   5.562   1.928   5.198
 7138SOL     OW22312   2.340   1.894   6.341
 7138SOL    HW122313   2.336   1.832   6.262
 7138SOL    HW222314   2.435   1.916   6.361
 7139SOL     OW22315   2.025   1.346   0.129
 7139SOL    HW122316   2.014   1.307   0.037
 7139SOL    HW222317   2.034   1.272   0.195
 7140SOL     OW22318   6.564   4.529   4.525
 7140SOL    HW122319   6.496   4.573   4.584
 7140SOL    HW222320   6.538   4.433   4.509
 7141SOL     OW22321   0.848   0.775   2.157
 7141SOL    HW122322   0.783   0.701   2.173
 7141SOL    HW222323   0.932   0.738   2.116
 7142SOL     OW22324   3.656   6.648   4.197
 7142SOL    HW122325   3.622   6.557   4.175
 7142SOL    HW222326   3.598   6.717   4.152
 7143SOL     OW22327   1.785   2.993   3.863
 7143SOL    HW122328   1.747   2.972   3.953
 7143SOL    HW222329   1.880   3.022   3.872
 7144SOL     OW22330   1.540   3.512   3.535
 7144SOL    HW122331   1.577   3.586   3.591
 7144SOL    HW222332   1.554   3.425   3.580
 7145SOL     OW22333   3.610   5.922   6.876
 7145SOL    HW122334   3.597   5.917   6.975
 7145SOL    HW222335   3.681   5.989   6.855
 7146SOL     OW22336   3.815   4.624   1.382
 7146SOL    HW122337   3.848   4.702   1.435
 7146SOL    HW222338   3.719   4.639   1.358
 7147SOL     OW22339   0.659   1.348   3.475
 7147SOL    HW122340   0.684   1.363   3.571
 7147SOL    HW222341   0.702   1.419   3.418
 7148SOL     OW22342   6.769   2.251   0.682
 7148SOL    HW122343   6.844   2.210   0.630
 7148SOL    HW222344   6.761   2.204   0.770
 7149SOL     OW22345   1.068   0.690   4.588
 7149SOL    HW122346   1.111   0.731   4.508
 7149SOL    HW222347   1.124   0.708   4.669
 7150SOL     OW22348   6.508   2.941   5.755
 7150SOL    HW122349   6.520   2.973   5.849
 7150SOL    HW222350   6.521   2.842   5.751
 7151SOL     OW22351   1.230   0.276   0.512
 7151SOL    HW122352   1.175   0.198   0.543
 7151SOL    HW222353   1.322   0.244   0.491
 7152SOL     OW22354   0.731   2.519   4.396
 7152SOL    HW122355   0.649   2.509   4.453
 7152SOL    HW222356   0.716   2.475   4.308
 7153SOL     OW22357   4.592   2.010   3.242
 7153SOL    HW122358   4.509   1.955   3.232
 7153SOL    HW222359   4.575   2.102   3.207
 7154SOL     OW22360   3.120   0.096   4.428
 7154SOL    HW122361   3.152   0.134   4.515
 7154SOL    HW222362   3.190   0.110   4.358
 7155SOL     OW22363   2.461   1.578   4.120
 7155SOL    HW122364   2.467   1.539   4.028
 7155SOL    HW222365   2.538   1.544   4.175
 7156SOL     OW22366   2.285   5.481   5.578
 7156SOL    HW122367   2.206   5.471   5.519
 7156SOL    HW222368   2.368   5.456   5.528
 7157SOL     OW22369   5.840   4.216   0.668
 7157SOL    HW122370   5.760   4.248   0.717
 7157SOL    HW222371   5.813   4.145   0.603
 7158SOL     OW22372   3.805   0.459   3.231
 7158SOL    HW122373   3.727   0.458   3.170
 7158SOL    HW222374   3.781   0.510   3.315
 7159SOL     OW22375   1.336   6.041   0.181
 7159SOL    HW122376   1.305   5.947   0.167
 7159SOL    HW222377   1.304   6.074   0.270
 7160SOL     OW22378   0.171   0.356   2.133
 7160SOL    HW122379   0.155   0.387   2.039
 7160SOL    HW222380   0.112   0.407   2.196
 7161SOL     OW22381   2.897   3.749   4.912
 7161SOL    HW122382   2.816   3.690   4.915
 7161SOL    HW222383   2.901   3.803   4.996
 7162SOL     OW22384   3.463   5.078   4.008
 7162SOL    HW122385   3.375   5.035   4.027
 7162SOL    HW222386   3.517   5.082   4.092
 7163SOL     OW22387   1.070   6.575   3.646
 7163SOL    HW122388   1.127   6.493   3.641
 7163SOL    HW222389   1.119   6.652   3.606
 7164SOL     OW22390   3.753   1.294   4.272
 7164SOL    HW122391   3.681   1.339   4.326
 7164SOL    HW222392   3.769   1.202   4.308
 7165SOL     OW22393   4.263   5.064   2.124
 7165SOL    HW122394   4.189   5.097   2.066
 7165SOL    HW222395   4.310   4.988   2.079
 7166SOL     OW22396   3.292   6.658   2.672
 7166SOL    HW122397   3.259   6.672   2.579
 7166SOL    HW222398   3.332   6.567   2.680
 7167SOL     OW22399   5.971   2.846   0.591
 7167SOL    HW122400   5.972   2.759   0.639
 7167SOL    HW222401   6.052   2.854   0.534
 7168SOL     OW22402   6.552   0.996   4.278
 7168SOL    HW122403   6.555   1.077   4.220
 7168SOL    HW222404   6.458   0.980   4.308
 7169SOL     OW22405   2.623   2.756   0.034
 7169SOL    HW122406   2.625   2.664   7.012
 7169SOL    HW222407   2.536   2.771   0.080
 7170SOL     OW22408   4.966   3.801   4.558
 7170SOL    HW122409   4.939   3.783   4.653
 7170SOL    HW222410   4.932   3.728   4.499
 7171SOL     OW22411   3.446   3.748   5.176
 7171SOL    HW122412   3.350   3.732   5.201
 7171SOL    HW222413   3.462   3.847   5.170
 7172SOL     OW22414   5.584   5.793   1.438
 7172SOL    HW122415   5.671   5.762   1.399
 7172SOL    HW222416   5.574   5.758   1.531
 7173SOL     OW22417   6.592   6.541   4.606
 7173SOL    HW122418   6.554   6.626   4.568
 7173SOL    HW222419   6.605   6.475   4.532
 7174SOL     OW22420   1.152   6.523   5.850
 7174SOL    HW122421   1.053   6.528   5.838
 7174SOL    HW222422   1.198   6.566   5.772
 7175SOL     OW22423   6.054   3.443   5.896
 7175SOL    HW122424   6.053   3.510   5.821
 7175SOL    HW222425   6.148   3.417   5.916
 7176SOL     OW22426   1.163   3.480   1.181
 7176SOL    HW122427   1.083   3.426   1.206
 7176SOL    HW222428   1.167   3.491   1.082
 7177SOL     OW22429   0.179   5.014   1.349
 7177SOL    HW122430   0.094   4.964   1.366
 7177SOL    HW222431   0.252   4.975   1.405
 7178SOL     OW22432   6.518   0.680   6.514
 7178SOL    HW122433   6.575   0.741   6.459
 7178SOL    HW222434   6.441   0.733   6.552
 7179SOL     OW22435   0.684   3.767   5.835
 7179SOL    HW122436   0.734   3.719   5.907
 7179SOL    HW222437   0.638   3.700   5.777
 7180SOL     OW22438   0.004   0.590   2.175
 7180SOL    HW122439   0.064   0.667   2.194
 7180SOL    HW222440   6.980   0.599   2.085
 7181SOL     OW22441   5.258   6.090   2.153
 7181SOL    HW122442   5.331   6.065   2.216
 7181SOL    HW222443   5.172   6.098   2.203
 7182SOL     OW22444   3.757   3.825   5.867
 7182SOL    HW122445   3.662   3.851   5.885
 7182SOL    HW222446   3.817   3.903   5.885
 7183SOL     OW22447   2.104   2.705   2.852
 7183SOL    HW122448   2.066   2.659   2.772
 7183SOL    HW222449   2.203   2.689   2.856
 7184SOL     OW22450   2.541   5.439   3.188
 7184SOL    HW122451   2.594   5.410   3.109
 7184SOL    HW222452   2.571   5.390   3.269
 7185SOL     OW22453   5.532   2.296   6.095
 7185SOL    HW122454   5.619   2.320   6.054
 7185SOL    HW222455   5.461   2.295   6.025
 7186SOL     OW22456   1.328   6.477   4.660
 7186SOL    HW122457   1.363   6.571   4.662
 7186SOL    HW222458   1.372   6.426   4.587
 7187SOL     OW22459   1.637   4.725   1.262
 7187SOL    HW122460   1.665   4.761   1.351
 7187SOL    HW222461   1.551   4.675   1.272
 7188SOL     OW22462   4.453   0.415   1.732
 7188SOL    HW122463   4.505   0.390   1.650
 7188SOL    HW222464   4.374   0.356   1.740
 7189SOL     OW22465   6.015   0.919   5.768
 7189SOL    HW122466   6.026   0.997   5.706
 7189SOL    HW222467   6.040   0.947   5.861
 7190SOL     OW22468   4.913   4.834   2.305
 7190SOL    HW122469   4.814   4.842   2.294
 7190SOL    HW222470   4.956   4.922   2.285
 7191SOL     OW22471   0.952   3.633   1.725
 7191SOL    HW122472   0.862   3.589   1.721
 7191SOL    HW222473   0.958   3.705   1.656
 7192SOL     OW22474   3.432   4.238   6.149
 7192SOL    HW122475   3.336   4.216   6.128
 7192SOL    HW222476   3.481   4.154   6.172
 7193SOL     OW22477   5.953   1.965   4.842
 7193SOL    HW122478   6.038   1.949   4.792
 7193SOL    HW222479   5.960   1.925   4.933
 7194SOL     OW22480   3.453   0.928   1.614
 7194SOL    HW122481   3.402   0.843   1.627
 7194SOL    HW222482   3.430   0.991   1.688
 7195SOL     OW22483   0.401   0.105   3.310
 7195SOL    HW122484   0.499   0.114   3.330
 7195SOL    HW222485   0.369   0.187   3.263
 7196SOL     OW22486   4.142   3.985   1.484
 7196SOL    HW122487   4.225   3.932   1.467
 7196SOL    HW222488   4.095   3.949   1.564
 7197SOL     OW22489   1.938   1.072   4.157
 7197SOL    HW122490   1.845   1.103   4.172
 7197SOL    HW222491   1.951   1.051   4.060
 7198SOL     OW22492   0.050   6.835   5.599
 7198SOL    HW122493   0.148   6.851   5.609
 7198SOL    HW222494   0.014   6.891   5.525
 7199SOL     OW22495   6.207   5.923   1.717
 7199SOL    HW122496   6.254   6.008   1.740
 7199SOL    HW222497   6.110   5.943   1.700
 7200SOL     OW22498   1.205   2.127   2.263
 7200SOL    HW122499   1.297   2.089   2.266
 7200SOL    HW222500   1.167   2.127   2.356
 7201SOL     OW22501   1.555   4.796   3.077
 7201SOL    HW122502   1.518   4.725   3.136
 7201SOL    HW222503   1.566   4.761   2.984
 7202SOL     OW22504   2.176   6.636   5.318
 7202SOL    HW122505   2.134   6.646   5.408
 7202SOL    HW222506   2.163   6.721   5.266
 7203SOL     OW22507   5.649   0.615   6.891
 7203SOL    HW122508   5.663   0.529   6.840
 7203SOL    HW222509   5.621   0.594   6.984
 7204SOL     OW22510   0.893   3.461   2.658
 7204SOL    HW122511   0.990   3.484   2.644
 7204SOL    HW222512   0.876   3.446   2.755
 7205SOL     OW22513   1.263   4.192   1.476
 7205SOL    HW122514   1.234   4.208   1.382
 7205SOL    HW222515   1.275   4.094   1.491
 7206SOL     OW22516   6.615   0.865   1.745
 7206SOL    HW122517   6.598   0.778   1.699
 7206SOL    HW222518   6.629   0.937   1.677
 7207SOL     OW22519   3.836   0.198   1.419
 7207SOL    HW122520   3.803   0.262   1.488
 7207SOL    HW222521   3.781   0.114   1.422
 7208SOL     OW22522   2.588   0.019   4.949
 7208SOL    HW122523   2.617   0.110   4.919
 7208SOL    HW222524   2.523   6.997   4.884
 7209SOL     OW22525   2.576   3.639   5.478
 7209SOL    HW122526   2.643   3.678   5.541
 7209SOL    HW222527   2.560   3.704   5.403
 7210SOL     OW22528   4.115   0.659   4.241
 7210SOL    HW122529   4.058   0.701   4.311
 7210SOL    HW222530   4.057   0.628   4.165
 7211SOL     OW22531   0.528   5.474   3.079
 7211SOL    HW122532   0.604   5.410   3.067
 7211SOL    HW222533   0.534   5.547   3.011
 7212SOL     OW22534   5.586   6.266   2.851
 7212SOL    HW122535   5.679   6.298   2.834
 7212SOL    HW222536   5.549   6.225   2.768
 7213SOL     OW22537   5.391   6.391   5.429
 7213SOL    HW122538   5.469   6.451   5.411
 7213SOL    HW222539   5.424   6.304   5.465
 7214SOL     OW22540   1.497   5.099   6.084
 7214SOL    HW122541   1.399   5.082   6.068
 7214SOL    HW222542   1.548   5.075   6.001
 7215SOL     OW22543   1.318   2.964   1.231
 7215SOL    HW122544   1.380   2.901   1.184
 7215SOL    HW222545   1.318   2.943   1.329
 7216SOL     OW22546   2.423   1.802   2.703
 7216SOL    HW122547   2.370   1.875   2.746
 7216SOL    HW222548   2.468   1.838   2.621
 7217SOL     OW22549   1.357   3.808   2.015
 7217SOL    HW122550   1.262   3.818   2.043
 7217SOL    HW222551   1.363   3.740   1.941
 7218SOL     OW22552   6.387   3.109   3.566
 7218SOL    HW122553   6.401   3.019   3.609
 7218SOL    HW222554   6.468   3.133   3.513
 7219SOL     OW22555   2.143   1.351   1.611
 7219SOL    HW122556   2.130   1.307   1.700
 7219SOL    HW222557   2.232   1.397   1.610
 7220SOL     OW22558   6.985   1.826   3.157
 7220SOL    HW122559   6.888   1.845   3.172
 7220SOL    HW222560   7.015   1.754   3.221
 7221SOL     OW22561   6.586   3.877   4.502
 7221SOL    HW122562   6.537   3.955   4.464
 7221SOL    HW222563   6.545   3.852   4.590
 7222SOL     OW22564   6.623   0.135   2.629
 7222SOL    HW122565   6.560   0.072   2.675
 7222SOL    HW222566   6.579   0.174   2.548
 7223SOL     OW22567   5.116   1.055   4.306
 7223SOL    HW122568   5.075   1.019   4.389
 7223SOL    HW222569   5.044   1.075   4.239
 7224SOL     OW22570   4.987   1.166   3.309
 7224SOL    HW122571   4.924   1.101   3.351
 7224SOL    HW222572   5.081   1.134   3.323
 7225SOL     OW22573   2.898   0.362   1.519
 7225SOL    HW122574   2.892   0.271   1.478
 7225SOL    HW222575   2.840   0.367   1.599
 7226SOL     OW22576   5.453   6.759   5.242
 7226SOL    HW122577   5.393   6.828   5.284
 7226SOL    HW222578   5.541   6.759   5.289
 7227SOL     OW22579   0.562   2.666   5.558
 7227SOL    HW122580   0.595   2.586   5.607
 7227SOL    HW222581   0.570   2.747   5.616
 7228SOL     OW22582   1.707   6.944   2.725
 7228SOL    HW122583   1.791   6.903   2.689
 7228SOL    HW222584   1.686   0.012   2.675
 7229SOL     OW22585   6.451   0.022   3.552
 7229SOL    HW122586   6.446   6.944   3.587
 7229SOL    HW222587   6.457   0.021   3.453
 7230SOL     OW22588   6.186   5.339   1.281
 7230SOL    HW122589   6.231   5.383   1.359
 7230SOL    HW222590   6.114   5.278   1.314
 7231SOL     OW22591   5.644   0.874   6.792
 7231SOL    HW122592   5.733   0.920   6.798
 7231SOL    HW222593   5.652   0.782   6.831
 7232SOL     OW22594   3.144   3.651   0.568
 7232SOL    HW122595   3.178   3.703   0.489
 7232SOL    HW222596   3.044   3.654   0.569
 7233SOL     OW22597   1.180   1.815   6.563
 7233SOL    HW122598   1.277   1.842   6.560
 7233SOL    HW222599   1.144   1.813   6.470
 7234SOL     OW22600   5.388   2.642   3.876
 7234SOL    HW122601   5.333   2.716   3.839
 7234SOL    HW222602   5.485   2.666   3.870
 7235SOL     OW22603   5.542   2.618   4.504
 7235SOL    HW122604   5.505   2.684   4.439
 7235SOL    HW222605   5.575   2.537   4.455
 7236SOL     OW22606   0.946   1.689   3.141
 7236SOL    HW122607   0.989   1.779   3.136
 7236SOL    HW222608   1.005   1.627   3.192
 7237SOL     OW22609   6.227   4.908   5.525
 7237SOL    HW122610   6.162   4.959   5.581
 7237SOL    HW222611   6.227   4.945   5.432
 7238SOL     OW22612   1.265   0.053   2.626
 7238SOL    HW122613   1.352   0.046   2.577
 7238SOL    HW222614   1.202   6.999   2.593
 7239SOL     OW22615   4.727   1.612   2.238
 7239SOL    HW122616   4.809   1.556   2.248
 7239SOL    HW222617   4.750   1.708   2.252
 7240SOL     OW22618   3.041   3.207   3.548
 7240SOL    HW122619   2.994   3.202   3.461
 7240SOL    HW222620   3.130   3.162   3.541
 7241SOL     OW22621   4.929   0.126   5.074
 7241SOL    HW122622   4.878   0.146   5.158
 7241SOL    HW222623   4.902   0.190   5.003
 7242SOL     OW22624   6.000   5.632   0.509
 7242SOL    HW122625   5.975   5.549   0.560
 7242SOL    HW222626   6.093   5.623   0.474
 7243SOL     OW22627   0.681   5.952   1.255
 7243SOL    HW122628   0.590   5.913   1.270
 7243SOL    HW222629   0.678   6.013   1.176
 7244SOL     OW22630   5.012   1.914   1.581
 7244SOL    HW122631   5.040   1.822   1.609
 7244SOL    HW222632   5.043   1.980   1.648
 7245SOL     OW22633   5.807   1.817   3.338
 7245SOL    HW122634   5.713   1.836   3.312
 7245SOL    HW222635   5.861   1.795   3.256
 7246SOL     OW22636   0.724   5.963   5.504
 7246SOL    HW122637   0.795   5.922   5.447
 7246SOL    HW222638   0.671   5.890   5.549
 7247SOL     OW22639   4.057   5.516   3.812
 7247SOL    HW122640   4.014   5.531   3.723
 7247SOL    HW222641   4.015   5.576   3.880
 7248SOL     OW22642   3.215   1.084   5.427
 7248SOL    HW122643   3.221   0.996   5.475
 7248SOL    HW222644   3.210   1.158   5.493
 7249SOL     OW22645   5.137   2.675   6.322
 7249SOL    HW122646   5.144   2.728   6.407
 7249SOL    HW222647   5.055   2.702   6.272
 7250SOL     OW22648   3.113   2.949   0.202
 7250SOL    HW122649   3.127   2.863   0.154
 7250SOL    HW222650   3.144   3.025   0.145
 7251SOL     OW22651   6.253   1.075   5.647
 7251SOL    HW122652   6.351   1.058   5.656
 7251SOL    HW222653   6.232   1.167   5.680
 7252SOL     OW22654   4.584   3.684   5.363
 7252SOL    HW122655   4.623   3.625   5.291
 7252SOL    HW222656   4.570   3.630   5.446
 7253SOL     OW22657   4.999   5.077   0.184
 7253SOL    HW122658   4.972   5.050   0.277
 7253SOL    HW222659   5.088   5.037   0.163
 7254SOL     OW22660   5.254   6.022   5.376
 7254SOL    HW122661   5.171   6.056   5.420
 7254SOL    HW222662   5.234   5.997   5.281
 7255SOL     OW22663   3.624   3.472   3.688
 7255SOL    HW122664   3.634   3.569   3.670
 7255SOL    HW222665   3.712   3.433   3.715
 7256SOL     OW22666   3.541   5.937   4.022
 7256SOL    HW122667   3.622   5.878   4.019
 7256SOL    HW222668   3.465   5.887   4.062
 7257SOL     OW22669   6.145   5.264   2.280
 7257SOL    HW122670   6.070   5.238   2.220
 7257SOL    HW222671   6.164   5.190   2.344
 7258SOL     OW22672   2.796   0.886   6.076
 7258SOL    HW122673   2.772   0.940   6.157
 7258SOL    HW222674   2.795   0.946   5.996
 7259SOL     OW22675   3.415   4.221   5.735
 7259SOL    HW122676   3.329   4.254   5.773
 7259SOL    HW222677   3.417   4.121   5.741
 7260SOL     OW22678   4.404   2.394   2.390
 7260SOL    HW122679   4.474   2.463   2.410
 7260SOL    HW222680   4.374   2.403   2.295
 7261SOL     OW22681   2.503   4.671   1.176
 7261SOL    HW122682   2.413   4.701   1.144
 7261SOL    HW222683   2.541   4.739   1.239
 7262SOL     OW22684   5.776   0.167   4.574
 7262SOL    HW122685   5.680   0.163   4.546
 7262SOL    HW222686   5.825   0.091   4.531
 7263SOL     OW22687   4.720   4.705   1.404
 7263SOL    HW122688   4.804   4.666   1.367
 7263SOL    HW222689   4.669   4.635   1.452
 7264SOL     OW22690   6.794   0.229   4.760
 7264SOL    HW122691   6.773   0.294   4.833
 7264SOL    HW222692   6.775   0.271   4.671
 7265SOL     OW22693   4.445   2.847   6.392
 7265SOL    HW122694   4.496   2.933   6.383
 7265SOL    HW222695   4.452   2.795   6.306
 7266SOL     OW22696   3.879   1.005   2.802
 7266SOL    HW122697   3.811   1.071   2.769
 7266SOL    HW222698   3.870   0.996   2.902
 7267SOL     OW22699   4.673   2.140   3.904
 7267SOL    HW122700   4.767   2.150   3.873
 7267SOL    HW222701   4.631   2.061   3.858
 7268SOL     OW22702   3.901   6.698   6.806
 7268SOL    HW122703   3.910   6.743   6.717
 7268SOL    HW222704   3.858   6.761   6.871
 7269SOL     OW22705   1.405   6.987   3.925
 7269SOL    HW122706   1.499   7.016   3.908
 7269SOL    HW222707   1.344   0.014   3.859
 7270SOL     OW22708   3.820   2.728   1.490
 7270SOL    HW122709   3.837   2.826   1.478
 7270SOL    HW222710   3.799   2.709   1.586
 7271SOL     OW22711   4.860   6.243   3.923
 7271SOL    HW122712   4.889   6.330   3.963
 7271SOL    HW222713   4.868   6.171   3.992
 7272SOL     OW22714   5.501   1.471   1.715
 7272SOL    HW122715   5.402   1.463   1.719
 7272SOL    HW222716   5.535   1.512   1.800
 7273SOL     OW22717   6.124   4.988   4.525
 7273SOL    HW122718   6.099   5.084   4.515
 7273SOL    HW222719   6.201   4.967   4.465
 7274SOL     OW22720   5.805   4.835   3.738
 7274SOL    HW122721   5.802   4.894   3.819
 7274SOL    HW222722   5.727   4.857   3.678
 7275SOL     OW22723   5.708   0.312   2.180
 7275SOL    HW122724   5.751   0.354   2.099
 7275SOL    HW222725   5.610   0.303   2.164
 7276SOL     OW22726   4.108   1.712   3.153
 7276SOL    HW122727   4.030   1.767   3.125
 7276SOL    HW222728   4.090   1.669   3.242
 7277SOL     OW22729   6.273   2.441   4.038
 7277SOL    HW122730   6.328   2.517   4.072
 7277SOL    HW222731   6.195   2.477   3.987
 7278SOL     OW22732   3.769   1.429   2.972
 7278SOL    HW122733   3.856   1.459   2.934
 7278SOL    HW222734   3.700   1.426   2.899
 7279SOL     OW22735   3.498   3.493   1.998
 7279SOL    HW122736   3.454   3.407   1.975
 7279SOL    HW222737   3.436   3.548   2.055
 7280SOL     OW22738   6.368   1.279   5.946
 7280SOL    HW122739   6.463   1.256   5.969
 7280SOL    HW222740   6.319   1.196   5.920
 7281SOL     OW22741   3.598   7.007   3.815
 7281SOL    HW122742   3.552   6.919   3.829
 7281SOL    HW222743   3.691   6.991   3.782
 7282SOL     OW22744   0.621   3.697   1.225
 7282SOL    HW122745   0.648   3.787   1.258
 7282SOL    HW222746   0.684   3.628   1.259
 7283SOL     OW22747   2.872   6.030   2.854
 7283SOL    HW122748   2.898   5.934   2.856
 7283SOL    HW222749   2.951   6.086   2.828
 7284SOL     OW22750   0.370   0.726   4.089
 7284SOL    HW122751   0.446   0.703   4.148
 7284SOL    HW222752   0.286   0.684   4.124
 7285SOL     OW22753   4.762   2.372   2.174
 7285SOL    HW122754   4.683   2.421   2.136
 7285SOL    HW222755   4.845   2.423   2.154
 7286SOL     OW22756   6.488   1.203   4.878
 7286SOL    HW122757   6.494   1.299   4.849
 7286SOL    HW222758   6.576   1.158   4.863
 7287SOL     OW22759   3.426   1.295   4.643
 7287SOL    HW122760   3.385   1.380   4.676
 7287SOL    HW222761   3.370   1.217   4.671
 7288SOL     OW22762   2.941   1.766   1.175
 7288SOL    HW122763   3.029   1.811   1.186
 7288SOL    HW222764   2.930   1.695   1.245
 7289SOL     OW22765   6.922   2.336   1.005
 7289SOL    HW122766   6.958   2.428   1.020
 7289SOL    HW222767   6.824   2.342   0.983
 7290SOL     OW22768   3.331   2.119   4.989
 7290SOL    HW122769   3.249   2.169   5.017
 7290SOL    HW222770   3.411   2.178   5.000
 7291SOL     OW22771   0.958   1.059   0.241
 7291SOL    HW122772   1.024   1.086   0.311
 7291SOL    HW222773   0.907   0.979   0.273
 7292SOL     OW22774   3.144   1.339   2.122
 7292SOL    HW122775   3.155   1.242   2.103
 7292SOL    HW222776   3.174   1.358   2.216
 7293SOL     OW22777   5.982   1.258   4.153
 7293SOL    HW122778   5.963   1.169   4.195
 7293SOL    HW222779   5.896   1.307   4.139
 7294SOL     OW22780   2.031   1.229   2.435
 7294SOL    HW122781   2.038   1.135   2.468
 7294SOL    HW222782   2.082   1.238   2.350
 7295SOL     OW22783   5.232   4.490   1.556
 7295SOL    HW122784   5.205   4.586   1.549
 7295SOL    HW222785   5.328   4.480   1.528
 7296SOL     OW22786   3.139   0.358   3.039
 7296SOL    HW122787   3.057   0.364   2.982
 7296SOL    HW222788   3.138   0.273   3.091
 7297SOL     OW22789   4.751   0.564   6.659
 7297SOL    HW122790   4.845   0.595   6.642
 7297SOL    HW222791   4.711   0.530   6.574
 7298SOL     OW22792   4.229   4.407   0.538
 7298SOL    HW122793   4.144   4.405   0.589
 7298SOL    HW222794   4.209   4.397   0.440
 7299SOL     OW22795   0.282   2.803   0.173
 7299SOL    HW122796   0.339   2.771   0.249
 7299SOL    HW222797   0.270   2.729   0.107
 7300SOL     OW22798   0.389   4.136   2.385
 7300SOL    HW122799   0.443   4.216   2.411
 7300SOL    HW222800   0.346   4.152   2.297
 7301SOL     OW22801   3.909   1.763   0.375
 7301SOL    HW122802   3.988   1.823   0.365
 7301SOL    HW222803   3.828   1.807   0.336
 7302SOL     OW22804   5.827   1.465   6.748
 7302SOL    HW122805   5.867   1.473   6.840
 7302SOL    HW222806   5.896   1.427   6.686
 7303SOL     OW22807   4.011   2.695   1.041
 7303SOL    HW122808   3.927   2.688   1.096
 7303SOL    HW222809   4.091   2.686   1.101
 7304SOL     OW22810   3.062   0.128   0.891
 7304SOL    HW122811   3.162   0.123   0.901
 7304SOL    HW222812   3.035   0.076   0.809
 7305SOL     OW22813   6.673   7.001   6.232
 7305SOL    HW122814   6.739   0.052   6.198
 7305SOL    HW222815   6.644   6.942   6.156
 7306SOL     OW22816   1.748   3.415   0.890
 7306SOL    HW122817   1.807   3.340   0.922
 7306SOL    HW222818   1.657   3.405   0.929
 7307SOL     OW22819   4.487   6.897   1.190
 7307SOL    HW122820   4.399   6.865   1.155
 7307SOL    HW222821   4.481   6.907   1.289
 7308SOL     OW22822   3.524   2.032   2.923
 7308SOL    HW122823   3.617   2.070   2.927
 7308SOL    HW222824   3.523   1.941   2.964
 7309SOL     OW22825   2.357   5.569   3.031
 7309SOL    HW122826   2.334   5.664   3.051
 7309SOL    HW222827   2.399   5.526   3.111
 7310SOL     OW22828   5.279   3.110   0.231
 7310SOL    HW122829   5.193   3.123   0.182
 7310SOL    HW222830   5.304   3.195   0.278
 7311SOL     OW22831   1.253   6.687   5.361
 7311SOL    HW122832   1.327   6.658   5.420
 7311SOL    HW222833   1.176   6.624   5.369
 7312SOL     OW22834   5.544   1.582   4.682
 7312SOL    HW122835   5.533   1.618   4.589
 7312SOL    HW222836   5.515   1.652   4.748
 7313SOL     OW22837   3.355   0.989   3.191
 7313SOL    HW122838   3.335   1.087   3.197
 7313SOL    HW222839   3.422   0.965   3.262
 7314SOL     OW22840   2.663   5.664   5.023
 7314SOL    HW122841   2.588   5.695   5.081
 7314SOL    HW222842   2.628   5.603   4.952
 7315SOL     OW22843   2.569   4.872   2.046
 7315SOL    HW122844   2.523   4.916   2.123
 7315SOL    HW222845   2.660   4.842   2.075
 7316SOL     OW22846   3.079   0.953   2.533
 7316SOL    HW122847   3.155   0.896   2.565
 7316SOL    HW222848   3.096   1.048   2.561
 7317SOL     OW22849   5.420   1.376   1.161
 7317SOL    HW122850   5.349   1.443   1.137
 7317SOL    HW222851   5.457   1.336   1.078
 7318SOL     OW22852   5.006   6.931   1.606
 7318SOL    HW122853   4.993   7.013   1.550
 7318SOL    HW222854   5.098   6.931   1.645
 7319SOL     OW22855   4.637   4.933   5.994
 7319SOL    HW122856   4.539   4.949   5.986
 7319SOL    HW222857   4.686   4.994   5.930
 7320SOL     OW22858   1.944   3.038   0.591
 7320SOL    HW122859   1.937   3.079   0.682
 7320SOL    HW222860   1.949   3.110   0.522
 7321SOL     OW22861   2.430   2.467   5.303
 7321SOL    HW122862   2.364   2.417   5.247
 7321SOL    HW222863   2.415   2.565   5.290
 7322SOL     OW22864   2.858   1.962   3.809
 7322SOL    HW122865   2.849   1.886   3.744
 7322SOL    HW222866   2.871   2.047   3.758
 7323SOL     OW22867   2.115   1.904   6.917
 7323SOL    HW122868   2.127   2.002   6.933
 7323SOL    HW222869   2.189   1.871   6.857
 7324SOL     OW22870   5.817   3.922   5.383
 7324SOL    HW122871   5.874   3.873   5.318
 7324SOL    HW222872   5.739   3.864   5.408
 7325SOL     OW22873   3.217   0.624   0.144
 7325SOL    HW122874   3.265   0.584   0.222
 7325SOL    HW222875   3.280   0.631   0.066
 7326SOL     OW22876   3.715   6.903   0.436
 7326SOL    HW122877   3.641   6.870   0.379
 7326SOL    HW222878   3.765   6.975   0.388
 7327SOL     OW22879   1.943   4.752   3.238
 7327SOL    HW122880   1.885   4.677   3.270
 7327SOL    HW222881   1.910   4.784   3.149
 7328SOL     OW22882   4.098   5.991   0.004
 7328SOL    HW122883   4.147   6.049   0.069
 7328SOL    HW222884   4.012   5.960   0.045
 7329SOL     OW22885   2.750   3.921   6.494
 7329SOL    HW122886   2.838   3.873   6.493
 7329SOL    HW222887   2.690   3.880   6.425
 7330SOL     OW22888   2.597   3.571   1.641
 7330SOL    HW122889   2.509   3.548   1.684
 7330SOL    HW222890   2.625   3.496   1.581
 7331SOL     OW22891   5.370   1.895   2.728
 7331SOL    HW122892   5.435   1.885   2.803
 7331SOL    HW222893   5.284   1.933   2.763
 7332SOL     OW22894   1.513   0.125   4.877
 7332SOL    HW122895   1.602   0.142   4.919
 7332SOL    HW222896   1.454   0.205   4.891
 7333SOL     OW22897   6.289   1.550   1.479
 7333SOL    HW122898   6.269   1.482   1.549
 7333SOL    HW222899   6.256   1.640   1.509
 7334SOL     OW22900   0.789   5.046   5.116
 7334SOL    HW122901   0.853   5.021   5.043
 7334SOL    HW222902   0.716   5.103   5.078
 7335SOL     OW22903   6.678   2.497   1.759
 7335SOL    HW122904   6.727   2.568   1.708
 7335SOL    HW222905   6.582   2.524   1.770
 7336SOL     OW22906   2.373   0.250   1.288
 7336SOL    HW122907   2.339   0.193   1.213
 7336SOL    HW222908   2.438   0.197   1.343
 7337SOL     OW22909   2.651   1.373   1.650
 7337SOL    HW122910   2.641   1.375   1.551
 7337SOL    HW222911   2.741   1.410   1.675
 7338SOL     OW22912   5.332   2.423   0.137
 7338SOL    HW122913   5.241   2.391   0.108
 7338SOL    HW222914   5.395   2.417   0.061
 7339SOL     OW22915   6.590   6.766   3.275
 7339SOL    HW122916   6.660   6.777   3.346
 7339SOL    HW222917   6.628   6.712   3.200
 7340SOL     OW22918   3.079   0.048   0.318
 7340SOL    HW122919   2.986   0.083   0.331
 7340SOL    HW222920   3.144   0.103   0.371
 7341SOL     OW22921   5.749   5.252   2.969
 7341SOL    HW122922   5.795   5.327   2.923
 7341SOL    HW222923   5.719   5.281   3.060
 7342SOL     OW22924   6.894   5.008   6.644
 7342SOL    HW122925   6.940   4.919   6.638
 7342SOL    HW222926   6.948   5.069   6.703
 7343SOL     OW22927   0.357   2.245   3.512
 7343SOL    HW122928   0.454   2.255   3.492
 7343SOL    HW222929   0.318   2.172   3.456
 7344SOL     OW22930   1.383   1.505   5.558
 7344SOL    HW122931   1.405   1.603   5.561
 7344SOL    HW222932   1.349   1.481   5.468
 7345SOL     OW22933   1.756   6.654   6.711
 7345SOL    HW122934   1.780   6.615   6.622
 7345SOL    HW222935   1.743   6.581   6.777
 7346SOL     OW22936   3.234   5.466   2.989
 7346SOL    HW122937   3.182   5.392   3.032
 7346SOL    HW222938   3.221   5.551   3.040
 7347SOL     OW22939   5.814   2.842   3.519
 7347SOL    HW122940   5.907   2.867   3.546
 7347SOL    HW222941   5.751   2.913   3.549
 7348SOL     OW22942   5.291   0.156   6.657
 7348SOL    HW122943   5.249   0.122   6.741
 7348SOL    HW222944   5.224   0.155   6.583
 7349SOL     OW22945   4.063   1.942   1.036
 7349SOL    HW122946   4.112   1.874   1.090
 7349SOL    HW222947   4.084   2.034   1.069
 7350SOL     OW22948   1.946   1.867   2.206
 7350SOL    HW122949   1.940   1.840   2.110
 7350SOL    HW222950   1.879   1.938   2.226
 7351SOL     OW22951   6.066   5.120   0.319
 7351SOL    HW122952   5.969   5.142   0.330
 7351SOL    HW222953   6.085   5.100   0.223
 7352SOL     OW22954   6.696   1.566   2.811
 7352SOL    HW122955   6.780   1.547   2.862
 7352SOL    HW222956   6.718   1.614   2.726
 7353SOL     OW22957   5.490   1.666   4.110
 7353SOL    HW122958   5.577   1.638   4.070
 7353SOL    HW222959   5.425   1.686   4.037
 7354SOL     OW22960   5.965   4.321   5.581
 7354SOL    HW122961   6.060   4.299   5.563
 7354SOL    HW222962   5.905   4.262   5.526
 7355SOL     OW22963   0.131   5.546   0.364
 7355SOL    HW122964   0.054   5.489   0.394
 7355SOL    HW222965   0.170   5.509   0.280
 7356SOL     OW22966   7.008   2.287   6.483
 7356SOL    HW122967   6.949   2.289   6.563
 7356SOL    HW222968   0.079   2.243   6.507
 7357SOL     OW22969   1.162   0.806   1.416
 7357SOL    HW122970   1.165   0.724   1.358
 7357SOL    HW222971   1.083   0.802   1.477
 7358SOL     OW22972   3.602   1.417   3.732
 7358SOL    HW122973   3.545   1.499   3.729
 7358SOL    HW222974   3.689   1.435   3.687
 7359SOL     OW22975   3.213   3.821   4.133
 7359SOL    HW122976   3.212   3.912   4.092
 7359SOL    HW222977   3.190   3.828   4.230
 7360SOL     OW22978   1.851   5.039   5.828
 7360SOL    HW122979   1.752   5.043   5.837
 7360SOL    HW222980   1.876   4.975   5.756
 7361SOL     OW22981   4.543   0.276   1.464
 7361SOL    HW122982   4.608   0.205   1.492
 7361SOL    HW222983   4.563   0.303   1.369
 7362SOL     OW22984   1.230   4.877   0.445
 7362SOL    HW122985   1.318   4.844   0.480
 7362SOL    HW222986   1.157   4.852   0.508
 7363SOL     OW22987   5.235   2.410   6.330
 7363SOL    HW122988   5.218   2.509   6.334
 7363SOL    HW222989   5.186   2.365   6.405
 7364SOL     OW22990   4.701   6.479   0.179
 7364SOL    HW122991   4.642   6.479   0.098
 7364SOL    HW222992   4.795   6.461   0.152
 7365SOL     OW22993   5.543   7.015   1.992
 7365SOL    HW122994   5.469   6.964   1.947
 7365SOL    HW222995   5.539   7.001   2.090
 7366SOL     OW22996   3.195   6.837   0.758
 7366SOL    HW122997   3.235   6.815   0.846
 7366SOL    HW222998   3.142   6.758   0.724
 7367SOL     OW22999   5.139   3.034   6.035
 7367SOL    HW123000   5.168   2.994   6.122
 7367SOL    HW223001   5.205   3.105   6.007
 7368SOL     OW23002   3.231   2.870   5.158
 7368SOL    HW123003   3.293   2.916   5.220
 7368SOL    HW223004   3.173   2.937   5.111
 7369SOL     OW23005   0.227   6.687   6.379
 7369SOL    HW123006   0.181   6.710   6.464
 7369SOL    HW223007   0.167   6.630   6.323
 7370SOL     OW23008   6.721   5.630   1.040
 7370SOL    HW123009   6.808   5.665   1.007
 7370SOL    HW223010   6.696   5.547   0.989
 7371SOL     OW23011   2.353   5.155   3.301
 7371SOL    HW123012   2.296   5.077   3.324
 7371SOL    HW223013   2.386   5.146   3.207
 7372SOL     OW23014   1.969   6.849   5.202
 7372SOL    HW123015   1.984   6.939   5.242
 7372SOL    HW223016   1.871   6.830   5.199
 7373SOL     OW23017   4.239   1.603   0.869
 7373SOL    HW123018   4.280   1.693   0.881
 7373SOL    HW223019   4.167   1.608   0.800
 7374SOL     OW23020   2.332   3.859   0.685
 7374SOL    HW123021   2.262   3.875   0.755
 7374SOL    HW223022   2.400   3.794   0.720
 7375SOL     OW23023   2.170   5.438   2.285
 7375SOL    HW123024   2.180   5.414   2.381
 7375SOL    HW223025   2.258   5.428   2.238
 7376SOL     OW23026   3.310   4.825   0.312
 7376SOL    HW123027   3.308   4.889   0.389
 7376SOL    HW223028   3.288   4.874   0.227
 7377SOL     OW23029   4.644   6.086   1.221
 7377SOL    HW123030   4.624   6.073   1.123
 7377SOL    HW223031   4.591   6.020   1.275
 7378SOL     OW23032   0.993   1.256   6.251
 7378SOL    HW123033   0.972   1.163   6.283
 7378SOL    HW223034   1.092   1.269   6.249
 7379SOL     OW23035   4.683   0.955   0.009
 7379SOL    HW123036   4.601   0.933   6.973
 7379SOL    HW223037   4.693   1.054   0.017
 7380SOL     OW23038   0.307   3.227   6.468
 7380SOL    HW123039   0.351   3.317   6.466
 7380SOL    HW223040   0.211   3.238   6.494
 7381SOL     OW23041   5.662   2.952   0.869
 7381SOL    HW123042   5.596   2.890   0.826
 7381SOL    HW223043   5.710   3.003   0.798
 7382SOL     OW23044   0.706   5.886   3.861
 7382SOL    HW123045   0.769   5.841   3.925
 7382SOL    HW223046   0.682   5.822   3.788
 7383SOL     OW23047   1.727   4.884   2.055
 7383SOL    HW123048   1.644   4.828   2.070
 7383SOL    HW223049   1.806   4.824   2.045
 7384SOL     OW23050   5.912   0.987   1.610
 7384SOL    HW123051   5.950   0.955   1.697
 7384SOL    HW223052   5.820   0.949   1.599
 7385SOL     OW23053   5.254   6.898   2.255
 7385SOL    HW123054   5.186   6.843   2.302
 7385SOL    HW223055   5.213   6.985   2.227
 7386SOL     OW23056   5.902   1.690   5.327
 7386SOL    HW123057   5.912   1.765   5.392
 7386SOL    HW223058   5.806   1.661   5.325
 7387SOL     OW23059   5.168   5.619   4.434
 7387SOL    HW123060   5.144   5.543   4.374
 7387SOL    HW223061   5.244   5.670   4.395
 7388SOL     OW23062   4.892   3.762   4.138
 7388SOL    HW123063   4.881   3.664   4.119
 7388SOL    HW223064   4.923   3.808   4.055
 7389SOL     OW23065   2.327   3.742   5.775
 7389SOL    HW123066   2.371   3.804   5.710
 7389SOL    HW223067   2.396   3.698   5.832
 7390SOL     OW23068   4.283   5.936   0.790
 7390SOL    HW123069   4.190   5.903   0.776
 7390SOL    HW223070   4.308   5.925   0.887
 7391SOL     OW23071   7.001   4.955   0.907
 7391SOL    HW123072   6.937   4.887   0.942
 7391SOL    HW223073   0.069   4.954   0.962
 7392SOL     OW23074   1.347   4.557   1.542
 7392SOL    HW123075   1.349   4.580   1.445
 7392SOL    HW223076   1.272   4.493   1.559
 7393SOL     OW23077   1.504   3.933   0.518
 7393SOL    HW123078   1.424   3.971   0.564
 7393SOL    HW223079   1.525   3.988   0.437
 7394SOL     OW23080   2.877   4.290   6.866
 7394SOL    HW123081   2.848   4.195   6.853
 7394SOL    HW223082   2.931   4.320   6.788
 7395SOL     OW23083   2.482   0.020   0.709
 7395SOL    HW123084   2.517   7.010   0.799
 7395SOL    HW223085   2.444   0.112   0.713
 7396SOL     OW23086   6.812   6.730   2.206
 7396SOL    HW123087   6.892   6.687   2.247
 7396SOL    HW223088   6.730   6.679   2.233
 7397SOL     OW23089   5.849   4.008   3.987
 7397SOL    HW123090   5.779   3.981   4.053
 7397SOL    HW223091   5.862   4.107   3.990
 7398SOL     OW23092   4.122   5.456   3.120
 7398SOL    HW123093   4.093   5.415   3.207
 7398SOL    HW223094   4.072   5.412   3.045
 7399SOL     OW23095   4.862   6.515   4.051
 7399SOL    HW123096   4.940   6.555   4.004
 7399SOL    HW223097   4.894   6.455   4.124
 7400SOL     OW23098   2.677   4.723   6.701
 7400SOL    HW123099   2.638   4.647   6.753
 7400SOL    HW223100   2.706   4.794   6.765
 7401SOL     OW23101   6.458   2.889   3.735
 7401SOL    HW123102   6.530   2.954   3.759
 7401SOL    HW223103   6.499   2.801   3.710
 7402SOL     OW23104   1.574   6.000   5.204
 7402SOL    HW123105   1.542   5.935   5.272
 7402SOL    HW223106   1.599   6.086   5.248
 7403SOL     OW23107   2.081   3.015   1.543
 7403SOL    HW123108   1.996   3.021   1.594
 7403SOL    HW223109   2.068   2.956   1.463
 7404SOL     OW23110   1.430   2.998   2.944
 7404SOL    HW123111   1.386   3.069   2.999
 7404SOL    HW223112   1.436   2.914   2.997
 7405SOL     OW23113   3.585   5.568   6.007
 7405SOL    HW123114   3.635   5.650   6.032
 7405SOL    HW223115   3.494   5.592   5.976
 7406SOL     OW23116   5.696   5.775   2.888
 7406SOL    HW123117   5.617   5.823   2.927
 7406SOL    HW223118   5.701   5.796   2.790
 7407SOL     OW23119   3.946   1.715   5.910
 7407SOL    HW123120   4.041   1.705   5.882
 7407SOL    HW223121   3.912   1.806   5.886
 7408SOL     OW23122   0.712   3.482   5.129
 7408SOL    HW123123   0.631   3.483   5.188
 7408SOL    HW223124   0.692   3.531   5.044
 7409SOL     OW23125   2.013   0.107   4.458
 7409SOL    HW123126   1.992   0.205   4.457
 7409SOL    HW223127   1.938   0.058   4.414
 7410SOL     OW23128   4.064   5.387   5.808
 7410SOL    HW123129   3.982   5.331   5.803
 7410SOL    HW223130   4.095   5.409   5.716
 7411SOL     OW23131   5.935   3.265   5.645
 7411SOL    HW123132   5.966   3.347   5.598
 7411SOL    HW223133   5.841   3.243   5.617
 7412SOL     OW23134   1.275   0.883   0.113
 7412SOL    HW123135   1.192   0.930   0.085
 7412SOL    HW223136   1.264   0.785   0.102
 7413SOL     OW23137   6.537   3.826   3.174
 7413SOL    HW123138   6.447   3.845   3.135
 7413SOL    HW223139   6.585   3.912   3.191
 7414SOL     OW23140   0.316   5.318   2.375
 7414SOL    HW123141   0.324   5.327   2.275
 7414SOL    HW223142   0.305   5.408   2.416
 7415SOL     OW23143   2.806   1.495   3.482
 7415SOL    HW123144   2.708   1.512   3.471
 7415SOL    HW223145   2.822   1.453   3.571
 7416SOL     OW23146   6.462   0.758   2.175
 7416SOL    HW123147   6.467   0.788   2.079
 7416SOL    HW223148   6.466   0.838   2.235
 7417SOL     OW23149   0.001   5.400   1.832
 7417SOL    HW123150   0.046   5.483   1.800
 7417SOL    HW223151   6.938   5.380   1.775
 7418SOL     OW23152   2.109   3.421   0.758
 7418SOL    HW123153   2.093   3.503   0.814
 7418SOL    HW223154   2.149   3.350   0.815
 7419SOL     OW23155   6.129   1.926   5.584
 7419SOL    HW123156   6.172   2.012   5.555
 7419SOL    HW223157   6.198   1.854   5.589
 7420SOL     OW23158   0.671   6.665   1.856
 7420SOL    HW123159   0.695   6.757   1.886
 7420SOL    HW223160   0.687   6.601   1.931
 7421SOL     OW23161   4.866   2.116   1.017
 7421SOL    HW123162   4.947   2.072   1.056
 7421SOL    HW223163   4.839   2.193   1.075
 7422SOL     OW23164   1.757   1.681   0.279
 7422SOL    HW123165   1.741   1.585   0.301
 7422SOL    HW223166   1.677   1.735   0.304
 7423SOL     OW23167   3.060   4.158   0.619
 7423SOL    HW123168   2.988   4.222   0.644
 7423SOL    HW223169   3.146   4.207   0.609
 7424SOL     OW23170   5.218   6.378   3.529
 7424SOL    HW123171   5.187   6.286   3.504
 7424SOL    HW223172   5.304   6.398   3.482
 7425SOL     OW23173   4.027   6.811   5.085
 7425SOL    HW123174   4.102   6.803   5.020
 7425SOL    HW223175   4.063   6.835   5.175
 7426SOL     OW23176   0.085   0.253   6.421
 7426SOL    HW123177   0.147   0.246   6.343
 7426SOL    HW223178   0.021   0.328   6.406
 7427SOL     OW23179   5.176   5.023   6.333
 7427SOL    HW123180   5.090   5.019   6.281
 7427SOL    HW223181   5.155   5.038   6.430
 7428SOL     OW23182   5.640   1.619   5.236
 7428SOL    HW123183   5.688   1.549   5.183
 7428SOL    HW223184   5.542   1.612   5.219
 7429SOL     OW23185   5.742   6.424   3.065
 7429SOL    HW123186   5.752   6.435   3.164
 7429SOL    HW223187   5.658   6.372   3.046
 7430SOL     OW23188   0.533   4.255   4.376
 7430SOL    HW123189   0.590   4.323   4.422
 7430SOL    HW223190   0.591   4.197   4.319
 7431SOL     OW23191   6.959   3.820   2.966
 7431SOL    HW123192   6.941   3.730   3.006
 7431SOL    HW223193   0.041   3.831   2.952
 7432SOL     OW23194   2.127   6.182   5.874
 7432SOL    HW123195   2.049   6.143   5.826
 7432SOL    HW223196   2.197   6.112   5.888
 7433SOL     OW23197   0.899   6.779   0.766
 7433SOL    HW123198   0.959   6.776   0.687
 7433SOL    HW223199   0.812   6.735   0.744
 7434SOL     OW23200   4.473   6.990   0.716
 7434SOL    HW123201   4.468   0.032   0.634
 7434SOL    HW223202   4.557   7.011   0.766
 7435SOL     OW23203   0.859   4.281   6.867
 7435SOL    HW123204   0.870   4.368   6.916
 7435SOL    HW223205   0.878   4.205   6.930
 7436SOL     OW23206   5.113   3.697   6.537
 7436SOL    HW123207   5.186   3.730   6.596
 7436SOL    HW223208   5.144   3.698   6.442
 7437SOL     OW23209   6.508   6.656   5.685
 7437SOL    HW123210   6.607   6.669   5.679
 7437SOL    HW223211   6.485   6.617   5.774
 7438SOL     OW23212   6.739   3.858   0.956
 7438SOL    HW123213   6.639   3.861   0.967
 7438SOL    HW223214   6.778   3.799   1.026
 7439SOL     OW23215   1.677   6.380   2.369
 7439SOL    HW123216   1.688   6.305   2.434
 7439SOL    HW223217   1.762   6.391   2.317
 7440SOL     OW23218   1.473   0.623   4.642
 7440SOL    HW123219   1.503   0.678   4.565
 7440SOL    HW223220   1.415   0.548   4.609
 7441SOL     OW23221   0.032   0.991   3.341
 7441SOL    HW123222   6.970   1.030   3.390
 7441SOL    HW223223   0.034   0.892   3.354
 7442SOL     OW23224   1.783   0.822   0.110
 7442SOL    HW123225   1.804   0.754   0.181
 7442SOL    HW223226   1.692   0.805   0.072
 7443SOL     OW23227   5.975   1.295   1.302
 7443SOL    HW123228   5.931   1.375   1.343
 7443SOL    HW223229   5.999   1.229   1.374
 7444SOL     OW23230   2.062   2.792   4.758
 7444SOL    HW123231   2.150   2.835   4.774
 7444SOL    HW223232   2.021   2.767   4.846
 7445SOL     OW23233   6.048   2.777   2.465
 7445SOL    HW123234   6.118   2.830   2.418
 7445SOL    HW223235   6.066   2.778   2.564
 7446SOL     OW23236   4.661   4.363   2.510
 7446SOL    HW123237   4.729   4.422   2.466
 7446SOL    HW223238   4.673   4.365   2.609
 7447SOL     OW23239   1.668   3.080   5.969
 7447SOL    HW123240   1.718   3.128   6.041
 7447SOL    HW223241   1.570   3.097   5.979
 7448SOL     OW23242   6.976   1.175   5.476
 7448SOL    HW123243   0.022   1.189   5.399
 7448SOL    HW223244   6.991   1.084   5.515
 7449SOL     OW23245   3.028   1.217   2.933
 7449SOL    HW123246   3.021   1.173   3.023
 7449SOL    HW223247   3.017   1.316   2.943
 7450SOL     OW23248   3.891   2.102   1.883
 7450SOL    HW123249   3.963   2.171   1.893
 7450SOL    HW223250   3.803   2.142   1.909
 7451SOL     OW23251   0.998   0.762   1.633
 7451SOL    HW123252   1.075   0.744   1.694
 7451SOL    HW223253   0.916   0.781   1.687
 7452SOL     OW23254   1.978   5.567   2.951
 7452SOL    HW123255   2.012   5.519   3.032
 7452SOL    HW223256   2.015   5.661   2.951
 7453SOL     OW23257   6.175   4.434   4.604
 7453SOL    HW123258   6.238   4.509   4.623
 7453SOL    HW223259   6.172   4.417   4.506
 7454SOL     OW23260   2.828   2.151   7.009
 7454SOL    HW123261   2.779   2.181   0.074
 7454SOL    HW223262   2.781   2.072   6.968
 7455SOL     OW23263   4.802   0.102   0.503
 7455SOL    HW123264   4.868   0.032   0.529
 7455SOL    HW223265   4.850   0.179   0.461
 7456SOL     OW23266   2.094   3.115   6.438
 7456SOL    HW123267   2.068   3.207   6.410
 7456SOL    HW223268   2.169   3.119   6.504
 7457SOL     OW23269   0.645   6.723   5.407
 7457SOL    HW123270   0.743   6.741   5.407
 7457SOL    HW223271   0.597   6.801   5.446
 7458SOL     OW23272   2.979   0.635   2.071
 7458SOL    HW123273   2.895   0.583   2.057
 7458SOL    HW223274   3.001   0.686   1.988
 7459SOL     OW23275   3.706   5.269   3.680
 7459SOL    HW123276   3.791   5.263   3.733
 7459SOL    HW223277   3.705   5.355   3.628
 7460SOL     OW23278   1.281   4.539   6.308
 7460SOL    HW123279   1.265   4.440   6.309
 7460SOL    HW223280   1.318   4.565   6.219
 7461SOL     OW23281   3.414   1.709   4.194
 7461SOL    HW123282   3.362   1.629   4.167
 7461SOL    HW223283   3.419   1.773   4.117
 7462SOL     OW23284   1.459   2.504   4.140
 7462SOL    HW123285   1.472   2.475   4.045
 7462SOL    HW223286   1.373   2.553   4.148
 7463SOL     OW23287   4.081   3.497   2.446
 7463SOL    HW123288   4.149   3.439   2.491
 7463SOL    HW223289   4.077   3.585   2.493
 7464SOL     OW23290   4.356   5.414   0.714
 7464SOL    HW123291   4.452   5.439   0.707
 7464SOL    HW223292   4.334   5.392   0.809
 7465SOL     OW23293   2.806   1.186   2.560
 7465SOL    HW123294   2.797   1.089   2.536
 7465SOL    HW223295   2.892   1.201   2.607
 7466SOL     OW23296   0.414   6.269   0.740
 7466SOL    HW123297   0.323   6.291   0.706
 7466SOL    HW223298   0.427   6.312   0.829
 7467SOL     OW23299   4.219   2.566   0.709
 7467SOL    HW123300   4.317   2.567   0.728
 7467SOL    HW223301   4.173   2.505   0.774
 7468SOL     OW23302   5.169   5.044   4.590
 7468SOL    HW123303   5.182   5.018   4.686
 7468SOL    HW223304   5.093   4.991   4.552
 7469SOL     OW23305   5.197   2.363   0.530
 7469SOL    HW123306   5.223   2.274   0.490
 7469SOL    HW223307   5.154   2.348   0.619
 7470SOL     OW23308   0.822   3.813   3.151
 7470SOL    HW123309   0.877   3.762   3.085
 7470SOL    HW223310   0.883   3.864   3.212
 7471SOL     OW23311   6.507   4.206   6.007
 7471SOL    HW123312   6.557   4.131   5.963
 7471SOL    HW223313   6.559   4.291   5.997
 7472SOL     OW23314   4.058   5.790   2.916
 7472SOL    HW123315   3.966   5.765   2.944
 7472SOL    HW223316   4.108   5.708   2.888
 7473SOL     OW23317   1.794   2.216   6.158
 7473SOL    HW123318   1.831   2.155   6.088
 7473SOL    HW223319   1.793   2.169   6.246
 7474SOL     OW23320   2.450   1.339   2.092
 7474SOL    HW123321   2.446   1.374   1.998
 7474SOL    HW223322   2.359   1.342   2.132
 7475SOL     OW23323   5.335   1.124   6.338
 7475SOL    HW123324   5.395   1.147   6.262
 7475SOL    HW223325   5.354   1.184   6.416
 7476SOL     OW23326   1.840   6.605   4.709
 7476SOL    HW123327   1.753   6.635   4.746
 7476SOL    HW223328   1.867   6.663   4.633
 7477SOL     OW23329   4.819   3.983   4.945
 7477SOL    HW123330   4.722   3.998   4.962
 7477SOL    HW223331   4.872   4.061   4.979
 7478SOL     OW23332   6.669   4.282   1.207
 7478SOL    HW123333   6.684   4.202   1.149
 7478SOL    HW223334   6.574   4.283   1.238
 7479SOL     OW23335   3.753   0.112   4.612
 7479SOL    HW123336   3.813   0.182   4.574
 7479SOL    HW223337   3.750   0.033   4.552
 7480SOL     OW23338   5.842   4.854   0.067
 7480SOL    HW123339   5.866   4.897   0.155
 7480SOL    HW223340   5.793   4.920   0.010
 7481SOL     OW23341   5.427   6.672   0.471
 7481SOL    HW123342   5.488   6.737   0.425
 7481SOL    HW223343   5.481   6.612   0.530
 7482SOL     OW23344   4.918   0.494   5.084
 7482SOL    HW123345   4.907   0.500   5.183
 7482SOL    HW223346   5.012   0.517   5.059
 7483SOL     OW23347   3.885   0.057   6.465
 7483SOL    HW123348   3.785   0.069   6.465
 7483SOL    HW223349   3.929   0.141   6.498
 7484SOL     OW23350   3.182   6.285   0.456
 7484SOL    HW123351   3.146   6.193   0.472
 7484SOL    HW223352   3.253   6.306   0.524
 7485SOL     OW23353   1.170   0.197   5.332
 7485SOL    HW123354   1.160   0.288   5.373
 7485SOL    HW223355   1.095   0.138   5.363
 7486SOL     OW23356   1.729   2.442   5.327
 7486SOL    HW123357   1.668   2.380   5.376
 7486SOL    HW223358   1.811   2.459   5.381
 7487SOL     OW23359   2.194   6.318   2.295
 7487SOL    HW123360   2.240   6.251   2.237
 7487SOL    HW223361   2.234   6.408   2.281
 7488SOL     OW23362   4.433   2.100   4.735
 7488SOL    HW123363   4.509   2.151   4.775
 7488SOL    HW223364   4.349   2.154   4.743
 7489SOL     OW23365   1.197   3.553   3.261
 7489SOL    HW123366   1.102   3.523   3.254
 7489SOL    HW223367   1.227   3.550   3.356
 7490SOL     OW23368   5.503   0.466   2.538
 7490SOL    HW123369   5.516   0.406   2.617
 7490SOL    HW223370   5.570   0.444   2.468
 7491SOL     OW23371   0.988   0.130   1.191
 7491SOL    HW123372   1.055   0.089   1.130
 7491SOL    HW223373   0.896   0.118   1.152
 7492SOL     OW23374   1.512   2.431   2.768
 7492SOL    HW123375   1.513   2.423   2.668
 7492SOL    HW223376   1.605   2.432   2.802
 7493SOL     OW23377   5.887   3.933   0.199
 7493SOL    HW123378   5.900   4.007   0.265
 7493SOL    HW223379   5.798   3.942   0.155
 7494SOL     OW23380   5.120   2.303   0.781
 7494SOL    HW123381   5.177   2.225   0.805
 7494SOL    HW223382   5.121   2.370   0.856
 7495SOL     OW23383   1.397   1.796   3.328
 7495SOL    HW123384   1.384   1.850   3.245
 7495SOL    HW223385   1.315   1.803   3.386
 7496SOL     OW23386   0.110   5.047   6.021
 7496SOL    HW123387   0.201   5.006   6.016
 7496SOL    HW223388   0.118   5.143   6.046
 7497SOL     OW23389   0.515   4.323   3.033
 7497SOL    HW123390   0.584   4.292   3.098
 7497SOL    HW223391   0.486   4.247   2.976
 7498SOL     OW23392   4.975   1.531   4.171
 7498SOL    HW123393   4.876   1.523   4.181
 7498SOL    HW223394   5.017   1.441   4.187
 7499SOL     OW23395   3.245   4.954   3.781
 7499SOL    HW123396   3.230   5.024   3.712
 7499SOL    HW223397   3.339   4.918   3.772
 7500SOL     OW23398   5.041   3.898   1.882
 7500SOL    HW123399   5.135   3.906   1.916
 7500SOL    HW223400   4.987   3.975   1.914
 7501SOL     OW23401   1.044   4.547   3.804
 7501SOL    HW123402   0.951   4.513   3.819
 7501SOL    HW223403   1.110   4.482   3.843
 7502SOL     OW23404   1.201   1.897   4.865
 7502SOL    HW123405   1.254   1.839   4.804
 7502SOL    HW223406   1.255   1.977   4.891
 7503SOL     OW23407   2.402   2.325   0.812
 7503SOL    HW123408   2.311   2.290   0.831
 7503SOL    HW223409   2.470   2.259   0.846
 7504SOL     OW23410   5.506   4.997   6.073
 7504SOL    HW123411   5.441   4.928   6.040
 7504SOL    HW223412   5.455   5.078   6.103
 7505SOL     OW23413   1.481   1.690   3.027
 7505SOL    HW123414   1.462   1.754   3.101
 7505SOL    HW223415   1.471   1.596   3.060
 7506SOL     OW23416   3.733   0.573   2.945
 7506SOL    HW123417   3.819   0.522   2.945
 7506SOL    HW223418   3.712   0.602   2.852
 7507SOL     OW23419   1.644   6.362   5.008
 7507SOL    HW123420   1.641   6.426   4.930
 7507SOL    HW223421   1.638   6.414   5.093
 7508SOL     OW23422   4.920   5.788   3.264
 7508SOL    HW123423   4.908   5.700   3.310
 7508SOL    HW223424   4.991   5.781   3.195
 7509SOL     OW23425   2.576   4.398   6.563
 7509SOL    HW123426   2.542   4.472   6.505
 7509SOL    HW223427   2.593   4.432   6.655
 7510SOL     OW23428   3.739   2.879   4.310
 7510SOL    HW123429   3.766   2.850   4.402
 7510SOL    HW223430   3.703   2.972   4.313
 7511SOL     OW23431   1.336   1.371   1.927
 7511SOL    HW123432   1.317   1.279   1.892
 7511SOL    HW223433   1.251   1.411   1.962
 7512SOL     OW23434   1.830   2.969   2.674
 7512SOL    HW123435   1.790   3.022   2.749
 7512SOL    HW223436   1.925   2.948   2.696
 7513SOL     OW23437   2.466   3.064   6.902
 7513SOL    HW123438   2.387   3.112   6.941
 7513SOL    HW223439   2.529   3.037   6.975
 7514SOL     OW23440   3.028   5.253   3.027
 7514SOL    HW123441   2.990   5.260   2.935
 7514SOL    HW223442   3.066   5.161   3.040
 7515SOL     OW23443   6.628   5.425   3.525
 7515SOL    HW123444   6.714   5.389   3.489
 7515SOL    HW223445   6.585   5.484   3.456
 7516SOL     OW23446   1.435   3.428   1.194
 7516SOL    HW123447   1.340   3.422   1.223
 7516SOL    HW223448   1.449   3.511   1.141
 7517SOL     OW23449   1.375   5.592   2.536
 7517SOL    HW123450   1.330   5.589   2.447
 7517SOL    HW223451   1.469   5.624   2.526
 7518SOL     OW23452   5.006   3.702   2.134
 7518SOL    HW123453   4.999   3.664   2.042
 7518SOL    HW223454   4.935   3.772   2.147
 7519SOL     OW23455   1.933   0.641   4.704
 7519SOL    HW123456   2.023   0.670   4.738
 7519SOL    HW223457   1.894   0.713   4.648
 7520SOL     OW23458   1.857   0.246   4.116
 7520SOL    HW123459   1.803   0.190   4.178
 7520SOL    HW223460   1.797   0.283   4.045
 7521SOL     OW23461   4.070   2.728   5.739
 7521SOL    HW123462   4.048   2.826   5.740
 7521SOL    HW223463   4.145   2.712   5.674
 7522SOL     OW23464   1.865   6.589   2.150
 7522SOL    HW123465   1.911   6.503   2.172
 7522SOL    HW223466   1.844   6.592   2.052
 7523SOL     OW23467   6.529   5.987   6.164
 7523SOL    HW123468   6.584   6.055   6.214
 7523SOL    HW223469   6.434   6.017   6.161
 7524SOL     OW23470   6.482   1.909   6.087
 7524SOL    HW123471   6.557   1.942   6.029
 7524SOL    HW223472   6.469   1.811   6.073
 7525SOL     OW23473   0.278   6.956   0.437
 7525SOL    HW123474   0.346   0.012   0.444
 7525SOL    HW223475   0.268   6.929   0.341
 7526SOL     OW23476   4.079   3.329   5.250
 7526SOL    HW123477   4.010   3.307   5.181
 7526SOL    HW223478   4.067   3.270   5.330
 7527SOL     OW23479   2.215   6.452   1.482
 7527SOL    HW123480   2.207   6.466   1.384
 7527SOL    HW223481   2.160   6.372   1.509
 7528SOL     OW23482   6.168   1.840   0.521
 7528SOL    HW123483   6.247   1.838   0.582
 7528SOL    HW223484   6.085   1.822   0.574
 7529SOL     OW23485   1.051   0.133   4.092
 7529SOL    HW123486   1.072   0.222   4.051
 7529SOL    HW223487   1.094   0.127   4.182
 7530SOL     OW23488   0.317   3.291   2.955
 7530SOL    HW123489   0.413   3.292   2.926
 7530SOL    HW223490   0.270   3.371   2.917
 7531SOL     OW23491   1.613   2.612   4.343
 7531SOL    HW123492   1.559   2.560   4.277
 7531SOL    HW223493   1.553   2.652   4.412
 7532SOL     OW23494   4.566   4.421   2.242
 7532SOL    HW123495   4.555   4.404   2.340
 7532SOL    HW223496   4.537   4.341   2.190
 7533SOL     OW23497   3.784   6.973   5.101
 7533SOL    HW123498   3.787   6.876   5.127
 7533SOL    HW223499   3.823   6.984   5.010
 7534SOL     OW23500   4.346   6.742   4.191
 7534SOL    HW123501   4.252   6.731   4.223
 7534SOL    HW223502   4.371   6.839   4.195
 7535SOL     OW23503   3.026   4.403   6.645
 7535SOL    HW123504   2.959   4.382   6.574
 7535SOL    HW223505   3.118   4.380   6.614
 7536SOL     OW23506   4.566   5.119   6.672
 7536SOL    HW123507   4.642   5.100   6.733
 7536SOL    HW223508   4.548   5.039   6.614
 7537SOL     OW23509   2.109   4.600   4.651
 7537SOL    HW123510   2.056   4.579   4.569
 7537SOL    HW223511   2.055   4.660   4.711
 7538SOL     OW23512   3.390   4.044   5.420
 7538SOL    HW123513   3.454   4.028   5.345
 7538SOL    HW223514   3.373   4.143   5.428
 7539SOL     OW23515   1.433   3.055   4.416
 7539SOL    HW123516   1.527   3.089   4.415
 7539SOL    HW223517   1.397   3.060   4.509
 7540SOL     OW23518   2.956   0.983   0.111
 7540SOL    HW123519   3.044   0.954   0.151
 7540SOL    HW223520   2.921   1.061   0.163
 7541SOL     OW23521   0.510   2.032   6.095
 7541SOL    HW123522   0.472   2.103   6.035
 7541SOL    HW223523   0.562   1.967   6.039
 7542SOL     OW23524   1.894   0.493   4.480
 7542SOL    HW123525   1.828   0.417   4.480
 7542SOL    HW223526   1.908   0.525   4.573
 7543SOL     OW23527   2.566   2.506   1.794
 7543SOL    HW123528   2.556   2.534   1.890
 7543SOL    HW223529   2.638   2.437   1.787
 7544SOL     OW23530   1.153   2.573   2.459
 7544SOL    HW123531   1.103   2.638   2.401
 7544SOL    HW223532   1.089   2.523   2.516
 7545SOL     OW23533   3.756   0.491   4.116
 7545SOL    HW123534   3.702   0.474   4.033
 7545SOL    HW223535   3.848   0.454   4.104
 7546SOL     OW23536   5.031   6.651   4.577
 7546SOL    HW123537   4.941   6.608   4.588
 7546SOL    HW223538   5.062   6.686   4.665
 7547SOL     OW23539   1.853   6.523   0.553
 7547SOL    HW123540   1.872   6.584   0.475
 7547SOL    HW223541   1.756   6.498   0.552
 7548SOL     OW23542   2.682   4.139   0.760
 7548SOL    HW123543   2.726   4.051   0.776
 7548SOL    HW223544   2.582   4.126   0.761
 7549SOL     OW23545   6.059   6.989   2.364
 7549SOL    HW123546   5.998   6.922   2.406
 7549SOL    HW223547   6.093   0.035   2.434
 7550SOL     OW23548   1.070   5.598   0.593
 7550SOL    HW123549   1.154   5.550   0.566
 7550SOL    HW223550   0.993   5.535   0.589
 7551SOL     OW23551   4.897   3.640   5.907
 7551SOL    HW123552   4.975   3.645   5.845
 7551SOL    HW223553   4.886   3.546   5.940
 7552SOL     OW23554   3.583   5.735   4.851
 7552SOL    HW123555   3.527   5.769   4.926
 7552SOL    HW223556   3.671   5.782   4.851
 7553SOL     OW23557   4.135   4.184   5.672
 7553SOL    HW123558   4.071   4.130   5.617
 7553SOL    HW223559   4.152   4.271   5.627
 7554SOL     OW23560   6.549   1.035   0.752
 7554SOL    HW123561   6.630   1.075   0.708
 7554SOL    HW223562   6.563   1.031   0.851
 7555SOL     OW23563   2.532   6.843   6.623
 7555SOL    HW123564   2.484   6.803   6.701
 7555SOL    HW223565   2.548   6.773   6.554
 7556SOL     OW23566   0.231   3.856   2.906
 7556SOL    HW123567   0.236   3.922   2.831
 7556SOL    HW223568   0.293   3.779   2.887
 7557SOL     OW23569   4.744   4.242   0.782
 7557SOL    HW123570   4.803   4.256   0.861
 7557SOL    HW223571   4.661   4.297   0.792
 7558SOL     OW23572   1.315   3.719   3.779
 7558SOL    HW123573   1.383   3.766   3.834
 7558SOL    HW223574   1.313   3.622   3.802
 7559SOL     OW23575   0.693   4.883   0.228
 7559SOL    HW123576   0.696   4.910   0.324
 7559SOL    HW223577   0.775   4.829   0.206
 7560SOL     OW23578   4.415   0.114   5.887
 7560SOL    HW123579   4.462   0.087   5.971
 7560SOL    HW223580   4.351   0.041   5.860
 7561SOL     OW23581   1.684   2.665   0.505
 7561SOL    HW123582   1.617   2.669   0.431
 7561SOL    HW223583   1.763   2.611   0.477
 7562SOL     OW23584   4.399   6.002   4.991
 7562SOL    HW123585   4.435   5.909   4.998
 7562SOL    HW223586   4.464   6.058   4.940
 7563SOL     OW23587   2.122   1.620   3.576
 7563SOL    HW123588   2.125   1.580   3.668
 7563SOL    HW223589   2.064   1.563   3.517
 7564SOL     OW23590   6.346   5.665   3.985
 7564SOL    HW123591   6.360   5.721   4.066
 7564SOL    HW223592   6.342   5.723   3.904
 7565SOL     OW23593   4.841   4.875   6.556
 7565SOL    HW123594   4.751   4.857   6.595
 7565SOL    HW223595   4.848   4.833   6.466
 7566SOL     OW23596   1.610   5.679   3.587
 7566SOL    HW123597   1.678   5.606   3.593
 7566SOL    HW223598   1.642   5.759   3.638
 7567SOL     OW23599   2.774   4.082   0.103
 7567SOL    HW123600   2.826   4.025   0.039
 7567SOL    HW223601   2.834   4.112   0.178
 7568SOL     OW23602   4.214   4.796   4.220
 7568SOL    HW123603   4.308   4.813   4.247
 7568SOL    HW223604   4.153   4.809   4.298
 7569SOL     OW23605   3.572   0.214   2.872
 7569SOL    HW123606   3.630   0.265   2.808
 7569SOL    HW223607   3.577   0.117   2.851
 7570SOL     OW23608   6.368   5.309   5.006
 7570SOL    HW123609   6.285   5.272   4.965
 7570SOL    HW223610   6.357   5.407   5.022
 7571SOL     OW23611   6.735   4.416   0.584
 7571SOL    HW123612   6.784   4.485   0.637
 7571SOL    HW223613   6.789   4.332   0.581
 7572SOL     OW23614   6.007   1.485   3.711
 7572SOL    HW123615   5.991   1.394   3.749
 7572SOL    HW223616   6.047   1.544   3.782
 7573SOL     OW23617   2.907   5.144   3.777
 7573SOL    HW123618   2.840   5.191   3.835
 7573SOL    HW223619   3.000   5.163   3.811
 7574SOL     OW23620   3.949   6.005   1.410
 7574SOL    HW123621   3.916   6.071   1.477
 7574SOL    HW223622   3.919   5.913   1.435
 7575SOL     OW23623   4.830   3.275   3.913
 7575SOL    HW123624   4.910   3.224   3.884
 7575SOL    HW223625   4.786   3.229   3.990
 7576SOL     OW23626   0.223   4.580   1.822
 7576SOL    HW123627   0.274   4.511   1.874
 7576SOL    HW223628   0.180   4.538   1.742
 7577SOL     OW23629   3.913   1.426   4.097
 7577SOL    HW123630   3.852   1.382   4.163
 7577SOL    HW223631   3.888   1.523   4.088
 7578SOL     OW23632   2.018   5.260   5.873
 7578SOL    HW123633   1.952   5.185   5.876
 7578SOL    HW223634   2.093   5.236   5.811
 7579SOL     OW23635   4.356   2.292   4.484
 7579SOL    HW123636   4.428   2.263   4.422
 7579SOL    HW223637   4.271   2.245   4.461
 7580SOL     OW23638   1.661   3.368   2.617
 7580SOL    HW123639   1.673   3.415   2.530
 7580SOL    HW223640   1.737   3.305   2.632
 7581SOL     OW23641   5.779   0.871   1.144
 7581SOL    HW123642   5.697   0.888   1.198
 7581SOL    HW223643   5.822   0.958   1.120
 7582SOL     OW23644   4.067   3.583   1.669
 7582SOL    HW123645   4.024   3.602   1.581
 7582SOL    HW223646   4.005   3.526   1.724
 7583SOL     OW23647   6.158   3.910   3.579
 7583SOL    HW123648   6.096   3.933   3.654
 7583SOL    HW223649   6.248   3.951   3.596
 7584SOL     OW23650   2.071   2.694   2.221
 7584SOL    HW123651   2.030   2.785   2.229
 7584SOL    HW223652   2.171   2.703   2.226
 7585SOL     OW23653   3.111   3.935   0.452
 7585SOL    HW123654   3.062   4.008   0.499
 7585SOL    HW223655   3.183   3.975   0.396
 7586SOL     OW23656   1.328   2.790   3.120
 7586SOL    HW123657   1.267   2.713   3.103
 7586SOL    HW223658   1.287   2.850   3.189
 7587SOL     OW23659   3.020   0.577   5.417
 7587SOL    HW123660   3.040   0.601   5.512
 7587SOL    HW223661   3.049   0.483   5.399
 7588SOL     OW23662   0.184   4.446   1.568
 7588SOL    HW123663   0.182   4.454   1.468
 7588SOL    HW223664   0.267   4.397   1.595
 7589SOL     OW23665   4.436   5.513   6.136
 7589SOL    HW123666   4.339   5.494   6.121
 7589SOL    HW223667   4.488   5.428   6.128
 7590SOL     OW23668   2.350   0.876   4.999
 7590SOL    HW123669   2.393   0.826   4.924
 7590SOL    HW223670   2.397   0.856   5.084
 7591SOL     OW23671   6.768   5.784   6.181
 7591SOL    HW123672   6.813   5.873   6.186
 7591SOL    HW223673   6.674   5.796   6.148
 7592SOL     OW23674   4.615   4.674   6.147
 7592SOL    HW123675   4.529   4.640   6.184
 7592SOL    HW223676   4.596   4.744   6.078
 7593SOL     OW23677   6.676   4.760   0.158
 7593SOL    HW123678   6.665   4.681   0.098
 7593SOL    HW223679   6.702   4.840   0.104
 7594SOL     OW23680   1.089   0.286   4.695
 7594SOL    HW123681   1.026   0.333   4.757
 7594SOL    HW223682   1.083   0.187   4.711
 7595SOL     OW23683   0.121   4.048   6.746
 7595SOL    HW123684   0.133   3.949   6.734
 7595SOL    HW223685   0.074   4.065   6.833
 7596SOL     OW23686   5.515   5.255   2.303
 7596SOL    HW123687   5.427   5.238   2.349
 7596SOL    HW223688   5.532   5.353   2.300
 7597SOL     OW23689   2.174   4.707   2.807
 7597SOL    HW123690   2.186   4.699   2.708
 7597SOL    HW223691   2.249   4.661   2.854
 7598SOL     OW23692   6.715   1.449   2.468
 7598SOL    HW123693   6.723   1.491   2.377
 7598SOL    HW223694   6.730   1.519   2.538
 7599SOL     OW23695   5.532   3.871   1.841
 7599SOL    HW123696   5.615   3.883   1.895
 7599SOL    HW223697   5.553   3.815   1.760
 7600SOL     OW23698   2.050   2.654   2.549
 7600SOL    HW123699   1.959   2.639   2.589
 7600SOL    HW223700   2.087   2.568   2.517
 7601SOL     OW23701   2.153   0.770   5.383
 7601SOL    HW123702   2.120   0.685   5.341
 7601SOL    HW223703   2.079   0.837   5.384
 7602SOL     OW23704   2.121   2.812   5.266
 7602SOL    HW123705   2.021   2.811   5.262
 7602SOL    HW223706   2.157   2.846   5.179
 7603SOL     OW23707   6.165   1.364   2.404
 7603SOL    HW123708   6.116   1.443   2.367
 7603SOL    HW223709   6.243   1.344   2.345
 7604SOL     OW23710   5.773   5.532   6.589
 7604SOL    HW123711   5.811   5.497   6.675
 7604SOL    HW223712   5.731   5.621   6.604
 7605SOL     OW23713   4.965   3.249   5.444
 7605SOL    HW123714   4.989   3.159   5.479
 7605SOL    HW223715   4.996   3.319   5.508
 7606SOL     OW23716   5.704   1.219   3.748
 7606SOL    HW123717   5.691   1.183   3.655
 7606SOL    HW223718   5.617   1.254   3.783
 7607SOL     OW23719   4.853   6.059   6.278
 7607SOL    HW123720   4.889   6.123   6.210
 7607SOL    HW223721   4.926   5.997   6.308
 7608SOL     OW23722   3.722   3.410   4.784
 7608SOL    HW123723   3.651   3.354   4.826
 7608SOL    HW223724   3.680   3.482   4.729
 7609SOL     OW23725   1.079   2.942   3.022
 7609SOL    HW123726   1.170   2.979   3.041
 7609SOL    HW223727   1.086   2.844   3.002
 7610SOL     OW23728   5.728   0.368   2.448
 7610SOL    HW123729   5.735   0.350   2.349
 7610SOL    HW223730   5.786   0.303   2.498
 7611SOL     OW23731   1.460   2.075   1.925
 7611SOL    HW123732   1.418   1.985   1.935
 7611SOL    HW223733   1.502   2.082   1.834
 7612SOL     OW23734   3.309   1.118   2.603
 7612SOL    HW123735   3.332   1.108   2.506
 7612SOL    HW223736   3.359   1.049   2.656
 7613SOL     OW23737   6.689   0.750   1.967
 7613SOL    HW123738   6.644   0.812   1.904
 7613SOL    HW223739   6.632   0.668   1.979
 7614SOL     OW23740   4.358   0.922   0.078
 7614SOL    HW123741   4.389   0.912   6.999
 7614SOL    HW223742   4.359   0.832   0.123
 7615SOL     OW23743   4.308   4.706   6.159
 7615SOL    HW123744   4.242   4.781   6.164
 7615SOL    HW223745   4.264   4.627   6.114
 7616SOL     OW23746   6.966   6.327   3.376
 7616SOL    HW123747   6.925   6.311   3.287
 7616SOL    HW223748   6.977   6.241   3.425
 7617SOL     OW23749   3.858   5.282   3.202
 7617SOL    HW123750   3.785   5.218   3.177
 7617SOL    HW223751   3.928   5.234   3.255
 7618SOL     OW23752   3.365   1.428   0.228
 7618SOL    HW123753   3.396   1.511   0.182
 7618SOL    HW223754   3.293   1.385   0.174
 7619SOL     OW23755   5.720   3.521   5.612
 7619SOL    HW123756   5.810   3.498   5.576
 7619SOL    HW223757   5.722   3.517   5.712
 7620SOL     OW23758   2.548   5.531   2.029
 7620SOL    HW123759   2.591   5.604   2.082
 7620SOL    HW223760   2.518   5.568   1.940
 7621SOL     OW23761   2.875   2.825   1.304
 7621SOL    HW123762   2.858   2.833   1.402
 7621SOL    HW223763   2.934   2.900   1.274
 7622SOL     OW23764   5.026   1.947   0.642
 7622SOL    HW123765   4.990   1.866   0.595
 7622SOL    HW223766   4.951   2.001   0.679
 7623SOL     OW23767   6.788   6.919   5.050
 7623SOL    HW123768   6.788   6.821   5.029
 7623SOL    HW223769   6.883   6.951   5.059
 7624SOL     OW23770   6.997   1.102   4.766
 7624SOL    HW123771   6.899   1.082   4.776
 7624SOL    HW223772   0.030   1.073   4.848
 7625SOL     OW23773   2.334   4.421   0.466
 7625SOL    HW123774   2.245   4.380   0.483
 7625SOL    HW223775   2.384   4.430   0.553
 7626SOL     OW23776   2.536   3.884   5.341
 7626SOL    HW123777   2.583   3.953   5.395
 7626SOL    HW223778   2.466   3.929   5.285
 7627SOL     OW23779   0.168   0.209   6.724
 7627SOL    HW123780   0.108   0.265   6.667
 7627SOL    HW223781   0.259   0.252   6.727
 7628SOL     OW23782   3.918   1.415   0.161
 7628SOL    HW123783   3.961   1.460   0.240
 7628SOL    HW223784   3.973   1.335   0.135
 7629SOL     OW23785   6.266   5.456   2.490
 7629SOL    HW123786   6.293   5.420   2.401
 7629SOL    HW223787   6.209   5.538   2.476
 7630SOL     OW23788   5.819   1.791   2.115
 7630SOL    HW123789   5.789   1.729   2.186
 7630SOL    HW223790   5.812   1.885   2.147
 7631SOL     OW23791   0.778   0.407   3.898
 7631SOL    HW123792   0.681   0.411   3.925
 7631SOL    HW223793   0.785   0.372   3.805
 7632SOL     OW23794   4.975   1.025   4.741
 7632SOL    HW123795   4.977   0.985   4.833
 7632SOL    HW223796   5.026   1.111   4.741
 7633SOL     OW23797   5.679   3.292   6.143
 7633SOL    HW123798   5.745   3.238   6.090
 7633SOL    HW223799   5.588   3.251   6.135
 7634SOL     OW23800   0.759   2.390   1.747
 7634SOL    HW123801   0.801   2.341   1.824
 7634SOL    HW223802   0.828   2.408   1.677
 7635SOL     OW23803   2.002   4.781   5.807
 7635SOL    HW123804   2.076   4.796   5.741
 7635SOL    HW223805   2.037   4.732   5.887
 7636SOL     OW23806   0.749   1.584   3.344
 7636SOL    HW123807   0.817   1.628   3.285
 7636SOL    HW223808   0.690   1.654   3.385
 7637SOL     OW23809   3.111   6.329   4.039
 7637SOL    HW123810   3.069   6.340   4.129
 7637SOL    HW223811   3.206   6.358   4.044
 7638SOL     OW23812   4.766   5.168   2.018
 7638SOL    HW123813   4.759   5.149   1.921
 7638SOL    HW223814   4.718   5.097   2.070
 7639SOL     OW23815   0.853   2.233   4.399
 7639SOL    HW123816   0.769   2.180   4.403
 7639SOL    HW223817   0.834   2.328   4.423
 7640SOL     OW23818   2.358   2.923   6.431
 7640SOL    HW123819   2.341   2.986   6.506
 7640SOL    HW223820   2.352   2.829   6.465
 7641SOL     OW23821   5.695   3.068   1.425
 7641SOL    HW123822   5.649   3.088   1.339
 7641SOL    HW223823   5.667   2.978   1.458
 7642SOL     OW23824   0.932   3.499   3.233
 7642SOL    HW123825   0.914   3.401   3.236
 7642SOL    HW223826   0.904   3.536   3.144
 7643SOL     OW23827   5.543   3.767   3.505
 7643SOL    HW123828   5.517   3.745   3.598
 7643SOL    HW223829   5.642   3.758   3.495
 7644SOL     OW23830   6.511   2.624   3.873
 7644SOL    HW123831   6.418   2.647   3.904
 7644SOL    HW223832   6.510   2.537   3.825
 7645SOL     OW23833   3.960   2.772   0.503
 7645SOL    HW123834   4.031   2.762   0.433
 7645SOL    HW223835   4.002   2.777   0.593
 7646SOL     OW23836   0.544   0.593   2.303
 7646SOL    HW123837   0.447   0.596   2.327
 7646SOL    HW223838   0.586   0.513   2.345
 7647SOL     OW23839   2.530   4.179   0.101
 7647SOL    HW123840   2.614   4.124   0.091
 7647SOL    HW223841   2.470   4.162   0.023
 7648SOL     OW23842   2.285   0.749   3.599
 7648SOL    HW123843   2.276   0.849   3.600
 7648SOL    HW223844   2.278   0.716   3.505
 7649SOL     OW23845   4.077   1.874   0.760
 7649SOL    HW123846   4.020   1.795   0.741
 7649SOL    HW223847   4.081   1.890   0.858
 7650SOL     OW23848   0.330   4.508   0.924
 7650SOL    HW123849   0.385   4.579   0.881
 7650SOL    HW223850   0.233   4.533   0.919
 7651SOL     OW23851   5.725   1.839   5.708
 7651SOL    HW123852   5.657   1.829   5.780
 7651SOL    HW223853   5.786   1.915   5.730
 7652SOL     OW23854   0.795   2.917   2.242
 7652SOL    HW123855   0.697   2.894   2.245
 7652SOL    HW223856   0.816   2.961   2.154
 7653SOL     OW23857   4.981   2.553   1.846
 7653SOL    HW123858   5.015   2.472   1.799
 7653SOL    HW223859   5.036   2.632   1.820
 7654SOL     OW23860   5.658   3.696   5.137
 7654SOL    HW123861   5.654   3.708   5.236
 7654SOL    HW223862   5.737   3.745   5.101
 7655SOL     OW23863   5.170   4.548   6.175
 7655SOL    HW123864   5.160   4.488   6.255
 7655SOL    HW223865   5.106   4.518   6.104
 7656SOL     OW23866   6.926   6.991   5.403
 7656SOL    HW123867   6.927   6.926   5.327
 7656SOL    HW223868   6.846   0.034   5.395
 7657SOL     OW23869   3.765   2.082   3.281
 7657SOL    HW123870   3.682   2.137   3.280
 7657SOL    HW223871   3.841   2.135   3.244
 7658SOL     OW23872   4.532   1.136   5.473
 7658SOL    HW123873   4.555   1.092   5.386
 7658SOL    HW223874   4.490   1.069   5.533
 7659SOL     OW23875   5.008   5.875   6.380
 7659SOL    HW123876   4.992   5.865   6.478
 7659SOL    HW223877   5.003   5.785   6.336
 7660SOL     OW23878   5.585   5.310   3.620
 7660SOL    HW123879   5.646   5.373   3.669
 7660SOL    HW223880   5.597   5.217   3.656
 7661SOL     OW23881   5.973   3.164   3.541
 7661SOL    HW123882   5.900   3.175   3.474
 7661SOL    HW223883   6.041   3.236   3.529
 7662SOL     OW23884   6.224   5.304   3.292
 7662SOL    HW123885   6.207   5.206   3.290
 7662SOL    HW223886   6.211   5.339   3.385
 7663SOL     OW23887   0.962   6.709   0.037
 7663SOL    HW123888   0.941   6.796   0.081
 7663SOL    HW223889   1.017   6.725   6.971
 7664SOL     OW23890   4.958   4.863   4.840
 7664SOL    HW123891   4.936   4.843   4.745
 7664SOL    HW223892   5.032   4.802   4.871
 7665SOL     OW23893   2.055   5.835   3.520
 7665SOL    HW123894   2.106   5.919   3.507
 7665SOL    HW223895   2.051   5.813   3.618
 7666SOL     OW23896   1.929   0.126   2.548
 7666SOL    HW123897   1.963   0.082   2.465
 7666SOL    HW223898   1.831   0.144   2.538
 7667SOL     OW23899   5.468   0.145   5.653
 7667SOL    HW123900   5.379   0.174   5.617
 7667SOL    HW223901   5.526   0.116   5.577
 7668SOL     OW23902   3.211   4.090   3.222
 7668SOL    HW123903   3.201   4.001   3.176
 7668SOL    HW223904   3.183   4.163   3.160
 7669SOL     OW23905   4.522   6.500   4.795
 7669SOL    HW123906   4.464   6.514   4.714
 7669SOL    HW223907   4.534   6.588   4.842
 7670SOL     OW23908   1.395   5.699   1.408
 7670SOL    HW123909   1.429   5.646   1.486
 7670SOL    HW223910   1.398   5.643   1.326
 7671SOL     OW23911   4.771   2.741   4.996
 7671SOL    HW123912   4.850   2.679   4.993
 7671SOL    HW223913   4.695   2.701   4.946
 7672SOL     OW23914   5.369   0.005   1.467
 7672SOL    HW123915   5.339   6.982   1.554
 7672SOL    HW223916   5.365   0.105   1.472
 7673SOL     OW23917   1.837   3.827   0.213
 7673SOL    HW123918   1.834   3.755   0.283
 7673SOL    HW223919   1.747   3.870   0.206
 7674SOL     OW23920   6.463   1.522   6.197
 7674SOL    HW123921   6.536   1.567   6.248
 7674SOL    HW223922   6.463   1.555   6.102
 7675SOL     OW23923   5.526   6.862   3.375
 7675SOL    HW123924   5.485   6.805   3.304
 7675SOL    HW223925   5.548   6.952   3.338
 7676SOL     OW23926   2.369   0.294   0.737
 7676SOL    HW123927   2.311   0.216   0.761
 7676SOL    HW223928   2.312   0.367   0.701
 7677SOL     OW23929   1.744   2.378   2.539
 7677SOL    HW123930   1.782   2.467   2.564
 7677SOL    HW223931   1.693   2.386   2.453
 7678SOL     OW23932   4.882   6.927   5.870
 7678SOL    HW123933   4.819   6.892   5.800
 7678SOL    HW223934   4.929   7.008   5.835
 7679SOL     OW23935   1.737   4.805   4.490
 7679SOL    HW123936   1.707   4.789   4.584
 7679SOL    HW223937   1.836   4.793   4.484
 7680SOL     OW23938   4.529   0.518   0.967
 7680SOL    HW123939   4.528   0.485   0.872
 7680SOL    HW223940   4.460   0.469   1.020
 7681SOL     OW23941   4.387   2.361   5.501
 7681SOL    HW123942   4.393   2.284   5.565
 7681SOL    HW223943   4.378   2.446   5.551
 7682SOL     OW23944   3.506   1.276   6.885
 7682SOL    HW123945   3.595   1.243   6.915
 7682SOL    HW223946   3.493   1.370   6.914
 7683SOL     OW23947   6.678   3.639   3.048
 7683SOL    HW123948   6.596   3.589   3.019
 7683SOL    HW223949   6.651   3.727   3.087
 7684SOL     OW23950   4.136   1.700   6.187
 7684SOL    HW123951   4.079   1.723   6.266
 7684SOL    HW223952   4.133   1.601   6.171
 7685SOL     OW23953   4.515   4.543   1.469
 7685SOL    HW123954   4.557   4.460   1.506
 7685SOL    HW223955   4.419   4.548   1.497
 7686SOL     OW23956   2.175   0.498   2.008
 7686SOL    HW123957   2.212   0.450   2.088
 7686SOL    HW223958   2.227   0.582   1.993
 7687SOL     OW23959   4.884   4.194   5.310
 7687SOL    HW123960   4.852   4.105   5.340
 7687SOL    HW223961   4.925   4.187   5.220
 7688SOL     OW23962   6.658   0.574   3.864
 7688SOL    HW123963   6.598   0.654   3.875
 7688SOL    HW223964   6.735   0.598   3.805
 7689SOL     OW23965   3.267   0.082   5.181
 7689SOL    HW123966   3.202   0.008   5.200
 7689SOL    HW223967   3.340   0.047   5.122
 7690SOL     OW23968   0.975   5.457   3.290
 7690SOL    HW123969   0.920   5.525   3.242
 7690SOL    HW223970   1.072   5.469   3.267
 7691SOL     OW23971   6.722   3.766   5.462
 7691SOL    HW123972   6.763   3.680   5.491
 7691SOL    HW223973   6.666   3.803   5.537
 7692SOL     OW23974   1.499   5.974   1.404
 7692SOL    HW123975   1.523   5.890   1.454
 7692SOL    HW223976   1.459   5.950   1.316
 7693SOL     OW23977   4.304   1.109   6.602
 7693SOL    HW123978   4.388   1.150   6.565
 7693SOL    HW223979   4.247   1.181   6.642
 7694SOL     OW23980   5.770   5.458   3.748
 7694SOL    HW123981   5.748   5.530   3.814
 7694SOL    HW223982   5.868   5.437   3.753
 7695SOL     OW23983   5.047   6.402   6.640
 7695SOL    HW123984   5.063   6.480   6.580
 7695SOL    HW223985   4.968   6.421   6.700
 7696SOL     OW23986   1.384   4.196   5.350
 7696SOL    HW123987   1.361   4.162   5.441
 7696SOL    HW223988   1.464   4.147   5.314
 7697SOL     OW23989   4.310   0.548   2.545
 7697SOL    HW123990   4.331   0.569   2.640
 7697SOL    HW223991   4.263   0.460   2.539
 7698SOL     OW23992   0.235   2.138   6.558
 7698SOL    HW123993   0.246   2.054   6.506
 7698SOL    HW223994   0.325   2.177   6.578
 7699SOL     OW23995   3.412   3.178   1.288
 7699SOL    HW123996   3.488   3.217   1.340
 7699SOL    HW223997   3.417   3.078   1.292
 7700SOL     OW23998   5.488   0.912   5.489
 7700SOL    HW123999   5.433   0.995   5.496
 7700SOL    HW224000   5.582   0.932   5.517
 7701SOL     OW24001   6.766   2.279   5.036
 7701SOL    HW124002   6.854   2.283   4.989
 7701SOL    HW224003   6.696   2.243   4.973
 7702SOL     OW24004   0.923   6.104   0.047
 7702SOL    HW124005   0.957   6.093   6.970
 7702SOL    HW224006   0.840   6.161   0.046
 7703SOL     OW24007   0.978   2.388   0.145
 7703SOL    HW124008   0.913   2.390   0.222
 7703SOL    HW224009   1.067   2.357   0.179
 7704SOL     OW24010   3.805   3.718   1.208
 7704SOL    HW124011   3.854   3.652   1.150
 7704SOL    HW224012   3.846   3.809   1.197
 7705SOL     OW24013   3.980   3.337   4.751
 7705SOL    HW124014   4.049   3.409   4.758
 7705SOL    HW224015   3.889   3.377   4.757
 7706SOL     OW24016   5.458   1.198   5.496
 7706SOL    HW124017   5.545   1.208   5.449
 7706SOL    HW224018   5.396   1.271   5.468
 7707SOL     OW24019   0.348   4.930   5.971
 7707SOL    HW124020   0.421   4.998   5.965
 7707SOL    HW224021   0.382   4.841   5.942
 7708SOL     OW24022   4.835   1.625   5.548
 7708SOL    HW124023   4.849   1.530   5.521
 7708SOL    HW224024   4.829   1.631   5.647
 7709SOL     OW24025   4.120   2.925   1.629
 7709SOL    HW124026   4.154   2.853   1.568
 7709SOL    HW224027   4.037   2.893   1.675
 7710SOL     OW24028   3.411   1.153   6.124
 7710SOL    HW124029   3.482   1.084   6.134
 7710SOL    HW224030   3.381   1.183   6.215
 7711SOL     OW24031   5.272   6.551   4.568
 7711SOL    HW124032   5.173   6.568   4.562
 7711SOL    HW224033   5.296   6.471   4.512
 7712SOL     OW24034   6.215   4.469   6.329
 7712SOL    HW124035   6.146   4.507   6.268
 7712SOL    HW224036   6.252   4.385   6.289
 7713SOL     OW24037   0.744   4.764   6.652
 7713SOL    HW124038   0.671   4.802   6.596
 7713SOL    HW224039   0.763   4.826   6.729
 7714SOL     OW24040   6.451   4.918   5.154
 7714SOL    HW124041   6.488   4.864   5.230
 7714SOL    HW224042   6.381   4.980   5.189
 7715SOL     OW24043   3.596   2.017   1.606
 7715SOL    HW124044   3.592   1.975   1.697
 7715SOL    HW224045   3.674   2.080   1.601
 7716SOL     OW24046   3.791   2.119   4.461
 7716SOL    HW124047   3.699   2.081   4.453
 7716SOL    HW224048   3.841   2.103   4.376
 7717SOL     OW24049   2.953   6.400   0.390
 7717SOL    HW124050   3.034   6.345   0.408
 7717SOL    HW224051   2.978   6.481   0.337
 7718SOL     OW24052   1.446   6.434   3.126
 7718SOL    HW124053   1.532   6.389   3.102
 7718SOL    HW224054   1.384   6.433   3.047
 7719SOL     OW24055   5.430   2.564   5.186
 7719SOL    HW124056   5.353   2.545   5.126
 7719SOL    HW224057   5.411   2.530   5.278
 7720SOL     OW24058   4.675   6.670   1.445
 7720SOL    HW124059   4.714   6.650   1.535
 7720SOL    HW224060   4.711   6.758   1.412
 7721SOL     OW24061   0.312   4.922   3.688
 7721SOL    HW124062   0.287   4.976   3.607
 7721SOL    HW224063   0.410   4.903   3.686
 7722SOL     OW24064   0.371   5.934   3.322
 7722SOL    HW124065   0.330   5.888   3.401
 7722SOL    HW224066   0.370   5.872   3.243
 7723SOL     OW24067   0.088   2.406   6.042
 7723SOL    HW124068   0.159   2.355   6.093
 7723SOL    HW224069   0.007   2.416   6.100
 7724SOL     OW24070   2.509   5.910   6.820
 7724SOL    HW124071   2.542   5.947   6.907
 7724SOL    HW224072   2.474   5.817   6.834
 7725SOL     OW24073   4.938   4.289   3.684
 7725SOL    HW124074   4.892   4.372   3.715
 7725SOL    HW224075   4.969   4.300   3.590
 7726SOL     OW24076   5.128   5.972   3.700
 7726SOL    HW124077   5.038   6.008   3.723
 7726SOL    HW224078   5.118   5.891   3.641
 7727SOL     OW24079   5.926   3.757   2.325
 7727SOL    HW124080   5.976   3.742   2.240
 7727SOL    HW224081   5.831   3.781   2.305
 7728SOL     OW24082   2.039   3.481   2.773
 7728SOL    HW124083   2.007   3.389   2.795
 7728SOL    HW224084   2.059   3.487   2.675
 7729SOL     OW24085   5.595   1.496   6.053
 7729SOL    HW124086   5.643   1.460   5.973
 7729SOL    HW224087   5.500   1.463   6.053
 7730SOL     OW24088   4.335   6.173   3.384
 7730SOL    HW124089   4.419   6.145   3.337
 7730SOL    HW224090   4.269   6.098   3.383
 7731SOL     OW24091   5.999   1.712   3.911
 7731SOL    HW124092   6.087   1.750   3.941
 7731SOL    HW224093   5.964   1.764   3.833
 7732SOL     OW24094   4.022   4.696   0.873
 7732SOL    HW124095   4.023   4.793   0.897
 7732SOL    HW224096   3.971   4.682   0.788
 7733SOL     OW24097   3.720   5.348   1.762
 7733SOL    HW124098   3.810   5.390   1.753
 7733SOL    HW224099   3.650   5.413   1.733
 7734SOL     OW24100   1.329   3.328   2.192
 7734SOL    HW124101   1.425   3.320   2.166
 7734SOL    HW224102   1.303   3.249   2.248
 7735SOL     OW24103   5.762   4.027   0.493
 7735SOL    HW124104   5.832   4.062   0.431
 7735SOL    HW224105   5.722   3.944   0.455
 7736SOL     OW24106   5.618   4.246   6.699
 7736SOL    HW124107   5.655   4.339   6.698
 7736SOL    HW224108   5.525   4.246   6.664
 7737SOL     OW24109   5.182   2.854   0.045
 7737SOL    HW124110   5.117   2.801   7.006
 7737SOL    HW224111   5.169   2.833   0.142
 7738SOL     OW24112   1.873   4.931   6.594
 7738SOL    HW124113   1.955   4.897   6.549
 7738SOL    HW224114   1.895   4.962   6.686
 7739SOL     OW24115   5.911   4.486   2.395
 7739SOL    HW124116   5.977   4.417   2.365
 7739SOL    HW224117   5.960   4.563   2.437
 7740SOL     OW24118   6.740   5.999   3.092
 7740SOL    HW124119   6.673   5.929   3.068
 7740SOL    HW224120   6.823   5.986   3.038
 7741SOL     OW24121   2.738   5.103   3.568
 7741SOL    HW124122   2.659   5.058   3.609
 7741SOL    HW224123   2.805   5.125   3.639
 7742SOL     OW24124   0.166   0.745   4.627
 7742SOL    HW124125   0.201   0.681   4.696
 7742SOL    HW224126   0.083   0.789   4.661
 7743SOL     OW24127   4.894   3.398   1.948
 7743SOL    HW124128   4.831   3.331   1.907
 7743SOL    HW224129   4.912   3.471   1.882
 7744SOL     OW24130   0.051   6.417   4.165
 7744SOL    HW124131   0.126   6.477   4.136
 7744SOL    HW224132   0.085   6.324   4.175
 7745SOL     OW24133   6.099   2.782   5.488
 7745SOL    HW124134   6.152   2.842   5.547
 7745SOL    HW224135   6.079   2.829   5.402
 7746SOL     OW24136   2.022   0.637   6.131
 7746SOL    HW124137   1.943   0.581   6.157
 7746SOL    HW224138   2.055   0.686   6.212
 7747SOL     OW24139   5.013   5.075   0.994
 7747SOL    HW124140   5.016   4.977   1.011
 7747SOL    HW224141   4.958   5.094   0.913
 7748SOL     OW24142   1.450   3.608   6.785
 7748SOL    HW124143   1.379   3.568   6.726
 7748SOL    HW224144   1.528   3.545   6.790
 7749SOL     OW24145   5.969   3.155   5.954
 7749SOL    HW124146   5.974   3.186   5.859
 7749SOL    HW224147   5.882   3.107   5.968
 7750SOL     OW24148   3.769   5.722   2.948
 7750SOL    HW124149   3.676   5.757   2.943
 7750SOL    HW224150   3.769   5.636   3.000
 7751SOL     OW24151   1.351   2.533   1.367
 7751SOL    HW124152   1.387   2.592   1.440
 7751SOL    HW224153   1.422   2.469   1.337
 7752SOL     OW24154   2.796   0.910   2.563
 7752SOL    HW124155   2.772   0.824   2.518
 7752SOL    HW224156   2.895   0.915   2.576
 7753SOL     OW24157   4.562   0.454   5.039
 7753SOL    HW124158   4.508   0.537   5.050
 7753SOL    HW224159   4.654   0.478   5.007
 7754SOL     OW24160   4.552   6.542   1.206
 7754SOL    HW124161   4.564   6.551   1.304
 7754SOL    HW224162   4.603   6.613   1.158
 7755SOL     OW24163   1.453   3.167   6.097
 7755SOL    HW124164   1.379   3.100   6.107
 7755SOL    HW224165   1.498   3.181   6.185
 7756SOL     OW24166   1.637   4.129   2.272
 7756SOL    HW124167   1.626   4.125   2.173
 7756SOL    HW224168   1.731   4.156   2.294
 7757SOL     OW24169   1.082   4.369   0.230
 7757SOL    HW124170   1.009   4.397   0.167
 7757SOL    HW224171   1.146   4.445   0.242
 7758SOL     OW24172   6.739   0.991   4.933
 7758SOL    HW124173   6.788   1.071   4.968
 7758SOL    HW224174   6.739   0.918   5.003
 7759SOL     OW24175   3.072   1.230   2.680
 7759SOL    HW124176   3.059   1.240   2.779
 7759SOL    HW224177   3.157   1.182   2.662
 7760SOL     OW24178   5.423   2.842   0.782
 7760SOL    HW124179   5.392   2.758   0.825
 7760SOL    HW224180   5.401   2.840   0.684
 7761SOL     OW24181   4.760   5.568   2.784
 7761SOL    HW124182   4.672   5.532   2.753
 7761SOL    HW224183   4.780   5.532   2.875
 7762SOL     OW24184   4.711   1.212   0.030
 7762SOL    HW124185   4.729   1.252   0.119
 7762SOL    HW224186   4.621   1.243   7.013
 7763SOL     OW24187   1.821   0.762   2.999
 7763SOL    HW124188   1.750   0.789   3.063
 7763SOL    HW224189   1.908   0.802   3.028
 7764SOL     OW24190   3.890   4.490   5.300
 7764SOL    HW124191   3.978   4.519   5.261
 7764SOL    HW224192   3.823   4.482   5.226
 7765SOL     OW24193   6.162   3.927   4.265
 7765SOL    HW124194   6.249   3.880   4.277
 7765SOL    HW224195   6.092   3.883   4.322
 7766SOL     OW24196   6.944   2.849   5.846
 7766SOL    HW124197   6.910   2.841   5.753
 7766SOL    HW224198   6.886   2.911   5.898
 7767SOL     OW24199   4.048   0.720   3.298
 7767SOL    HW124200   4.095   0.636   3.272
 7767SOL    HW224201   4.105   0.799   3.272
 7768SOL     OW24202   3.205   5.999   4.139
 7768SOL    HW124203   3.255   5.914   4.121
 7768SOL    HW224204   3.145   6.019   4.062
 7769SOL     OW24205   3.845   1.913   6.072
 7769SOL    HW124206   3.904   1.833   6.081
 7769SOL    HW224207   3.767   1.904   6.134
 7770SOL     OW24208   1.356   3.284   3.230
 7770SOL    HW124209   1.316   3.337   3.305
 7770SOL    HW224210   1.441   3.241   3.262
 7771SOL     OW24211   1.270   3.564   5.471
 7771SOL    HW124212   1.267   3.662   5.491
 7771SOL    HW224213   1.270   3.551   5.372
 7772SOL     OW24214   5.019   6.348   1.884
 7772SOL    HW124215   4.984   6.279   1.948
 7772SOL    HW224216   5.067   6.302   1.809
 7773SOL     OW24217   2.883   6.681   6.036
 7773SOL    HW124218   2.832   6.760   6.003
 7773SOL    HW224219   2.958   6.711   6.095
 7774SOL     OW24220   5.005   0.764   2.875
 7774SOL    HW124221   5.045   0.831   2.812
 7774SOL    HW224222   4.941   0.810   2.937
 7775SOL     OW24223   4.102   2.190   1.185
 7775SOL    HW124224   4.018   2.244   1.193
 7775SOL    HW224225   4.133   2.162   1.275
 7776SOL     OW24226   2.471   1.744   3.818
 7776SOL    HW124227   2.458   1.768   3.722
 7776SOL    HW224228   2.465   1.827   3.874
 7777SOL     OW24229   4.745   4.679   3.103
 7777SOL    HW124230   4.840   4.712   3.099
 7777SOL    HW224231   4.744   4.580   3.095
 7778SOL     OW24232   0.706   3.218   1.674
 7778SOL    HW124233   0.724   3.134   1.624
 7778SOL    HW224234   0.777   3.233   1.742
 7779SOL     OW24235   2.532   1.218   4.044
 7779SOL    HW124236   2.497   1.289   3.984
 7779SOL    HW224237   2.458   1.156   4.070
 7780SOL     OW24238   6.256   6.035   3.734
 7780SOL    HW124239   6.162   6.005   3.754
 7780SOL    HW224240   6.308   6.042   3.819
 7781SOL     OW24241   3.234   2.952   1.699
 7781SOL    HW124242   3.140   2.928   1.724
 7781SOL    HW224243   3.233   3.025   1.632
 7782SOL     OW24244   5.001   5.115   3.373
 7782SOL    HW124245   4.928   5.124   3.306
 7782SOL    HW224246   4.975   5.163   3.457
 7783SOL     OW24247   0.312   6.914   3.951
 7783SOL    HW124248   0.303   6.882   4.045
 7783SOL    HW224249   0.407   6.941   3.934
 7784SOL     OW24250   0.810   3.363   2.374
 7784SOL    HW124251   0.873   3.413   2.434
 7784SOL    HW224252   0.782   3.278   2.419
 7785SOL     OW24253   6.215   0.160   2.518
 7785SOL    HW124254   6.304   0.179   2.476
 7785SOL    HW224255   6.162   0.245   2.523
 7786SOL     OW24256   5.396   0.632   6.534
 7786SOL    HW124257   5.483   0.680   6.537
 7786SOL    HW224258   5.411   0.534   6.542
 7787SOL     OW24259   0.987   2.011   0.815
 7787SOL    HW124260   0.966   1.926   0.766
 7787SOL    HW224261   1.086   2.027   0.814
 7788SOL     OW24262   0.890   4.538   2.543
 7788SOL    HW124263   0.876   4.440   2.527
 7788SOL    HW224264   0.867   4.560   2.638
 7789SOL     OW24265   3.715   0.203   6.870
 7789SOL    HW124266   3.718   0.251   6.781
 7789SOL    HW224267   3.805   0.164   6.890
 7790SOL     OW24268   4.087   4.864   4.863
 7790SOL    HW124269   4.176   4.849   4.819
 7790SOL    HW224270   4.073   4.962   4.879
 7791SOL     OW24271   1.864   6.541   1.366
 7791SOL    HW124272   1.894   6.637   1.368
 7791SOL    HW224273   1.855   6.512   1.271
 7792SOL     OW24274   1.151   1.753   1.875
 7792SOL    HW124275   1.132   1.670   1.926
 7792SOL    HW224276   1.250   1.767   1.869
 7793SOL     OW24277   5.234   1.291   0.737
 7793SOL    HW124278   5.229   1.193   0.720
 7793SOL    HW224279   5.142   1.328   0.750
 7794SOL     OW24280   1.107   1.530   2.945
 7794SOL    HW124281   1.103   1.628   2.922
 7794SOL    HW224282   1.115   1.520   3.044
 7795SOL     OW24283   4.982   3.641   0.894
 7795SOL    HW124284   4.975   3.741   0.895
 7795SOL    HW224285   4.901   3.602   0.939
 7796SOL     OW24286   4.124   1.219   0.169
 7796SOL    HW124287   4.166   1.129   0.182
 7796SOL    HW224288   4.193   1.290   0.183
 7797SOL     OW24289   1.655   6.147   2.568
 7797SOL    HW124290   1.621   6.094   2.490
 7797SOL    HW224291   1.582   6.207   2.601
 7798SOL     OW24292   2.202   3.196   0.923
 7798SOL    HW124293   2.272   3.129   0.943
 7798SOL    HW224294   2.115   3.168   0.964
 7799SOL     OW24295   1.932   5.757   4.407
 7799SOL    HW124296   1.940   5.666   4.446
 7799SOL    HW224297   1.970   5.824   4.472
 7800SOL     OW24298   0.548   0.901   1.872
 7800SOL    HW124299   0.531   0.964   1.796
 7800SOL    HW224300   0.609   0.946   1.939
 7801SOL     OW24301   2.880   2.154   1.001
 7801SOL    HW124302   2.897   2.119   1.093
 7801SOL    HW224303   2.941   2.109   0.936
 7802SOL     OW24304   6.741   4.733   4.087
 7802SOL    HW124305   6.646   4.726   4.055
 7802SOL    HW224306   6.803   4.705   4.013
 7803SOL     OW24307   3.147   2.354   6.359
 7803SOL    HW124308   3.126   2.441   6.403
 7803SOL    HW224309   3.239   2.325   6.383
 7804SOL     OW24310   2.782   1.800   5.557
 7804SOL    HW124311   2.784   1.705   5.589
 7804SOL    HW224312   2.856   1.814   5.490
 7805SOL     OW24313   0.090   2.082   6.983
 7805SOL    HW124314   0.134   2.158   6.936
 7805SOL    HW224315   0.041   2.026   6.916
 7806SOL     OW24316   6.449   2.822   4.855
 7806SOL    HW124317   6.494   2.733   4.847
 7806SOL    HW224318   6.374   2.816   4.922
 7807SOL     OW24319   2.452   6.224   5.489
 7807SOL    HW124320   2.465   6.322   5.504
 7807SOL    HW224321   2.464   6.175   5.575
 7808SOL     OW24322   0.398   2.902   4.461
 7808SOL    HW124323   0.308   2.904   4.505
 7808SOL    HW224324   0.456   2.971   4.503
 7809SOL     OW24325   2.965   0.734   3.236
 7809SOL    HW124326   3.046   0.712   3.181
 7809SOL    HW224327   2.934   0.827   3.215
 7810SOL     OW24328   2.460   6.694   5.685
 7810SOL    HW124329   2.489   6.790   5.693
 7810SOL    HW224330   2.442   6.657   5.776
 7811SOL     OW24331   1.218   5.524   3.204
 7811SOL    HW124332   1.269   5.448   3.164
 7811SOL    HW224333   1.226   5.604   3.145
 7812SOL     OW24334   2.953   0.087   5.940
 7812SOL    HW124335   2.944   0.181   5.972
 7812SOL    HW224336   3.029   0.043   5.987
 7813SOL     OW24337   5.645   0.943   0.576
 7813SOL    HW124338   5.630   1.020   0.514
 7813SOL    HW224339   5.557   0.904   0.603
 7814SOL     OW24340   6.690   1.568   1.589
 7814SOL    HW124341   6.624   1.624   1.540
 7814SOL    HW224342   6.645   1.523   1.666
 7815SOL     OW24343   4.628   5.866   3.739
 7815SOL    HW124344   4.549   5.873   3.679
 7815SOL    HW224345   4.670   5.776   3.728
 7816SOL     OW24346   1.216   1.255   5.082
 7816SOL    HW124347   1.154   1.177   5.083
 7816SOL    HW224348   1.204   1.307   4.998
 7817SOL     OW24349   4.827   0.791   5.198
 7817SOL    HW124350   4.800   0.741   5.116
 7817SOL    HW224351   4.755   0.856   5.223
 7818SOL     OW24352   4.209   0.447   3.207
 7818SOL    HW124353   4.257   0.406   3.285
 7818SOL    HW224354   4.115   0.414   3.204
 7819SOL     OW24355   2.493   2.598   4.130
 7819SOL    HW124356   2.583   2.578   4.093
 7819SOL    HW224357   2.493   2.583   4.229
 7820SOL     OW24358   2.042   0.719   6.401
 7820SOL    HW124359   2.035   0.623   6.429
 7820SOL    HW224360   2.095   0.770   6.468
 7821SOL     OW24361   2.958   5.840   6.519
 7821SOL    HW124362   2.913   5.813   6.604
 7821SOL    HW224363   2.955   5.764   6.454
 7822SOL     OW24364   0.896   1.321   4.431
 7822SOL    HW124365   0.951   1.391   4.386
 7822SOL    HW224366   0.819   1.295   4.373
 7823SOL     OW24367   1.997   2.492   5.392
 7823SOL    HW124368   2.019   2.587   5.410
 7823SOL    HW224369   2.067   2.433   5.431
 7824SOL     OW24370   6.385   4.081   3.051
 7824SOL    HW124371   6.335   4.117   3.130
 7824SOL    HW224372   6.351   3.990   3.029
 7825SOL     OW24373   2.883   3.414   3.830
 7825SOL    HW124374   2.816   3.474   3.873
 7825SOL    HW224375   2.893   3.437   3.733
 7826SOL     OW24376   6.229   6.327   1.059
 7826SOL    HW124377   6.131   6.307   1.068
 7826SOL    HW224378   6.275   6.308   1.146
 7827SOL     OW24379   5.376   3.595   0.446
 7827SOL    HW124380   5.415   3.650   0.372
 7827SOL    HW224381   5.416   3.623   0.533
 7828SOL     OW24382   0.918   5.694   0.314
 7828SOL    HW124383   0.868   5.762   0.260
 7828SOL    HW224384   0.905   5.712   0.411
 7829SOL     OW24385   3.128   3.885   3.004
 7829SOL    HW124386   3.164   3.949   2.936
 7829SOL    HW224387   3.104   3.799   2.959
 7830SOL     OW24388   0.000   4.771   6.636
 7830SOL    HW124389   0.047   4.723   6.562
 7830SOL    HW224390   6.972   4.704   6.696
 7831SOL     OW24391   3.308   3.660   0.015
 7831SOL    HW124392   3.343   3.638   0.106
 7831SOL    HW224393   3.380   3.643   6.963
 7832SOL     OW24394   4.142   2.633   6.234
 7832SOL    HW124395   4.150   2.557   6.170
 7832SOL    HW224396   4.087   2.606   6.313
 7833SOL     OW24397   6.480   6.806   2.016
 7833SOL    HW124398   6.417   6.837   1.945
 7833SOL    HW224399   6.525   6.885   2.057
 7834SOL     OW24400   4.929   1.206   1.608
 7834SOL    HW124401   4.869   1.283   1.626
 7834SOL    HW224402   4.925   1.182   1.511
 7835SOL     OW24403   1.992   2.183   3.963
 7835SOL    HW124404   1.923   2.250   3.990
 7835SOL    HW224405   1.963   2.091   3.990
 7836SOL     OW24406   2.404   0.069   6.629
 7836SOL    HW124407   2.305   0.082   6.623
 7836SOL    HW224408   2.424   6.987   6.626
 7837SOL     OW24409   5.093   6.500   2.287
 7837SOL    HW124410   5.098   6.581   2.344
 7837SOL    HW224411   5.151   6.512   2.206
 7838SOL     OW24412   3.277   4.970   4.395
 7838SOL    HW124413   3.215   4.989   4.471
 7838SOL    HW224414   3.230   4.914   4.326
 7839SOL     OW24415   0.109   5.453   3.262
 7839SOL    HW124416   0.031   5.402   3.226
 7839SOL    HW224417   0.114   5.440   3.361
 7840SOL     OW24418   4.089   2.891   6.131
 7840SOL    HW124419   4.095   2.794   6.151
 7840SOL    HW224420   4.086   2.943   6.217
 7841SOL     OW24421   1.016   1.658   5.789
 7841SOL    HW124422   1.053   1.750   5.778
 7841SOL    HW224423   1.082   1.591   5.754
 7842SOL     OW24424   1.392   0.784   2.637
 7842SOL    HW124425   1.447   0.820   2.712
 7842SOL    HW224426   1.380   0.685   2.648
 7843SOL     OW24427   0.292   2.061   2.050
 7843SOL    HW124428   0.228   2.056   1.974
 7843SOL    HW224429   0.335   2.152   2.052
 7844SOL     OW24430   3.277   2.130   3.044
 7844SOL    HW124431   3.209   2.133   2.971
 7844SOL    HW224432   3.363   2.092   3.007
 7845SOL     OW24433   1.044   1.091   4.475
 7845SOL    HW124434   1.069   1.091   4.572
 7845SOL    HW224435   1.013   1.182   4.448
 7846SOL     OW24436   4.969   6.460   3.003
 7846SOL    HW124437   5.022   6.502   3.077
 7846SOL    HW224438   4.949   6.528   2.933
 7847SOL     OW24439   0.608   6.598   5.661
 7847SOL    HW124440   0.623   6.646   5.574
 7847SOL    HW224441   0.647   6.507   5.656
 7848SOL     OW24442   4.425   3.392   1.166
 7848SOL    HW124443   4.359   3.332   1.211
 7848SOL    HW224444   4.480   3.340   1.101
 7849SOL     OW24445   6.534   4.305   5.557
 7849SOL    HW124446   6.550   4.365   5.635
 7849SOL    HW224447   6.581   4.341   5.477
 7850SOL     OW24448   1.390   2.934   4.925
 7850SOL    HW124449   1.303   2.977   4.949
 7850SOL    HW224450   1.463   2.972   4.983
 7851SOL     OW24451   2.572   6.600   0.735
 7851SOL    HW124452   2.599   6.663   0.808
 7851SOL    HW224453   2.644   6.600   0.665
 7852SOL     OW24454   2.638   6.395   0.354
 7852SOL    HW124455   2.688   6.309   0.357
 7852SOL    HW224456   2.691   6.463   0.303
 7853SOL     OW24457   2.479   1.517   6.497
 7853SOL    HW124458   2.432   1.432   6.520
 7853SOL    HW224459   2.574   1.498   6.473
 7854SOL     OW24460   3.787   3.994   4.502
 7854SOL    HW124461   3.768   3.943   4.587
 7854SOL    HW224462   3.739   4.081   4.504
 7855SOL     OW24463   3.121   6.895   4.818
 7855SOL    HW124464   3.187   6.847   4.875
 7855SOL    HW224465   3.078   6.831   4.754
 7856SOL     OW24466   3.054   2.761   5.849
 7856SOL    HW124467   3.116   2.763   5.771
 7856SOL    HW224468   2.960   2.777   5.818
 7857SOL     OW24469   0.409   3.215   5.131
 7857SOL    HW124470   0.403   3.235   5.033
 7857SOL    HW224471   0.436   3.298   5.180
 7858SOL     OW24472   5.163   2.865   3.287
 7858SOL    HW124473   5.066   2.889   3.290
 7858SOL    HW224474   5.183   2.801   3.362
 7859SOL     OW24475   6.585   6.922   6.964
 7859SOL    HW124476   6.538   6.845   6.920
 7859SOL    HW224477   6.517   6.990   6.992
 7860SOL     OW24478   4.601   6.636   0.637
 7860SOL    HW124479   4.633   6.541   0.641
 7860SOL    HW224480   4.573   6.659   0.544
 7861SOL     OW24481   6.624   3.515   0.143
 7861SOL    HW124482   6.656   3.521   0.237
 7861SOL    HW224483   6.524   3.508   0.142
 7862SOL     OW24484   2.783   4.562   1.602
 7862SOL    HW124485   2.826   4.534   1.688
 7862SOL    HW224486   2.851   4.560   1.529
 7863SOL     OW24487   4.488   6.110   2.741
 7863SOL    HW124488   4.558   6.083   2.675
 7863SOL    HW224489   4.533   6.154   2.820
 7864SOL     OW24490   2.088   5.876   5.700
 7864SOL    HW124491   2.050   5.802   5.756
 7864SOL    HW224492   2.018   5.906   5.635
 7865SOL     OW24493   4.440   0.232   3.385
 7865SOL    HW124494   4.391   0.306   3.431
 7865SOL    HW224495   4.383   0.149   3.387
 7866SOL     OW24496   2.880   0.116   5.662
 7866SOL    HW124497   2.800   0.176   5.656
 7866SOL    HW224498   2.915   0.116   5.756
 7867SOL     OW24499   0.163   2.771   0.540
 7867SOL    HW124500   0.115   2.731   0.618
 7867SOL    HW224501   0.122   2.859   0.518
 7868SOL     OW24502   5.296   6.991   1.213
 7868SOL    HW124503   5.362   0.044   1.184
 7868SOL    HW224504   5.302   6.977   1.312
 7869SOL     OW24505   6.117   1.770   4.334
 7869SOL    HW124506   6.102   1.751   4.431
 7869SOL    HW224507   6.030   1.794   4.291
 7870SOL     OW24508   5.864   0.024   2.944
 7870SOL    HW124509   5.956   0.038   2.980
 7870SOL    HW224510   5.870   7.001   2.852
 7871SOL     OW24511   5.681   2.444   3.006
 7871SOL    HW124512   5.600   2.387   3.016
 7871SOL    HW224513   5.683   2.513   3.078
 7872SOL     OW24514   5.374   3.899   3.848
 7872SOL    HW124515   5.293   3.945   3.813
 7872SOL    HW224516   5.455   3.956   3.831
 7873SOL     OW24517   0.200   6.208   5.103
 7873SOL    HW124518   0.280   6.181   5.048
 7873SOL    HW224519   0.154   6.284   5.058
 7874SOL     OW24520   6.057   6.604   0.225
 7874SOL    HW124521   6.141   6.550   0.226
 7874SOL    HW224522   6.048   6.651   0.313
 7875SOL     OW24523   5.785   2.226   0.107
 7875SOL    HW124524   5.746   2.312   0.073
 7875SOL    HW224525   5.846   2.188   0.038
 7876SOL     OW24526   7.011   2.413   5.287
 7876SOL    HW124527   0.063   2.436   5.217
 7876SOL    HW224528   0.002   2.477   5.363
 7877SOL     OW24529   5.946   3.496   1.758
 7877SOL    HW124530   5.931   3.444   1.675
 7877SOL    HW224531   6.023   3.457   1.809
 7878SOL     OW24532   3.768   4.057   2.244
 7878SOL    HW124533   3.752   3.990   2.172
 7878SOL    HW224534   3.838   4.122   2.214
 7879SOL     OW24535   6.950   1.467   5.064
 7879SOL    HW124536   6.915   1.560   5.073
 7879SOL    HW224537   0.002   1.450   5.135
 7880SOL     OW24538   1.777   6.250   6.491
 7880SOL    HW124539   1.743   6.178   6.552
 7880SOL    HW224540   1.870   6.275   6.517
 7881SOL     OW24541   0.168   4.841   5.660
 7881SOL    HW124542   0.086   4.857   5.716
 7881SOL    HW224543   0.226   4.922   5.662
 7882SOL     OW24544   1.526   4.932   0.357
 7882SOL    HW124545   1.492   4.861   0.420
 7882SOL    HW224546   1.560   5.010   0.410
 7883SOL     OW24547   2.698   2.235   2.538
 7883SOL    HW124548   2.747   2.230   2.451
 7883SOL    HW224549   2.669   2.330   2.555
 7884SOL     OW24550   6.840   2.078   5.625
 7884SOL    HW124551   6.822   2.113   5.716
 7884SOL    HW224552   6.932   2.105   5.596
 7885SOL     OW24553   5.285   4.909   2.387
 7885SOL    HW124554   5.383   4.897   2.368
 7885SOL    HW224555   5.271   4.998   2.429
 7886SOL     OW24556   3.486   5.233   3.208
 7886SOL    HW124557   3.441   5.228   3.119
 7886SOL    HW224558   3.431   5.184   3.276
 7887SOL     OW24559   0.679   3.381   0.474
 7887SOL    HW124560   0.777   3.360   0.478
 7887SOL    HW224561   0.666   3.479   0.459
 7888SOL     OW24562   0.446   1.536   4.993
 7888SOL    HW124563   0.423   1.444   5.024
 7888SOL    HW224564   0.540   1.558   5.019
 7889SOL     OW24565   6.028   4.547   0.421
 7889SOL    HW124566   5.994   4.507   0.336
 7889SOL    HW224567   6.100   4.613   0.400
 7890SOL     OW24568   1.421   2.695   1.578
 7890SOL    HW124569   1.473   2.627   1.630
 7890SOL    HW224570   1.484   2.758   1.534
 7891SOL     OW24571   6.134   0.922   4.715
 7891SOL    HW124572   6.090   0.889   4.798
 7891SOL    HW224573   6.065   0.960   4.654
 7892SOL     OW24574   0.926   1.710   4.561
 7892SOL    HW124575   0.873   1.729   4.479
 7892SOL    HW224576   0.899   1.621   4.598
 7893SOL     OW24577   5.847   6.227   0.724
 7893SOL    HW124578   5.877   6.270   0.809
 7893SOL    HW224579   5.926   6.188   0.676
 7894SOL     OW24580   2.894   0.334   6.231
 7894SOL    HW124581   2.868   0.239   6.246
 7894SOL    HW224582   2.872   0.387   6.313
 7895SOL     OW24583   5.082   6.750   2.419
 7895SOL    HW124584   5.028   6.819   2.467
 7895SOL    HW224585   5.157   6.720   2.477
 7896SOL     OW24586   3.627   2.028   1.128
 7896SOL    HW124587   3.690   2.094   1.086
 7896SOL    HW224588   3.612   2.053   1.224
 7897SOL     OW24589   5.088   0.762   1.421
 7897SOL    HW124590   5.032   0.750   1.503
 7897SOL    HW224591   5.177   0.718   1.435
 7898SOL     OW24592   3.736   6.530   3.191
 7898SOL    HW124593   3.819   6.506   3.242
 7898SOL    HW224594   3.752   6.613   3.137
 7899SOL     OW24595   5.897   4.599   2.773
 7899SOL    HW124596   5.868   4.524   2.714
 7899SOL    HW224597   5.946   4.562   2.852
 7900SOL     OW24598   0.287   3.873   0.770
 7900SOL    HW124599   0.331   3.878   0.859
 7900SOL    HW224600   0.231   3.955   0.755
 7901SOL     OW24601   0.008   2.654   6.405
 7901SOL    HW124602   6.987   2.747   6.402
 7901SOL    HW224603   6.951   2.588   6.389
 7902SOL     OW24604   1.399   0.168   1.142
 7902SOL    HW124605   1.461   0.166   1.220
 7902SOL    HW224606   1.439   0.224   1.069
 7903SOL     OW24607   3.285   2.354   5.575
 7903SOL    HW124608   3.245   2.262   5.583
 7903SOL    HW224609   3.338   2.359   5.490
 7904SOL     OW24610   5.400   3.087   3.017
 7904SOL    HW124611   5.395   2.988   3.006
 7904SOL    HW224612   5.355   3.131   2.939
 7905SOL     OW24613   6.074   1.932   1.074
 7905SOL    HW124614   6.086   1.838   1.043
 7905SOL    HW224615   5.999   1.975   1.023
 7906SOL     OW24616   6.989   5.952   5.604
 7906SOL    HW124617   6.991   5.993   5.695
 7906SOL    HW224618   0.065   5.922   5.579
 7907SOL     OW24619   5.138   5.465   2.931
 7907SOL    HW124620   5.061   5.440   2.989
 7907SOL    HW224621   5.221   5.419   2.963
 7908SOL     OW24622   1.611   6.824   6.379
 7908SOL    HW124623   1.610   6.905   6.320
 7908SOL    HW224624   1.517   6.801   6.404
 7909SOL     OW24625   6.793   4.342   3.094
 7909SOL    HW124626   6.855   4.269   3.066
 7909SOL    HW224627   6.707   4.334   3.043
 7910SOL     OW24628   1.378   4.320   4.700
 7910SOL    HW124629   1.440   4.331   4.623
 7910SOL    HW224630   1.347   4.225   4.706
 7911SOL     OW24631   6.082   3.855   6.378
 7911SOL    HW124632   6.003   3.910   6.409
 7911SOL    HW224633   6.052   3.761   6.362
 7912SOL     OW24634   5.557   5.673   1.689
 7912SOL    HW124635   5.556   5.575   1.667
 7912SOL    HW224636   5.478   5.695   1.745
 7913SOL     OW24637   1.242   4.033   6.576
 7913SOL    HW124638   1.329   4.075   6.603
 7913SOL    HW224639   1.166   4.084   6.618
 7914SOL     OW24640   1.358   0.348   4.855
 7914SOL    HW124641   1.262   0.346   4.826
 7914SOL    HW224642   1.367   0.402   4.938
 7915SOL     OW24643   2.808   6.391   1.549
 7915SOL    HW124644   2.906   6.409   1.560
 7915SOL    HW224645   2.757   6.475   1.564
 7916SOL     OW24646   1.930   0.460   3.072
 7916SOL    HW124647   1.961   0.385   3.132
 7916SOL    HW224648   1.945   0.434   2.977
 7917SOL     OW24649   4.560   1.464   2.835
 7917SOL    HW124650   4.559   1.407   2.753
 7917SOL    HW224651   4.616   1.546   2.818
 7918SOL     OW24652   1.429   2.883   2.621
 7918SOL    HW124653   1.390   2.877   2.530
 7918SOL    HW224654   1.404   2.971   2.663
 7919SOL     OW24655   1.230   0.484   4.561
 7919SOL    HW124656   1.154   0.549   4.571
 7919SOL    HW224657   1.200   0.393   4.590
 7920SOL     OW24658   5.085   6.843   1.201
 7920SOL    HW124659   5.079   6.797   1.290
 7920SOL    HW224660   5.176   6.883   1.192
 7921SOL     OW24661   6.488   3.472   0.731
 7921SOL    HW124662   6.400   3.457   0.687
 7921SOL    HW224663   6.556   3.409   0.691
 7922SOL     OW24664   1.969   6.508   3.574
 7922SOL    HW124665   2.055   6.542   3.536
 7922SOL    HW224666   1.981   6.413   3.603
 7923SOL     OW24667   4.993   0.771   0.697
 7923SOL    HW124668   4.908   0.757   0.645
 7923SOL    HW224669   5.002   0.700   0.767
 7924SOL     OW24670   5.327   5.853   7.006
 7924SOL    HW124671   5.375   5.765   7.000
 7924SOL    HW224672   5.382   5.918   0.042
 7925SOL     OW24673   2.335   4.539   6.130
 7925SOL    HW124674   2.347   4.636   6.151
 7925SOL    HW224675   2.399   4.513   6.057
 7926SOL     OW24676   4.683   5.702   0.493
 7926SOL    HW124677   4.614   5.741   0.432
 7926SOL    HW224678   4.745   5.644   0.441
 7927SOL     OW24679   5.049   6.791   3.740
 7927SOL    HW124680   4.997   6.798   3.825
 7927SOL    HW224681   5.036   6.700   3.700
 7928SOL     OW24682   6.003   2.545   4.000
 7928SOL    HW124683   5.986   2.510   4.092
 7928SOL    HW224684   5.940   2.620   3.980
 7929SOL     OW24685   4.414   4.103   5.519
 7929SOL    HW124686   4.408   4.086   5.617
 7929SOL    HW224687   4.392   4.019   5.469
 7930SOL     OW24688   3.738   5.576   1.298
 7930SOL    HW124689   3.760   5.672   1.277
 7930SOL    HW224690   3.701   5.533   1.216
 7931SOL     OW24691   5.319   0.786   0.330
 7931SOL    HW124692   5.274   0.735   0.403
 7931SOL    HW224693   5.251   0.839   0.279
 7932SOL     OW24694   1.265   3.937   0.665
 7932SOL    HW124695   1.291   3.842   0.685
 7932SOL    HW224696   1.215   3.941   0.579
 7933SOL     OW24697   1.952   1.165   6.914
 7933SOL    HW124698   1.985   1.147   6.822
 7933SOL    HW224699   1.990   1.097   6.977
 7934SOL     OW24700   6.188   5.424   0.812
 7934SOL    HW124701   6.156   5.366   0.738
 7934SOL    HW224702   6.247   5.371   0.873
 7935SOL     OW24703   6.391   4.007   3.654
 7935SOL    HW124704   6.414   3.936   3.721
 7935SOL    HW224705   6.469   4.069   3.643
 7936SOL     OW24706   2.596   5.560   3.564
 7936SOL    HW124707   2.569   5.636   3.505
 7936SOL    HW224708   2.599   5.475   3.510
 7937SOL     OW24709   3.837   1.170   1.439
 7937SOL    HW124710   3.765   1.216   1.386
 7937SOL    HW224711   3.916   1.153   1.381
 7938SOL     OW24712   1.791   0.029   3.166
 7938SOL    HW124713   1.821   6.970   3.224
 7938SOL    HW224714   1.762   7.010   3.077
 7939SOL     OW24715   1.936   0.260   3.517
 7939SOL    HW124716   1.928   0.164   3.542
 7939SOL    HW224717   1.951   0.268   3.418
 7940SOL     OW24718   6.757   1.337   5.506
 7940SOL    HW124719   6.722   1.378   5.422
 7940SOL    HW224720   6.828   1.270   5.483
 7941SOL     OW24721   2.551   0.378   0.930
 7941SOL    HW124722   2.583   0.292   0.969
 7941SOL    HW224723   2.477   0.360   0.865
 7942SOL     OW24724   1.489   3.735   1.445
 7942SOL    HW124725   1.541   3.725   1.530
 7942SOL    HW224726   1.552   3.737   1.368
 7943SOL     OW24727   1.804   5.673   0.019
 7943SOL    HW124728   1.812   5.735   6.957
 7943SOL    HW224729   1.776   5.582   7.003
 7944SOL     OW24730   1.774   1.861   0.530
 7944SOL    HW124731   1.814   1.775   0.501
 7944SOL    HW224732   1.840   1.935   0.516
 7945SOL     OW24733   6.152   4.486   3.946
 7945SOL    HW124734   6.106   4.410   3.900
 7945SOL    HW224735   6.084   4.541   3.995
 7946SOL     OW24736   5.022   1.414   5.734
 7946SOL    HW124737   5.113   1.412   5.776
 7946SOL    HW224738   4.957   1.457   5.797
 7947SOL     OW24739   0.729   3.937   6.941
 7947SOL    HW124740   0.680   3.995   7.007
 7947SOL    HW224741   0.678   3.852   6.927
 7948SOL     OW24742   1.141   5.820   1.277
 7948SOL    HW124743   1.236   5.803   1.303
 7948SOL    HW224744   1.106   5.897   1.329
 7949SOL     OW24745   4.022   5.483   4.735
 7949SOL    HW124746   4.048   5.483   4.831
 7949SOL    HW224747   4.032   5.575   4.697
 7950SOL     OW24748   6.711   2.487   6.063
 7950SOL    HW124749   6.774   2.417   6.028
 7950SOL    HW224750   6.763   2.555   6.114
 7951SOL     OW24751   3.234   0.596   3.100
 7951SOL    HW124752   3.199   0.511   3.060
 7951SOL    HW224753   3.333   0.599   3.088
 7952SOL     OW24754   0.223   3.446   5.659
 7952SOL    HW124755   0.290   3.372   5.666
 7952SOL    HW224756   0.267   3.527   5.622
 7953SOL     OW24757   0.587   0.806   0.231
 7953SOL    HW124758   0.574   0.890   0.180
 7953SOL    HW224759   0.504   0.750   0.226
 7954SOL     OW24760   3.879   2.357   1.218
 7954SOL    HW124761   3.800   2.395   1.170
 7954SOL    HW224762   3.884   2.397   1.310
 7955SOL     OW24763   6.338   0.305   6.311
 7955SOL    HW124764   6.313   0.212   6.337
 7955SOL    HW224765   6.353   0.308   6.212
 7956SOL     OW24766   0.178   6.910   1.182
 7956SOL    HW124767   0.188   6.831   1.243
 7956SOL    HW224768   0.177   6.994   1.236
 7957SOL     OW24769   6.185   1.902   6.196
 7957SOL    HW124770   6.127   1.952   6.133
 7957SOL    HW224771   6.275   1.888   6.154
 7958SOL     OW24772   5.007   2.644   6.698
 7958SOL    HW124773   5.062   2.698   6.635
 7958SOL    HW224774   4.921   2.692   6.717
 7959SOL     OW24775   5.581   2.878   6.736
 7959SOL    HW124776   5.598   2.789   6.694
 7959SOL    HW224777   5.522   2.866   6.815
 7960SOL     OW24778   0.799   2.584   5.208
 7960SOL    HW124779   0.897   2.601   5.211
 7960SOL    HW224780   0.778   2.520   5.133
 7961SOL     OW24781   5.904   6.936   5.947
 7961SOL    HW124782   5.843   6.947   5.869
 7961SOL    HW224783   5.932   0.009   5.982
 7962SOL     OW24784   5.828   0.536   4.796
 7962SOL    HW124785   5.865   0.521   4.887
 7962SOL    HW224786   5.900   0.521   4.728
 7963SOL     OW24787   5.809   5.995   2.097
 7963SOL    HW124788   5.746   6.007   2.020
 7963SOL    HW224789   5.779   6.051   2.174
 7964SOL     OW24790   0.896   4.465   1.940
 7964SOL    HW124791   0.886   4.530   2.015
 7964SOL    HW224792   0.977   4.488   1.886
 7965SOL     OW24793   4.615   1.623   6.452
 7965SOL    HW124794   4.520   1.647   6.430
 7965SOL    HW224795   4.621   1.595   6.548
 7966SOL     OW24796   5.615   3.725   5.423
 7966SOL    HW124797   5.637   3.647   5.481
 7966SOL    HW224798   5.521   3.754   5.441
 7967SOL     OW24799   2.094   4.137   1.315
 7967SOL    HW124800   1.999   4.118   1.339
 7967SOL    HW224801   2.155   4.080   1.370
 7968SOL     OW24802   1.843   2.156   3.476
 7968SOL    HW124803   1.783   2.167   3.397
 7968SOL    HW224804   1.932   2.198   3.457
 7969SOL     OW24805   2.625   4.317   6.064
 7969SOL    HW124806   2.722   4.294   6.060
 7969SOL    HW224807   2.570   4.234   6.052
 7970SOL     OW24808   6.523   2.661   2.885
 7970SOL    HW124809   6.486   2.625   2.799
 7970SOL    HW224810   6.622   2.643   2.889
 7971SOL     OW24811   2.525   0.417   6.852
 7971SOL    HW124812   2.491   0.503   6.815
 7971SOL    HW224813   2.599   0.383   6.793
 7972SOL     OW24814   3.741   3.075   3.919
 7972SOL    HW124815   3.698   3.162   3.940
 7972SOL    HW224816   3.685   3.000   3.956
 7973SOL     OW24817   0.891   5.604   2.278
 7973SOL    HW124818   0.879   5.509   2.308
 7973SOL    HW224819   0.899   5.605   2.178
 7974SOL     OW24820   6.990   2.976   4.154
 7974SOL    HW124821   6.919   2.946   4.090
 7974SOL    HW224822   0.033   2.899   4.177
 7975SOL     OW24823   4.184   0.605   6.189
 7975SOL    HW124824   4.097   0.621   6.142
 7975SOL    HW224825   4.233   0.692   6.200
 7976SOL     OW24826   0.133   0.341   1.031
 7976SOL    HW124827   0.189   0.308   0.955
 7976SOL    HW224828   0.049   0.288   1.036
 7977SOL     OW24829   5.274   4.898   2.888
 7977SOL    HW124830   5.296   4.807   2.854
 7977SOL    HW224831   5.358   4.950   2.903
 7978SOL     OW24832   0.221   4.049   1.456
 7978SOL    HW124833   0.264   3.999   1.531
 7978SOL    HW224834   0.291   4.072   1.388
 7979SOL     OW24835   3.816   2.671   5.822
 7979SOL    HW124836   3.913   2.686   5.804
 7979SOL    HW224837   3.763   2.691   5.740
 7980SOL     OW24838   4.041   5.983   2.703
 7980SOL    HW124839   4.111   6.048   2.734
 7980SOL    HW224840   4.052   5.897   2.752
 7981SOL     OW24841   0.650   3.014   3.527
 7981SOL    HW124842   0.745   3.023   3.557
 7981SOL    HW224843   0.621   3.098   3.482
 7982SOL     OW24844   6.526   6.913   0.493
 7982SOL    HW124845   6.574   7.000   0.487
 7982SOL    HW224846   6.592   6.838   0.498
 7983SOL     OW24847   3.678   1.593   1.196
 7983SOL    HW124848   3.587   1.634   1.203
 7983SOL    HW224849   3.743   1.650   1.247
 7984SOL     OW24850   6.171   2.029   2.048
 7984SOL    HW124851   6.266   2.016   2.020
 7984SOL    HW224852   6.142   1.952   2.106
 7985SOL     OW24853   3.051   3.806   5.869
 7985SOL    HW124854   3.072   3.720   5.916
 7985SOL    HW224855   3.009   3.870   5.932
 7986SOL     OW24856   1.958   1.056   3.588
 7986SOL    HW124857   1.893   0.991   3.550
 7986SOL    HW224858   1.909   1.123   3.644
 7987SOL     OW24859   1.030   2.848   6.588
 7987SOL    HW124860   1.026   2.804   6.678
 7987SOL    HW224861   1.064   2.782   6.521
 7988SOL     OW24862   6.091   0.138   1.646
 7988SOL    HW124863   6.057   0.106   1.734
 7988SOL    HW224864   6.183   0.102   1.630
 7989SOL     OW24865   0.703   4.645   1.699
 7989SOL    HW124866   0.636   4.706   1.658
 7989SOL    HW224867   0.702   4.655   1.798
 7990SOL     OW24868   4.563   5.229   5.576
 7990SOL    HW124869   4.576   5.322   5.609
 7990SOL    HW224870   4.611   5.165   5.637
 7991SOL     OW24871   5.344   1.062   4.156
 7991SOL    HW124872   5.256   1.074   4.201
 7991SOL    HW224873   5.330   1.053   4.057
 7992SOL     OW24874   3.054   0.644   0.385
 7992SOL    HW124875   2.955   0.630   0.386
 7992SOL    HW224876   3.087   0.644   0.291
 7993SOL     OW24877   6.333   4.619   1.156
 7993SOL    HW124878   6.281   4.541   1.192
 7993SOL    HW224879   6.269   4.690   1.126
 7994SOL     OW24880   0.900   1.318   5.217
 7994SOL    HW124881   0.947   1.366   5.143
 7994SOL    HW224882   0.967   1.278   5.279
 7995SOL     OW24883   0.302   5.912   0.494
 7995SOL    HW124884   0.376   5.972   0.523
 7995SOL    HW224885   0.276   5.852   0.569
 7996SOL     OW24886   1.498   6.137   4.208
 7996SOL    HW124887   1.462   6.162   4.298
 7996SOL    HW224888   1.445   6.061   4.171
 7997SOL     OW24889   2.625   0.569   5.841
 7997SOL    HW124890   2.602   0.497   5.907
 7997SOL    HW224891   2.541   0.614   5.810
 7998SOL     OW24892   1.954   1.974   1.662
 7998SOL    HW124893   1.880   1.964   1.596
 7998SOL    HW224894   1.983   2.070   1.666
 7999SOL     OW24895   0.160   0.809   2.218
 7999SOL    HW124896   0.137   0.901   2.249
 7999SOL    HW224897   0.222   0.814   2.140
 8000SOL     OW24898   4.545   6.020   0.736
 8000SOL    HW124899   4.460   5.993   0.780
 8000SOL    HW224900   4.532   6.026   0.637
 8001SOL     OW24901   5.163   4.957   2.137
 8001SOL    HW124902   5.208   4.956   2.226
 8001SOL    HW224903   5.116   5.044   2.124
 8002SOL     OW24904   1.474   0.508   5.057
 8002SOL    HW124905   1.509   0.462   5.139
 8002SOL    HW224906   1.549   0.556   5.011
 8003SOL     OW24907   2.327   5.290   2.961
 8003SOL    HW124908   2.344   5.386   2.986
 8003SOL    HW224909   2.341   5.279   2.863
 8004SOL     OW24910   2.081   3.822   3.792
 8004SOL    HW124911   2.066   3.759   3.715
 8004SOL    HW224912   2.037   3.910   3.773
 8005SOL     OW24913   2.779   0.148   4.713
 8005SOL    HW124914   2.877   0.132   4.721
 8005SOL    HW224915   2.762   0.245   4.698
 8006SOL     OW24916   4.593   5.494   6.498
 8006SOL    HW124917   4.630   5.512   6.590
 8006SOL    HW224918   4.527   5.564   6.474
 8007SOL     OW24919   0.368   0.133   1.109
 8007SOL    HW124920   0.345   0.150   1.014
 8007SOL    HW224921   0.291   0.161   1.167
 8008SOL     OW24922   5.295   5.688   1.491
 8008SOL    HW124923   5.345   5.604   1.469
 8008SOL    HW224924   5.288   5.697   1.590
 8009SOL     OW24925   5.980   0.149   1.104
 8009SOL    HW124926   6.043   0.191   1.038
 8009SOL    HW224927   6.015   0.163   1.197
 8010SOL     OW24928   2.810   0.152   0.550
 8010SOL    HW124929   2.896   0.202   0.560
 8010SOL    HW224930   2.781   0.155   0.455
 8011SOL     OW24931   3.791   1.835   1.747
 8011SOL    HW124932   3.874   1.826   1.691
 8011SOL    HW224933   3.799   1.916   1.805
 8012SOL     OW24934   5.926   0.746   5.520
 8012SOL    HW124935   5.887   0.655   5.506
 8012SOL    HW224936   5.941   0.761   5.618
 8013SOL     OW24937   3.316   0.310   3.592
 8013SOL    HW124938   3.375   0.307   3.673
 8013SOL    HW224939   3.371   0.333   3.512
 8014SOL     OW24940   1.987   2.536   3.704
 8014SOL    HW124941   1.923   2.580   3.766
 8014SOL    HW224942   1.954   2.544   3.610
 8015SOL     OW24943   3.952   5.810   5.107
 8015SOL    HW124944   3.868   5.764   5.137
 8015SOL    HW224945   3.974   5.781   5.014
 8016SOL     OW24946   2.852   3.735   5.564
 8016SOL    HW124947   2.916   3.807   5.593
 8016SOL    HW224948   2.824   3.752   5.469
 8017SOL     OW24949   5.126   6.206   1.687
 8017SOL    HW124950   5.223   6.223   1.672
 8017SOL    HW224951   5.081   6.187   1.600
 8018SOL     OW24952   3.691   2.660   0.963
 8018SOL    HW124953   3.681   2.648   1.062
 8018SOL    HW224954   3.764   2.600   0.930
 8019SOL     OW24955   2.814   3.341   0.886
 8019SOL    HW124956   2.822   3.408   0.961
 8019SOL    HW224957   2.794   3.389   0.801
 8020SOL     OW24958   1.057   0.095   0.315
 8020SOL    HW124959   0.987   0.165   0.304
 8020SOL    HW224960   1.020   0.018   0.367
 8021SOL     OW24961   1.430   2.254   0.462
 8021SOL    HW124962   1.423   2.197   0.543
 8021SOL    HW224963   1.513   2.230   0.411
 8022SOL     OW24964   3.717   0.373   2.587
 8022SOL    HW124965   3.816   0.360   2.585
 8022SOL    HW224966   3.679   0.357   2.496
 8023SOL     OW24967   3.571   5.085   2.456
 8023SOL    HW124968   3.644   5.092   2.524
 8023SOL    HW224969   3.571   5.168   2.399
 8024SOL     OW24970   2.835   0.413   6.493
 8024SOL    HW124971   2.794   0.503   6.505
 8024SOL    HW224972   2.782   0.345   6.544
 8025SOL     OW24973   0.816   0.046   1.609
 8025SOL    HW124974   0.725   0.085   1.624
 8025SOL    HW224975   0.809   6.963   1.600
 8026SOL     OW24976   0.677   6.618   5.000
 8026SOL    HW124977   0.776   6.619   5.017
 8026SOL    HW224978   0.632   6.558   5.067
 8027SOL     OW24979   4.133   0.005   6.215
 8027SOL    HW124980   4.099   7.015   6.121
 8027SOL    HW224981   4.074   0.065   6.269
 8028SOL     OW24982   3.514   5.841   6.498
 8028SOL    HW124983   3.453   5.797   6.432
 8028SOL    HW224984   3.512   5.791   6.584
 8029SOL     OW24985   1.470   6.781   1.333
 8029SOL    HW124986   1.469   6.746   1.426
 8029SOL    HW224987   1.524   6.720   1.275
 8030SOL     OW24988   0.517   3.427   0.884
 8030SOL    HW124989   0.521   3.527   0.889
 8030SOL    HW224990   0.428   3.396   0.918
 8031SOL     OW24991   0.520   1.029   4.057
 8031SOL    HW124992   0.421   1.012   4.063
 8031SOL    HW224993   0.567   0.967   4.120
 8032SOL     OW24994   0.671   3.408   1.909
 8032SOL    HW124995   0.752   3.360   1.875
 8032SOL    HW224996   0.690   3.442   2.001
 8033SOL     OW24997   3.830   5.220   0.660
 8033SOL    HW124998   3.845   5.197   0.756
 8033SOL    HW224999   3.822   5.320   0.650
 8034SOL     OW25000   1.012   1.439   5.005
 8034SOL    HW125001   1.051   1.406   4.919
 8034SOL    HW225002   1.014   1.539   5.007
 8035SOL     OW25003   5.614   0.419   3.864
 8035SOL    HW125004   5.533   0.469   3.833
 8035SOL    HW225005   5.599   0.385   3.956
 8036SOL     OW25006   5.405   4.785   5.172
 8036SOL    HW125007   5.322   4.840   5.166
 8036SOL    HW225008   5.479   4.830   5.122
 8037SOL     OW25009   3.638   1.077   6.529
 8037SOL    HW125010   3.589   1.001   6.572
 8037SOL    HW225011   3.621   1.076   6.430
 8038SOL     OW25012   5.345   5.790   1.803
 8038SOL    HW125013   5.294   5.726   1.861
 8038SOL    HW225014   5.306   5.881   1.811
 8039SOL     OW25015   1.718   2.845   4.952
 8039SOL    HW125016   1.687   2.774   5.015
 8039SOL    HW225017   1.690   2.822   4.859
 8040SOL     OW25018   0.667   6.925   5.198
 8040SOL    HW125019   0.651   6.828   5.216
 8040SOL    HW225020   0.723   6.964   5.271
 8041SOL     OW25021   2.919   1.698   2.803
 8041SOL    HW125022   2.958   1.789   2.788
 8041SOL    HW225023   2.819   1.703   2.800
 8042SOL     OW25024   4.846   4.208   6.145
 8042SOL    HW125025   4.767   4.148   6.155
 8042SOL    HW225026   4.817   4.296   6.107
 8043SOL     OW25027   5.887   5.210   6.973
 8043SOL    HW125028   5.958   5.160   0.006
 8043SOL    HW225029   5.829   5.145   6.923
 8044SOL     OW25030   1.020   2.949   1.342
 8044SOL    HW125031   1.015   2.874   1.275
 8044SOL    HW225032   1.111   2.950   1.383
 8045SOL     OW25033   5.838   3.108   5.243
 8045SOL    HW125034   5.855   3.202   5.271
 8045SOL    HW225035   5.747   3.080   5.273
 8046SOL     OW25036   0.009   4.176   1.546
 8046SOL    HW125037   0.087   4.135   1.500
 8046SOL    HW225038   0.040   4.226   1.627
 8047SOL     OW25039   2.608   6.370   6.881
 8047SOL    HW125040   2.539   6.312   6.838
 8047SOL    HW225041   2.634   6.331   6.969
 8048SOL     OW25042   4.930   1.887   6.923
 8048SOL    HW125043   4.971   1.916   7.010
 8048SOL    HW225044   4.999   1.886   6.852
 8049SOL     OW25045   2.616   1.593   0.730
 8049SOL    HW125046   2.613   1.577   0.631
 8049SOL    HW225047   2.685   1.663   0.750
 8050SOL     OW25048   6.803   4.750   5.901
 8050SOL    HW125049   6.834   4.767   5.994
 8050SOL    HW225050   6.714   4.705   5.903
 8051SOL     OW25051   3.906   6.708   3.407
 8051SOL    HW125052   3.882   6.795   3.365
 8051SOL    HW225053   4.005   6.696   3.404
 8052SOL     OW25054   1.989   1.787   2.961
 8052SOL    HW125055   1.990   1.850   3.039
 8052SOL    HW225056   1.895   1.756   2.945
 8053SOL     OW25057   2.121   1.115   6.157
 8053SOL    HW125058   2.055   1.187   6.134
 8053SOL    HW225059   2.073   1.039   6.200
 8054SOL     OW25060   4.938   3.757   4.819
 8054SOL    HW125061   4.879   3.690   4.863
 8054SOL    HW225062   4.902   3.849   4.834
 8055SOL     OW25063   0.036   1.131   6.223
 8055SOL    HW125064   6.957   1.103   6.215
 8055SOL    HW225065   0.072   1.104   6.313
 8056SOL     OW25066   1.805   2.597   2.690
 8056SOL    HW125067   1.760   2.676   2.649
 8056SOL    HW225068   1.772   2.585   2.784
 8057SOL     OW25069   2.899   1.837   1.868
 8057SOL    HW125070   2.950   1.922   1.885
 8057SOL    HW225071   2.964   1.763   1.851
 8058SOL     OW25072   3.368   6.153   2.128
 8058SOL    HW125073   3.355   6.082   2.196
 8058SOL    HW225074   3.351   6.243   2.169
 8059SOL     OW25075   4.576   4.303   5.094
 8059SOL    HW125076   4.480   4.330   5.085
 8059SOL    HW225077   4.581   4.207   5.122
 8060SOL     OW25078   0.685   1.072   4.684
 8060SOL    HW125079   0.634   1.084   4.599
 8060SOL    HW225080   0.760   1.007   4.670
 8061SOL     OW25081   6.690   0.733   0.653
 8061SOL    HW125082   6.739   0.739   0.740
 8061SOL    HW225083   6.592   0.737   0.669
 8062SOL     OW25084   4.723   4.398   6.726
 8062SOL    HW125085   4.709   4.433   6.634
 8062SOL    HW225086   4.756   4.304   6.722
 8063SOL     OW25087   2.456   4.636   1.898
 8063SOL    HW125088   2.488   4.570   1.831
 8063SOL    HW225089   2.506   4.722   1.886
 8064SOL     OW25090   6.794   2.162   0.263
 8064SOL    HW125091   6.723   2.112   0.313
 8064SOL    HW225092   6.876   2.106   0.256
 8065SOL     OW25093   4.780   0.223   6.651
 8065SOL    HW125094   4.681   0.225   6.634
 8065SOL    HW225095   4.799   0.268   6.739
 8066SOL     OW25096   6.610   1.079   5.334
 8066SOL    HW125097   6.534   1.067   5.269
 8066SOL    HW225098   6.639   1.174   5.333
 8067SOL     OW25099   5.494   0.732   4.464
 8067SOL    HW125100   5.479   0.663   4.393
 8067SOL    HW225101   5.547   0.692   4.538
 8068SOL     OW25102   0.071   3.982   1.037
 8068SOL    HW125103   0.071   3.908   1.105
 8068SOL    HW225104   0.092   3.945   0.947
 8069SOL     OW25105   0.958   2.800   1.806
 8069SOL    HW125106   1.011   2.753   1.877
 8069SOL    HW225107   0.879   2.744   1.782
 8070SOL     OW25108   5.453   3.963   1.450
 8070SOL    HW125109   5.538   3.914   1.428
 8070SOL    HW225110   5.375   3.902   1.438
 8071SOL     OW25111   1.641   0.025   6.175
 8071SOL    HW125112   1.687   6.963   6.133
 8071SOL    HW225113   1.612   0.089   6.103
 8072SOL     OW25114   2.529   1.872   5.373
 8072SOL    HW125115   2.571   1.947   5.322
 8072SOL    HW225116   2.596   1.834   5.437
 8073SOL     OW25117   5.492   6.023   0.163
 8073SOL    HW125118   5.582   6.017   0.120
 8073SOL    HW225119   5.456   6.116   0.152
 8074SOL     OW25120   6.440   0.217   0.586
 8074SOL    HW125121   6.343   0.230   0.608
 8074SOL    HW225122   6.481   0.306   0.566
 8075SOL     OW25123   6.963   6.780   1.142
 8075SOL    HW125124   0.014   6.851   1.160
 8075SOL    HW225125   6.882   6.795   1.197
 8076SOL     OW25126   6.733   6.097   0.577
 8076SOL    HW125127   6.714   6.024   0.642
 8076SOL    HW225128   6.769   6.058   0.492
 8077SOL     OW25129   6.161   4.441   1.287
 8077SOL    HW125130   6.164   4.387   1.371
 8077SOL    HW225131   6.085   4.409   1.229
 8078SOL     OW25132   5.532   1.737   1.397
 8078SOL    HW125133   5.584   1.657   1.427
 8078SOL    HW225134   5.573   1.819   1.435
 8079SOL     OW25135   0.066   0.668   6.221
 8079SOL    HW125136   0.051   0.633   6.313
 8079SOL    HW225137   6.994   0.675   6.173
 8080SOL     OW25138   6.865   3.717   3.354
 8080SOL    HW125139   6.789   3.738   3.415
 8080SOL    HW225140   6.830   3.699   3.262
 8081SOL     OW25141   5.858   0.887   5.166
 8081SOL    HW125142   5.852   0.932   5.077
 8081SOL    HW225143   5.795   0.930   5.230
 8082SOL     OW25144   4.681   2.193   4.831
 8082SOL    HW125145   4.755   2.257   4.851
 8082SOL    HW225146   4.696   2.151   4.741
 8083SOL     OW25147   6.804   2.960   3.956
 8083SOL    HW125148   6.779   2.864   3.957
 8083SOL    HW225149   6.793   2.997   3.864
 8084SOL     OW25150   5.896   1.757   6.896
 8084SOL    HW125151   5.866   1.747   6.801
 8084SOL    HW225152   5.953   1.679   6.921
 8085SOL     OW25153   1.614   5.773   4.278
 8085SOL    HW125154   1.641   5.799   4.371
 8085SOL    HW225155   1.560   5.846   4.237
 8086SOL     OW25156   0.054   2.167   1.745
 8086SOL    HW125157   0.010   2.247   1.703
 8086SOL    HW225158   0.115   2.124   1.679
 8087SOL     OW25159   5.960   0.797   6.293
 8087SOL    HW125160   5.914   0.851   6.222
 8087SOL    HW225161   6.058   0.790   6.271
 8088SOL     OW25162   6.146   6.955   5.672
 8088SOL    HW125163   6.066   6.949   5.612
 8088SOL    HW225164   6.169   6.864   5.706
 8089SOL     OW25165   7.008   0.598   0.134
 8089SOL    HW125166   6.911   0.613   0.153
 8089SOL    HW225167   0.045   0.615   0.217
 8090SOL     OW25168   4.064   2.214   4.549
 8090SOL    HW125169   4.126   2.259   4.613
 8090SOL    HW225170   4.003   2.153   4.599
 8091SOL     OW25171   1.129   3.346   5.539
 8091SOL    HW125172   1.098   3.355   5.633
 8091SOL    HW225173   1.188   3.424   5.516
 8092SOL     OW25174   4.512   6.361   5.455
 8092SOL    HW125175   4.460   6.294   5.403
 8092SOL    HW225176   4.507   6.450   5.409
 8093SOL     OW25177   3.904   0.108   3.459
 8093SOL    HW125178   3.829   0.162   3.423
 8093SOL    HW225179   3.933   0.041   3.390
 8094SOL     OW25180   2.402   5.047   3.035
 8094SOL    HW125181   2.462   5.012   2.964
 8094SOL    HW225182   2.366   5.136   3.008
 8095SOL     OW25183   0.847   5.295   5.203
 8095SOL    HW125184   0.809   5.312   5.294
 8095SOL    HW225185   0.849   5.196   5.185
 8096SOL     OW25186   0.908   4.698   0.425
 8096SOL    HW125187   0.864   4.626   0.371
 8096SOL    HW225188   0.852   4.781   0.423
 8097SOL     OW25189   4.861   0.812   6.849
 8097SOL    HW125190   4.821   0.721   6.836
 8097SOL    HW225191   4.825   0.852   6.933
 8098SOL     OW25192   2.877   6.398   5.668
 8098SOL    HW125193   2.859   6.357   5.578
 8098SOL    HW225194   2.797   6.386   5.727
 8099SOL     OW25195   2.121   4.501   3.346
 8099SOL    HW125196   2.094   4.595   3.329
 8099SOL    HW225197   2.195   4.476   3.283
 8100SOL     OW25198   0.023   6.531   0.268
 8100SOL    HW125199   6.954   6.511   0.316
 8100SOL    HW225200   0.097   6.544   0.334
 8101SOL     OW25201   3.078   4.703   6.540
 8101SOL    HW125202   3.096   4.615   6.583
 8101SOL    HW225203   2.980   4.711   6.519
 8102SOL     OW25204   1.277   4.754   3.734
 8102SOL    HW125205   1.226   4.684   3.784
 8102SOL    HW225206   1.219   4.791   3.661
 8103SOL     OW25207   5.315   0.520   1.692
 8103SOL    HW125208   5.216   0.521   1.706
 8103SOL    HW225209   5.360   0.563   1.770
 8104SOL     OW25210   1.555   6.955   0.143
 8104SOL    HW125211   1.634   6.978   0.087
 8104SOL    HW225212   1.496   0.019   0.153
 8105SOL     OW25213   6.895   0.042   2.688
 8105SOL    HW125214   6.816   0.099   2.666
 8105SOL    HW225215   6.924   7.009   2.605
 8106SOL     OW25216   3.685   6.213   0.116
 8106SOL    HW125217   3.736   6.267   0.183
 8106SOL    HW225218   3.709   6.243   0.024
 8107SOL     OW25219   0.537   6.120   0.241
 8107SOL    HW125220   0.482   6.040   0.214
 8107SOL    HW225221   0.492   6.166   0.317
 8108SOL     OW25222   1.805   1.226   1.196
 8108SOL    HW125223   1.865   1.291   1.242
 8108SOL    HW225224   1.839   1.208   1.104
 8109SOL     OW25225   0.422   4.383   2.054
 8109SOL    HW125226   0.419   4.478   2.087
 8109SOL    HW225227   0.336   4.337   2.074
 8110SOL     OW25228   5.020   4.099   6.634
 8110SOL    HW125229   4.935   4.048   6.625
 8110SOL    HW225230   5.089   4.059   6.575
 8111SOL     OW25231   5.199   2.015   2.402
 8111SOL    HW125232   5.157   2.049   2.318
 8111SOL    HW225233   5.280   2.069   2.424
 8112SOL     OW25234   1.890   4.460   6.247
 8112SOL    HW125235   1.831   4.442   6.325
 8112SOL    HW225236   1.839   4.509   6.177
 8113SOL     OW25237   5.724   5.011   6.896
 8113SOL    HW125238   5.650   5.076   6.879
 8113SOL    HW225239   5.708   4.928   6.842
 8114SOL     OW25240   1.939   2.842   3.276
 8114SOL    HW125241   2.016   2.829   3.338
 8114SOL    HW225242   1.952   2.786   3.194
 8115SOL     OW25243   2.600   1.894   6.244
 8115SOL    HW125244   2.638   1.802   6.235
 8115SOL    HW225245   2.572   1.928   6.154
 8116SOL     OW25246   4.001   3.231   2.039
 8116SOL    HW125247   4.052   3.213   2.123
 8116SOL    HW225248   3.948   3.150   2.014
 8117SOL     OW25249   1.200   0.812   3.214
 8117SOL    HW125250   1.277   0.876   3.218
 8117SOL    HW225251   1.142   0.834   3.135
 8118SOL     OW25252   6.191   2.085   0.040
 8118SOL    HW125253   6.093   2.085   0.060
 8118SOL    HW225254   6.205   2.054   6.962
 8119SOL     OW25255   5.574   4.893   6.675
 8119SOL    HW125256   5.641   4.819   6.665
 8119SOL    HW225257   5.482   4.858   6.657
 8120SOL     OW25258   1.970   6.748   2.342
 8120SOL    HW125259   2.006   6.692   2.416
 8120SOL    HW225260   1.927   6.690   2.273
 8121SOL     OW25261   1.350   2.403   3.101
 8121SOL    HW125262   1.435   2.455   3.113
 8121SOL    HW225263   1.340   2.377   3.005
 8122SOL     OW25264   0.279   5.304   0.989
 8122SOL    HW125265   0.228   5.237   0.935
 8122SOL    HW225266   0.229   5.391   0.990
 8123SOL     OW25267   6.212   0.557   6.044
 8123SOL    HW125268   6.184   0.586   5.952
 8123SOL    HW225269   6.299   0.507   6.038
 8124SOL     OW25270   6.171   5.773   6.039
 8124SOL    HW125271   6.163   5.766   6.138
 8124SOL    HW225272   6.092   5.821   6.002
 8125SOL     OW25273   0.566   6.188   1.571
 8125SOL    HW125274   0.561   6.233   1.482
 8125SOL    HW225275   0.613   6.248   1.636
 8126SOL     OW25276   3.287   5.817   4.969
 8126SOL    HW125277   3.267   5.907   5.008
 8126SOL    HW225278   3.275   5.747   5.039
 8127SOL     OW25279   4.351   1.840   5.726
 8127SOL    HW125280   4.254   1.818   5.714
 8127SOL    HW225281   4.386   1.790   5.806
 8128SOL     OW25282   4.101   2.817   0.800
 8128SOL    HW125283   4.076   2.769   0.884
 8128SOL    HW225284   4.179   2.771   0.757
 8129SOL     OW25285   6.469   2.891   3.353
 8129SOL    HW125286   6.513   2.883   3.263
 8129SOL    HW225287   6.431   2.983   3.363
 8130SOL     OW25288   0.085   6.169   6.748
 8130SOL    HW125289   0.019   6.242   6.726
 8130SOL    HW225290   0.082   6.151   6.846
 8131SOL     OW25291   2.901   2.350   0.452
 8131SOL    HW125292   2.977   2.402   0.491
 8131SOL    HW225293   2.893   2.263   0.500
 8132SOL     OW25294   5.912   1.651   4.726
 8132SOL    HW125295   5.981   1.710   4.682
 8132SOL    HW225296   5.956   1.567   4.759
 8133SOL     OW25297   4.032   5.409   1.636
 8133SOL    HW125298   4.026   5.311   1.616
 8133SOL    HW225299   4.025   5.424   1.734
 8134SOL     OW25300   6.475   1.628   7.008
 8134SOL    HW125301   6.556   1.683   0.012
 8134SOL    HW225302   6.476   1.599   6.912
 8135SOL     OW25303   2.847   5.856   1.831
 8135SOL    HW125304   2.776   5.816   1.773
 8135SOL    HW225305   2.920   5.894   1.774
 8136SOL     OW25306   4.241   4.692   2.453
 8136SOL    HW125307   4.272   4.743   2.373
 8136SOL    HW225308   4.312   4.628   2.482
 8137SOL     OW25309   3.674   1.355   5.873
 8137SOL    HW125310   3.660   1.371   5.775
 8137SOL    HW225311   3.674   1.442   5.922
 8138SOL     OW25312   6.409   0.989   2.488
 8138SOL    HW125313   6.407   1.088   2.482
 8138SOL    HW225314   6.501   0.956   2.468
 8139SOL     OW25315   1.046   1.736   5.038
 8139SOL    HW125316   1.119   1.792   5.000
 8139SOL    HW225317   0.960   1.787   5.033
 8140SOL     OW25318   4.658   2.562   3.134
 8140SOL    HW125319   4.746   2.597   3.102
 8140SOL    HW225320   4.598   2.545   3.056
 8141SOL     OW25321   6.249   3.940   3.965
 8141SOL    HW125322   6.214   3.932   4.059
 8141SOL    HW225323   6.345   3.913   3.963
 8142SOL     OW25324   0.333   5.931   0.211
 8142SOL    HW125325   0.247   5.918   0.162
 8142SOL    HW225326   0.317   5.923   0.310
 8143SOL     OW25327   6.728   2.535   6.369
 8143SOL    HW125328   6.754   2.515   6.464
 8143SOL    HW225329   6.677   2.621   6.366
 8144SOL     OW25330   4.474   6.008   0.460
 8144SOL    HW125331   4.424   6.081   0.415
 8144SOL    HW225332   4.571   6.012   0.434
 8145SOL     OW25333   4.515   6.839   4.499
 8145SOL    HW125334   4.594   6.839   4.559
 8145SOL    HW225335   4.447   6.904   4.534
 8146SOL     OW25336   3.245   1.651   2.954
 8146SOL    HW125337   3.259   1.697   2.866
 8146SOL    HW225338   3.176   1.579   2.942
 8147SOL     OW25339   4.854   1.644   3.477
 8147SOL    HW125340   4.807   1.704   3.413
 8147SOL    HW225341   4.918   1.585   3.427
 8148SOL     OW25342   0.949   3.130   3.243
 8148SOL    HW125343   0.860   3.085   3.229
 8148SOL    HW225344   1.020   3.077   3.198
 8149SOL     OW25345   4.009   5.368   4.127
 8149SOL    HW125346   3.962   5.367   4.215
 8149SOL    HW225347   4.010   5.275   4.089
 8150SOL     OW25348   1.412   5.657   0.514
 8150SOL    HW125349   1.317   5.688   0.504
 8150SOL    HW225350   1.450   5.692   0.600
 8151SOL     OW25351   0.810   1.878   4.975
 8151SOL    HW125352   0.848   1.891   4.883
 8151SOL    HW225353   0.769   1.964   5.007
 8152SOL     OW25354   0.398   1.058   3.231
 8152SOL    HW125355   0.383   1.152   3.201
 8152SOL    HW225356   0.326   0.999   3.194
 8153SOL     OW25357   2.020   6.211   7.015
 8153SOL    HW125358   2.075   6.294   7.002
 8153SOL    HW225359   2.046   6.168   0.085
 8154SOL     OW25360   1.885   6.839   3.792
 8154SOL    HW125361   1.839   6.820   3.879
 8154SOL    HW225362   1.872   6.762   3.730
 8155SOL     OW25363   4.070   3.804   4.679
 8155SOL    HW125364   4.109   3.768   4.594
 8155SOL    HW225365   4.016   3.886   4.659
 8156SOL     OW25366   0.904   6.459   5.184
 8156SOL    HW125367   0.947   6.531   5.131
 8156SOL    HW225368   0.918   6.371   5.139
 8157SOL     OW25369   5.788   2.474   6.602
 8157SOL    HW125370   5.780   2.554   6.660
 8157SOL    HW225371   5.766   2.499   6.507
 8158SOL     OW25372   1.354   5.756   2.725
 8158SOL    HW125373   1.275   5.774   2.783
 8158SOL    HW225374   1.328   5.690   2.654
 8159SOL     OW25375   0.239   6.527   0.434
 8159SOL    HW125376   0.198   6.453   0.487
 8159SOL    HW225377   0.317   6.492   0.382
 8160SOL     OW25378   5.813   2.265   1.071
 8160SOL    HW125379   5.903   2.252   1.031
 8160SOL    HW225380   5.755   2.318   1.008
 8161SOL     OW25381   3.834   3.990   1.503
 8161SOL    HW125382   3.874   3.926   1.569
 8161SOL    HW225383   3.898   4.003   1.427
 8162SOL     OW25384   5.901   0.738   0.946
 8162SOL    HW125385   5.999   0.739   0.967
 8162SOL    HW225386   5.850   0.762   1.028
 8163SOL     OW25387   2.508   2.924   5.417
 8163SOL    HW125388   2.567   2.983   5.472
 8163SOL    HW225389   2.475   2.975   5.338
 8164SOL     OW25390   5.706   4.049   1.630
 8164SOL    HW125391   5.771   4.106   1.680
 8164SOL    HW225392   5.615   4.091   1.633
 8165SOL     OW25393   1.494   3.345   1.843
 8165SOL    HW125394   1.565   3.356   1.774
 8165SOL    HW225395   1.417   3.294   1.805
 8166SOL     OW25396   2.410   6.793   2.779
 8166SOL    HW125397   2.465   6.834   2.851
 8166SOL    HW225398   2.430   6.838   2.692
 8167SOL     OW25399   5.426   3.200   4.461
 8167SOL    HW125400   5.365   3.122   4.451
 8167SOL    HW225401   5.373   3.284   4.468
 8168SOL     OW25402   2.933   1.795   2.236
 8168SOL    HW125403   2.846   1.758   2.205
 8168SOL    HW225404   2.918   1.859   2.311
 8169SOL     OW25405   5.318   3.963   5.744
 8169SOL    HW125406   5.414   3.943   5.767
 8169SOL    HW225407   5.259   3.935   5.820
 8170SOL     OW25408   0.357   5.481   4.305
 8170SOL    HW125409   0.266   5.468   4.343
 8170SOL    HW225410   0.350   5.495   4.206
 8171SOL     OW25411   2.150   0.631   6.865
 8171SOL    HW125412   2.099   0.694   6.806
 8171SOL    HW225413   2.141   0.538   6.830
 8172SOL     OW25414   6.996   5.869   2.315
 8172SOL    HW125415   6.957   5.796   2.371
 8172SOL    HW225416   0.043   5.829   2.248
 8173SOL     OW25417   6.726   2.991   6.549
 8173SOL    HW125418   6.699   3.068   6.490
 8173SOL    HW225419   6.733   3.022   6.644
 8174SOL     OW25420   4.921   6.626   2.776
 8174SOL    HW125421   4.984   6.702   2.762
 8174SOL    HW225422   4.832   6.649   2.736
 8175SOL     OW25423   1.172   2.348   3.385
 8175SOL    HW125424   1.265   2.373   3.412
 8175SOL    HW225425   1.135   2.418   3.324
 8176SOL     OW25426   4.499   4.786   3.183
 8176SOL    HW125427   4.598   4.769   3.186
 8176SOL    HW225428   4.458   4.732   3.110
 8177SOL     OW25429   2.179   6.865   5.936
 8177SOL    HW125430   2.112   6.791   5.942
 8177SOL    HW225431   2.264   6.837   5.982
 8178SOL     OW25432   1.784   6.049   6.897
 8178SOL    HW125433   1.705   6.061   6.956
 8178SOL    HW225434   1.858   6.109   6.926
 8179SOL     OW25435   4.230   6.831   5.567
 8179SOL    HW125436   4.196   6.869   5.480
 8179SOL    HW225437   4.238   6.732   5.559
 8180SOL     OW25438   4.752   4.111   4.648
 8180SOL    HW125439   4.799   4.104   4.735
 8180SOL    HW225440   4.690   4.034   4.637
 8181SOL     OW25441   2.060   1.911   2.685
 8181SOL    HW125442   2.102   1.850   2.618
 8181SOL    HW225443   2.020   1.857   2.759
 8182SOL     OW25444   5.563   2.777   5.286
 8182SOL    HW125445   5.507   2.703   5.249
 8182SOL    HW225446   5.597   2.752   5.376
 8183SOL     OW25447   2.036   4.159   3.715
 8183SOL    HW125448   2.029   4.190   3.621
 8183SOL    HW225449   2.021   4.236   3.777
 8184SOL     OW25450   6.221   6.367   5.027
 8184SOL    HW125451   6.206   6.410   5.115
 8184SOL    HW225452   6.319   6.351   5.013
 8185SOL     OW25453   0.592   2.325   3.436
 8185SOL    HW125454   0.582   2.404   3.498
 8185SOL    HW225455   0.633   2.356   3.350
 8186SOL     OW25456   4.335   3.163   6.632
 8186SOL    HW125457   4.295   3.196   6.546
 8186SOL    HW225458   4.279   3.088   6.667
 8187SOL     OW25459   2.320   1.793   6.041
 8187SOL    HW125460   2.296   1.758   5.951
 8187SOL    HW225461   2.355   1.718   6.098
 8188SOL     OW25462   4.988   3.567   3.008
 8188SOL    HW125463   5.069   3.511   2.991
 8188SOL    HW225464   4.956   3.606   2.922
 8189SOL     OW25465   6.576   5.630   3.199
 8189SOL    HW125466   6.525   5.716   3.188
 8189SOL    HW225467   6.511   5.554   3.209
 8190SOL     OW25468   5.485   3.628   3.164
 8190SOL    HW125469   5.553   3.689   3.206
 8190SOL    HW225470   5.397   3.674   3.161
 8191SOL     OW25471   6.132   4.441   0.926
 8191SOL    HW125472   6.200   4.424   0.855
 8191SOL    HW225473   6.121   4.360   0.982
 8192SOL     OW25474   2.094   1.594   0.734
 8192SOL    HW125475   2.138   1.529   0.795
 8192SOL    HW225476   2.155   1.672   0.717
 8193SOL     OW25477   3.666   6.273   6.164
 8193SOL    HW125478   3.733   6.237   6.098
 8193SOL    HW225479   3.633   6.362   6.132
 8194SOL     OW25480   1.191   0.927   2.536
 8194SOL    HW125481   1.192   0.896   2.441
 8194SOL    HW225482   1.262   0.880   2.588
 8195SOL     OW25483   6.171   0.950   1.247
 8195SOL    HW125484   6.232   1.003   1.307
 8195SOL    HW225485   6.191   0.972   1.152
 8196SOL     OW25486   2.703   0.738   1.099
 8196SOL    HW125487   2.628   0.683   1.061
 8196SOL    HW225488   2.733   0.697   1.186
 8197SOL     OW25489   0.569   6.739   0.999
 8197SOL    HW125490   0.479   6.779   0.978
 8197SOL    HW225491   0.561   6.678   1.078
 8198SOL     OW25492   2.343   0.861   2.998
 8198SOL    HW125493   2.433   0.879   3.036
 8198SOL    HW225494   2.329   0.762   2.991
 8199SOL     OW25495   5.937   4.617   0.886
 8199SOL    HW125496   6.009   4.548   0.895
 8199SOL    HW225497   5.918   4.633   0.789
 8200SOL     OW25498   4.057   4.513   1.254
 8200SOL    HW125499   3.968   4.538   1.293
 8200SOL    HW225500   4.128   4.574   1.289
 8201SOL     OW25501   0.854   0.907   4.514
 8201SOL    HW125502   0.915   0.828   4.520
 8201SOL    HW225503   0.902   0.981   4.466
 8202SOL     OW25504   1.270   3.706   4.275
 8202SOL    HW125505   1.348   3.715   4.214
 8202SOL    HW225506   1.218   3.791   4.277
 8203SOL     OW25507   6.651   4.219   6.373
 8203SOL    HW125508   6.592   4.286   6.328
 8203SOL    HW225509   6.745   4.254   6.377
 8204SOL     OW25510   3.155   6.679   1.685
 8204SOL    HW125511   3.252   6.678   1.709
 8204SOL    HW225512   3.124   6.773   1.676
 8205SOL     OW25513   3.452   6.799   3.009
 8205SOL    HW125514   3.456   6.898   3.024
 8205SOL    HW225515   3.422   6.781   2.916
 8206SOL     OW25516   3.852   2.080   4.199
 8206SOL    HW125517   3.937   2.099   4.150
 8206SOL    HW225518   3.803   2.004   4.156
 8207SOL     OW25519   2.209   6.435   0.028
 8207SOL    HW125520   2.219   6.454   6.947
 8207SOL    HW225521   2.197   6.521   0.078
 8208SOL     OW25522   0.968   5.807   0.741
 8208SOL    HW125523   1.020   5.753   0.674
 8208SOL    HW225524   1.024   5.823   0.822
 8209SOL     OW25525   1.003   6.312   4.093
 8209SOL    HW125526   0.972   6.362   4.012
 8209SOL    HW225527   0.953   6.226   4.101
 8210SOL     OW25528   2.690   0.561   1.344
 8210SOL    HW125529   2.742   0.488   1.299
 8210SOL    HW225530   2.603   0.524   1.377
 8211SOL     OW25531   3.140   3.929   4.395
 8211SOL    HW125532   3.152   4.008   4.335
 8211SOL    HW225533   3.180   3.949   4.485
 8212SOL     OW25534   3.638   5.451   6.830
 8212SOL    HW125535   3.586   5.370   6.803
 8212SOL    HW225536   3.654   5.449   6.928
 8213SOL     OW25537   4.879   4.135   1.990
 8213SOL    HW125538   4.854   4.162   1.897
 8213SOL    HW225539   4.866   4.212   2.052
 8214SOL     OW25540   3.787   4.967   3.703
 8214SOL    HW125541   3.843   4.889   3.673
 8214SOL    HW225542   3.805   5.046   3.644
 8215SOL     OW25543   2.744   6.510   5.316
 8215SOL    HW125544   2.784   6.427   5.355
 8215SOL    HW225545   2.663   6.485   5.263
 8216SOL     OW25546   6.495   4.916   0.271
 8216SOL    HW125547   6.422   4.860   0.310
 8216SOL    HW225548   6.567   4.857   0.233
 8217SOL     OW25549   3.498   6.599   3.687
 8217SOL    HW125550   3.442   6.623   3.608
 8217SOL    HW225551   3.592   6.630   3.671
 8218SOL     OW25552   2.344   5.977   3.897
 8218SOL    HW125553   2.321   6.040   3.972
 8218SOL    HW225554   2.433   5.935   3.915
 8219SOL     OW25555   3.437   4.168   4.743
 8219SOL    HW125556   3.486   4.170   4.656
 8219SOL    HW225557   3.344   4.136   4.729
 8220SOL     OW25558   4.361   3.988   6.128
 8220SOL    HW125559   4.364   3.969   6.030
 8220SOL    HW225560   4.269   3.972   6.163
 8221SOL     OW25561   6.536   3.640   4.043
 8221SOL    HW125562   6.626   3.659   4.003
 8221SOL    HW225563   6.545   3.564   4.107
 8222SOL     OW25564   5.289   1.980   6.001
 8222SOL    HW125565   5.342   1.896   5.996
 8222SOL    HW225566   5.269   2.012   5.908
 8223SOL     OW25567   1.055   6.512   5.412
 8223SOL    HW125568   1.065   6.424   5.458
 8223SOL    HW225569   0.981   6.506   5.344
 8224SOL     OW25570   4.882   1.480   4.764
 8224SOL    HW125571   4.877   1.450   4.668
 8224SOL    HW225572   4.968   1.529   4.779
 8225SOL     OW25573   6.212   1.786   0.101
 8225SOL    HW125574   6.117   1.794   0.071
 8225SOL    HW225575   6.252   1.877   0.113
 8226SOL     OW25576   3.894   0.579   6.661
 8226SOL    HW125577   3.904   0.678   6.654
 8226SOL    HW225578   3.947   0.534   6.589
 8227SOL     OW25579   5.955   3.561   2.492
 8227SOL    HW125580   5.872   3.506   2.491
 8227SOL    HW225581   5.946   3.637   2.427
 8228SOL     OW25582   2.297   1.703   4.659
 8228SOL    HW125583   2.242   1.718   4.577
 8228SOL    HW225584   2.321   1.606   4.666
 8229SOL     OW25585   4.581   3.725   0.695
 8229SOL    HW125586   4.579   3.742   0.793
 8229SOL    HW225587   4.662   3.770   0.655
 8230SOL     OW25588   6.000   1.362   6.579
 8230SOL    HW125589   6.002   1.329   6.485
 8230SOL    HW225590   6.094   1.379   6.610
 8231SOL     OW25591   3.221   1.304   1.544
 8231SOL    HW125592   3.197   1.290   1.640
 8231SOL    HW225593   3.321   1.308   1.535
 8232SOL     OW25594   3.847   6.301   4.175
 8232SOL    HW125595   3.912   6.369   4.139
 8232SOL    HW225596   3.772   6.290   4.110
 8233SOL     OW25597   3.187   0.326   0.012
 8233SOL    HW125598   3.268   0.292   0.059
 8233SOL    HW225599   3.129   0.249   7.001
 8234SOL     OW25600   0.293   2.495   6.358
 8234SOL    HW125601   0.359   2.541   6.419
 8234SOL    HW225602   0.201   2.523   6.382
 8235SOL     OW25603   1.225   6.248   6.661
 8235SOL    HW125604   1.211   6.317   6.732
 8235SOL    HW225605   1.311   6.201   6.676
 8236SOL     OW25606   0.888   0.537   0.282
 8236SOL    HW125607   0.915   0.475   0.356
 8236SOL    HW225608   0.899   0.491   0.194
 8237SOL     OW25609   4.643   4.367   6.023
 8237SOL    HW125610   4.577   4.418   6.078
 8237SOL    HW225611   4.709   4.431   5.983
 8238SOL     OW25612   6.843   5.428   6.737
 8238SOL    HW125613   6.787   5.372   6.676
 8238SOL    HW225614   6.788   5.502   6.774
 8239SOL     OW25615   4.748   2.879   3.890
 8239SOL    HW125616   4.658   2.872   3.848
 8239SOL    HW225617   4.816   2.903   3.820
 8240SOL     OW25618   3.590   3.611   5.004
 8240SOL    HW125619   3.537   3.589   4.923
 8240SOL    HW225620   3.534   3.664   5.068
 8241SOL     OW25621   0.275   2.698   5.531
 8241SOL    HW125622   0.264   2.791   5.567
 8241SOL    HW225623   0.369   2.668   5.548
 8242SOL     OW25624   0.668   3.863   3.595
 8242SOL    HW125625   0.578   3.845   3.635
 8242SOL    HW225626   0.698   3.783   3.542
 8243SOL     OW25627   2.220   5.660   3.897
 8243SOL    HW125628   2.194   5.752   3.868
 8243SOL    HW225629   2.313   5.640   3.865
 8244SOL     OW25630   5.409   6.959   4.648
 8244SOL    HW125631   5.502   6.923   4.642
 8244SOL    HW225632   5.343   6.885   4.633
 8245SOL     OW25633   5.669   3.797   2.273
 8245SOL    HW125634   5.688   3.774   2.177
 8245SOL    HW225635   5.601   3.733   2.310
 8246SOL     OW25636   2.188   4.450   0.076
 8246SOL    HW125637   2.249   4.463   0.154
 8246SOL    HW225638   2.204   4.359   0.037
 8247SOL     OW25639   2.210   4.860   3.591
 8247SOL    HW125640   2.192   4.762   3.599
 8247SOL    HW225641   2.250   4.893   3.676
 8248SOL     OW25642   6.297   0.582   2.641
 8248SOL    HW125643   6.226   0.651   2.652
 8248SOL    HW225644   6.344   0.568   2.729
 8249SOL     OW25645   3.448   6.715   5.417
 8249SOL    HW125646   3.376   6.781   5.393
 8249SOL    HW225647   3.504   6.753   5.490
 8250SOL     OW25648   1.957   1.117   6.607
 8250SOL    HW125649   2.025   1.136   6.536
 8250SOL    HW225650   1.869   1.094   6.563
 8251SOL     OW25651   2.050   1.446   6.430
 8251SOL    HW125652   1.964   1.411   6.468
 8251SOL    HW225653   2.109   1.370   6.405
 8252SOL     OW25654   0.633   0.938   6.286
 8252SOL    HW125655   0.699   1.003   6.249
 8252SOL    HW225656   0.553   0.987   6.320
 8253SOL     OW25657   6.974   3.570   4.596
 8253SOL    HW125658   0.003   3.617   4.672
 8253SOL    HW225659   6.905   3.630   4.555
 8254SOL     OW25660   4.917   4.164   0.013
 8254SOL    HW125661   4.873   4.253   0.011
 8254SOL    HW225662   4.849   4.092   7.016
 8255SOL     OW25663   1.764   5.971   5.725
 8255SOL    HW125664   1.794   5.877   5.714
 8255SOL    HW225665   1.679   5.973   5.779
 8256SOL     OW25666   1.751   5.863   2.801
 8256SOL    HW125667   1.698   5.804   2.862
 8256SOL    HW225668   1.731   5.959   2.822
 8257SOL     OW25669   4.819   4.522   3.830
 8257SOL    HW125670   4.726   4.504   3.797
 8257SOL    HW225671   4.815   4.582   3.910
 8258SOL     OW25672   0.326   3.071   4.244
 8258SOL    HW125673   0.371   3.062   4.155
 8258SOL    HW225674   0.357   2.999   4.305
 8259SOL     OW25675   5.356   3.721   4.046
 8259SOL    HW125676   5.354   3.790   4.118
 8259SOL    HW225677   5.360   3.765   3.957
 8260SOL     OW25678   4.726   2.432   6.589
 8260SOL    HW125679   4.746   2.351   6.534
 8260SOL    HW225680   4.705   2.404   6.683
 8261SOL     OW25681   4.943   2.102   2.793
 8261SOL    HW125682   4.865   2.110   2.854
 8261SOL    HW225683   4.985   2.192   2.780
 8262SOL     OW25684   5.128   4.013   2.295
 8262SOL    HW125685   5.032   3.988   2.284
 8262SOL    HW225686   5.182   3.970   2.223
 8263SOL     OW25687   6.820   1.115   6.969
 8263SOL    HW125688   6.909   1.082   7.002
 8263SOL    HW225689   6.803   1.077   6.878
 8264SOL     OW25690   3.556   1.719   1.876
 8264SOL    HW125691   3.629   1.770   1.831
 8264SOL    HW225692   3.548   1.628   1.834
 8265SOL     OW25693   5.767   5.140   0.331
 8265SOL    HW125694   5.722   5.118   0.245
 8265SOL    HW225695   5.699   5.146   0.404
 8266SOL     OW25696   4.298   2.286   2.956
 8266SOL    HW125697   4.314   2.281   3.055
 8266SOL    HW225698   4.350   2.363   2.918
 8267SOL     OW25699   2.046   3.753   2.796
 8267SOL    HW125700   2.044   3.658   2.765
 8267SOL    HW225701   2.069   3.812   2.719
 8268SOL     OW25702   2.178   5.433   1.236
 8268SOL    HW125703   2.155   5.369   1.309
 8268SOL    HW225704   2.267   5.408   1.197
 8269SOL     OW25705   6.330   2.028   3.278
 8269SOL    HW125706   6.293   1.935   3.281
 8269SOL    HW225707   6.412   2.030   3.221
 8270SOL     OW25708   4.432   5.457   0.277
 8270SOL    HW125709   4.488   5.536   0.254
 8270SOL    HW225710   4.408   5.460   0.374
 8271SOL     OW25711   2.385   0.313   5.753
 8271SOL    HW125712   2.355   0.395   5.804
 8271SOL    HW225713   2.322   0.238   5.772
 8272SOL     OW25714   0.377   1.121   1.780
 8272SOL    HW125715   0.313   1.149   1.852
 8272SOL    HW225716   0.335   1.050   1.723
 8273SOL     OW25717   5.335   0.302   6.339
 8273SOL    HW125718   5.330   0.202   6.343
 8273SOL    HW225719   5.273   0.336   6.269
 8274SOL     OW25720   5.522   6.752   3.904
 8274SOL    HW125721   5.511   6.812   3.983
 8274SOL    HW225722   5.469   6.787   3.827
 8275SOL     OW25723   4.838   0.789   4.371
 8275SOL    HW125724   4.761   0.724   4.373
 8275SOL    HW225725   4.888   0.778   4.285
 8276SOL     OW25726   4.892   2.424   0.337
 8276SOL    HW125727   4.889   2.371   0.421
 8276SOL    HW225728   4.978   2.408   0.289
 8277SOL     OW25729   1.236   7.009   1.691
 8277SOL    HW125730   1.154   0.044   1.667
 8277SOL    HW225731   1.293   6.997   1.609
 8278SOL     OW25732   1.657   1.340   1.576
 8278SOL    HW125733   1.623   1.410   1.639
 8278SOL    HW225734   1.686   1.382   1.491
 8279SOL     OW25735   5.984   4.482   6.147
 8279SOL    HW125736   5.890   4.512   6.131
 8279SOL    HW225737   5.993   4.386   6.122
 8280SOL     OW25738   0.073   4.832   0.666
 8280SOL    HW125739   0.025   4.759   0.618
 8280SOL    HW225740   0.031   4.844   0.757
 8281SOL     OW25741   2.428   4.393   0.216
 8281SOL    HW125742   2.421   4.396   0.316
 8281SOL    HW225743   2.477   4.311   0.188
 8282SOL     OW25744   4.580   2.635   0.674
 8282SOL    HW125745   4.679   2.644   0.662
 8282SOL    HW225746   4.536   2.722   0.655
 8283SOL     OW25747   0.683   2.132   3.084
 8283SOL    HW125748   0.765   2.163   3.037
 8283SOL    HW225749   0.660   2.039   3.055
 8284SOL     OW25750   4.702   2.555   0.943
 8284SOL    HW125751   4.693   2.578   0.846
 8284SOL    HW225752   4.756   2.626   0.989
 8285SOL     OW25753   0.567   4.643   0.413
 8285SOL    HW125754   0.622   4.566   0.379
 8285SOL    HW225755   0.553   4.633   0.511
 8286SOL     OW25756   6.976   1.835   0.252
 8286SOL    HW125757   7.006   1.922   0.212
 8286SOL    HW225758   6.969   1.766   0.180
 8287SOL     OW25759   0.929   2.074   2.962
 8287SOL    HW125760   0.950   2.033   2.873
 8287SOL    HW225761   0.988   2.153   2.977
 8288SOL     OW25762   2.162   6.622   2.566
 8288SOL    HW125763   2.087   6.616   2.631
 8288SOL    HW225764   2.249   6.608   2.613
 8289SOL     OW25765   5.823   6.527   0.430
 8289SOL    HW125766   5.823   6.490   0.337
 8289SOL    HW225767   5.913   6.515   0.471
 8290SOL     OW25768   4.638   2.855   1.719
 8290SOL    HW125769   4.720   2.863   1.661
 8290SOL    HW225770   4.618   2.943   1.762
 8291SOL     OW25771   6.156   5.398   5.462
 8291SOL    HW125772   6.079   5.372   5.404
 8291SOL    HW225773   6.194   5.316   5.506
 8292SOL     OW25774   0.276   4.127   5.825
 8292SOL    HW125775   0.287   4.093   5.731
 8292SOL    HW225776   0.348   4.193   5.844
 8293SOL     OW25777   3.084   5.275   4.210
 8293SOL    HW125778   3.074   5.373   4.226
 8293SOL    HW225779   3.063   5.225   4.294
 8294SOL     OW25780   6.335   3.398   5.953
 8294SOL    HW125781   6.381   3.376   5.867
 8294SOL    HW225782   6.380   3.348   6.027
 8295SOL     OW25783   4.256   4.752   1.289
 8295SOL    HW125784   4.284   4.815   1.361
 8295SOL    HW225785   4.300   4.778   1.203
 8296SOL     OW25786   3.111   0.100   2.040
 8296SOL    HW125787   3.014   0.079   2.023
 8296SOL    HW225788   3.165   0.073   1.960
 8297SOL     OW25789   5.876   4.504   1.948
 8297SOL    HW125790   5.974   4.514   1.930
 8297SOL    HW225791   5.825   4.572   1.896
 8298SOL     OW25792   0.094   6.069   0.608
 8298SOL    HW125793   0.050   6.010   0.675
 8298SOL    HW225794   0.120   6.016   0.528
 8299SOL     OW25795   1.050   1.397   6.927
 8299SOL    HW125796   1.027   1.373   0.005
 8299SOL    HW225797   1.108   1.478   6.926
 8300SOL     OW25798   3.995   6.430   4.932
 8300SOL    HW125799   3.927   6.480   4.985
 8300SOL    HW225800   4.081   6.480   4.932
 8301SOL     OW25801   6.147   4.429   6.846
 8301SOL    HW125802   6.179   4.502   6.907
 8301SOL    HW225803   6.049   4.440   6.829
 8302SOL     OW25804   3.491   6.172   6.334
 8302SOL    HW125805   3.559   6.217   6.276
 8302SOL    HW225806   3.481   6.223   6.420
 8303SOL     OW25807   6.835   4.360   4.515
 8303SOL    HW125808   6.902   4.351   4.441
 8303SOL    HW225809   6.787   4.447   4.506
 8304SOL     OW25810   5.911   2.782   3.904
 8304SOL    HW125811   6.008   2.760   3.893
 8304SOL    HW225812   5.898   2.880   3.893
 8305SOL     OW25813   4.070   6.296   5.945
 8305SOL    HW125814   4.130   6.355   5.999
 8305SOL    HW225815   4.025   6.351   5.874
 8306SOL     OW25816   4.772   1.001   3.415
 8306SOL    HW125817   4.729   1.059   3.484
 8306SOL    HW225818   4.781   0.908   3.451
 8307SOL     OW25819   0.564   4.942   4.539
 8307SOL    HW125820   0.619   4.990   4.608
 8307SOL    HW225821   0.528   4.857   4.579
 8308SOL     OW25822   1.828   4.705   0.629
 8308SOL    HW125823   1.774   4.706   0.713
 8308SOL    HW225824   1.923   4.682   0.649
 8309SOL     OW25825   5.579   5.503   2.310
 8309SOL    HW125826   5.647   5.576   2.319
 8309SOL    HW225827   5.519   5.522   2.232
 8310SOL     OW25828   2.450   5.813   2.832
 8310SOL    HW125829   2.445   5.713   2.822
 8310SOL    HW225830   2.370   5.854   2.787
 8311SOL     OW25831   4.878   6.925   2.554
 8311SOL    HW125832   4.783   6.956   2.545
 8311SOL    HW225833   4.910   6.942   2.648
 8312SOL     OW25834   6.479   6.682   0.822
 8312SOL    HW125835   6.542   6.629   0.880
 8312SOL    HW225836   6.441   6.622   0.751
 8313SOL     OW25837   4.855   2.074   5.671
 8313SOL    HW125838   4.881   2.072   5.767
 8313SOL    HW225839   4.756   2.091   5.664
 8314SOL     OW25840   5.476   6.149   5.520
 8314SOL    HW125841   5.398   6.100   5.481
 8314SOL    HW225842   5.533   6.086   5.572
 8315SOL     OW25843   3.698   1.647   6.631
 8315SOL    HW125844   3.698   1.567   6.571
 8315SOL    HW225845   3.613   1.648   6.684
 8316SOL     OW25846   1.451   1.065   4.805
 8316SOL    HW125847   1.406   1.002   4.868
 8316SOL    HW225848   1.416   1.157   4.819
 8317SOL     OW25849   2.800   1.691   6.595
 8317SOL    HW125850   2.837   1.601   6.616
 8317SOL    HW225851   2.793   1.703   6.496
 8318SOL     OW25852   4.463   6.233   5.206
 8318SOL    HW125853   4.396   6.164   5.234
 8318SOL    HW225854   4.492   6.215   5.111
 8319SOL     OW25855   2.894   6.107   6.548
 8319SOL    HW125856   2.929   6.016   6.524
 8319SOL    HW225857   2.798   6.099   6.575
 8320SOL     OW25858   4.059   5.104   5.298
 8320SOL    HW125859   4.068   5.128   5.395
 8320SOL    HW225860   4.123   5.030   5.276
 8321SOL     OW25861   0.539   0.213   0.166
 8321SOL    HW125862   0.549   0.312   0.156
 8321SOL    HW225863   0.443   0.188   0.154
 8322SOL     OW25864   2.464   0.138   2.178
 8322SOL    HW125865   2.540   0.093   2.225
 8322SOL    HW225866   2.387   0.147   2.240
 8323SOL     OW25867   6.498   5.463   6.618
 8323SOL    HW125868   6.483   5.432   6.712
 8323SOL    HW225869   6.497   5.384   6.557
 8324SOL     OW25870   6.753   6.109   5.187
 8324SOL    HW125871   6.823   6.181   5.195
 8324SOL    HW225872   6.753   6.054   5.270
 8325SOL     OW25873   1.808   5.374   5.193
 8325SOL    HW125874   1.715   5.409   5.179
 8325SOL    HW225875   1.819   5.347   5.289
 8326SOL     OW25876   3.187   0.829   6.794
 8326SOL    HW125877   3.164   0.887   6.716
 8326SOL    HW225878   3.285   0.836   6.814
 8327SOL     OW25879   0.612   6.115   5.794
 8327SOL    HW125880   0.629   6.029   5.747
 8327SOL    HW225881   0.531   6.159   5.753
 8328SOL     OW25882   1.022   0.111   0.758
 8328SOL    HW125883   0.938   0.158   0.784
 8328SOL    HW225884   1.010   0.013   0.768
 8329SOL     OW25885   1.682   1.723   6.138
 8329SOL    HW125886   1.602   1.752   6.189
 8329SOL    HW225887   1.656   1.651   6.073
 8330SOL     OW25888   3.290   6.740   0.385
 8330SOL    HW125889   3.257   6.729   0.291
 8330SOL    HW225890   3.230   6.690   0.447
 8331SOL     OW25891   1.646   2.376   6.004
 8331SOL    HW125892   1.663   2.474   6.020
 8331SOL    HW225893   1.717   2.322   6.048
 8332SOL     OW25894   5.444   4.222   1.048
 8332SOL    HW125895   5.409   4.238   0.955
 8332SOL    HW225896   5.528   4.167   1.042
 8333SOL     OW25897   1.891   4.384   5.770
 8333SOL    HW125898   1.905   4.471   5.818
 8333SOL    HW225899   1.838   4.323   5.828
 8334SOL     OW25900   3.017   2.739   5.376
 8334SOL    HW125901   2.923   2.764   5.353
 8334SOL    HW225902   3.035   2.645   5.348
 8335SOL     OW25903   6.411   2.851   0.085
 8335SOL    HW125904   6.401   2.862   7.003
 8335SOL    HW225905   6.385   2.935   0.131
 8336SOL     OW25906   0.396   4.592   4.058
 8336SOL    HW125907   0.462   4.547   4.118
 8336SOL    HW225908   0.427   4.684   4.036
 8337SOL     OW25909   6.479   6.760   4.499
 8337SOL    HW125910   6.487   6.783   4.402
 8337SOL    HW225911   6.402   6.810   4.539
 8338SOL     OW25912   2.366   4.705   0.848
 8338SOL    HW125913   2.330   4.709   0.942
 8338SOL    HW225914   2.360   4.611   0.815
 8339SOL     OW25915   6.450   0.347   1.571
 8339SOL    HW125916   6.350   0.348   1.569
 8339SOL    HW225917   6.482   0.261   1.610
 8340SOL     OW25918   6.019   2.317   6.753
 8340SOL    HW125919   6.080   2.368   6.814
 8340SOL    HW225920   5.939   2.373   6.731
 8341SOL     OW25921   3.589   0.007   1.292
 8341SOL    HW125922   3.616   0.003   1.196
 8341SOL    HW225923   3.537   0.091   1.309
 8342SOL     OW25924   4.003   0.917   1.544
 8342SOL    HW125925   3.903   0.917   1.541
 8342SOL    HW225926   4.037   0.828   1.512
 8343SOL     OW25927   4.567   6.126   3.225
 8343SOL    HW125928   4.597   6.031   3.227
 8343SOL    HW225929   4.595   6.172   3.310
 8344SOL     OW25930   2.280   4.230   4.745
 8344SOL    HW125931   2.357   4.199   4.689
 8344SOL    HW225932   2.292   4.198   4.839
 8345SOL     OW25933   7.008   6.905   4.181
 8345SOL    HW125934   6.940   6.876   4.248
 8345SOL    HW225935   6.989   6.999   4.153
 8346SOL     OW25936   5.321   4.089   3.006
 8346SOL    HW125937   5.315   4.078   3.105
 8346SOL    HW225938   5.324   4.186   2.984
 8347SOL     OW25939   1.438   1.393   6.857
 8347SOL    HW125940   1.383   1.454   6.800
 8347SOL    HW225941   1.530   1.431   6.867
 8348SOL     OW25942   2.482   6.928   0.996
 8348SOL    HW125943   2.536   7.007   1.026
 8348SOL    HW225944   2.520   6.844   1.035
 8349SOL     OW25945   4.698   6.010   0.957
 8349SOL    HW125946   4.649   6.027   0.871
 8349SOL    HW225947   4.703   5.912   0.975
 8350SOL     OW25948   2.531   0.573   6.535
 8350SOL    HW125949   2.516   0.591   6.438
 8350SOL    HW225950   2.463   0.507   6.568
 8351SOL     OW25951   0.461   4.433   3.281
 8351SOL    HW125952   0.491   4.359   3.342
 8351SOL    HW225953   0.441   4.395   3.191
 8352SOL     OW25954   2.105   6.738   6.287
 8352SOL    HW125955   2.053   6.817   6.255
 8352SOL    HW225956   2.196   6.767   6.316
 8353SOL     OW25957   1.047   5.759   2.711
 8353SOL    HW125958   1.065   5.846   2.757
 8353SOL    HW225959   0.990   5.702   2.770
 8354SOL     OW25960   5.407   3.039   3.791
 8354SOL    HW125961   5.493   3.012   3.748
 8354SOL    HW225962   5.424   3.073   3.883
 8355SOL     OW25963   3.379   3.914   5.696
 8355SOL    HW125964   3.311   3.842   5.688
 8355SOL    HW225965   3.430   3.922   5.610
 8356SOL     OW25966   3.228   3.338   2.520
 8356SOL    HW125967   3.190   3.429   2.502
 8356SOL    HW225968   3.254   3.296   2.433
 8357SOL     OW25969   3.009   6.569   5.213
 8357SOL    HW125970   3.066   6.493   5.245
 8357SOL    HW225971   2.921   6.566   5.260
 8358SOL     OW25972   0.447   0.427   4.694
 8358SOL    HW125973   0.531   0.375   4.678
 8358SOL    HW225974   0.382   0.371   4.745
 8359SOL     OW25975   5.177   2.523   5.063
 8359SOL    HW125976   5.097   2.464   5.078
 8359SOL    HW225977   5.160   2.612   5.105
 8360SOL     OW25978   3.403   0.269   2.449
 8360SOL    HW125979   3.383   0.314   2.536
 8360SOL    HW225980   3.317   0.248   2.403
 8361SOL     OW25981   4.791   1.626   6.910
 8361SOL    HW125982   4.880   1.582   6.905
 8361SOL    HW225983   4.802   1.723   6.934
 8362SOL     OW25984   0.678   4.712   2.048
 8362SOL    HW125985   0.641   4.634   2.099
 8362SOL    HW225986   0.777   4.717   2.062
 8363SOL     OW25987   3.594   2.481   1.468
 8363SOL    HW125988   3.518   2.545   1.465
 8363SOL    HW225989   3.621   2.466   1.564
 8364SOL     OW25990   0.254   1.713   3.294
 8364SOL    HW125991   0.301   1.801   3.286
 8364SOL    HW225992   0.298   1.657   3.363
 8365SOL     OW25993   2.544   2.642   1.091
 8365SOL    HW125994   2.644   2.651   1.084
 8365SOL    HW225995   2.515   2.665   1.184
 8366SOL     OW25996   4.859   6.022   1.458
 8366SOL    HW125997   4.810   6.077   1.391
 8366SOL    HW225998   4.954   6.011   1.430
 8367SOL     OW25999   0.778   4.681   4.074
 8367SOL    HW126000   0.790   4.698   3.976
 8367SOL    HW226001   0.696   4.729   4.106
 8368SOL     OW26002   0.436   3.044   5.997
 8368SOL    HW126003   0.379   2.974   5.953
 8368SOL    HW226004   0.451   3.019   6.092
 8369SOL     OW26005   1.313   0.851   0.686
 8369SOL    HW126006   1.264   0.895   0.611
 8369SOL    HW226007   1.374   0.782   0.649
 8370SOL     OW26008   2.685   3.255   1.473
 8370SOL    HW126009   2.782   3.267   1.493
 8370SOL    HW226010   2.646   3.190   1.538
 8371SOL     OW26011   3.050   4.527   5.561
 8371SOL    HW126012   3.007   4.507   5.649
 8371SOL    HW226013   3.136   4.476   5.552
 8372SOL     OW26014   1.443   6.816   3.380
 8372SOL    HW126015   1.440   6.788   3.284
 8372SOL    HW226016   1.400   6.906   3.389
 8373SOL     OW26017   6.136   0.304   4.524
 8373SOL    HW126018   6.108   0.305   4.620
 8373SOL    HW226019   6.073   0.247   4.471
 8374SOL     OW26020   0.798   2.156   3.508
 8374SOL    HW126021   0.753   2.087   3.565
 8374SOL    HW226022   0.729   2.218   3.471
 8375SOL     OW26023   1.525   2.330   5.621
 8375SOL    HW126024   1.535   2.273   5.703
 8375SOL    HW226025   1.571   2.417   5.636
 8376SOL     OW26026   0.697   1.443   3.736
 8376SOL    HW126027   0.633   1.380   3.779
 8376SOL    HW226028   0.764   1.474   3.804
 8377SOL     OW26029   4.683   5.933   1.870
 8377SOL    HW126030   4.617   5.997   1.909
 8377SOL    HW226031   4.734   5.888   1.943
 8378SOL     OW26032   4.281   5.961   6.191
 8378SOL    HW126033   4.350   5.911   6.138
 8378SOL    HW226034   4.226   5.896   6.243
 8379SOL     OW26035   5.954   2.823   1.742
 8379SOL    HW126036   5.883   2.886   1.775
 8379SOL    HW226037   5.935   2.732   1.778
 8380SOL     OW26038   1.687   5.341   2.627
 8380SOL    HW126039   1.596   5.337   2.586
 8380SOL    HW226040   1.682   5.393   2.712
 8381SOL     OW26041   0.478   2.651   2.874
 8381SOL    HW126042   0.404   2.590   2.845
 8381SOL    HW226043   0.459   2.686   2.965
 8382SOL     OW26044   1.222   0.351   2.185
 8382SOL    HW126045   1.239   0.337   2.088
 8382SOL    HW226046   1.157   0.425   2.198
 8383SOL     OW26047   1.727   6.755   4.938
 8383SOL    HW126048   1.690   6.812   4.865
 8383SOL    HW226049   1.827   6.750   4.929
 8384SOL     OW26050   0.712   3.996   3.977
 8384SOL    HW126051   0.622   3.961   4.006
 8384SOL    HW226052   0.709   4.096   3.976
 8385SOL     OW26053   4.567   2.402   1.733
 8385SOL    HW126054   4.641   2.469   1.739
 8385SOL    HW226055   4.605   2.311   1.717
 8386SOL     OW26056   6.613   5.480   2.148
 8386SOL    HW126057   6.655   5.526   2.226
 8386SOL    HW226058   6.540   5.420   2.180
 8387SOL     OW26059   0.500   2.474   3.643
 8387SOL    HW126060   0.442   2.395   3.660
 8387SOL    HW226061   0.455   2.536   3.579
 8388SOL     OW26062   3.274   6.382   1.403
 8388SOL    HW126063   3.295   6.459   1.343
 8388SOL    HW226064   3.273   6.297   1.350
 8389SOL     OW26065   1.203   2.634   4.160
 8389SOL    HW126066   1.136   2.609   4.230
 8389SOL    HW226067   1.162   2.698   4.095
 8390SOL     OW26068   1.090   6.559   6.521
 8390SOL    HW126069   1.136   6.470   6.525
 8390SOL    HW226070   1.144   6.627   6.572
 8391SOL     OW26071   4.969   6.161   0.997
 8391SOL    HW126072   4.871   6.144   0.987
 8391SOL    HW226073   4.989   6.255   0.971
 8392SOL     OW26074   3.284   5.764   0.539
 8392SOL    HW126075   3.227   5.835   0.496
 8392SOL    HW226076   3.234   5.724   0.616
 8393SOL     OW26077   1.379   6.652   1.899
 8393SOL    HW126078   1.426   6.565   1.912
 8393SOL    HW226079   1.373   6.700   1.986
 8394SOL     OW26080   1.774   1.270   4.020
 8394SOL    HW126081   1.687   1.235   3.984
 8394SOL    HW226082   1.757   1.356   4.069
 8395SOL     OW26083   2.007   6.020   6.531
 8395SOL    HW126084   1.976   5.969   6.450
 8395SOL    HW226085   2.104   6.040   6.522
 8396SOL     OW26086   5.121   1.840   0.295
 8396SOL    HW126087   5.037   1.785   0.290
 8396SOL    HW226088   5.180   1.803   0.367
 8397SOL     OW26089   0.544   4.243   3.472
 8397SOL    HW126090   0.490   4.226   3.555
 8397SOL    HW226091   0.536   4.164   3.411
 8398SOL     OW26092   5.692   1.843   6.391
 8398SOL    HW126093   5.724   1.813   6.301
 8398SOL    HW226094   5.679   1.762   6.450
 8399SOL     OW26095   5.320   6.976   5.361
 8399SOL    HW126096   5.226   6.944   5.347
 8399SOL    HW226097   5.331   0.050   5.319
 8400SOL     OW26098   5.666   5.887   3.328
 8400SOL    HW126099   5.655   5.967   3.268
 8400SOL    HW226100   5.763   5.871   3.345
 8401SOL     OW26101   2.271   3.490   5.212
 8401SOL    HW126102   2.257   3.456   5.119
 8401SOL    HW226103   2.299   3.414   5.271
 8402SOL     OW26104   4.707   1.220   4.507
 8402SOL    HW126105   4.652   1.302   4.488
 8402SOL    HW226106   4.707   1.161   4.426
 8403SOL     OW26107   0.774   1.796   6.419
 8403SOL    HW126108   0.747   1.774   6.513
 8403SOL    HW226109   0.761   1.715   6.361
 8404SOL     OW26110   5.041   5.191   5.116
 8404SOL    HW126111   4.992   5.210   5.031
 8404SOL    HW226112   4.978   5.201   5.194
 8405SOL     OW26113   0.597   2.422   6.160
 8405SOL    HW126114   0.541   2.505   6.158
 8405SOL    HW226115   0.662   2.425   6.084
 8406SOL     OW26116   5.967   3.752   1.829
 8406SOL    HW126117   6.049   3.775   1.776
 8406SOL    HW226118   5.934   3.662   1.802
 8407SOL     OW26119   5.519   3.312   2.464
 8407SOL    HW126120   5.492   3.303   2.560
 8407SOL    HW226121   5.601   3.369   2.457
 8408SOL     OW26122   5.190   4.378   4.303
 8408SOL    HW126123   5.201   4.346   4.209
 8408SOL    HW226124   5.099   4.420   4.313
 8409SOL     OW26125   0.949   1.976   3.814
 8409SOL    HW126126   1.044   1.950   3.831
 8409SOL    HW226127   0.946   2.056   3.755
 8410SOL     OW26128   1.878   5.433   2.281
 8410SOL    HW126129   1.840   5.525   2.271
 8410SOL    HW226130   1.978   5.439   2.288
 8411SOL     OW26131   1.968   3.581   3.044
 8411SOL    HW126132   1.871   3.609   3.044
 8411SOL    HW226133   2.002   3.578   2.950
 8412SOL     OW26134   5.506   2.303   2.550
 8412SOL    HW126135   5.599   2.337   2.560
 8412SOL    HW226136   5.460   2.303   2.639
 8413SOL     OW26137   1.487   5.508   2.159
 8413SOL    HW126138   1.478   5.514   2.060
 8413SOL    HW226139   1.534   5.423   2.183
 8414SOL     OW26140   6.475   0.179   4.360
 8414SOL    HW126141   6.428   0.096   4.390
 8414SOL    HW226142   6.574   0.166   4.370
 8415SOL     OW26143   0.527   4.743   0.837
 8415SOL    HW126144   0.501   4.749   0.933
 8415SOL    HW226145   0.537   4.835   0.799
 8416SOL     OW26146   4.211   4.672   3.124
 8416SOL    HW126147   4.267   4.704   3.200
 8416SOL    HW226148   4.248   4.587   3.089
 8417SOL     OW26149   0.822   5.440   6.935
 8417SOL    HW126150   0.821   5.430   0.018
 8417SOL    HW226151   0.755   5.510   6.907
 8418SOL     OW26152   5.631   6.334   2.532
 8418SOL    HW126153   5.696   6.330   2.608
 8418SOL    HW226154   5.571   6.254   2.535
 8419SOL     OW26155   2.255   1.683   3.002
 8419SOL    HW126156   2.291   1.636   2.922
 8419SOL    HW226157   2.160   1.710   2.985
 8420SOL     OW26158   4.773   1.968   5.430
 8420SOL    HW126159   4.705   1.901   5.458
 8420SOL    HW226160   4.837   1.984   5.505
 8421SOL     OW26161   0.275   0.908   0.709
 8421SOL    HW126162   0.341   0.970   0.668
 8421SOL    HW226163   0.182   0.940   0.688
 8422SOL     OW26164   2.959   0.955   1.337
 8422SOL    HW126165   3.007   0.909   1.411
 8422SOL    HW226166   2.993   1.049   1.328
 8423SOL     OW26167   2.005   4.798   1.400
 8423SOL    HW126168   1.987   4.782   1.497
 8423SOL    HW226169   1.974   4.889   1.375
 8424SOL     OW26170   2.686   2.228   1.955
 8424SOL    HW126171   2.776   2.270   1.958
 8424SOL    HW226172   2.630   2.264   2.030
 8425SOL     OW26173   0.289   5.471   5.648
 8425SOL    HW126174   0.267   5.510   5.738
 8425SOL    HW226175   0.216   5.410   5.618
 8426SOL     OW26176   3.506   4.118   2.921
 8426SOL    HW126177   3.533   4.081   3.010
 8426SOL    HW226178   3.558   4.073   2.849
 8427SOL     OW26179   2.482   1.102   7.001
 8427SOL    HW126180   2.445   1.115   0.077
 8427SOL    HW226181   2.556   1.034   7.004
 8428SOL     OW26182   6.705   3.421   1.999
 8428SOL    HW126183   6.650   3.498   2.030
 8428SOL    HW226184   6.647   3.356   1.949
 8429SOL     OW26185   1.480   6.742   3.110
 8429SOL    HW126186   1.562   6.774   3.065
 8429SOL    HW226187   1.476   6.642   3.105
 8430SOL     OW26188   3.746   6.682   3.636
 8430SOL    HW126189   3.790   6.655   3.550
 8430SOL    HW226190   3.809   6.740   3.688
 8431SOL     OW26191   3.127   3.586   2.883
 8431SOL    HW126192   3.126   3.486   2.877
 8431SOL    HW226193   3.220   3.617   2.900
 8432SOL     OW26194   4.614   5.488   0.674
 8432SOL    HW126195   4.635   5.556   0.604
 8432SOL    HW226196   4.645   5.523   0.763
 8433SOL     OW26197   6.641   1.416   3.621
 8433SOL    HW126198   6.545   1.438   3.637
 8433SOL    HW226199   6.653   1.391   3.525
 8434SOL     OW26200   5.157   6.610   0.379
 8434SOL    HW126201   5.201   6.652   0.458
 8434SOL    HW226202   5.118   6.522   0.406
 8435SOL     OW26203   5.458   3.590   0.792
 8435SOL    HW126204   5.450   3.526   0.869
 8435SOL    HW226205   5.382   3.654   0.794
 8436SOL     OW26206   3.525   4.163   1.699
 8436SOL    HW126207   3.543   4.082   1.643
 8436SOL    HW226208   3.479   4.233   1.643
 8437SOL     OW26209   0.410   2.897   0.823
 8437SOL    HW126210   0.410   2.797   0.818
 8437SOL    HW226211   0.427   2.926   0.917
 8438SOL     OW26212   2.915   5.490   1.901
 8438SOL    HW126213   2.953   5.421   1.963
 8438SOL    HW226214   2.934   5.581   1.937
 8439SOL     OW26215   5.310   0.248   2.428
 8439SOL    HW126216   5.351   0.339   2.423
 8439SOL    HW226217   5.359   0.193   2.496
 8440SOL     OW26218   1.190   3.817   3.550
 8440SOL    HW126219   1.235   3.775   3.629
 8440SOL    HW226220   1.257   3.872   3.499
 8441SOL     OW26221   3.910   5.768   1.537
 8441SOL    HW126222   4.005   5.737   1.529
 8441SOL    HW226223   3.851   5.689   1.555
 8442SOL     OW26224   2.915   3.237   0.557
 8442SOL    HW126225   2.884   3.149   0.592
 8442SOL    HW226226   2.858   3.310   0.595
 8443SOL     OW26227   0.024   2.632   0.804
 8443SOL    HW126228   7.002   2.707   0.859
 8443SOL    HW226229   6.973   2.604   0.736
 8444SOL     OW26230   5.019   2.572   3.214
 8444SOL    HW126231   5.118   2.574   3.199
 8444SOL    HW226232   4.972   2.575   3.125
 8445SOL     OW26233   3.511   5.501   2.914
 8445SOL    HW126234   3.549   5.438   2.846
 8445SOL    HW226235   3.424   5.466   2.947
 8446SOL     OW26236   6.142   3.822   3.329
 8446SOL    HW126237   6.080   3.897   3.306
 8446SOL    HW226238   6.167   3.828   3.425
 8447SOL     OW26239   5.749   5.002   1.153
 8447SOL    HW126240   5.705   5.015   1.241
 8447SOL    HW226241   5.769   4.905   1.139
 8448SOL     OW26242   1.461   4.481   5.421
 8448SOL    HW126243   1.383   4.533   5.386
 8448SOL    HW226244   1.436   4.384   5.427
 8449SOL     OW26245   2.200   0.894   5.638
 8449SOL    HW126246   2.127   0.895   5.707
 8449SOL    HW226247   2.172   0.841   5.559
 8450SOL     OW26248   1.591   5.785   1.007
 8450SOL    HW126249   1.673   5.751   1.053
 8450SOL    HW226250   1.580   5.883   1.026
 8451SOL     OW26251   2.620   4.252   1.438
 8451SOL    HW126252   2.691   4.255   1.367
 8451SOL    HW226253   2.569   4.338   1.436
 8452SOL     OW26254   6.658   5.795   2.437
 8452SOL    HW126255   6.637   5.782   2.534
 8452SOL    HW226256   6.687   5.708   2.398
 8453SOL     OW26257   0.844   4.440   5.341
 8453SOL    HW126258   0.761   4.478   5.301
 8453SOL    HW226259   0.924   4.477   5.294
 8454SOL     OW26260   1.885   6.799   5.855
 8454SOL    HW126261   1.814   6.748   5.808
 8454SOL    HW226262   1.911   6.879   5.801
 8455SOL     OW26263   6.252   2.127   0.457
 8455SOL    HW126264   6.213   2.039   0.484
 8455SOL    HW226265   6.350   2.128   0.476
 8456SOL     OW26266   6.027   4.669   3.651
 8456SOL    HW126267   6.106   4.719   3.685
 8456SOL    HW226268   5.946   4.694   3.704
 8457SOL     OW26269   5.471   6.111   6.114
 8457SOL    HW126270   5.377   6.118   6.147
 8457SOL    HW226271   5.531   6.167   6.172
 8458SOL     OW26272   1.182   1.410   1.591
 8458SOL    HW126273   1.250   1.467   1.545
 8458SOL    HW226274   1.184   1.318   1.552
 8459SOL     OW26275   2.271   4.858   2.559
 8459SOL    HW126276   2.261   4.894   2.466
 8459SOL    HW226277   2.259   4.932   2.625
 8460SOL     OW26278   3.526   1.206   1.045
 8460SOL    HW126279   3.514   1.126   0.986
 8460SOL    HW226280   3.517   1.290   0.990
 8461SOL     OW26281   5.769   4.755   3.060
 8461SOL    HW126282   5.802   4.662   3.046
 8461SOL    HW226283   5.784   4.809   2.977
 8462SOL     OW26284   1.920   3.578   0.633
 8462SOL    HW126285   1.973   3.502   0.669
 8462SOL    HW226286   1.892   3.637   0.709
 8463SOL     OW26287   0.489   6.367   1.878
 8463SOL    HW126288   0.489   6.445   1.940
 8463SOL    HW226289   0.583   6.348   1.848
 8464SOL     OW26290   6.984   3.260   0.091
 8464SOL    HW126291   7.007   3.320   0.015
 8464SOL    HW226292   6.908   3.200   0.066
 8465SOL     OW26293   6.171   4.165   0.768
 8465SOL    HW126294   6.163   4.233   0.695
 8465SOL    HW226295   6.191   4.075   0.729
 8466SOL     OW26296   0.329   1.193   4.855
 8466SOL    HW126297   0.359   1.269   4.798
 8466SOL    HW226298   0.365   1.107   4.819
 8467SOL     OW26299   3.080   1.119   0.640
 8467SOL    HW126300   3.138   1.161   0.570
 8467SOL    HW226301   3.135   1.099   0.721
 8468SOL     OW26302   6.523   3.626   2.034
 8468SOL    HW126303   6.469   3.616   2.118
 8468SOL    HW226304   6.462   3.644   1.957
 8469SOL     OW26305   3.421   2.835   5.678
 8469SOL    HW126306   3.407   2.782   5.762
 8469SOL    HW226307   3.365   2.795   5.605
 8470SOL     OW26308   1.782   5.589   1.098
 8470SOL    HW126309   1.811   5.605   1.003
 8470SOL    HW226310   1.852   5.625   1.160
 8471SOL     OW26311   3.837   1.839   3.692
 8471SOL    HW126312   3.881   1.768   3.747
 8471SOL    HW226313   3.904   1.907   3.664
 8472SOL     OW26314   6.288   1.609   6.806
 8472SOL    HW126315   6.247   1.685   6.756
 8472SOL    HW226316   6.323   1.642   6.894
 8473SOL     OW26317   5.030   5.131   5.648
 8473SOL    HW126318   5.095   5.157   5.576
 8473SOL    HW226319   4.977   5.211   5.676
 8474SOL     OW26320   3.492   3.986   6.567
 8474SOL    HW126321   3.553   3.933   6.508
 8474SOL    HW226322   3.402   3.990   6.525
 8475SOL     OW26323   0.704   1.773   2.656
 8475SOL    HW126324   0.722   1.799   2.751
 8475SOL    HW226325   0.751   1.687   2.636
 8476SOL     OW26326   6.663   0.909   2.433
 8476SOL    HW126327   6.726   0.868   2.499
 8476SOL    HW226328   6.707   0.913   2.344
 8477SOL     OW26329   5.831   6.564   0.937
 8477SOL    HW126330   5.831   6.643   0.999
 8477SOL    HW226331   5.864   6.592   0.847
 8478SOL     OW26332   1.998   6.426   6.757
 8478SOL    HW126333   1.900   6.419   6.776
 8478SOL    HW226334   2.016   6.399   6.663
 8479SOL     OW26335   1.574   2.279   6.920
 8479SOL    HW126336   1.592   2.184   6.894
 8479SOL    HW226337   1.486   2.307   6.882
 8480SOL     OW26338   3.406   4.407   1.606
 8480SOL    HW126339   3.388   4.501   1.636
 8480SOL    HW226340   3.322   4.368   1.567
 8481SOL     OW26341   5.457   3.460   2.068
 8481SOL    HW126342   5.407   3.521   2.008
 8481SOL    HW226343   5.556   3.468   2.051
 8482SOL     OW26344   5.030   0.108   5.722
 8482SOL    HW126345   5.027   0.207   5.729
 8482SOL    HW226346   5.118   0.074   5.757
 8483SOL     OW26347   4.692   5.216   4.132
 8483SOL    HW126348   4.653   5.245   4.219
 8483SOL    HW226349   4.704   5.116   4.133
 8484SOL     OW26350   5.528   6.588   5.655
 8484SOL    HW126351   5.491   6.499   5.628
 8484SOL    HW226352   5.456   6.656   5.656
 8485SOL     OW26353   3.376   0.314   5.782
 8485SOL    HW126354   3.286   0.272   5.780
 8485SOL    HW226355   3.446   0.243   5.795
 8486SOL     OW26356   4.901   2.978   5.063
 8486SOL    HW126357   4.829   2.910   5.056
 8486SOL    HW226358   4.876   3.046   5.132
 8487SOL     OW26359   0.678   1.361   5.359
 8487SOL    HW126360   0.692   1.328   5.452
 8487SOL    HW226361   0.761   1.344   5.305
 8488SOL     OW26362   4.256   5.928   3.042
 8488SOL    HW126363   4.347   5.887   3.029
 8488SOL    HW226364   4.190   5.878   2.985
 8489SOL     OW26365   6.224   2.114   1.625
 8489SOL    HW126366   6.156   2.079   1.560
 8489SOL    HW226367   6.176   2.159   1.701
 8490SOL     OW26368   4.080   0.435   6.804
 8490SOL    HW126369   4.022   0.515   6.784
 8490SOL    HW226370   4.164   0.465   6.848
 8491SOL     OW26371   3.006   6.210   1.776
 8491SOL    HW126372   2.996   6.135   1.710
 8491SOL    HW226373   3.031   6.294   1.728
 8492SOL     OW26374   5.835   6.516   3.820
 8492SOL    HW126375   5.807   6.565   3.737
 8492SOL    HW226376   5.866   6.424   3.795
 8493SOL     OW26377   5.000   0.040   5.458
 8493SOL    HW126378   4.939   0.110   5.421
 8493SOL    HW226379   4.999   0.045   5.558
 8494SOL     OW26380   0.166   3.767   2.322
 8494SOL    HW126381   0.086   3.812   2.284
 8494SOL    HW226382   0.227   3.737   2.249
 8495SOL     OW26383   4.461   5.934   4.578
 8495SOL    HW126384   4.416   5.888   4.655
 8495SOL    HW226385   4.452   6.033   4.588
 8496SOL     OW26386   3.844   2.102   2.341
 8496SOL    HW126387   3.763   2.126   2.287
 8496SOL    HW226388   3.826   2.119   2.437
 8497SOL     OW26389   6.567   0.900   3.407
 8497SOL    HW126390   6.507   0.821   3.423
 8497SOL    HW226391   6.608   0.892   3.315
 8498SOL     OW26392   5.583   6.226   5.256
 8498SOL    HW126393   5.569   6.217   5.354
 8498SOL    HW226394   5.507   6.183   5.207
 8499SOL     OW26395   6.369   0.277   6.026
 8499SOL    HW126396   6.448   0.335   6.008
 8499SOL    HW226397   6.302   0.288   5.953
 8500SOL     OW26398   0.216   0.614   5.636
 8500SOL    HW126399   0.240   0.690   5.576
 8500SOL    HW226400   0.120   0.622   5.663
 8501SOL     OW26401   3.721   6.723   5.224
 8501SOL    HW126402   3.692   6.636   5.263
 8501SOL    HW226403   3.746   6.711   5.128
 8502SOL     OW26404   6.510   2.701   0.593
 8502SOL    HW126405   6.580   2.660   0.534
 8502SOL    HW226406   6.545   2.707   0.687
 8503SOL     OW26407   4.886   2.489   5.930
 8503SOL    HW126408   4.911   2.394   5.945
 8503SOL    HW226409   4.865   2.504   5.834
 8504SOL     OW26410   1.376   1.009   3.320
 8504SOL    HW126411   1.329   1.025   3.407
 8504SOL    HW226412   1.371   1.091   3.263
 8505SOL     OW26413   6.077   1.157   2.794
 8505SOL    HW126414   6.170   1.124   2.774
 8505SOL    HW226415   6.080   1.220   2.871
 8506SOL     OW26416   2.144   1.083   4.342
 8506SOL    HW126417   2.145   1.016   4.416
 8506SOL    HW226418   2.051   1.092   4.306
 8507SOL     OW26419   4.231   5.810   0.253
 8507SOL    HW126420   4.277   5.818   0.341
 8507SOL    HW226421   4.299   5.801   0.180
 8508SOL     OW26422   3.633   1.006   5.880
 8508SOL    HW126423   3.685   1.064   5.943
 8508SOL    HW226424   3.577   0.942   5.932
 8509SOL     OW26425   4.055   2.209   2.230
 8509SOL    HW126426   3.988   2.178   2.298
 8509SOL    HW226427   4.144   2.167   2.249
 8510SOL     OW26428   0.554   2.258   5.016
 8510SOL    HW126429   0.605   2.344   5.011
 8510SOL    HW226430   0.597   2.190   4.956
 8511SOL     OW26431   5.906   1.887   4.194
 8511SOL    HW126432   5.951   1.971   4.162
 8511SOL    HW226433   5.808   1.903   4.203
 8512SOL     OW26434   2.862   6.730   6.356
 8512SOL    HW126435   2.946   6.738   6.302
 8512SOL    HW226436   2.884   6.736   6.453
 8513SOL     OW26437   4.012   5.572   6.970
 8513SOL    HW126438   3.970   5.575   0.045
 8513SOL    HW226439   3.953   5.620   6.905
 8514SOL     OW26440   4.587   5.455   4.596
 8514SOL    HW126441   4.520   5.467   4.669
 8514SOL    HW226442   4.672   5.502   4.622
 8515SOL     OW26443   5.396   2.866   1.913
 8515SOL    HW126444   5.473   2.929   1.923
 8515SOL    HW226445   5.319   2.899   1.967
 8516SOL     OW26446   6.865   2.574   1.382
 8516SOL    HW126447   6.871   2.621   1.294
 8516SOL    HW226448   6.926   2.618   1.447
 8517SOL     OW26449   0.601   3.473   4.673
 8517SOL    HW126450   0.622   3.382   4.710
 8517SOL    HW226451   0.607   3.541   4.747
 8518SOL     OW26452   3.598   5.846   1.594
 8518SOL    HW126453   3.559   5.778   1.656
 8518SOL    HW226454   3.683   5.882   1.632
 8519SOL     OW26455   3.115   5.422   3.378
 8519SOL    HW126456   3.148   5.462   3.464
 8519SOL    HW226457   3.167   5.460   3.302
 8520SOL     OW26458   3.666   5.468   0.104
 8520SOL    HW126459   3.737   5.533   0.133
 8520SOL    HW226460   3.709   5.380   0.084
 8521SOL     OW26461   0.380   1.523   3.494
 8521SOL    HW126462   0.464   1.496   3.540
 8521SOL    HW226463   0.320   1.443   3.485
 8522SOL     OW26464   2.156   5.902   4.553
 8522SOL    HW126465   2.228   5.863   4.496
 8522SOL    HW226466   2.181   5.892   4.650
 8523SOL     OW26467   2.156   5.243   6.837
 8523SOL    HW126468   2.166   5.340   6.860
 8523SOL    HW226469   2.215   5.189   6.897
 8524SOL     OW26470   2.172   1.134   6.432
 8524SOL    HW126471   2.268   1.155   6.452
 8524SOL    HW226472   2.162   1.117   6.334
 8525SOL     OW26473   5.876   4.268   4.723
 8525SOL    HW126474   5.872   4.338   4.794
 8525SOL    HW226475   5.806   4.285   4.654
 8526SOL     OW26476   6.591   3.106   1.949
 8526SOL    HW126477   6.634   3.118   1.860
 8526SOL    HW226478   6.659   3.075   2.015
 8527SOL     OW26479   5.159   1.180   5.169
 8527SOL    HW126480   5.232   1.152   5.106
 8527SOL    HW226481   5.177   1.140   5.259
 8528SOL     OW26482   5.804   6.855   6.899
 8528SOL    HW126483   5.890   6.821   6.937
 8528SOL    HW226484   5.781   6.803   6.817
 8529SOL     OW26485   6.742   1.016   4.468
 8529SOL    HW126486   6.685   0.988   4.391
 8529SOL    HW226487   6.700   0.984   4.553
 8530SOL     OW26488   1.681   5.295   5.839
 8530SOL    HW126489   1.718   5.333   5.923
 8530SOL    HW226490   1.609   5.229   5.860
 8531SOL     OW26491   3.038   5.525   2.754
 8531SOL    HW126492   2.994   5.436   2.741
 8531SOL    HW226493   3.123   5.513   2.805
 8532SOL     OW26494   1.150   3.257   6.549
 8532SOL    HW126495   1.090   3.279   6.472
 8532SOL    HW226496   1.229   3.205   6.516
 8533SOL     OW26497   3.392   0.407   6.398
 8533SOL    HW126498   3.336   0.341   6.448
 8533SOL    HW226499   3.397   0.379   6.302
 8534SOL     OW26500   3.428   2.423   0.948
 8534SOL    HW126501   3.477   2.463   0.870
 8534SOL    HW226502   3.489   2.419   1.027
 8535SOL     OW26503   0.167   2.401   5.681
 8535SOL    HW126504   0.105   2.470   5.721
 8535SOL    HW226505   0.251   2.398   5.734
 8536SOL     OW26506   6.884   0.385   6.327
 8536SOL    HW126507   6.830   0.324   6.385
 8536SOL    HW226508   6.847   0.477   6.333
 8537SOL     OW26509   3.493   6.619   3.337
 8537SOL    HW126510   3.503   6.718   3.322
 8537SOL    HW226511   3.573   6.572   3.299
 8538SOL     OW26512   4.052   1.809   5.350
 8538SOL    HW126513   4.116   1.741   5.386
 8538SOL    HW226514   4.039   1.794   5.252
 8539SOL     OW26515   0.812   3.354   2.919
 8539SOL    HW126516   0.783   3.341   3.014
 8539SOL    HW226517   0.863   3.273   2.889
 8540SOL     OW26518   4.517   5.773   6.076
 8540SOL    HW126519   4.504   5.805   5.982
 8540SOL    HW226520   4.465   5.689   6.090
 8541SOL     OW26521   3.817   5.740   6.110
 8541SOL    HW126522   3.875   5.782   6.180
 8541SOL    HW226523   3.838   5.780   6.021
 8542SOL     OW26524   1.146   5.253   4.577
 8542SOL    HW126525   1.127   5.197   4.658
 8542SOL    HW226526   1.099   5.341   4.585
 8543SOL     OW26527   3.255   1.881   5.609
 8543SOL    HW126528   3.290   1.840   5.693
 8543SOL    HW226529   3.329   1.933   5.564
 8544SOL     OW26530   4.877   3.706   5.283
 8544SOL    HW126531   4.857   3.654   5.200
 8544SOL    HW226532   4.862   3.648   5.363
 8545SOL     OW26533   1.952   0.936   6.263
 8545SOL    HW126534   1.985   0.857   6.314
 8545SOL    HW226535   1.872   0.976   6.309
 8546SOL     OW26536   2.816   1.500   4.221
 8546SOL    HW126537   2.733   1.463   4.262
 8546SOL    HW226538   2.817   1.599   4.232
 8547SOL     OW26539   5.491   4.275   6.062
 8547SOL    HW126540   5.462   4.351   6.004
 8547SOL    HW226541   5.502   4.307   6.156
 8548SOL     OW26542   1.676   4.522   3.797
 8548SOL    HW126543   1.637   4.514   3.889
 8548SOL    HW226544   1.650   4.443   3.743
 8549SOL     OW26545   2.618   0.361   3.715
 8549SOL    HW126546   2.710   0.329   3.690
 8549SOL    HW226547   2.551   0.319   3.654
 8550SOL     OW26548   0.485   3.464   5.290
 8550SOL    HW126549   0.398   3.502   5.322
 8550SOL    HW226550   0.515   3.392   5.352
 8551SOL     OW26551   3.412   1.945   4.025
 8551SOL    HW126552   3.468   1.932   3.943
 8551SOL    HW226553   3.470   1.974   4.101
 8552SOL     OW26554   4.129   1.624   2.252
 8552SOL    HW126555   4.055   1.668   2.303
 8552SOL    HW226556   4.159   1.543   2.301
 8553SOL     OW26557   5.936   2.666   0.861
 8553SOL    HW126558   6.015   2.637   0.915
 8553SOL    HW226559   5.915   2.597   0.792
 8554SOL     OW26560   0.214   0.883   6.284
 8554SOL    HW126561   0.205   0.936   6.369
 8554SOL    HW226562   0.142   0.814   6.280
 8555SOL     OW26563   3.760   1.915   4.011
 8555SOL    HW126564   3.698   1.914   3.933
 8555SOL    HW226565   3.753   1.829   4.061
 8556SOL     OW26566   1.071   3.947   6.053
 8556SOL    HW126567   1.155   3.905   6.086
 8556SOL    HW226568   1.074   3.955   5.953
 8557SOL     OW26569   6.158   6.961   0.684
 8557SOL    HW126570   6.255   6.972   0.709
 8557SOL    HW226571   6.122   0.032   0.651
 8558SOL     OW26572   2.370   6.058   3.615
 8558SOL    HW126573   2.360   6.093   3.708
 8558SOL    HW226574   2.463   6.022   3.604
 8559SOL     OW26575   1.683   3.032   2.903
 8559SOL    HW126576   1.700   3.129   2.919
 8559SOL    HW226577   1.588   3.010   2.925
 8560SOL     OW26578   3.368   4.671   1.640
 8560SOL    HW126579   3.436   4.665   1.712
 8560SOL    HW226580   3.276   4.667   1.680
 8561SOL     OW26581   3.309   1.083   2.331
 8561SOL    HW126582   3.365   1.159   2.299
 8561SOL    HW226583   3.247   1.055   2.258
 8562SOL     OW26584   5.526   3.762   6.009
 8562SOL    HW126585   5.613   3.789   5.969
 8562SOL    HW226586   5.469   3.718   5.940
 8563SOL     OW26587   6.862   4.158   3.582
 8563SOL    HW126588   6.871   4.245   3.534
 8563SOL    HW226589   6.884   4.083   3.520
 8564SOL     OW26590   3.777   6.482   6.915
 8564SOL    HW126591   3.809   6.573   6.889
 8564SOL    HW226592   3.824   6.413   6.859
 8565SOL     OW26593   0.840   5.183   0.947
 8565SOL    HW126594   0.827   5.282   0.938
 8565SOL    HW226595   0.920   5.165   1.004
 8566SOL     OW26596   2.549   0.785   3.694
 8566SOL    HW126597   2.576   0.855   3.628
 8566SOL    HW226598   2.455   0.757   3.677
 8567SOL     OW26599   1.720   3.366   0.013
 8567SOL    HW126600   1.773   3.414   0.083
 8567SOL    HW226601   1.644   3.318   0.055
 8568SOL     OW26602   5.624   0.081   6.290
 8568SOL    HW126603   5.675   7.012   6.299
 8568SOL    HW226604   5.625   0.111   6.194
 8569SOL     OW26605   4.234   1.899   6.043
 8569SOL    HW126606   4.327   1.903   6.080
 8569SOL    HW226607   4.183   1.826   6.088
 8570SOL     OW26608   1.516   2.186   4.075
 8570SOL    HW126609   1.425   2.209   4.109
 8570SOL    HW226610   1.568   2.270   4.058
 8571SOL     OW26611   1.656   0.775   3.643
 8571SOL    HW126612   1.597   0.714   3.590
 8571SOL    HW226613   1.630   0.772   3.739
 8572SOL     OW26614   2.848   3.164   6.348
 8572SOL    HW126615   2.815   3.123   6.263
 8572SOL    HW226616   2.806   3.254   6.360
 8573SOL     OW26617   1.417   6.297   5.449
 8573SOL    HW126618   1.322   6.268   5.449
 8573SOL    HW226619   1.458   6.278   5.359
 8574SOL     OW26620   6.270   2.518   5.436
 8574SOL    HW126621   6.236   2.449   5.373
 8574SOL    HW226622   6.196   2.582   5.458
 8575SOL     OW26623   1.540   6.638   4.011
 8575SOL    HW126624   1.445   6.619   4.036
 8575SOL    HW226625   1.552   6.622   3.913
 8576SOL     OW26626   1.358   3.997   4.113
 8576SOL    HW126627   1.272   3.970   4.156
 8576SOL    HW226628   1.350   3.987   4.014
 8577SOL     OW26629   1.983   1.326   1.386
 8577SOL    HW126630   2.010   1.423   1.392
 8577SOL    HW226631   2.031   1.274   1.456
 8578SOL     OW26632   1.795   0.809   5.966
 8578SOL    HW126633   1.795   0.908   5.978
 8578SOL    HW226634   1.865   0.768   6.025
 8579SOL     OW26635   2.579   6.888   2.972
 8579SOL    HW126636   2.563   6.820   3.043
 8579SOL    HW226637   2.676   6.886   2.946
 8580SOL     OW26638   1.064   0.140   2.351
 8580SOL    HW126639   1.086   0.204   2.277
 8580SOL    HW226640   1.093   0.179   2.438
 8581SOL     OW26641   3.960   3.048   3.722
 8581SOL    HW126642   3.879   3.042   3.664
 8581SOL    HW226643   3.939   3.011   3.812
 8582SOL     OW26644   5.385   5.335   6.976
 8582SOL    HW126645   5.448   5.399   0.005
 8582SOL    HW226646   5.435   5.280   6.909
 8583SOL     OW26647   3.607   6.731   2.065
 8583SOL    HW126648   3.593   6.633   2.077
 8583SOL    HW226649   3.592   6.755   1.969
 8584SOL     OW26650   5.393   2.746   6.221
 8584SOL    HW126651   5.308   2.738   6.274
 8584SOL    HW226652   5.470   2.711   6.275
 8585SOL     OW26653   4.898   2.621   2.989
 8585SOL    HW126654   4.932   2.711   2.963
 8585SOL    HW226655   4.859   2.575   2.909
 8586SOL     OW26656   5.968   6.606   5.927
 8586SOL    HW126657   5.871   6.605   5.902
 8586SOL    HW226658   6.014   6.682   5.882
 8587SOL     OW26659   6.400   6.633   1.152
 8587SOL    HW126660   6.470   6.704   1.137
 8587SOL    HW226661   6.445   6.546   1.171
 8588SOL     OW26662   1.640   2.564   5.667
 8588SOL    HW126663   1.708   2.589   5.736
 8588SOL    HW226664   1.586   2.644   5.643
 8589SOL     OW26665   6.333   3.333   6.440
 8589SOL    HW126666   6.350   3.262   6.508
 8589SOL    HW226667   6.376   3.418   6.469
 8590SOL     OW26668   1.180   1.787   2.871
 8590SOL    HW126669   1.272   1.816   2.898
 8590SOL    HW226670   1.134   1.862   2.824
 8591SOL     OW26671   0.614   4.592   6.190
 8591SOL    HW126672   0.572   4.604   6.280
 8591SOL    HW226673   0.640   4.496   6.178
 8592SOL     OW26674   0.248   1.938   4.594
 8592SOL    HW126675   0.165   1.988   4.569
 8592SOL    HW226676   0.305   1.995   4.652
 8593SOL     OW26677   6.840   0.594   0.468
 8593SOL    HW126678   6.932   0.563   0.493
 8593SOL    HW226679   6.807   0.659   0.536
 8594SOL     OW26680   6.424   2.086   0.182
 8594SOL    HW126681   6.457   2.180   0.183
 8594SOL    HW226682   6.353   2.076   0.112
 8595SOL     OW26683   5.681   6.461   1.370
 8595SOL    HW126684   5.670   6.473   1.468
 8595SOL    HW226685   5.766   6.505   1.340
 8596SOL     OW26686   0.561   2.666   5.908
 8596SOL    HW126687   0.655   2.634   5.921
 8596SOL    HW226688   0.560   2.746   5.849
 8597SOL     OW26689   6.493   2.454   5.583
 8597SOL    HW126690   6.416   2.485   5.527
 8597SOL    HW226691   6.459   2.415   5.668
 8598SOL     OW26692   6.227   0.201   5.633
 8598SOL    HW126693   6.324   0.216   5.654
 8598SOL    HW226694   6.204   0.105   5.645
 8599SOL     OW26695   6.231   4.335   5.403
 8599SOL    HW126696   6.310   4.282   5.436
 8599SOL    HW226697   6.205   4.304   5.312
 8600SOL     OW26698   3.662   3.249   1.829
 8600SOL    HW126699   3.571   3.277   1.799
 8600SOL    HW226700   3.654   3.187   1.908
 8601SOL     OW26701   4.710   4.361   1.464
 8601SOL    HW126702   4.776   4.400   1.399
 8601SOL    HW226703   4.738   4.383   1.557
 8602SOL     OW26704   1.919   6.009   5.232
 8602SOL    HW126705   1.825   6.043   5.225
 8602SOL    HW226706   1.981   6.074   5.189
 8603SOL     OW26707   0.524   1.181   6.794
 8603SOL    HW126708   0.571   1.107   6.746
 8603SOL    HW226709   0.589   1.231   6.852
 8604SOL     OW26710   1.764   5.807   6.062
 8604SOL    HW126711   1.760   5.715   6.100
 8604SOL    HW226712   1.672   5.845   6.058
 8605SOL     OW26713   6.758   5.408   3.932
 8605SOL    HW126714   6.839   5.365   3.972
 8605SOL    HW226715   6.677   5.383   3.985
 8606SOL     OW26716   0.474   0.430   6.259
 8606SOL    HW126717   0.563   0.475   6.249
 8606SOL    HW226718   0.402   0.494   6.234
 8607SOL     OW26719   3.378   2.525   1.694
 8607SOL    HW126720   3.453   2.459   1.701
 8607SOL    HW226721   3.291   2.475   1.690
 8608SOL     OW26722   1.260   5.594   2.285
 8608SOL    HW126723   1.201   5.518   2.258
 8608SOL    HW226724   1.352   5.580   2.249
 8609SOL     OW26725   5.360   2.434   4.043
 8609SOL    HW126726   5.355   2.507   3.974
 8609SOL    HW226727   5.451   2.394   4.042
 8610SOL     OW26728   6.760   5.528   2.367
 8610SOL    HW126729   6.711   5.461   2.424
 8610SOL    HW226730   6.856   5.502   2.360
 8611SOL     OW26731   1.910   1.792   5.627
 8611SOL    HW126732   1.880   1.787   5.722
 8611SOL    HW226733   1.834   1.822   5.569
 8612SOL     OW26734   3.443   3.116   6.103
 8612SOL    HW126735   3.359   3.103   6.050
 8612SOL    HW226736   3.511   3.049   6.075
 8613SOL     OW26737   3.586   3.289   3.437
 8613SOL    HW126738   3.533   3.211   3.404
 8613SOL    HW226739   3.617   3.272   3.530
 8614SOL     OW26740   0.049   3.525   3.592
 8614SOL    HW126741   0.099   3.496   3.510
 8614SOL    HW226742   0.101   3.500   3.673
 8615SOL     OW26743   4.185   0.316   5.137
 8615SOL    HW126744   4.138   0.288   5.053
 8615SOL    HW226745   4.185   0.416   5.144
 8616SOL     OW26746   6.170   3.706   5.420
 8616SOL    HW126747   6.259   3.660   5.423
 8616SOL    HW226748   6.137   3.709   5.325
 8617SOL     OW26749   0.854   6.910   4.370
 8617SOL    HW126750   0.935   6.853   4.384
 8617SOL    HW226751   0.856   6.948   4.278
 8618SOL     OW26752   6.831   4.688   0.626
 8618SOL    HW126753   6.788   4.722   0.709
 8618SOL    HW226754   6.812   4.750   0.550
 8619SOL     OW26755   5.879   4.046   6.477
 8619SOL    HW126756   5.809   4.081   6.415
 8619SOL    HW226757   5.951   4.114   6.488
 8620SOL     OW26758   0.928   6.448   3.871
 8620SOL    HW126759   0.875   6.522   3.914
 8620SOL    HW226760   0.988   6.487   3.801
 8621SOL     OW26761   6.395   3.212   2.084
 8621SOL    HW126762   6.473   3.160   2.051
 8621SOL    HW226763   6.408   3.309   2.066
 8622SOL     OW26764   0.776   5.996   1.859
 8622SOL    HW126765   0.773   5.903   1.823
 8622SOL    HW226766   0.845   6.049   1.809
 8623SOL     OW26767   1.695   2.454   3.731
 8623SOL    HW126768   1.659   2.537   3.687
 8623SOL    HW226769   1.699   2.380   3.664
 8624SOL     OW26770   3.268   3.874   6.210
 8624SOL    HW126771   3.279   3.801   6.143
 8624SOL    HW226772   3.285   3.963   6.166
 8625SOL     OW26773   4.246   3.249   5.871
 8625SOL    HW126774   4.171   3.306   5.904
 8625SOL    HW226775   4.237   3.157   5.910
 8626SOL     OW26776   5.695   1.120   6.998
 8626SOL    HW126777   5.608   1.108   6.951
 8626SOL    HW226778   5.703   1.215   0.014
 8627SOL     OW26779   6.857   0.226   2.323
 8627SOL    HW126780   6.835   0.324   2.318
 8627SOL    HW226781   6.786   0.179   2.376
 8628SOL     OW26782   1.056   6.327   0.304
 8628SOL    HW126783   1.011   6.369   0.225
 8628SOL    HW226784   1.026   6.232   0.313
 8629SOL     OW26785   6.743   1.193   4.673
 8629SOL    HW126786   6.757   1.292   4.661
 8629SOL    HW226787   6.787   1.145   4.597
 8630SOL     OW26788   5.526   3.192   2.009
 8630SOL    HW126789   5.489   3.276   2.048
 8630SOL    HW226790   5.567   3.211   1.920
 8631SOL     OW26791   1.175   5.566   0.319
 8631SOL    HW126792   1.097   5.627   0.331
 8631SOL    HW226793   1.175   5.497   0.391
 8632SOL     OW26794   5.953   5.874   3.307
 8632SOL    HW126795   6.022   5.876   3.379
 8632SOL    HW226796   5.941   5.780   3.275
 8633SOL     OW26797   6.704   3.838   5.936
 8633SOL    HW126798   6.645   3.877   5.866
 8633SOL    HW226799   6.721   3.906   6.007
 8634SOL     OW26800   4.778   4.389   7.002
 8634SOL    HW126801   4.767   4.402   6.904
 8634SOL    HW226802   4.690   4.395   0.031
 8635SOL     OW26803   5.349   1.452   6.968
 8635SOL    HW126804   5.351   1.530   0.014
 8635SOL    HW226805   5.365   1.484   6.875
 8636SOL     OW26806   4.734   5.989   0.416
 8636SOL    HW126807   4.767   5.987   0.321
 8636SOL    HW226808   4.766   5.908   0.465
 8637SOL     OW26809   2.940   2.961   0.910
 8637SOL    HW126810   2.997   3.042   0.900
 8637SOL    HW226811   2.978   2.886   0.857
 8638SOL     OW26812   4.750   2.103   4.599
 8638SOL    HW126813   4.734   2.156   4.516
 8638SOL    HW226814   4.821   2.035   4.582
 8639SOL     OW26815   4.220   4.287   0.263
 8639SOL    HW126816   4.124   4.259   0.271
 8639SOL    HW226817   4.278   4.220   0.309
 8640SOL     OW26818   2.904   2.828   6.954
 8640SOL    HW126819   2.964   2.766   7.004
 8640SOL    HW226820   2.811   2.821   6.990
 8641SOL     OW26821   3.155   4.995   3.042
 8641SOL    HW126822   3.138   4.917   2.981
 8641SOL    HW226823   3.172   4.962   3.135
 8642SOL     OW26824   2.672   6.565   2.910
 8642SOL    HW126825   2.600   6.499   2.927
 8642SOL    HW226826   2.701   6.560   2.814
 8643SOL     OW26827   3.538   6.397   1.076
 8643SOL    HW126828   3.526   6.476   1.136
 8643SOL    HW226829   3.634   6.369   1.076
 8644SOL     OW26830   5.486   2.400   6.922
 8644SOL    HW126831   5.583   2.424   6.936
 8644SOL    HW226832   5.473   2.368   6.828
 8645SOL     OW26833   4.481   5.275   2.779
 8645SOL    HW126834   4.428   5.334   2.839
 8645SOL    HW226835   4.569   5.253   2.822
 8646SOL     OW26836   5.969   1.864   3.701
 8646SOL    HW126837   5.882   1.827   3.669
 8646SOL    HW226838   5.980   1.957   3.667
 8647SOL     OW26839   1.905   4.665   2.017
 8647SOL    HW126840   1.819   4.628   1.981
 8647SOL    HW226841   1.981   4.635   1.959
 8648SOL     OW26842   5.873   5.717   6.206
 8648SOL    HW126843   5.825   5.804   6.217
 8648SOL    HW226844   5.888   5.699   6.109
 8649SOL     OW26845   5.393   2.868   2.405
 8649SOL    HW126846   5.457   2.881   2.330
 8649SOL    HW226847   5.411   2.782   2.451
 8650SOL     OW26848   1.158   1.360   4.794
 8650SOL    HW126849   1.146   1.289   4.725
 8650SOL    HW226850   1.255   1.368   4.817
 8651SOL     OW26851   4.855   1.164   1.341
 8651SOL    HW126852   4.777   1.192   1.398
 8651SOL    HW226853   4.832   1.175   1.245
 8652SOL     OW26854   6.301   3.236   4.859
 8652SOL    HW126855   6.285   3.161   4.922
 8652SOL    HW226856   6.238   3.228   4.781
 8653SOL     OW26857   4.563   1.074   6.501
 8653SOL    HW126858   4.646   1.097   6.552
 8653SOL    HW226859   4.570   1.111   6.408
 8654SOL     OW26860   6.481   4.716   3.473
 8654SOL    HW126861   6.581   4.722   3.471
 8654SOL    HW226862   6.453   4.644   3.537
 8655SOL     OW26863   1.611   6.924   4.725
 8655SOL    HW126864   1.580   6.995   4.788
 8655SOL    HW226865   1.649   6.967   4.643
 8656SOL     OW26866   3.587   6.526   0.103
 8656SOL    HW126867   3.643   6.500   0.182
 8656SOL    HW226868   3.638   6.505   0.019
 8657SOL     OW26869   3.067   1.862   2.549
 8657SOL    HW126870   2.968   1.875   2.557
 8657SOL    HW226871   3.110   1.950   2.528
 8658SOL     OW26872   5.955   4.028   0.866
 8658SOL    HW126873   5.863   4.045   0.831
 8658SOL    HW226874   6.022   4.076   0.809
 8659SOL     OW26875   2.954   6.714   3.398
 8659SOL    HW126876   2.959   6.679   3.305
 8659SOL    HW226877   2.948   6.814   3.396
 8660SOL     OW26878   6.618   4.240   0.816
 8660SOL    HW126879   6.687   4.249   0.888
 8660SOL    HW226880   6.636   4.308   0.745
 8661SOL     OW26881   6.238   2.810   1.140
 8661SOL    HW126882   6.157   2.864   1.164
 8661SOL    HW226883   6.224   2.766   1.052
 8662SOL     OW26884   1.804   2.873   2.306
 8662SOL    HW126885   1.741   2.930   2.252
 8662SOL    HW226886   1.760   2.848   2.392
 8663SOL     OW26887   3.240   5.788   1.783
 8663SOL    HW126888   3.322   5.740   1.813
 8663SOL    HW226889   3.187   5.730   1.722
 8664SOL     OW26890   3.321   5.823   4.698
 8664SOL    HW126891   3.276   5.837   4.786
 8664SOL    HW226892   3.420   5.816   4.711
 8665SOL     OW26893   0.763   3.079   6.125
 8665SOL    HW126894   0.710   3.122   6.052
 8665SOL    HW226895   0.783   3.145   6.196
 8666SOL     OW26896   3.894   0.137   2.611
 8666SOL    HW126897   3.816   0.121   2.671
 8666SOL    HW226898   3.972   0.083   2.644
 8667SOL     OW26899   4.513   1.960   1.800
 8667SOL    HW126900   4.433   2.005   1.841
 8667SOL    HW226901   4.486   1.870   1.765
 8668SOL     OW26902   3.451   1.806   3.323
 8668SOL    HW126903   3.373   1.747   3.303
 8668SOL    HW226904   3.509   1.763   3.391
 8669SOL     OW26905   0.227   6.066   6.315
 8669SOL    HW126906   0.179   6.050   6.401
 8669SOL    HW226907   0.313   6.114   6.332
 8670SOL     OW26908   6.908   4.922   5.108
 8670SOL    HW126909   6.838   4.856   5.136
 8670SOL    HW226910   6.998   4.886   5.132
 8671SOL     OW26911   0.121   3.703   3.277
 8671SOL    HW126912   0.042   3.725   3.335
 8671SOL    HW226913   0.095   3.710   3.181
 8672SOL     OW26914   6.388   1.206   1.989
 8672SOL    HW126915   6.459   1.227   2.056
 8672SOL    HW226916   6.423   1.222   1.897
 8673SOL     OW26917   0.098   0.922   1.951
 8673SOL    HW126918   0.027   0.874   1.899
 8673SOL    HW226919   0.160   0.856   1.991
 8674SOL     OW26920   0.477   2.623   4.108
 8674SOL    HW126921   0.462   2.642   4.205
 8674SOL    HW226922   0.399   2.572   4.072
 8675SOL     OW26923   5.688   2.216   4.490
 8675SOL    HW126924   5.728   2.201   4.580
 8675SOL    HW226925   5.593   2.186   4.490
 8676SOL     OW26926   5.317   2.642   0.932
 8676SOL    HW126927   5.364   2.559   0.962
 8676SOL    HW226928   5.228   2.618   0.894
 8677SOL     OW26929   3.199   1.476   6.829
 8677SOL    HW126930   3.169   1.387   6.861
 8677SOL    HW226931   3.138   1.547   6.864
 8678SOL     OW26932   2.357   1.873   0.253
 8678SOL    HW126933   2.392   1.945   0.193
 8678SOL    HW226934   2.349   1.787   0.202
 8679SOL     OW26935   1.904   1.802   6.579
 8679SOL    HW126936   1.972   1.851   6.524
 8679SOL    HW226937   1.926   1.811   6.676
 8680SOL     OW26938   6.860   0.254   1.368
 8680SOL    HW126939   6.859   0.157   1.394
 8680SOL    HW226940   6.857   0.262   1.269
 8681SOL     OW26941   5.462   5.810   1.009
 8681SOL    HW126942   5.553   5.831   1.042
 8681SOL    HW226943   5.404   5.892   1.016
 8682SOL     OW26944   1.630   2.171   1.708
 8682SOL    HW126945   1.603   2.224   1.628
 8682SOL    HW226946   1.720   2.201   1.739
 8683SOL     OW26947   2.669   5.245   4.374
 8683SOL    HW126948   2.719   5.159   4.361
 8683SOL    HW226949   2.577   5.237   4.335
 8684SOL     OW26950   2.468   4.413   3.972
 8684SOL    HW126951   2.407   4.406   3.893
 8684SOL    HW226952   2.558   4.375   3.948
 8685SOL     OW26953   4.358   3.248   5.355
 8685SOL    HW126954   4.273   3.262   5.304
 8685SOL    HW226955   4.365   3.151   5.381
 8686SOL     OW26956   0.609   5.051   2.373
 8686SOL    HW126957   0.654   5.134   2.406
 8686SOL    HW226958   0.513   5.052   2.402
 8687SOL     OW26959   5.548   3.321   5.819
 8687SOL    HW126960   5.593   3.257   5.757
 8687SOL    HW226961   5.614   3.387   5.854
 8688SOL     OW26962   1.253   3.228   4.292
 8688SOL    HW126963   1.168   3.233   4.344
 8688SOL    HW226964   1.291   3.136   4.298
 8689SOL     OW26965   5.102   3.663   1.261
 8689SOL    HW126966   5.152   3.714   1.190
 8689SOL    HW226967   5.148   3.576   1.277
 8690SOL     OW26968   1.108   2.697   2.032
 8690SOL    HW126969   1.103   2.724   2.129
 8690SOL    HW226970   1.203   2.686   2.005
 8691SOL     OW26971   3.956   1.160   6.849
 8691SOL    HW126972   3.927   1.157   6.753
 8691SOL    HW226973   3.920   1.080   6.897
 8692SOL     OW26974   5.312   2.254   4.675
 8692SOL    HW126975   5.280   2.173   4.725
 8692SOL    HW226976   5.389   2.295   4.723
 8693SOL     OW26977   0.960   0.417   4.888
 8693SOL    HW126978   0.969   0.385   4.983
 8693SOL    HW226979   0.884   0.482   4.882
 8694SOL     OW26980   3.478   3.572   6.320
 8694SOL    HW126981   3.524   3.597   6.235
 8694SOL    HW226982   3.446   3.655   6.367
 8695SOL     OW26983   4.002   4.099   1.003
 8695SOL    HW126984   4.039   4.026   1.059
 8695SOL    HW226985   3.908   4.118   1.031
 8696SOL     OW26986   2.603   4.158   6.444
 8696SOL    HW126987   2.625   4.084   6.507
 8696SOL    HW226988   2.588   4.243   6.496
 8697SOL     OW26989   1.117   2.988   4.601
 8697SOL    HW126990   1.214   3.005   4.616
 8697SOL    HW226991   1.081   3.055   4.537
 8698SOL     OW26992   5.244   4.470   6.633
 8698SOL    HW126993   5.255   4.567   6.651
 8698SOL    HW226994   5.182   4.456   6.556
 8699SOL     OW26995   2.268   1.835   1.856
 8699SOL    HW126996   2.258   1.836   1.756
 8699SOL    HW226997   2.264   1.929   1.890
 8700SOL     OW26998   0.409   2.657   5.098
 8700SOL    HW126999   0.504   2.632   5.078
 8700SOL    HW227000   0.403   2.756   5.110
 8701SOL     OW27001   2.672   3.090   0.260
 8701SOL    HW127002   2.723   3.009   0.231
 8701SOL    HW227003   2.584   3.061   0.298
 8702SOL     OW27004   5.136   4.402   0.722
 8702SOL    HW127005   5.128   4.392   0.623
 8702SOL    HW227006   5.206   4.339   0.756
 8703SOL     OW27007   2.364   5.785   0.712
 8703SOL    HW127008   2.370   5.817   0.807
 8703SOL    HW227009   2.267   5.776   0.687
 8704SOL     OW27010   6.396   1.811   3.913
 8704SOL    HW127011   6.410   1.757   3.996
 8704SOL    HW227012   6.324   1.878   3.929
 8705SOL     OW27013   3.664   2.154   0.632
 8705SOL    HW127014   3.750   2.158   0.581
 8705SOL    HW227015   3.605   2.229   0.604
 8706SOL     OW27016   5.142   2.781   5.151
 8706SOL    HW127017   5.058   2.835   5.144
 8706SOL    HW227018   5.203   2.804   5.075
 8707SOL     OW27019   1.787   0.497   3.526
 8707SOL    HW127020   1.834   0.414   3.556
 8707SOL    HW227021   1.848   0.549   3.466
 8708SOL     OW27022   5.453   2.366   0.397
 8708SOL    HW127023   5.386   2.362   0.471
 8708SOL    HW227024   5.405   2.367   0.309
 8709SOL     OW27025   5.957   5.835   3.956
 8709SOL    HW127026   5.961   5.933   3.977
 8709SOL    HW227027   5.986   5.783   4.036
 8710SOL     OW27028   2.336   2.674   3.370
 8710SOL    HW127029   2.290   2.612   3.307
 8710SOL    HW227030   2.415   2.628   3.410
 8711SOL     OW27031   0.713   2.570   2.253
 8711SOL    HW127032   0.628   2.521   2.234
 8711SOL    HW227033   0.766   2.578   2.168
 8712SOL     OW27034   1.123   3.957   4.297
 8712SOL    HW127035   1.041   3.957   4.240
 8712SOL    HW227036   1.102   3.995   4.387
 8713SOL     OW27037   0.466   4.614   4.365
 8713SOL    HW127038   0.483   4.655   4.455
 8713SOL    HW227039   0.403   4.536   4.375
 8714SOL     OW27040   1.378   3.828   6.460
 8714SOL    HW127041   1.320   3.906   6.486
 8714SOL    HW227042   1.332   3.743   6.485
 8715SOL     OW27043   2.217   4.985   1.171
 8715SOL    HW127044   2.253   4.991   1.264
 8715SOL    HW227045   2.142   5.049   1.161
 8716SOL     OW27046   5.112   6.860   3.012
 8716SOL    HW127047   5.107   6.875   2.913
 8716SOL    HW227048   5.139   6.765   3.029
 8717SOL     OW27049   4.456   1.775   6.732
 8717SOL    HW127050   4.449   1.681   6.697
 8717SOL    HW227051   4.452   1.839   6.655
 8718SOL     OW27052   2.526   5.535   6.025
 8718SOL    HW127053   2.462   5.531   6.102
 8718SOL    HW227054   2.478   5.562   5.942
 8719SOL     OW27055   3.260   2.113   4.545
 8719SOL    HW127056   3.219   2.180   4.483
 8719SOL    HW227057   3.208   2.028   4.543
 8720SOL     OW27058   0.062   6.943   5.131
 8720SOL    HW127059   0.082   0.023   5.117
 8720SOL    HW227060   0.147   6.890   5.128
 8721SOL     OW27061   0.338   0.605   1.854
 8721SOL    HW127062   0.413   0.639   1.910
 8721SOL    HW227063   0.355   0.626   1.758
 8722SOL     OW27064   3.908   1.152   0.413
 8722SOL    HW127065   3.863   1.074   0.456
 8722SOL    HW227066   4.007   1.146   0.426
 8723SOL     OW27067   3.129   6.259   3.232
 8723SOL    HW127068   3.207   6.321   3.224
 8723SOL    HW227069   3.049   6.311   3.262
 8724SOL     OW27070   5.680   0.035   5.170
 8724SOL    HW127071   5.608   0.072   5.111
 8724SOL    HW227072   5.649   6.966   5.211
 8725SOL     OW27073   6.833   0.806   2.603
 8725SOL    HW127074   6.747   0.802   2.655
 8725SOL    HW227075   6.873   0.715   2.597
 8726SOL     OW27076   6.867   0.155   1.079
 8726SOL    HW127077   6.894   0.105   0.996
 8726SOL    HW227078   6.769   0.146   1.092
 8727SOL     OW27079   4.972   5.098   6.010
 8727SOL    HW127080   4.959   5.076   6.107
 8727SOL    HW227081   4.935   5.024   5.954
 8728SOL     OW27082   5.189   6.836   4.075
 8728SOL    HW127083   5.135   6.805   4.154
 8728SOL    HW227084   5.144   6.914   4.032
 8729SOL     OW27085   5.647   5.660   5.955
 8729SOL    HW127086   5.647   5.623   6.047
 8729SOL    HW227087   5.590   5.602   5.896
 8730SOL     OW27088   4.054   4.721   1.740
 8730SOL    HW127089   4.004   4.637   1.724
 8730SOL    HW227090   4.118   4.708   1.816
 8731SOL     OW27091   0.230   2.840   4.042
 8731SOL    HW127092   0.162   2.826   3.971
 8731SOL    HW227093   0.208   2.782   4.121
 8732SOL     OW27094   5.030   6.515   5.780
 8732SOL    HW127095   5.117   6.471   5.757
 8732SOL    HW227096   5.027   6.536   5.877
 8733SOL     OW27097   5.780   3.885   1.969
 8733SOL    HW127098   5.856   3.837   1.924
 8733SOL    HW227099   5.814   3.971   2.008
 8734SOL     OW27100   0.083   6.402   1.464
 8734SOL    HW127101   0.097   6.468   1.391
 8734SOL    HW227102   0.049   6.449   1.546
 8735SOL     OW27103   1.654   1.994   6.910
 8735SOL    HW127104   1.575   1.933   6.904
 8735SOL    HW227105   1.737   1.941   6.928
 8736SOL     OW27106   0.453   6.103   3.521
 8736SOL    HW127107   0.431   6.044   3.443
 8736SOL    HW227108   0.534   6.068   3.568
 8737SOL     OW27109   0.659   5.587   6.329
 8737SOL    HW127110   0.650   5.488   6.318
 8737SOL    HW227111   0.600   5.618   6.402
 8738SOL     OW27112   1.538   2.326   2.257
 8738SOL    HW127113   1.506   2.231   2.259
 8738SOL    HW227114   1.580   2.346   2.169
 8739SOL     OW27115   4.602   5.043   3.413
 8739SOL    HW127116   4.512   5.039   3.455
 8739SOL    HW227117   4.659   4.970   3.449
 8740SOL     OW27118   1.926   0.624   3.302
 8740SOL    HW127119   1.929   0.601   3.205
 8740SOL    HW227120   1.983   0.705   3.319
 8741SOL     OW27121   1.715   2.752   2.904
 8741SOL    HW127122   1.807   2.751   2.944
 8741SOL    HW227123   1.695   2.842   2.868
 8742SOL     OW27124   1.627   3.381   0.609
 8742SOL    HW127125   1.620   3.475   0.573
 8742SOL    HW227126   1.670   3.384   0.699
 8743SOL     OW27127   2.109   2.860   0.469
 8743SOL    HW127128   2.191   2.852   0.526
 8743SOL    HW227129   2.037   2.907   0.520
 8744SOL     OW27130   3.016   3.938   5.593
 8744SOL    HW127131   3.097   3.965   5.540
 8744SOL    HW227132   3.045   3.906   5.683
 8745SOL     OW27133   5.443   0.932   0.015
 8745SOL    HW127134   5.490   0.899   6.950
 8745SOL    HW227135   5.389   1.013   7.007
 8746SOL     OW27136   4.437   4.543   4.364
 8746SOL    HW127137   4.395   4.519   4.451
 8746SOL    HW227138   4.468   4.638   4.366
 8747SOL     OW27139   6.766   6.842   1.335
 8747SOL    HW127140   6.797   6.911   1.400
 8747SOL    HW227141   6.730   6.763   1.384
 8748SOL     OW27142   5.913   1.826   5.106
 8748SOL    HW127143   5.842   1.788   5.046
 8748SOL    HW227144   5.916   1.773   5.191
 8749SOL     OW27145   2.072   1.542   4.110
 8749SOL    HW127146   2.061   1.484   4.029
 8749SOL    HW227147   2.095   1.635   4.081
 8750SOL     OW27148   4.024   3.757   2.493
 8750SOL    HW127149   4.060   3.787   2.405
 8750SOL    HW227150   3.925   3.773   2.495
 8751SOL     OW27151   1.356   6.849   6.931
 8751SOL    HW127152   1.429   6.870   6.996
 8751SOL    HW227153   1.390   6.863   6.838
 8752SOL     OW27154   1.750   2.513   6.613
 8752SOL    HW127155   1.718   2.607   6.609
 8752SOL    HW227156   1.818   2.504   6.686
 8753SOL     OW27157   2.215   1.926   0.860
 8753SOL    HW127158   2.235   1.952   0.955
 8753SOL    HW227159   2.300   1.927   0.807
 8754SOL     OW27160   1.713   6.402   6.856
 8754SOL    HW127161   1.745   6.342   6.929
 8754SOL    HW227162   1.618   6.426   6.872
 8755SOL     OW27163   6.575   1.412   1.818
 8755SOL    HW127164   6.565   1.332   1.760
 8755SOL    HW227165   6.651   1.398   1.882
 8756SOL     OW27166   1.768   1.367   2.541
 8756SOL    HW127167   1.840   1.326   2.485
 8756SOL    HW227168   1.688   1.384   2.484
 8757SOL     OW27169   5.466   5.505   5.776
 8757SOL    HW127170   5.392   5.572   5.781
 8757SOL    HW227171   5.430   5.420   5.738
 8758SOL     OW27172   3.887   4.802   6.136
 8758SOL    HW127173   3.972   4.828   6.182
 8758SOL    HW227174   3.823   4.878   6.139
 8759SOL     OW27175   6.627   0.954   1.439
 8759SOL    HW127176   6.718   0.958   1.398
 8759SOL    HW227177   6.573   0.882   1.394
 8760SOL     OW27178   1.630   2.229   4.358
 8760SOL    HW127179   1.668   2.190   4.274
 8760SOL    HW227180   1.531   2.239   4.348
 8761SOL     OW27181   4.953   2.514   4.392
 8761SOL    HW127182   5.025   2.450   4.418
 8761SOL    HW227183   4.910   2.551   4.474
 8762SOL     OW27184   4.045   6.233   2.411
 8762SOL    HW127185   4.034   6.309   2.348
 8762SOL    HW227186   4.074   6.267   2.501
 8763SOL     OW27187   6.933   1.804   5.606
 8763SOL    HW127188   6.938   1.783   5.704
 8763SOL    HW227189   6.894   1.895   5.594
 8764SOL     OW27190   2.106   5.529   5.950
 8764SOL    HW127191   2.049   5.448   5.954
 8764SOL    HW227192   2.058   5.602   5.901
 8765SOL     OW27193   4.784   0.426   3.561
 8765SOL    HW127194   4.707   0.479   3.597
 8765SOL    HW227195   4.751   0.361   3.493
 8766SOL     OW27196   6.498   0.609   5.069
 8766SOL    HW127197   6.445   0.684   5.029
 8766SOL    HW227198   6.542   0.557   4.997
 8767SOL     OW27199   2.029   1.207   4.683
 8767SOL    HW127200   2.009   1.245   4.773
 8767SOL    HW227201   1.962   1.135   4.662
 8768SOL     OW27202   0.321   2.315   0.637
 8768SOL    HW127203   0.377   2.246   0.590
 8768SOL    HW227204   0.266   2.270   0.707
 8769SOL     OW27205   6.943   0.359   6.945
 8769SOL    HW127206   0.007   0.364   7.005
 8769SOL    HW227207   6.944   0.273   6.895
 8770SOL     OW27208   4.368   1.853   0.883
 8770SOL    HW127209   4.464   1.842   0.907
 8770SOL    HW227210   4.362   1.895   0.792
 8771SOL     OW27211   1.423   2.554   6.657
 8771SOL    HW127212   1.465   2.626   6.713
 8771SOL    HW227213   1.407   2.473   6.715
 8772SOL     OW27214   6.886   6.967   3.624
 8772SOL    HW127215   6.837   0.007   3.690
 8772SOL    HW227216   6.962   6.920   3.669
 8773SOL     OW27217   6.198   1.582   4.160
 8773SOL    HW127218   6.118   1.599   4.102
 8773SOL    HW227219   6.202   1.651   4.232
 8774SOL     OW27220   0.781   2.060   6.610
 8774SOL    HW127221   0.833   2.056   6.525
 8774SOL    HW227222   0.761   1.967   6.642
 8775SOL     OW27223   4.276   2.054   2.377
 8775SOL    HW127224   4.282   2.100   2.466
 8775SOL    HW227225   4.193   1.998   2.374
 8776SOL     OW27226   6.123   3.357   1.017
 8776SOL    HW127227   6.055   3.431   1.008
 8776SOL    HW227228   6.095   3.279   0.961
 8777SOL     OW27229   6.686   2.336   4.051
 8777SOL    HW127230   6.686   2.241   4.080
 8777SOL    HW227231   6.778   2.362   4.022
 8778SOL     OW27232   1.662   4.588   5.624
 8778SOL    HW127233   1.615   4.546   5.547
 8778SOL    HW227234   1.749   4.626   5.594
 8779SOL     OW27235   3.258   6.524   3.539
 8779SOL    HW127236   3.180   6.488   3.590
 8779SOL    HW227237   3.283   6.461   3.466
 8780SOL     OW27238   1.010   3.159   4.373
 8780SOL    HW127239   0.989   3.084   4.310
 8780SOL    HW227240   0.952   3.237   4.351
 8781SOL     OW27241   3.776   0.981   2.405
 8781SOL    HW127242   3.712   0.932   2.346
 8781SOL    HW227243   3.759   0.956   2.500
 8782SOL     OW27244   0.587   2.664   0.167
 8782SOL    HW127245   0.607   2.761   0.158
 8782SOL    HW227246   0.606   2.634   0.261
 8783SOL     OW27247   3.475   4.210   6.755
 8783SOL    HW127248   3.554   4.266   6.781
 8783SOL    HW227249   3.503   4.144   6.685
 8784SOL     OW27250   4.420   2.096   5.901
 8784SOL    HW127251   4.486   2.039   5.950
 8784SOL    HW227252   4.350   2.038   5.859
 8785SOL     OW27253   6.458   0.020   5.953
 8785SOL    HW127254   6.451   0.113   5.989
 8785SOL    HW227255   6.368   6.991   5.959
 8786SOL     OW27256   4.772   2.102   3.009
 8786SOL    HW127257   4.692   2.041   3.006
 8786SOL    HW227258   4.750   2.183   3.063
 8787SOL     OW27259   2.922   5.606   2.333
 8787SOL    HW127260   2.998   5.550   2.365
 8787SOL    HW227261   2.941   5.640   2.241
 8788SOL     OW27262   6.683   0.396   3.544
 8788SOL    HW127263   6.679   0.326   3.616
 8788SOL    HW227264   6.663   0.354   3.456
 8789SOL     OW27265   2.269   3.653   0.169
 8789SOL    HW127266   2.368   3.641   0.157
 8789SOL    HW227267   2.247   3.750   0.174
 8790SOL     OW27268   5.257   3.070   5.237
 8790SOL    HW127269   5.244   3.155   5.186
 8790SOL    HW227270   5.267   2.994   5.173
 8791SOL     OW27271   3.850   6.861   5.427
 8791SOL    HW127272   3.787   6.814   5.365
 8791SOL    HW227273   3.876   6.949   5.389
 8792SOL     OW27274   5.094   4.095   0.884
 8792SOL    HW127275   5.037   4.121   0.806
 8792SOL    HW227276   5.190   4.109   0.861
 8793SOL     OW27277   6.354   0.793   4.934
 8793SOL    HW127278   6.375   0.810   4.838
 8793SOL    HW227279   6.269   0.839   4.958
 8794SOL     OW27280   1.124   3.399   2.878
 8794SOL    HW127281   1.093   3.473   2.938
 8794SOL    HW227282   1.160   3.438   2.793
 8795SOL     OW27283   2.004   0.304   6.300
 8795SOL    HW127284   1.923   0.258   6.334
 8795SOL    HW227285   1.991   0.329   6.204
 8796SOL     OW27286   6.067   4.963   3.670
 8796SOL    HW127287   6.073   5.057   3.636
 8796SOL    HW227288   5.972   4.938   3.685
 8797SOL     OW27289   5.882   5.411   6.078
 8797SOL    HW127290   5.867   5.314   6.058
 8797SOL    HW227291   5.854   5.429   6.173
 8798SOL     OW27292   2.239   4.782   0.241
 8798SOL    HW127293   2.254   4.874   0.276
 8798SOL    HW227294   2.193   4.786   0.153
 8799SOL     OW27295   0.684   5.910   2.320
 8799SOL    HW127296   0.725   5.880   2.406
 8799SOL    HW227297   0.586   5.925   2.333
 8800SOL     OW27298   6.782   6.627   4.784
 8800SOL    HW127299   6.706   6.596   4.726
 8800SOL    HW227300   6.838   6.692   4.733
 8801SOL     OW27301   5.748   2.778   5.986
 8801SOL    HW127302   5.747   2.860   6.043
 8801SOL    HW227303   5.729   2.803   5.891
 8802SOL     OW27304   1.151   6.736   6.820
 8802SOL    HW127305   1.242   6.762   6.854
 8802SOL    HW227306   1.127   6.792   6.741
 8803SOL     OW27307   4.573   5.259   5.097
 8803SOL    HW127308   4.507   5.194   5.061
 8803SOL    HW227309   4.647   5.272   5.031
 8804SOL     OW27310   2.321   6.108   1.444
 8804SOL    HW127311   2.363   6.018   1.455
 8804SOL    HW227312   2.368   6.159   1.373
 8805SOL     OW27313   5.141   5.324   1.189
 8805SOL    HW127314   5.102   5.239   1.154
 8805SOL    HW227315   5.134   5.327   1.288
 8806SOL     OW27316   1.895   1.086   2.038
 8806SOL    HW127317   1.916   0.989   2.053
 8806SOL    HW227318   1.808   1.108   2.083
 8807SOL     OW27319   5.163   1.251   1.766
 8807SOL    HW127320   5.249   1.260   1.717
 8807SOL    HW227321   5.088   1.243   1.700
 8808SOL     OW27322   1.551   1.605   1.117
 8808SOL    HW127323   1.590   1.668   1.049
 8808SOL    HW227324   1.472   1.648   1.161
 8809SOL     OW27325   1.403   3.666   2.855
 8809SOL    HW127326   1.489   3.641   2.810
 8809SOL    HW227327   1.391   3.612   2.938
 8810SOL     OW27328   6.531   2.449   3.521
 8810SOL    HW127329   6.519   2.548   3.526
 8810SOL    HW227330   6.627   2.426   3.533
 8811SOL     OW27331   3.588   6.186   2.682
 8811SOL    HW127332   3.549   6.277   2.667
 8811SOL    HW227333   3.593   6.138   2.595
 8812SOL     OW27334   5.779   0.555   0.188
 8812SOL    HW127335   5.835   0.609   0.125
 8812SOL    HW227336   5.701   0.610   0.218
 8813SOL     OW27337   1.692   2.578   1.247
 8813SOL    HW127338   1.685   2.575   1.148
 8813SOL    HW227339   1.626   2.515   1.287
 8814SOL     OW27340   5.807   0.431   4.468
 8814SOL    HW127341   5.800   0.425   4.568
 8814SOL    HW227342   5.835   0.342   4.431
 8815SOL     OW27343   4.794   0.874   1.075
 8815SOL    HW127344   4.767   0.841   0.985
 8815SOL    HW227345   4.713   0.882   1.134
 8816SOL     OW27346   0.316   1.442   2.590
 8816SOL    HW127347   0.359   1.523   2.549
 8816SOL    HW227348   0.259   1.396   2.522
 8817SOL     OW27349   1.005   2.274   4.176
 8817SOL    HW127350   1.010   2.368   4.140
 8817SOL    HW227351   0.937   2.271   4.249
 8818SOL     OW27352   1.345   5.677   6.671
 8818SOL    HW127353   1.444   5.669   6.668
 8818SOL    HW227354   1.317   5.719   6.757
 8819SOL     OW27355   5.723   6.058   0.048
 8819SOL    HW127356   5.731   6.020   6.972
 8819SOL    HW227357   5.770   6.146   0.051
 8820SOL     OW27358   3.776   6.631   5.797
 8820SOL    HW127359   3.691   6.682   5.783
 8820SOL    HW227360   3.835   6.642   5.716
 8821SOL     OW27361   1.711   5.234   5.550
 8821SOL    HW127362   1.700   5.237   5.649
 8821SOL    HW227363   1.805   5.259   5.527
 8822SOL     OW27364   0.187   0.905   4.908
 8822SOL    HW127365   0.203   0.853   4.992
 8822SOL    HW227366   0.250   0.873   4.837
 8823SOL     OW27367   4.480   2.451   3.306
 8823SOL    HW127368   4.525   2.516   3.245
 8823SOL    HW227369   4.529   2.447   3.393
 8824SOL     OW27370   1.201   0.673   3.478
 8824SOL    HW127371   1.209   0.728   3.395
 8824SOL    HW227372   1.109   0.682   3.515
 8825SOL     OW27373   1.139   6.462   6.827
 8825SOL    HW127374   1.134   6.432   6.923
 8825SOL    HW227375   1.139   6.561   6.823
 8826SOL     OW27376   1.146   2.555   6.555
 8826SOL    HW127377   1.137   2.459   6.532
 8826SOL    HW227378   1.223   2.567   6.618
 8827SOL     OW27379   5.337   6.052   4.204
 8827SOL    HW127380   5.297   6.015   4.120
 8827SOL    HW227381   5.299   6.143   4.222
 8828SOL     OW27382   5.162   2.567   5.904
 8828SOL    HW127383   5.140   2.665   5.900
 8828SOL    HW227384   5.079   2.515   5.923
 8829SOL     OW27385   6.157   0.734   3.027
 8829SOL    HW127386   6.061   0.756   3.011
 8829SOL    HW227387   6.171   0.635   3.016
 8830SOL     OW27388   2.635   2.047   2.884
 8830SOL    HW127389   2.606   2.032   2.789
 8830SOL    HW227390   2.692   1.971   2.913
 8831SOL     OW27391   0.702   2.710   2.487
 8831SOL    HW127392   0.704   2.672   2.395
 8831SOL    HW227393   0.634   2.783   2.492
 8832SOL     OW27394   6.374   6.937   5.193
 8832SOL    HW127395   6.463   6.916   5.235
 8832SOL    HW227396   6.380   0.007   5.142
 8833SOL     OW27397   4.970   2.650   1.426
 8833SOL    HW127398   5.051   2.626   1.479
 8833SOL    HW227399   4.957   2.584   1.352
 8834SOL     OW27400   6.382   4.093   5.638
 8834SOL    HW127401   6.433   4.171   5.600
 8834SOL    HW227402   6.301   4.076   5.582
 8835SOL     OW27403   6.446   1.312   5.114
 8835SOL    HW127404   6.481   1.248   5.045
 8835SOL    HW227405   6.355   1.284   5.142
 8836SOL     OW27406   4.476   1.316   6.925
 8836SOL    HW127407   4.429   1.337   7.011
 8836SOL    HW227408   4.411   1.323   6.850
 8837SOL     OW27409   5.705   5.429   0.902
 8837SOL    HW127410   5.798   5.466   0.906
 8837SOL    HW227411   5.709   5.330   0.887
 8838SOL     OW27412   1.062   3.050   1.735
 8838SOL    HW127413   1.015   2.964   1.755
 8838SOL    HW227414   1.015   3.125   1.781
 8839SOL     OW27415   4.633   4.717   1.827
 8839SOL    HW127416   4.668   4.643   1.885
 8839SOL    HW227417   4.536   4.731   1.846
 8840SOL     OW27418   0.115   6.764   1.437
 8840SOL    HW127419   0.063   6.722   1.511
 8840SOL    HW227420   0.190   6.819   1.475
 8841SOL     OW27421   5.247   2.094   0.457
 8841SOL    HW127422   5.178   2.056   0.518
 8841SOL    HW227423   5.213   2.093   0.363
 8842SOL     OW27424   3.242   3.265   3.306
 8842SOL    HW127425   3.275   3.252   3.400
 8842SOL    HW227426   3.284   3.346   3.267
 8843SOL     OW27427   2.596   6.169   5.120
 8843SOL    HW127428   2.670   6.129   5.175
 8843SOL    HW227429   2.580   6.111   5.040
 8844SOL     OW27430   3.992   2.629   5.356
 8844SOL    HW127431   4.052   2.595   5.283
 8844SOL    HW227432   4.044   2.690   5.416
 8845SOL     OW27433   0.276   3.770   2.576
 8845SOL    HW127434   0.234   3.782   2.486
 8845SOL    HW227435   0.365   3.817   2.578
 8846SOL     OW27436   5.485   5.215   3.957
 8846SOL    HW127437   5.485   5.118   3.934
 8846SOL    HW227438   5.545   5.231   4.035
 8847SOL     OW27439   1.019   3.261   3.499
 8847SOL    HW127440   0.995   3.216   3.413
 8847SOL    HW227441   1.089   3.330   3.483
 8848SOL     OW27442   6.165   2.627   1.645
 8848SOL    HW127443   6.135   2.550   1.701
 8848SOL    HW227444   6.087   2.689   1.630
 8849SOL     OW27445   3.773   5.428   4.581
 8849SOL    HW127446   3.856   5.440   4.636
 8849SOL    HW227447   3.693   5.438   4.639
 8850SOL     OW27448   4.769   1.692   0.925
 8850SOL    HW127449   4.868   1.697   0.940
 8850SOL    HW227450   4.726   1.776   0.960
 8851SOL     OW27451   6.615   5.127   3.394
 8851SOL    HW127452   6.645   5.052   3.453
 8851SOL    HW227453   6.682   5.202   3.398
 8852SOL     OW27454   6.027   4.456   4.840
 8852SOL    HW127455   6.038   4.547   4.879
 8852SOL    HW227456   6.062   4.455   4.746
 8853SOL     OW27457   4.572   1.646   4.352
 8853SOL    HW127458   4.616   1.722   4.400
 8853SOL    HW227459   4.613   1.636   4.261
 8854SOL     OW27460   2.669   0.234   6.649
 8854SOL    HW127461   2.737   0.164   6.626
 8854SOL    HW227462   2.578   0.202   6.624
 8855SOL     OW27463   6.626   4.461   6.090
 8855SOL    HW127464   6.580   4.457   6.179
 8855SOL    HW227465   6.719   4.496   6.102
 8856SOL     OW27466   5.078   1.792   5.946
 8856SOL    HW127467   5.128   1.743   5.874
 8856SOL    HW227468   5.141   1.853   5.994
 8857SOL     OW27469   1.521   3.388   4.283
 8857SOL    HW127470   1.448   3.354   4.224
 8857SOL    HW227471   1.497   3.372   4.378
 8858SOL     OW27472   1.544   3.300   5.450
 8858SOL    HW127473   1.610   3.364   5.489
 8858SOL    HW227474   1.520   3.232   5.518
 8859SOL     OW27475   2.813   5.209   4.899
 8859SOL    HW127476   2.873   5.279   4.938
 8859SOL    HW227477   2.741   5.254   4.845
 8860SOL     OW27478   2.244   0.929   1.824
 8860SOL    HW127479   2.237   0.829   1.817
 8860SOL    HW227480   2.295   0.953   1.906
 8861SOL     OW27481   2.349   1.083   0.228
 8861SOL    HW127482   2.362   0.986   0.250
 8861SOL    HW227483   2.254   1.098   0.200
 8862SOL     OW27484   0.344   3.770   3.794
 8862SOL    HW127485   0.371   3.740   3.702
 8862SOL    HW227486   0.344   3.870   3.797
 8863SOL     OW27487   1.787   5.652   5.414
 8863SOL    HW127488   1.783   5.692   5.322
 8863SOL    HW227489   1.695   5.648   5.453
 8864SOL     OW27490   2.003   3.991   5.039
 8864SOL    HW127491   2.038   3.898   5.047
 8864SOL    HW227492   2.080   4.054   5.026
 8865SOL     OW27493   2.997   2.078   5.837
 8865SOL    HW127494   3.056   2.104   5.761
 8865SOL    HW227495   2.997   2.151   5.905
 8866SOL     OW27496   5.581   0.177   5.388
 8866SOL    HW127497   5.631   0.126   5.318
 8866SOL    HW227498   5.594   0.275   5.374
 8867SOL     OW27499   5.147   0.872   2.653
 8867SOL    HW127500   5.235   0.825   2.650
 8867SOL    HW227501   5.087   0.836   2.581
 8868SOL     OW27502   6.263   2.677   0.481
 8868SOL    HW127503   6.341   2.714   0.531
 8868SOL    HW227504   6.274   2.578   0.470
 8869SOL     OW27505   1.460   1.827   4.291
 8869SOL    HW127506   1.539   1.827   4.351
 8869SOL    HW227507   1.490   1.825   4.195
 8870SOL     OW27508   3.527   6.439   1.492
 8870SOL    HW127509   3.438   6.448   1.446
 8870SOL    HW227510   3.525   6.358   1.551
 8871SOL     OW27511   0.863   2.468   3.849
 8871SOL    HW127512   0.823   2.397   3.908
 8871SOL    HW227513   0.812   2.553   3.858
 8872SOL     OW27514   1.244   1.294   2.779
 8872SOL    HW127515   1.173   1.240   2.734
 8872SOL    HW227516   1.202   1.357   2.844
 8873SOL     OW27517   0.351   5.879   4.905
 8873SOL    HW127518   0.301   5.818   4.843
 8873SOL    HW227519   0.399   5.825   4.974
 8874SOL     OW27520   0.773   0.810   5.989
 8874SOL    HW127521   0.813   0.901   5.982
 8874SOL    HW227522   0.838   0.749   6.034
 8875SOL     OW27523   1.191   0.928   4.127
 8875SOL    HW127524   1.272   0.905   4.073
 8875SOL    HW227525   1.111   0.927   4.068
 8876SOL     OW27526   3.245   1.125   4.265
 8876SOL    HW127527   3.173   1.176   4.311
 8876SOL    HW227528   3.232   1.130   4.166
 8877SOL     OW27529   2.368   6.579   5.919
 8877SOL    HW127530   2.400   6.489   5.949
 8877SOL    HW227531   2.271   6.590   5.942
 8878SOL     OW27532   5.660   4.252   5.698
 8878SOL    HW127533   5.673   4.350   5.706
 8878SOL    HW227534   5.691   4.220   5.608
 8879SOL     OW27535   6.021   5.693   4.494
 8879SOL    HW127536   6.046   5.715   4.588
 8879SOL    HW227537   6.101   5.701   4.435
 8880SOL     OW27538   1.264   0.008   4.872
 8880SOL    HW127539   1.229   0.093   4.910
 8880SOL    HW227540   1.362   0.017   4.854
 8881SOL     OW27541   6.264   1.455   2.047
 8881SOL    HW127542   6.293   1.362   2.026
 8881SOL    HW227543   6.229   1.498   1.964
 8882SOL     OW27544   5.307   1.703   0.116
 8882SOL    HW127545   5.402   1.728   0.137
 8882SOL    HW227546   5.247   1.734   0.190
 8883SOL     OW27547   6.141   1.318   5.674
 8883SOL    HW127548   6.094   1.376   5.740
 8883SOL    HW227549   6.094   1.323   5.586
 8884SOL     OW27550   0.701   1.536   6.644
 8884SOL    HW127551   0.642   1.478   6.588
 8884SOL    HW227552   0.789   1.489   6.658
 8885SOL     OW27553   5.712   3.840   1.467
 8885SOL    HW127554   5.772   3.761   1.483
 8885SOL    HW227555   5.716   3.902   1.546
 8886SOL     OW27556   3.240   6.111   6.298
 8886SOL    HW127557   3.336   6.134   6.308
 8886SOL    HW227558   3.184   6.183   6.340
 8887SOL     OW27559   1.817   1.304   0.499
 8887SOL    HW127560   1.900   1.281   0.549
 8887SOL    HW227561   1.744   1.242   0.527
 8888SOL     OW27562   1.826   2.087   3.094
 8888SOL    HW127563   1.776   2.147   3.156
 8888SOL    HW227564   1.768   2.063   3.016
 8889SOL     OW27565   3.277   0.919   5.669
 8889SOL    HW127566   3.329   0.849   5.620
 8889SOL    HW227567   3.198   0.876   5.713
 8890SOL     OW27568   6.172   5.646   3.256
 8890SOL    HW127569   6.076   5.645   3.229
 8890SOL    HW227570   6.188   5.576   3.326
 8891SOL     OW27571   3.647   2.092   6.230
 8891SOL    HW127572   3.612   2.106   6.323
 8891SOL    HW227573   3.581   2.130   6.164
 8892SOL     OW27574   0.933   0.730   3.527
 8892SOL    HW127575   0.860   0.722   3.595
 8892SOL    HW227576   0.911   0.805   3.464
 8893SOL     OW27577   0.070   0.593   0.821
 8893SOL    HW127578   0.088   0.571   0.725
 8893SOL    HW227579   0.156   0.605   0.869
 8894SOL     OW27580   5.106   2.748   5.406
 8894SOL    HW127581   5.037   2.676   5.410
 8894SOL    HW227582   5.148   2.749   5.315
 8895SOL     OW27583   1.226   1.391   3.560
 8895SOL    HW127584   1.216   1.292   3.549
 8895SOL    HW227585   1.142   1.429   3.597
 8896SOL     OW27586   1.497   3.729   4.467
 8896SOL    HW127587   1.581   3.749   4.417
 8896SOL    HW227588   1.418   3.740   4.407
 8897SOL     OW27589   0.852   2.077   1.731
 8897SOL    HW127590   0.850   2.142   1.654
 8897SOL    HW227591   0.759   2.060   1.762
 8898SOL     OW27592   0.790   2.383   5.417
 8898SOL    HW127593   0.788   2.477   5.385
 8898SOL    HW227594   0.704   2.337   5.393
 8899SOL     OW27595   4.396   6.920   3.237
 8899SOL    HW127596   4.490   6.922   3.271
 8899SOL    HW227597   4.341   6.859   3.295
 8900SOL     OW27598   6.452   1.581   3.372
 8900SOL    HW127599   6.441   1.670   3.416
 8900SOL    HW227600   6.539   1.540   3.399
 8901SOL     OW27601   0.567   6.882   2.266
 8901SOL    HW127602   0.626   6.801   2.264
 8901SOL    HW227603   0.471   6.854   2.256
 8902SOL     OW27604   4.168   6.608   5.839
 8902SOL    HW127605   4.127   6.595   5.930
 8902SOL    HW227606   4.095   6.625   5.772
 8903SOL     OW27607   6.555   1.190   3.031
 8903SOL    HW127608   6.456   1.186   3.018
 8903SOL    HW227609   6.588   1.282   3.008
 8904SOL     OW27610   2.205   4.297   4.044
 8904SOL    HW127611   2.204   4.197   4.044
 8904SOL    HW227612   2.260   4.330   4.121
 8905SOL     OW27613   2.049   4.393   4.805
 8905SOL    HW127614   2.077   4.473   4.752
 8905SOL    HW227615   2.115   4.320   4.793
 8906SOL     OW27616   1.563   4.957   4.109
 8906SOL    HW127617   1.560   5.057   4.118
 8906SOL    HW227618   1.485   4.927   4.054
 8907SOL     OW27619   3.928   3.025   6.608
 8907SOL    HW127620   3.937   3.122   6.585
 8907SOL    HW227621   3.847   3.013   6.667
 8908SOL     OW27622   0.928   3.611   2.969
 8908SOL    HW127623   0.882   3.684   2.918
 8908SOL    HW227624   0.874   3.527   2.961
 8909SOL     OW27625   3.541   6.782   4.646
 8909SOL    HW127626   3.460   6.757   4.592
 8909SOL    HW227627   3.538   6.879   4.669
 8910SOL     OW27628   4.493   2.733   6.829
 8910SOL    HW127629   4.472   2.698   6.738
 8910SOL    HW227630   4.487   2.659   6.895
 8911SOL     OW27631   5.219   3.700   4.398
 8911SOL    HW127632   5.258   3.780   4.352
 8911SOL    HW227633   5.189   3.725   4.490
 8912SOL     OW27634   3.668   0.593   0.222
 8912SOL    HW127635   3.752   0.588   0.275
 8912SOL    HW227636   3.673   0.529   0.145
 8913SOL     OW27637   4.110   3.885   1.144
 8913SOL    HW127638   4.149   3.875   1.236
 8913SOL    HW227639   4.166   3.833   1.079
 8914SOL     OW27640   5.558   4.084   3.292
 8914SOL    HW127641   5.503   4.011   3.333
 8914SOL    HW227642   5.552   4.166   3.349
 8915SOL     OW27643   1.270   5.572   1.896
 8915SOL    HW127644   1.191   5.613   1.941
 8915SOL    HW227645   1.353   5.621   1.923
 8916SOL     OW27646   5.523   2.682   1.181
 8916SOL    HW127647   5.621   2.666   1.170
 8916SOL    HW227648   5.473   2.616   1.124
 8917SOL     OW27649   5.868   3.883   6.126
 8917SOL    HW127650   5.951   3.927   6.095
 8917SOL    HW227651   5.808   3.865   6.047
 8918SOL     OW27652   5.284   4.577   5.426
 8918SOL    HW127653   5.365   4.540   5.381
 8918SOL    HW227654   5.276   4.675   5.407
 8919SOL     OW27655   1.962   3.126   1.110
 8919SOL    HW127656   1.953   3.038   1.064
 8919SOL    HW227657   1.876   3.148   1.157
 8920SOL     OW27658   5.716   5.676   5.599
 8920SOL    HW127659   5.690   5.588   5.639
 8920SOL    HW227660   5.807   5.702   5.632
 8921SOL     OW27661   0.502   5.586   3.328
 8921SOL    HW127662   0.580   5.558   3.384
 8921SOL    HW227663   0.512   5.549   3.235
 8922SOL     OW27664   0.980   2.750   0.336
 8922SOL    HW127665   0.987   2.722   0.240
 8922SOL    HW227666   1.049   2.820   0.356
 8923SOL     OW27667   2.204   5.385   3.623
 8923SOL    HW127668   2.230   5.327   3.700
 8923SOL    HW227669   2.107   5.410   3.632
 8924SOL     OW27670   2.049   6.151   4.525
 8924SOL    HW127671   1.972   6.150   4.588
 8924SOL    HW227672   2.108   6.072   4.543
 8925SOL     OW27673   4.389   5.530   1.168
 8925SOL    HW127674   4.443   5.612   1.149
 8925SOL    HW227675   4.294   5.545   1.141
 8926SOL     OW27676   4.943   6.869   0.391
 8926SOL    HW127677   4.871   6.824   0.339
 8926SOL    HW227678   4.986   6.804   0.454
 8927SOL     OW27679   2.986   1.967   4.982
 8927SOL    HW127680   3.037   1.995   5.064
 8927SOL    HW227681   2.901   2.019   4.977
 8928SOL     OW27682   2.106   0.227   5.437
 8928SOL    HW127683   2.149   0.173   5.365
 8928SOL    HW227684   2.176   0.258   5.502
 8929SOL     OW27685   4.731   4.384   3.080
 8929SOL    HW127686   4.688   4.349   3.163
 8929SOL    HW227687   4.815   4.333   3.062
 8930SOL     OW27688   0.386   5.875   5.228
 8930SOL    HW127689   0.307   5.936   5.223
 8930SOL    HW227690   0.356   5.780   5.218
 8931SOL     OW27691   5.354   0.874   2.074
 8931SOL    HW127692   5.325   0.813   2.001
 8931SOL    HW227693   5.452   0.862   2.090
 8932SOL     OW27694   3.747   0.735   6.420
 8932SOL    HW127695   3.692   0.761   6.500
 8932SOL    HW227696   3.841   0.766   6.433
 8933SOL     OW27697   1.796   0.527   5.485
 8933SOL    HW127698   1.742   0.573   5.556
 8933SOL    HW227699   1.816   0.592   5.412
 8934SOL     OW27700   2.702   6.216   3.641
 8934SOL    HW127701   2.622   6.262   3.601
 8934SOL    HW227702   2.696   6.220   3.741
 8935SOL     OW27703   5.411   2.239   2.155
 8935SOL    HW127704   5.357   2.302   2.211
 8935SOL    HW227705   5.437   2.285   2.070
 8936SOL     OW27706   0.715   4.066   2.627
 8936SOL    HW127707   0.723   4.106   2.718
 8936SOL    HW227708   0.803   4.026   2.601
 8937SOL     OW27709   3.796   6.040   5.206
 8937SOL    HW127710   3.775   6.136   5.185
 8937SOL    HW227711   3.885   6.016   5.168
 8938SOL     OW27712   4.611   6.475   2.470
 8938SOL    HW127713   4.699   6.462   2.424
 8938SOL    HW227714   4.600   6.406   2.542
 8939SOL     OW27715   6.758   3.080   5.482
 8939SOL    HW127716   6.764   3.106   5.578
 8939SOL    HW227717   6.666   3.049   5.462
 8940SOL     OW27718   6.425   3.591   2.709
 8940SOL    HW127719   6.441   3.575   2.806
 8940SOL    HW227720   6.351   3.532   2.677
 8941SOL     OW27721   5.633   2.289   3.565
 8941SOL    HW127722   5.660   2.384   3.551
 8941SOL    HW227723   5.632   2.241   3.477
 8942SOL     OW27724   5.155   6.195   4.575
 8942SOL    HW127725   5.149   6.203   4.476
 8942SOL    HW227726   5.228   6.253   4.609
 8943SOL     OW27727   4.472   3.539   0.539
 8943SOL    HW127728   4.502   3.588   0.621
 8943SOL    HW227729   4.522   3.573   0.460
 8944SOL     OW27730   4.824   5.818   5.600
 8944SOL    HW127731   4.758   5.827   5.525
 8944SOL    HW227732   4.796   5.742   5.659
 8945SOL     OW27733   6.794   4.223   2.264
 8945SOL    HW127734   6.886   4.197   2.290
 8945SOL    HW227735   6.727   4.176   2.322
 8946SOL     OW27736   3.859   2.178   3.818
 8946SOL    HW127737   3.910   2.144   3.898
 8946SOL    HW227738   3.761   2.174   3.837
 8947SOL     OW27739   3.153   5.235   0.873
 8947SOL    HW127740   3.153   5.178   0.954
 8947SOL    HW227741   3.246   5.243   0.837
 8948SOL     OW27742   5.618   6.916   2.966
 8948SOL    HW127743   5.540   6.976   2.948
 8948SOL    HW227744   5.699   6.971   2.984
 8949SOL     OW27745   4.079   6.425   0.899
 8949SOL    HW127746   4.166   6.412   0.853
 8949SOL    HW227747   4.008   6.370   0.854
 8950SOL     OW27748   3.621   3.318   3.976
 8950SOL    HW127749   3.523   3.315   3.958
 8950SOL    HW227750   3.660   3.400   3.934
 8951SOL     OW27751   0.468   1.210   3.799
 8951SOL    HW127752   0.396   1.199   3.730
 8951SOL    HW227753   0.513   1.122   3.813
 8952SOL     OW27754   1.569   4.051   4.342
 8952SOL    HW127755   1.507   3.997   4.286
 8952SOL    HW227756   1.545   4.040   4.438
 8953SOL     OW27757   1.569   5.445   0.447
 8953SOL    HW127758   1.492   5.508   0.451
 8953SOL    HW227759   1.645   5.483   0.500
 8954SOL     OW27760   2.007   4.247   5.299
 8954SOL    HW127761   2.012   4.346   5.311
 8954SOL    HW227762   1.920   4.223   5.255
 8955SOL     OW27763   6.481   2.402   6.302
 8955SOL    HW127764   6.474   2.451   6.388
 8955SOL    HW227765   6.568   2.423   6.258
 8956SOL     OW27766   0.780   6.253   0.791
 8956SOL    HW127767   0.859   6.221   0.843
 8956SOL    HW227768   0.804   6.261   0.694
 8957SOL     OW27769   0.518   0.448   3.975
 8957SOL    HW127770   0.472   0.488   3.896
 8957SOL    HW227771   0.461   0.375   4.013
 8958SOL     OW27772   6.991   2.734   4.508
 8958SOL    HW127773   0.047   2.801   4.524
 8958SOL    HW227774   6.993   2.706   4.411
 8959SOL     OW27775   5.616   1.016   3.528
 8959SOL    HW127776   5.712   0.987   3.533
 8959SOL    HW227777   5.583   1.005   3.434
 8960SOL     OW27778   3.840   6.260   2.070
 8960SOL    HW127779   3.787   6.312   2.003
 8960SOL    HW227780   3.786   6.180   2.099
 8961SOL     OW27781   2.408   2.688   5.546
 8961SOL    HW127782   2.410   2.597   5.504
 8961SOL    HW227783   2.459   2.752   5.488
 8962SOL     OW27784   6.722   5.859   0.718
 8962SOL    HW127785   6.677   5.797   0.655
 8962SOL    HW227786   6.658   5.889   0.788
 8963SOL     OW27787   2.249   5.211   5.715
 8963SOL    HW127788   2.271   5.300   5.674
 8963SOL    HW227789   2.231   5.144   5.643
 8964SOL     OW27790   0.942   3.530   4.187
 8964SOL    HW127791   0.890   3.468   4.246
 8964SOL    HW227792   1.016   3.479   4.142
 8965SOL     OW27793   3.169   7.013   6.329
 8965SOL    HW127794   3.101   0.038   6.390
 8965SOL    HW227795   3.236   6.961   6.383
 8966SOL     OW27796   4.468   6.496   5.220
 8966SOL    HW127797   4.374   6.526   5.203
 8966SOL    HW227798   4.478   6.399   5.196
 8967SOL     OW27799   1.731   6.814   2.994
 8967SOL    HW127800   1.734   6.862   2.906
 8967SOL    HW227801   1.801   6.743   2.997
 8968SOL     OW27802   2.423   5.543   2.750
 8968SOL    HW127803   2.485   5.500   2.684
 8968SOL    HW227804   2.436   5.499   2.839
 8969SOL     OW27805   6.616   0.865   1.143
 8969SOL    HW127806   6.569   0.949   1.113
 8969SOL    HW227807   6.599   0.793   1.076
 8970SOL     OW27808   2.561   2.491   4.664
 8970SOL    HW127809   2.634   2.429   4.691
 8970SOL    HW227810   2.520   2.532   4.745
 8971SOL     OW27811   3.245   5.935   1.071
 8971SOL    HW127812   3.202   5.996   1.138
 8971SOL    HW227813   3.327   5.895   1.110
 8972SOL     OW27814   6.895   4.144   6.916
 8972SOL    HW127815   6.833   4.182   6.985
 8972SOL    HW227816   6.922   4.216   6.853
 8973SOL     OW27817   2.722   1.908   3.410
 8973SOL    HW127818   2.726   1.987   3.349
 8973SOL    HW227819   2.660   1.927   3.486
 8974SOL     OW27820   0.931   5.044   5.479
 8974SOL    HW127821   0.928   4.993   5.393
 8974SOL    HW227822   1.018   5.092   5.487
 8975SOL     OW27823   1.028   3.857   6.444
 8975SOL    HW127824   1.002   3.895   6.533
 8975SOL    HW227825   1.066   3.930   6.386
 8976SOL     OW27826   5.635   6.787   1.407
 8976SOL    HW127827   5.676   6.751   1.323
 8976SOL    HW227828   5.583   6.715   1.452
 8977SOL     OW27829   0.621   4.984   6.429
 8977SOL    HW127830   0.700   4.933   6.396
 8977SOL    HW227831   0.645   5.031   6.514
 8978SOL     OW27832   6.855   5.007   4.853
 8978SOL    HW127833   6.780   4.950   4.820
 8978SOL    HW227834   6.885   4.975   4.942
 8979SOL     OW27835   1.928   4.706   2.956
 8979SOL    HW127836   1.871   4.640   2.909
 8979SOL    HW227837   2.024   4.689   2.935
 8980SOL     OW27838   5.116   1.369   6.652
 8980SOL    HW127839   5.052   1.302   6.689
 8980SOL    HW227840   5.193   1.322   6.610
 8981SOL     OW27841   3.611   2.282   6.610
 8981SOL    HW127842   3.636   2.340   6.688
 8981SOL    HW227843   3.646   2.190   6.624
 8982SOL     OW27844   0.202   0.847   3.629
 8982SOL    HW127845   0.295   0.826   3.601
 8982SOL    HW227846   0.203   0.899   3.714
 8983SOL     OW27847   1.355   6.656   2.175
 8983SOL    HW127848   1.292   6.582   2.153
 8983SOL    HW227849   1.400   6.637   2.263
 8984SOL     OW27850   6.139   1.135   3.662
 8984SOL    HW127851   6.192   1.192   3.600
 8984SOL    HW227852   6.077   1.193   3.716
 8985SOL     OW27853   4.838   0.591   0.341
 8985SOL    HW127854   4.814   0.678   0.298
 8985SOL    HW227855   4.841   0.519   0.271
 8986SOL     OW27856   1.193   0.372   6.190
 8986SOL    HW127857   1.185   0.286   6.140
 8986SOL    HW227858   1.250   0.436   6.138
 8987SOL     OW27859   3.380   6.415   2.930
 8987SOL    HW127860   3.286   6.429   2.897
 8987SOL    HW227861   3.444   6.422   2.854
 8988SOL     OW27862   1.890   6.466   1.084
 8988SOL    HW127863   1.923   6.407   1.011
 8988SOL    HW227864   1.901   6.562   1.057
 8989SOL     OW27865   6.473   1.266   2.440
 8989SOL    HW127866   6.418   1.271   2.524
 8989SOL    HW227867   6.559   1.315   2.455
 8990SOL     OW27868   3.936   1.945   3.070
 8990SOL    HW127869   3.864   1.932   3.138
 8990SOL    HW227870   3.975   2.037   3.079
 8991SOL     OW27871   1.781   1.734   1.017
 8991SOL    HW127872   1.865   1.779   1.047
 8991SOL    HW227873   1.802   1.669   0.943
 8992SOL     OW27874   0.993   5.516   5.286
 8992SOL    HW127875   0.943   5.444   5.237
 8992SOL    HW227876   1.027   5.583   5.220
 8993SOL     OW27877   5.535   4.308   3.779
 8993SOL    HW127878   5.567   4.215   3.795
 8993SOL    HW227879   5.455   4.305   3.719
 8994SOL     OW27880   1.474   6.273   2.739
 8994SOL    HW127881   1.472   6.204   2.811
 8994SOL    HW227882   1.383   6.313   2.728
 8995SOL     OW27883   1.709   4.237   3.738
 8995SOL    HW127884   1.746   4.248   3.645
 8995SOL    HW227885   1.780   4.257   3.805
 8996SOL     OW27886   2.977   4.012   1.533
 8996SOL    HW127887   3.063   3.985   1.490
 8996SOL    HW227888   2.984   4.106   1.567
 8997SOL     OW27889   4.312   1.353   4.883
 8997SOL    HW127890   4.241   1.377   4.949
 8997SOL    HW227891   4.348   1.262   4.905
 8998SOL     OW27892   1.240   1.362   6.193
 8998SOL    HW127893   1.163   1.425   6.193
 8998SOL    HW227894   1.325   1.414   6.203
 8999SOL     OW27895   6.594   2.887   5.149
 8999SOL    HW127896   6.687   2.860   5.172
 8999SOL    HW227897   6.585   2.896   5.050
 9000SOL     OW27898   4.083   5.025   1.264
 9000SOL    HW127899   4.043   4.938   1.233
 9000SOL    HW227900   4.170   5.040   1.217
 9001SOL     OW27901   0.958   3.244   4.042
 9001SOL    HW127902   1.053   3.271   4.059
 9001SOL    HW227903   0.938   3.159   4.091
 9002SOL     OW27904   4.760   2.831   6.331
 9002SOL    HW127905   4.843   2.832   6.275
 9002SOL    HW227906   4.702   2.755   6.301
 9003SOL     OW27907   0.631   3.711   0.232
 9003SOL    HW127908   0.593   3.678   0.318
 9003SOL    HW227909   0.571   3.781   0.194
 9004SOL     OW27910   5.033   5.698   0.589
 9004SOL    HW127911   4.981   5.777   0.559
 9004SOL    HW227912   5.101   5.727   0.657
 9005SOL     OW27913   4.889   4.217   4.139
 9005SOL    HW127914   4.947   4.281   4.088
 9005SOL    HW227915   4.945   4.148   4.184
 9006SOL     OW27916   3.430   6.413   2.632
 9006SOL    HW127917   3.364   6.355   2.585
 9006SOL    HW227918   3.469   6.478   2.568
 9007SOL     OW27919   1.845   0.259   5.441
 9007SOL    HW127920   1.944   0.248   5.440
 9007SOL    HW227921   1.822   0.356   5.438
 9008SOL     OW27922   6.815   4.426   1.572
 9008SOL    HW127923   6.890   4.440   1.637
 9008SOL    HW227924   6.816   4.499   1.503
 9009SOL     OW27925   3.946   0.059   6.901
 9009SOL    HW127926   3.971   6.979   6.888
 9009SOL    HW227927   4.009   0.101   6.966
 9010SOL     OW27928   6.921   6.375   4.913
 9010SOL    HW127929   6.869   6.309   4.859
 9010SOL    HW227930   6.992   6.416   4.856
 9011SOL     OW27931   4.608   2.615   2.340
 9011SOL    HW127932   4.617   2.546   2.268
 9011SOL    HW227933   4.615   2.706   2.300
 9012SOL     OW27934   3.950   4.868   1.977
 9012SOL    HW127935   3.937   4.848   1.880
 9012SOL    HW227936   4.038   4.830   2.007
 9013SOL     OW27937   3.273   6.547   0.955
 9013SOL    HW127938   3.352   6.486   0.967
 9013SOL    HW227939   3.300   6.641   0.975
 9014SOL     OW27940   1.736   1.723   2.406
 9014SOL    HW127941   1.812   1.702   2.344
 9014SOL    HW227942   1.758   1.689   2.497
 9015SOL     OW27943   6.363   2.000   4.527
 9015SOL    HW127944   6.291   2.004   4.597
 9015SOL    HW227945   6.447   2.040   4.565
 9016SOL     OW27946   0.084   4.751   6.939
 9016SOL    HW127947   7.013   4.715   6.905
 9016SOL    HW227948   0.111   4.830   6.884
 9017SOL     OW27949   6.283   2.885   2.306
 9017SOL    HW127950   6.345   2.934   2.367
 9017SOL    HW227951   6.230   2.950   2.252
 9018SOL     OW27952   5.427   2.257   6.676
 9018SOL    HW127953   5.367   2.177   6.667
 9018SOL    HW227954   5.520   2.232   6.648
 9019SOL     OW27955   1.714   6.009   0.437
 9019SOL    HW127956   1.746   5.918   0.461
 9019SOL    HW227957   1.782   6.055   0.379
 9020SOL     OW27958   0.703   5.339   4.782
 9020SOL    HW127959   0.714   5.422   4.728
 9020SOL    HW227960   0.786   5.324   4.837
 9021SOL     OW27961   7.005   5.233   4.842
 9021SOL    HW127962   6.953   5.147   4.850
 9021SOL    HW227963   6.943   5.307   4.818
 9022SOL     OW27964   0.960   6.760   6.005
 9022SOL    HW127965   0.873   6.771   6.053
 9022SOL    HW227966   1.005   6.676   6.035
 9023SOL     OW27967   4.056   3.661   3.844
 9023SOL    HW127968   3.983   3.595   3.864
 9023SOL    HW227969   4.122   3.662   3.919
 9024SOL     OW27970   1.549   0.220   0.475
 9024SOL    HW127971   1.522   0.124   0.481
 9024SOL    HW227972   1.634   0.228   0.423
 9025SOL     OW27973   0.474   2.499   0.976
 9025SOL    HW127974   0.425   2.561   0.915
 9025SOL    HW227975   0.409   2.433   1.015
 9026SOL     OW27976   2.875   4.524   5.802
 9026SOL    HW127977   2.904   4.585   5.875
 9026SOL    HW227978   2.806   4.570   5.745
 9027SOL     OW27979   1.061   3.484   1.927
 9027SOL    HW127980   1.149   3.529   1.939
 9027SOL    HW227981   1.006   3.536   1.862
 9028SOL     OW27982   1.869   3.681   4.844
 9028SOL    HW127983   1.814   3.764   4.847
 9028SOL    HW227984   1.931   3.678   4.922
 9029SOL     OW27985   5.139   5.057   3.130
 9029SOL    HW127986   5.132   5.025   3.225
 9029SOL    HW227987   5.146   4.978   3.069
 9030SOL     OW27988   4.961   2.825   2.279
 9030SOL    HW127989   4.956   2.924   2.291
 9030SOL    HW227990   4.880   2.793   2.230
 9031SOL     OW27991   2.483   0.627   2.626
 9031SOL    HW127992   2.405   0.678   2.591
 9031SOL    HW227993   2.527   0.677   2.700
 9032SOL     OW27994   0.442   4.099   2.891
 9032SOL    HW127995   0.416   4.090   2.795
 9032SOL    HW227996   0.493   4.017   2.920
 9033SOL     OW27997   0.872   2.957   2.670
 9033SOL    HW127998   0.891   3.033   2.732
 9033SOL    HW227999   0.794   2.981   2.611
 9034SOL     OW28000   1.086   6.770   0.554
 9034SOL    HW128001   1.035   6.852   0.528
 9034SOL    HW228002   1.064   6.695   0.492
 9035SOL     OW28003   6.047   1.260   4.460
 9035SOL    HW128004   5.949   1.259   4.479
 9035SOL    HW228005   6.063   1.247   4.362
 9036SOL     OW28006   0.040   1.748   4.225
 9036SOL    HW128007   0.078   1.655   4.226
 9036SOL    HW228008   0.027   1.780   4.319
 9037SOL     OW28009   2.875   4.307   5.947
 9037SOL    HW128010   2.900   4.399   5.916
 9037SOL    HW228011   2.833   4.257   5.871
 9038SOL     OW28012   3.859   5.974   5.747
 9038SOL    HW128013   3.846   6.042   5.820
 9038SOL    HW228014   3.788   5.904   5.754
 9039SOL     OW28015   2.625   4.704   0.420
 9039SOL    HW128016   2.701   4.639   0.426
 9039SOL    HW228017   2.553   4.666   0.362
 9040SOL     OW28018   3.316   1.569   2.548
 9040SOL    HW128019   3.329   1.606   2.456
 9040SOL    HW228020   3.316   1.644   2.614
 9041SOL     OW28021   2.366   2.737   5.179
 9041SOL    HW128022   2.274   2.739   5.218
 9041SOL    HW228023   2.388   2.827   5.141
 9042SOL     OW28024   1.381   5.340   2.679
 9042SOL    HW128025   1.340   5.428   2.653
 9042SOL    HW228026   1.332   5.302   2.757
 9043SOL     OW28027   0.438   1.649   6.853
 9043SOL    HW128028   0.456   1.575   6.789
 9043SOL    HW228029   0.514   1.656   6.918
 9044SOL     OW28030   0.761   4.216   1.174
 9044SOL    HW128031   0.678   4.220   1.118
 9044SOL    HW228032   0.824   4.147   1.136
 9045SOL     OW28033   1.671   4.689   4.731
 9045SOL    HW128034   1.716   4.600   4.721
 9045SOL    HW228035   1.582   4.677   4.775
 9046SOL     OW28036   3.987   4.483   5.804
 9046SOL    HW128037   3.925   4.432   5.865
 9046SOL    HW228038   4.041   4.548   5.858
 9047SOL     OW28039   0.786   5.232   3.968
 9047SOL    HW128040   0.836   5.318   3.984
 9047SOL    HW228041   0.851   5.158   3.953
 9048SOL     OW28042   1.129   1.910   5.790
 9048SOL    HW128043   1.213   1.916   5.844
 9048SOL    HW228044   1.105   2.001   5.756
 9049SOL     OW28045   4.653   5.462   5.647
 9049SOL    HW128046   4.601   5.503   5.573
 9049SOL    HW228047   4.658   5.527   5.724
 9050SOL     OW28048   0.236   3.652   6.903
 9050SOL    HW128049   0.307   3.589   6.934
 9050SOL    HW228050   0.218   3.720   6.974
 9051SOL     OW28051   0.093   5.816   6.234
 9051SOL    HW128052   0.153   5.895   6.250
 9051SOL    HW228053   0.024   5.841   6.166
 9052SOL     OW28054   2.316   4.875   4.496
 9052SOL    HW128055   2.357   4.883   4.587
 9052SOL    HW228056   2.330   4.960   4.445
 9053SOL     OW28057   0.955   0.486   2.595
 9053SOL    HW128058   1.027   0.416   2.595
 9053SOL    HW228059   0.895   0.472   2.517
 9054SOL     OW28060   1.269   6.976   2.204
 9054SOL    HW128061   1.205   0.026   2.242
 9054SOL    HW228062   1.218   6.897   2.169
 9055SOL     OW28063   1.235   3.118   5.444
 9055SOL    HW128064   1.209   3.207   5.482
 9055SOL    HW228065   1.283   3.064   5.513
 9056SOL     OW28066   5.394   2.387   1.914
 9056SOL    HW128067   5.392   2.467   1.854
 9056SOL    HW228068   5.302   2.349   1.922
 9057SOL     OW28069   3.526   0.111   5.798
 9057SOL    HW128070   3.587   0.095   5.720
 9057SOL    HW228071   3.516   0.027   5.851
 9058SOL     OW28072   2.225   2.912   4.083
 9058SOL    HW128073   2.158   2.857   4.033
 9058SOL    HW228074   2.302   2.933   4.023
 9059SOL     OW28075   0.302   0.609   2.393
 9059SOL    HW128076   0.258   0.573   2.476
 9059SOL    HW228077   0.254   0.691   2.364
 9060SOL     OW28078   0.410   4.852   0.354
 9060SOL    HW128079   0.463   4.770   0.374
 9060SOL    HW228080   0.387   4.853   0.256
 9061SOL     OW28081   3.865   4.839   2.713
 9061SOL    HW128082   3.909   4.833   2.623
 9061SOL    HW228083   3.927   4.806   2.783
 9062SOL     OW28084   0.319   6.308   2.501
 9062SOL    HW128085   0.335   6.351   2.590
 9062SOL    HW228086   0.220   6.302   2.485
 9063SOL     OW28087   5.976   6.554   0.709
 9063SOL    HW128088   6.045   6.567   0.780
 9063SOL    HW228089   6.001   6.475   0.653
 9064SOL     OW28090   1.364   6.141   2.965
 9064SOL    HW128091   1.272   6.178   2.978
 9064SOL    HW228092   1.406   6.124   3.054
 9065SOL     OW28093   3.280   4.122   6.914
 9065SOL    HW128094   3.286   4.187   6.990
 9065SOL    HW228095   3.346   4.147   6.843
 9066SOL     OW28096   5.308   5.051   3.482
 9066SOL    HW128097   5.343   5.144   3.497
 9066SOL    HW228098   5.210   5.049   3.502
 9067SOL     OW28099   1.605   0.305   3.970
 9067SOL    HW128100   1.630   0.228   3.912
 9067SOL    HW228101   1.612   0.390   3.917
 9068SOL     OW28102   5.460   0.768   4.901
 9068SOL    HW128103   5.368   0.790   4.868
 9068SOL    HW228104   5.484   0.831   4.975
 9069SOL     OW28105   4.697   2.786   1.245
 9069SOL    HW128106   4.794   2.762   1.232
 9069SOL    HW228107   4.670   2.852   1.175
 9070SOL     OW28108   0.860   0.740   6.473
 9070SOL    HW128109   0.816   0.696   6.395
 9070SOL    HW228110   0.832   0.695   6.557
 9071SOL     OW28111   5.838   2.865   0.239
 9071SOL    HW128112   5.829   2.942   0.302
 9071SOL    HW228113   5.927   2.870   0.193
 9072SOL     OW28114   6.065   0.893   1.825
 9072SOL    HW128115   6.126   0.867   1.750
 9072SOL    HW228116   6.091   0.982   1.861
 9073SOL     OW28117   4.930   2.701   6.152
 9073SOL    HW128118   4.992   2.710   6.074
 9073SOL    HW228119   4.882   2.613   6.146
 9074SOL     OW28120   2.229   0.373   3.220
 9074SOL    HW128121   2.212   0.294   3.278
 9074SOL    HW228122   2.175   0.366   3.137
 9075SOL     OW28123   4.816   5.654   1.277
 9075SOL    HW128124   4.755   5.641   1.355
 9075SOL    HW228125   4.897   5.705   1.306
 9076SOL     OW28126   0.969   6.820   2.757
 9076SOL    HW128127   0.972   6.898   2.696
 9076SOL    HW228128   0.955   6.736   2.704
 9077SOL     OW28129   6.312   0.811   6.596
 9077SOL    HW128130   6.247   0.755   6.647
 9077SOL    HW228131   6.282   0.907   6.598
 9078SOL     OW28132   5.242   6.352   6.823
 9078SOL    HW128133   5.245   6.262   6.866
 9078SOL    HW228134   5.158   6.361   6.769
 9079SOL     OW28135   2.715   1.485   6.396
 9079SOL    HW128136   2.782   1.412   6.409
 9079SOL    HW228137   2.762   1.570   6.369
 9080SOL     OW28138   6.822   5.100   0.744
 9080SOL    HW128139   6.863   5.024   0.794
 9080SOL    HW228140   6.730   5.117   0.778
 9081SOL     OW28141   5.029   1.693   6.352
 9081SOL    HW128142   5.046   1.596   6.368
 9081SOL    HW228143   5.095   1.747   6.403
 9082SOL     OW28144   2.860   4.381   6.425
 9082SOL    HW128145   2.849   4.477   6.399
 9082SOL    HW228146   2.770   4.336   6.426
 9083SOL     OW28147   3.764   0.431   0.852
 9083SOL    HW128148   3.725   0.427   0.760
 9083SOL    HW228149   3.856   0.468   0.848
 9084SOL     OW28150   6.954   4.379   4.775
 9084SOL    HW128151   0.033   4.349   4.775
 9084SOL    HW228152   6.907   4.343   4.694
 9085SOL     OW28153   3.316   4.857   1.947
 9085SOL    HW128154   3.396   4.796   1.947
 9085SOL    HW228155   3.233   4.803   1.959
 9086SOL     OW28156   0.313   1.385   0.355
 9086SOL    HW128157   0.272   1.341   0.435
 9086SOL    HW228158   0.332   1.481   0.375
 9087SOL     OW28159   4.876   1.436   0.137
 9087SOL    HW128160   4.838   1.461   0.048
 9087SOL    HW228161   4.965   1.391   0.125
 9088SOL     OW28162   5.230   6.725   0.629
 9088SOL    HW128163   5.309   6.716   0.569
 9088SOL    HW228164   5.221   6.820   0.659
 9089SOL     OW28165   4.550   5.425   3.179
 9089SOL    HW128166   4.483   5.352   3.195
 9089SOL    HW228167   4.514   5.511   3.214
 9090SOL     OW28168   6.631   4.861   4.728
 9090SOL    HW128169   6.578   4.932   4.775
 9090SOL    HW228170   6.636   4.779   4.784
 9091SOL     OW28171   1.726   2.085   2.092
 9091SOL    HW128172   1.637   2.059   2.129
 9091SOL    HW228173   1.755   2.172   2.132
 9092SOL     OW28174   3.232   1.708   5.267
 9092SOL    HW128175   3.274   1.689   5.178
 9092SOL    HW228176   3.252   1.633   5.330
 9093SOL     OW28177   1.537   3.921   0.827
 9093SOL    HW128178   1.561   3.840   0.881
 9093SOL    HW228179   1.536   3.897   0.730
 9094SOL     OW28180   0.365   2.690   6.643
 9094SOL    HW128181   0.453   2.681   6.596
 9094SOL    HW228182   0.321   2.775   6.616
 9095SOL     OW28183   2.696   2.051   0.747
 9095SOL    HW128184   2.774   2.101   0.710
 9095SOL    HW228185   2.646   2.110   0.811
 9096SOL     OW28186   6.933   4.080   3.035
 9096SOL    HW128187   6.928   3.982   3.012
 9096SOL    HW228188   0.012   4.107   3.046
 9097SOL     OW28189   6.536   5.913   5.771
 9097SOL    HW128190   6.471   5.987   5.756
 9097SOL    HW228191   6.494   5.845   5.832
 9098SOL     OW28192   3.384   3.428   5.454
 9098SOL    HW128193   3.421   3.454   5.543
 9098SOL    HW228194   3.344   3.337   5.460
 9099SOL     OW28195   2.342   2.200   6.332
 9099SOL    HW128196   2.440   2.217   6.341
 9099SOL    HW228197   2.320   2.185   6.236
 9100SOL     OW28198   1.722   2.201   1.191
 9100SOL    HW128199   1.724   2.248   1.103
 9100SOL    HW228200   1.803   2.142   1.198
 9101SOL     OW28201   2.514   2.173   0.366
 9101SOL    HW128202   2.453   2.175   0.445
 9101SOL    HW228203   2.462   2.148   0.284
 9102SOL     OW28204   4.355   6.241   2.496
 9102SOL    HW128205   4.384   6.180   2.570
 9102SOL    HW228206   4.295   6.312   2.533
 9103SOL     OW28207   1.691   4.022   6.532
 9103SOL    HW128208   1.639   4.032   6.447
 9103SOL    HW228209   1.789   4.031   6.513
 9104SOL     OW28210   4.741   6.450   3.146
 9104SOL    HW128211   4.815   6.442   3.080
 9104SOL    HW228212   4.714   6.546   3.153
 9105SOL     OW28213   3.066   2.245   6.047
 9105SOL    HW128214   2.993   2.310   6.070
 9105SOL    HW228215   3.140   2.293   6.001
 9106SOL     OW28216   6.644   5.508   1.287
 9106SOL    HW128217   6.693   5.579   1.236
 9106SOL    HW228218   6.710   5.446   1.329
 9107SOL     OW28219   4.400   6.744   6.517
 9107SOL    HW128220   4.436   6.651   6.525
 9107SOL    HW228221   4.474   6.809   6.530
 9108SOL     OW28222   3.424   5.578   0.847
 9108SOL    HW128223   3.328   5.587   0.824
 9108SOL    HW228224   3.480   5.589   0.765
 9109SOL     OW28225   3.476   1.804   4.558
 9109SOL    HW128226   3.561   1.752   4.566
 9109SOL    HW228227   3.461   1.855   4.642
 9110SOL     OW28228   0.212   4.177   3.607
 9110SOL    HW128229   0.147   4.149   3.677
 9110SOL    HW228230   0.184   4.266   3.570
 9111SOL     OW28231   3.682   4.535   1.646
 9111SOL    HW128232   3.641   4.589   1.719
 9111SOL    HW228233   3.619   4.530   1.569
 9112SOL     OW28234   1.022   6.608   2.295
 9112SOL    HW128235   1.103   6.560   2.261
 9112SOL    HW228236   0.994   6.677   2.229
 9113SOL     OW28237   2.371   6.472   1.015
 9113SOL    HW128238   2.433   6.473   1.094
 9113SOL    HW228239   2.417   6.429   0.937
 9114SOL     OW28240   2.926   3.846   1.738
 9114SOL    HW128241   2.955   3.887   1.651
 9114SOL    HW228242   2.984   3.880   1.812
 9115SOL     OW28243   1.337   4.862   3.994
 9115SOL    HW128244   1.263   4.808   4.035
 9115SOL    HW228245   1.364   4.820   3.907
 9116SOL     OW28246   3.686   2.488   6.799
 9116SOL    HW128247   3.784   2.499   6.815
 9116SOL    HW228248   3.651   2.567   6.748
 9117SOL     OW28249   1.218   2.256   0.261
 9117SOL    HW128250   1.297   2.235   0.319
 9117SOL    HW228251   1.221   2.200   0.179
 9118SOL     OW28252   0.773   6.933   1.963
 9118SOL    HW128253   0.690   6.986   1.982
 9118SOL    HW228254   0.841   6.992   1.919
 9119SOL     OW28255   6.144   0.226   0.552
 9119SOL    HW128256   6.141   0.287   0.473
 9119SOL    HW228257   6.096   0.269   0.629
 9120SOL     OW28258   6.183   7.001   6.698
 9120SOL    HW128259   6.142   6.928   6.753
 9120SOL    HW228260   6.226   0.052   6.759
 9121SOL     OW28261   1.385   0.904   6.349
 9121SOL    HW128262   1.365   1.002   6.350
 9121SOL    HW228263   1.411   0.875   6.441
 9122SOL     OW28264   0.464   3.341   1.403
 9122SOL    HW128265   0.467   3.346   1.502
 9122SOL    HW228266   0.386   3.394   1.368
 9123SOL     OW28267   1.501   6.768   5.848
 9123SOL    HW128268   1.489   6.683   5.900
 9123SOL    HW228269   1.592   6.769   5.807
 9124SOL     OW28270   0.409   4.169   4.866
 9124SOL    HW128271   0.332   4.120   4.909
 9124SOL    HW228272   0.398   4.167   4.767
 9125SOL     OW28273   4.835   6.337   1.292
 9125SOL    HW128274   4.759   6.280   1.261
 9125SOL    HW228275   4.821   6.431   1.262
 9126SOL     OW28276   5.558   0.575   3.223
 9126SOL    HW128277   5.658   0.586   3.216
 9126SOL    HW228278   5.533   0.568   3.319
 9127SOL     OW28279   6.089   4.751   6.220
 9127SOL    HW128280   6.061   4.843   6.192
 9127SOL    HW228281   6.009   4.691   6.220
 9128SOL     OW28282   4.777   3.086   5.302
 9128SOL    HW128283   4.862   3.132   5.328
 9128SOL    HW228284   4.700   3.150   5.313
 9129SOL     OW28285   3.216   0.840   0.536
 9129SOL    HW128286   3.180   0.783   0.462
 9129SOL    HW228287   3.140   0.871   0.593
 9130SOL     OW28288   5.694   5.170   1.383
 9130SOL    HW128289   5.648   5.085   1.408
 9130SOL    HW228290   5.638   5.248   1.409
 9131SOL     OW28291   0.576   4.938   3.668
 9131SOL    HW128292   0.591   5.024   3.716
 9131SOL    HW228293   0.651   4.875   3.688
 9132SOL     OW28294   1.429   2.834   4.184
 9132SOL    HW128295   1.398   2.907   4.245
 9132SOL    HW228296   1.358   2.763   4.179
 9133SOL     OW28297   1.324   4.854   0.967
 9133SOL    HW128298   1.232   4.825   0.994
 9133SOL    HW228299   1.349   4.809   0.882
 9134SOL     OW28300   3.123   5.365   6.263
 9134SOL    HW128301   3.209   5.317   6.243
 9134SOL    HW228302   3.046   5.304   6.242
 9135SOL     OW28303   1.145   0.475   2.876
 9135SOL    HW128304   1.209   0.487   2.800
 9135SOL    HW228305   1.061   0.527   2.857
 9136SOL     OW28306   3.426   4.954   5.928
 9136SOL    HW128307   3.440   5.044   5.969
 9136SOL    HW228308   3.330   4.928   5.937
 9137SOL     OW28309   3.541   0.309   3.116
 9137SOL    HW128310   3.575   0.284   3.025
 9137SOL    HW228311   3.466   0.375   3.106
 9138SOL     OW28312   3.468   4.363   1.115
 9138SOL    HW128313   3.518   4.277   1.131
 9138SOL    HW228314   3.526   4.426   1.064
 9139SOL     OW28315   4.395   0.833   5.441
 9139SOL    HW128316   4.352   0.751   5.478
 9139SOL    HW228317   4.464   0.866   5.505
 9140SOL     OW28318   6.368   2.232   3.892
 9140SOL    HW128319   6.334   2.311   3.944
 9140SOL    HW228320   6.350   2.246   3.795
 9141SOL     OW28321   4.995   1.275   5.504
 9141SOL    HW128322   5.006   1.333   5.584
 9141SOL    HW228323   4.903   1.237   5.502
 9142SOL     OW28324   2.120   2.878   0.011
 9142SOL    HW128325   2.047   2.858   0.076
 9142SOL    HW228326   2.155   2.971   0.028
 9143SOL     OW28327   6.932   4.220   0.483
 9143SOL    HW128328   6.954   4.317   0.469
 9143SOL    HW228329   6.898   4.181   0.398
 9144SOL     OW28330   1.139   5.988   4.180
 9144SOL    HW128331   1.053   6.031   4.206
 9144SOL    HW228332   1.133   5.889   4.194
 9145SOL     OW28333   1.834   3.150   6.880
 9145SOL    HW128334   1.825   3.205   6.963
 9145SOL    HW228335   1.769   3.183   6.811
 9146SOL     OW28336   1.036   1.881   1.651
 9146SOL    HW128337   1.085   1.845   1.731
 9146SOL    HW228338   0.962   1.940   1.682
 9147SOL     OW28339   4.183   5.451   6.640
 9147SOL    HW128340   4.214   5.361   6.608
 9147SOL    HW228341   4.262   5.512   6.650
 9148SOL     OW28342   3.585   5.015   2.854
 9148SOL    HW128343   3.504   4.985   2.804
 9148SOL    HW228344   3.666   4.967   2.819
 9149SOL     OW28345   6.322   3.407   5.117
 9149SOL    HW128346   6.245   3.390   5.056
 9149SOL    HW228347   6.370   3.321   5.134
 9150SOL     OW28348   3.419   1.324   2.931
 9150SOL    HW128349   3.492   1.259   2.949
 9150SOL    HW228350   3.342   1.307   2.993
 9151SOL     OW28351   6.087   3.170   2.034
 9151SOL    HW128352   6.170   3.175   2.089
 9151SOL    HW228353   6.107   3.125   1.947
 9152SOL     OW28354   1.947   4.853   2.559
 9152SOL    HW128355   1.867   4.890   2.511
 9152SOL    HW228356   1.997   4.928   2.603
 9153SOL     OW28357   2.393   2.960   0.690
 9153SOL    HW128358   2.468   2.903   0.725
 9153SOL    HW228359   2.430   3.045   0.652
 9154SOL     OW28360   0.757   4.948   0.491
 9154SOL    HW128361   0.676   5.002   0.514
 9154SOL    HW228362   0.839   4.995   0.524
 9155SOL     OW28363   2.042   4.847   0.001
 9155SOL    HW128364   1.977   4.901   6.963
 9155SOL    HW228365   2.008   4.754   0.009
 9156SOL     OW28366   5.008   2.493   2.115
 9156SOL    HW128367   5.005   2.543   2.028
 9156SOL    HW228368   5.043   2.552   2.187
 9157SOL     OW28369   5.348   3.808   5.526
 9157SOL    HW128370   5.316   3.854   5.443
 9157SOL    HW228371   5.310   3.854   5.607
 9158SOL     OW28372   0.757   4.706   3.565
 9158SOL    HW128373   0.699   4.642   3.614
 9158SOL    HW228374   0.815   4.657   3.501
 9159SOL     OW28375   0.008   5.729   1.780
 9159SOL    HW128376   0.086   5.789   1.801
 9159SOL    HW228377   6.986   5.693   1.864
 9160SOL     OW28378   0.854   6.422   0.517
 9160SOL    HW128379   0.759   6.447   0.533
 9160SOL    HW228380   0.890   6.474   0.440
 9161SOL     OW28381   5.187   2.875   2.088
 9161SOL    HW128382   5.103   2.829   2.117
 9161SOL    HW228383   5.206   2.952   2.149
 9162SOL     OW28384   5.746   2.565   3.599
 9162SOL    HW128385   5.752   2.652   3.550
 9162SOL    HW228386   5.834   2.543   3.640
 9163SOL     OW28387   3.829   0.622   5.010
 9163SOL    HW128388   3.738   0.657   4.986
 9163SOL    HW228389   3.889   0.697   5.036
 9164SOL     OW28390   2.804   0.907   0.920
 9164SOL    HW128391   2.845   0.868   0.837
 9164SOL    HW228392   2.763   0.834   0.974
 9165SOL     OW28393   5.145   5.935   1.031
 9165SOL    HW128394   5.083   6.013   1.034
 9165SOL    HW228395   5.142   5.885   1.118
 9166SOL     OW28396   3.342   4.850   1.221
 9166SOL    HW128397   3.314   4.916   1.291
 9166SOL    HW228398   3.300   4.761   1.239
 9167SOL     OW28399   0.587   3.620   4.426
 9167SOL    HW128400   0.669   3.652   4.380
 9167SOL    HW228401   0.613   3.559   4.502
 9168SOL     OW28402   4.240   0.706   0.426
 9168SOL    HW128403   4.184   0.626   0.444
 9168SOL    HW228404   4.230   0.771   0.501
 9169SOL     OW28405   0.701   6.855   3.736
 9169SOL    HW128406   0.698   6.777   3.798
 9169SOL    HW228407   0.658   6.934   3.779
 9170SOL     OW28408   6.313   5.550   0.516
 9170SOL    HW128409   6.291   5.540   0.419
 9170SOL    HW228410   6.360   5.468   0.549
 9171SOL     OW28411   4.194   5.941   4.336
 9171SOL    HW128412   4.250   5.999   4.395
 9171SOL    HW228413   4.100   5.977   4.333
 9172SOL     OW28414   2.135   1.823   3.977
 9172SOL    HW128415   2.163   1.875   3.896
 9172SOL    HW228416   2.214   1.811   4.038
 9173SOL     OW28417   6.782   5.166   5.214
 9173SOL    HW128418   6.820   5.098   5.151
 9173SOL    HW228419   6.716   5.122   5.275
 9174SOL     OW28420   0.242   5.288   6.673
 9174SOL    HW128421   0.251   5.384   6.647
 9174SOL    HW228422   0.177   5.243   6.611
 9175SOL     OW28423   1.734   6.023   6.332
 9175SOL    HW128424   1.793   6.099   6.360
 9175SOL    HW228425   1.718   5.963   6.410
 9176SOL     OW28426   1.556   2.661   6.018
 9176SOL    HW128427   1.650   2.665   5.985
 9176SOL    HW228428   1.500   2.725   5.966
 9177SOL     OW28429   1.786   4.142   2.847
 9177SOL    HW128430   1.843   4.077   2.898
 9177SOL    HW228431   1.691   4.109   2.847
 9178SOL     OW28432   1.563   3.894   0.080
 9178SOL    HW128433   1.548   3.939   7.008
 9178SOL    HW228434   1.533   3.798   0.074
 9179SOL     OW28435   3.016   4.317   5.291
 9179SOL    HW128436   2.926   4.278   5.311
 9179SOL    HW228437   3.005   4.402   5.240
 9180SOL     OW28438   5.027   1.193   2.033
 9180SOL    HW128439   5.067   1.230   2.116
 9180SOL    HW228440   5.087   1.210   1.955
 9181SOL     OW28441   3.608   1.372   2.540
 9181SOL    HW128442   3.543   1.337   2.473
 9181SOL    HW228443   3.559   1.417   2.614
 9182SOL     OW28444   2.233   6.925   1.347
 9182SOL    HW128445   2.250   6.983   1.267
 9182SOL    HW228446   2.233   6.981   1.430
 9183SOL     OW28447   5.215   4.850   5.396
 9183SOL    HW128448   5.306   4.880   5.426
 9183SOL    HW228449   5.186   4.906   5.318
 9184SOL     OW28450   4.873   0.106   0.027
 9184SOL    HW128451   4.796   0.144   6.994
 9184SOL    HW228452   4.864   0.006   0.033
 9185SOL     OW28453   5.440   1.406   4.940
 9185SOL    HW128454   5.478   1.336   4.880
 9185SOL    HW228455   5.466   1.497   4.907
 9186SOL     OW28456   4.841   0.975   6.213
 9186SOL    HW128457   4.776   1.038   6.257
 9186SOL    HW228458   4.875   0.910   6.281
 9187SOL     OW28459   2.067   6.362   3.193
 9187SOL    HW128460   1.999   6.435   3.182
 9187SOL    HW228461   2.027   6.286   3.244
 9188SOL     OW28462   2.963   5.189   0.648
 9188SOL    HW128463   2.869   5.195   0.682
 9188SOL    HW228464   3.026   5.181   0.725
 9189SOL     OW28465   5.311   4.439   1.933
 9189SOL    HW128466   5.385   4.419   1.869
 9189SOL    HW228467   5.337   4.411   2.025
 9190SOL     OW28468   1.244   5.794   6.893
 9190SOL    HW128469   1.147   5.771   6.899
 9190SOL    HW228470   1.290   5.766   6.977
 9191SOL     OW28471   6.243   0.742   6.254
 9191SOL    HW128472   6.259   0.686   6.335
 9191SOL    HW228473   6.225   0.682   6.176
 9192SOL     OW28474   1.228   3.507   4.836
 9192SOL    HW128475   1.235   3.447   4.756
 9192SOL    HW228476   1.314   3.503   4.888
 9193SOL     OW28477   4.207   3.939   0.308
 9193SOL    HW128478   4.119   3.897   0.289
 9193SOL    HW228479   4.248   3.897   0.389
 9194SOL     OW28480   2.975   0.479   4.301
 9194SOL    HW128481   2.885   0.469   4.259
 9194SOL    HW228482   3.046   0.471   4.231
 9195SOL     OW28483   1.553   1.509   3.837
 9195SOL    HW128484   1.632   1.522   3.776
 9195SOL    HW228485   1.584   1.511   3.932
 9196SOL     OW28486   5.114   1.040   5.851
 9196SOL    HW128487   5.136   1.009   5.943
 9196SOL    HW228488   5.196   1.077   5.807
 9197SOL     OW28489   2.859   3.610   0.434
 9197SOL    HW128490   2.901   3.563   0.357
 9197SOL    HW228491   2.784   3.668   0.401
 9198SOL     OW28492   1.125   4.160   5.002
 9198SOL    HW128493   1.121   4.157   5.102
 9198SOL    HW228494   1.150   4.070   4.967
 9199SOL     OW28495   6.515   5.035   4.903
 9199SOL    HW128496   6.546   5.130   4.896
 9199SOL    HW228497   6.522   5.005   4.998
 9200SOL     OW28498   3.089   6.631   0.574
 9200SOL    HW128499   3.021   6.557   0.572
 9200SOL    HW228500   3.065   6.699   0.505
 9201SOL     OW28501   2.203   4.726   1.122
 9201SOL    HW128502   2.211   4.675   1.208
 9201SOL    HW228503   2.194   4.823   1.142
 9202SOL     OW28504   2.728   1.209   3.790
 9202SOL    HW128505   2.781   1.293   3.799
 9202SOL    HW228506   2.678   1.192   3.875
 9203SOL     OW28507   6.849   6.373   1.243
 9203SOL    HW128508   6.935   6.422   1.259
 9203SOL    HW228509   6.867   6.275   1.240
 9204SOL     OW28510   5.440   0.364   5.215
 9204SOL    HW128511   5.449   0.279   5.162
 9204SOL    HW228512   5.350   0.366   5.260
 9205SOL     OW28513   6.921   5.341   2.722
 9205SOL    HW128514   6.963   5.273   2.661
 9205SOL    HW228515   6.835   5.372   2.682
 9206SOL     OW28516   3.996   0.387   0.200
 9206SOL    HW128517   3.954   0.433   0.278
 9206SOL    HW228518   4.006   0.452   0.124
 9207SOL     OW28519   5.544   5.594   6.212
 9207SOL    HW128520   5.584   5.538   6.286
 9207SOL    HW228521   5.491   5.669   6.251
 9208SOL     OW28522   1.290   3.688   2.287
 9208SOL    HW128523   1.226   3.669   2.361
 9208SOL    HW228524   1.273   3.625   2.211
 9209SOL     OW28525   2.276   6.085   6.538
 9209SOL    HW128526   2.329   6.153   6.488
 9209SOL    HW228527   2.285   6.101   6.636
 9210SOL     OW28528   6.534   0.274   4.106
 9210SOL    HW128529   6.490   0.239   4.189
 9210SOL    HW228530   6.465   0.302   4.040
 9211SOL     OW28531   1.124   1.501   3.245
 9211SOL    HW128532   1.062   1.439   3.292
 9211SOL    HW228533   1.218   1.470   3.258
 9212SOL     OW28534   4.622   4.842   4.711
 9212SOL    HW128535   4.525   4.832   4.734
 9212SOL    HW228536   4.676   4.848   4.795
 9213SOL     OW28537   6.212   3.882   0.671
 9213SOL    HW128538   6.292   3.826   0.692
 9213SOL    HW228539   6.129   3.825   0.674
 9214SOL     OW28540   0.044   5.516   0.777
 9214SOL    HW128541   0.131   5.468   0.792
 9214SOL    HW228542   6.997   5.496   0.851
 9215SOL     OW28543   0.936   1.418   0.963
 9215SOL    HW128544   0.848   1.464   0.947
 9215SOL    HW228545   0.938   1.383   1.057
 9216SOL     OW28546   1.623   6.824   4.186
 9216SOL    HW128547   1.601   6.743   4.131
 9216SOL    HW228548   1.665   6.894   4.127
 9217SOL     OW28549   0.364   2.084   0.888
 9217SOL    HW128550   0.461   2.077   0.911
 9217SOL    HW228551   0.352   2.072   0.790
 9218SOL     OW28552   2.549   1.163   1.115
 9218SOL    HW128553   2.637   1.150   1.069
 9218SOL    HW228554   2.539   1.259   1.140
 9219SOL     OW28555   6.165   1.356   0.751
 9219SOL    HW128556   6.253   1.404   0.750
 9219SOL    HW228557   6.129   1.353   0.658
 9220SOL     OW28558   3.783   6.453   0.312
 9220SOL    HW128559   3.831   6.538   0.336
 9220SOL    HW228560   3.709   6.437   0.377
 9221SOL     OW28561   2.595   4.654   4.788
 9221SOL    HW128562   2.626   4.592   4.860
 9221SOL    HW228563   2.511   4.618   4.747
 9222SOL     OW28564   3.111   2.169   0.186
 9222SOL    HW128565   3.113   2.145   0.089
 9222SOL    HW228566   3.045   2.243   0.200
 9223SOL     OW28567   2.721   3.141   5.312
 9223SOL    HW128568   2.740   3.239   5.305
 9223SOL    HW228569   2.629   3.122   5.278
 9224SOL     OW28570   2.334   4.456   5.018
 9224SOL    HW128571   2.288   4.370   5.041
 9224SOL    HW228572   2.409   4.472   5.082
 9225SOL     OW28573   1.366   5.996   6.697
 9225SOL    HW128574   1.325   5.948   6.775
 9225SOL    HW228575   1.308   5.983   6.616
 9226SOL     OW28576   4.697   6.302   0.910
 9226SOL    HW128577   4.662   6.337   0.824
 9226SOL    HW228578   4.644   6.221   0.937
 9227SOL     OW28579   0.982   6.159   1.755
 9227SOL    HW128580   1.043   6.189   1.829
 9227SOL    HW228581   1.037   6.123   1.680
 9228SOL     OW28582   1.244   5.947   6.435
 9228SOL    HW128583   1.295   6.023   6.395
 9228SOL    HW228584   1.148   5.953   6.406
 9229SOL     OW28585   1.151   5.693   5.131
 9229SOL    HW128586   1.118   5.761   5.065
 9229SOL    HW228587   1.222   5.734   5.189
 9230SOL     OW28588   5.047   1.595   3.284
 9230SOL    HW128589   5.103   1.668   3.244
 9230SOL    HW228590   5.043   1.518   3.221
 9231SOL     OW28591   2.094   3.116   3.505
 9231SOL    HW128592   2.141   3.062   3.436
 9231SOL    HW228593   2.120   3.212   3.496
 9232SOL     OW28594   4.050   5.501   1.379
 9232SOL    HW128595   4.053   5.464   1.471
 9232SOL    HW228596   3.971   5.465   1.330
 9233SOL     OW28597   6.369   4.237   0.430
 9233SOL    HW128598   6.391   4.311   0.492
 9233SOL    HW228599   6.309   4.271   0.357
 9234SOL     OW28600   1.412   6.063   3.812
 9234SOL    HW128601   1.372   6.043   3.724
 9234SOL    HW228602   1.450   6.156   3.811
 9235SOL     OW28603   0.916   2.833   3.401
 9235SOL    HW128604   0.857   2.852   3.322
 9235SOL    HW228605   0.910   2.908   3.466
 9236SOL     OW28606   3.582   2.613   6.423
 9236SOL    HW128607   3.492   2.634   6.386
 9236SOL    HW228608   3.596   2.661   6.509
 9237SOL     OW28609   1.587   3.990   3.006
 9237SOL    HW128610   1.557   3.986   2.911
 9237SOL    HW228611   1.562   3.906   3.054
 9238SOL     OW28612   4.297   4.004   6.609
 9238SOL    HW128613   4.293   4.044   6.701
 9238SOL    HW228614   4.361   4.057   6.553
 9239SOL     OW28615   2.095   3.311   6.667
 9239SOL    HW128616   2.088   3.411   6.663
 9239SOL    HW228617   2.047   3.278   6.749
 9240SOL     OW28618   4.530   0.828   2.340
 9240SOL    HW128619   4.443   0.783   2.361
 9240SOL    HW228620   4.597   0.807   2.412
 9241SOL     OW28621   0.627   6.042   5.144
 9241SOL    HW128622   0.584   5.956   5.173
 9241SOL    HW228623   0.716   6.023   5.103
 9242SOL     OW28624   5.258   6.913   1.697
 9242SOL    HW128625   5.246   6.816   1.719
 9242SOL    HW228626   5.334   6.950   1.751
 9243SOL     OW28627   5.509   0.148   4.476
 9243SOL    HW128628   5.441   0.218   4.450
 9243SOL    HW228629   5.463   0.073   4.523
 9244SOL     OW28630   3.593   6.493   0.512
 9244SOL    HW128631   3.497   6.515   0.531
 9244SOL    HW228632   3.652   6.560   0.558
 9245SOL     OW28633   0.268   6.838   1.863
 9245SOL    HW128634   0.176   6.799   1.856
 9245SOL    HW228635   0.333   6.779   1.815
 9246SOL     OW28636   6.488   5.542   3.715
 9246SOL    HW128637   6.553   5.479   3.674
 9246SOL    HW228638   6.528   5.584   3.796
 9247SOL     OW28639   0.907   0.633   2.840
 9247SOL    HW128640   0.877   0.593   2.753
 9247SOL    HW228641   0.845   0.604   2.913
 9248SOL     OW28642   4.582   1.537   6.127
 9248SOL    HW128643   4.520   1.515   6.202
 9248SOL    HW228644   4.622   1.452   6.091
 9249SOL     OW28645   4.095   6.444   4.102
 9249SOL    HW128646   4.076   6.374   4.033
 9249SOL    HW228647   4.189   6.434   4.134
 9250SOL     OW28648   4.797   3.944   3.310
 9250SOL    HW128649   4.786   3.860   3.258
 9250SOL    HW228650   4.786   3.925   3.407
 9251SOL     OW28651   4.049   1.923   2.355
 9251SOL    HW128652   3.978   1.992   2.337
 9251SOL    HW228653   4.023   1.869   2.435
 9252SOL     OW28654   1.435   6.732   4.676
 9252SOL    HW128655   1.342   6.769   4.681
 9252SOL    HW228656   1.501   6.806   4.684
 9253SOL     OW28657   1.160   6.877   6.143
 9253SOL    HW128658   1.182   6.975   6.146
 9253SOL    HW228659   1.083   6.862   6.081
 9254SOL     OW28660   4.636   2.339   0.722
 9254SOL    HW128661   4.734   2.353   0.740
 9254SOL    HW228662   4.593   2.428   0.703
 9255SOL     OW28663   0.003   4.924   0.368
 9255SOL    HW128664   6.942   4.986   0.378
 9255SOL    HW228665   0.036   4.898   0.459
 9256SOL     OW28666   3.948   5.388   2.874
 9256SOL    HW128667   3.849   5.385   2.862
 9256SOL    HW228668   3.993   5.339   2.800
 9257SOL     OW28669   0.741   3.796   0.718
 9257SOL    HW128670   0.679   3.851   0.775
 9257SOL    HW228671   0.806   3.857   0.672
 9258SOL     OW28672   3.397   2.854   4.915
 9258SOL    HW128673   3.375   2.880   5.009
 9258SOL    HW228674   3.336   2.781   4.885
 9259SOL     OW28675   2.110   2.537   0.733
 9259SOL    HW128676   2.154   2.611   0.682
 9259SOL    HW228677   2.104   2.563   0.830
 9260SOL     OW28678   6.642   3.786   0.501
 9260SOL    HW128679   6.647   3.880   0.536
 9260SOL    HW228680   6.654   3.786   0.402
 9261SOL     OW28681   2.160   6.731   5.601
 9261SOL    HW128682   2.096   6.806   5.618
 9261SOL    HW228683   2.243   6.745   5.654
 9262SOL     OW28684   6.073   6.714   6.849
 9262SOL    HW128685   6.132   6.635   6.836
 9262SOL    HW228686   5.996   6.709   6.785
 9263SOL     OW28687   5.637   3.602   2.675
 9263SOL    HW128688   5.639   3.504   2.693
 9263SOL    HW228689   5.577   3.648   2.740
 9264SOL     OW28690   5.653   2.143   0.335
 9264SOL    HW128691   5.588   2.212   0.367
 9264SOL    HW228692   5.703   2.180   0.256
 9265SOL     OW28693   1.831   1.487   5.437
 9265SOL    HW128694   1.910   1.449   5.485
 9265SOL    HW228695   1.848   1.583   5.414
 9266SOL     OW28696   2.846   6.871   2.855
 9266SOL    HW128697   2.834   6.895   2.758
 9266SOL    HW228698   2.898   6.786   2.862
 9267SOL     OW28699   2.939   4.986   6.024
 9267SOL    HW128700   2.943   5.029   6.114
 9267SOL    HW228701   2.872   5.034   5.967
 9268SOL     OW28702   1.081   1.249   3.087
 9268SOL    HW128703   1.024   1.179   3.044
 9268SOL    HW228704   1.031   1.289   3.164
 9269SOL     OW28705   4.010   1.588   4.963
 9269SOL    HW128706   4.014   1.542   4.874
 9269SOL    HW228707   4.052   1.529   5.032
 9270SOL     OW28708   2.067   0.505   5.297
 9270SOL    HW128709   2.108   0.459   5.376
 9270SOL    HW228710   1.970   0.484   5.293
 9271SOL     OW28711   0.433   5.438   5.412
 9271SOL    HW128712   0.363   5.462   5.344
 9271SOL    HW228713   0.397   5.455   5.504
 9272SOL     OW28714   2.332   5.102   7.008
 9272SOL    HW128715   2.326   5.019   6.952
 9272SOL    HW228716   2.426   5.137   7.006
 9273SOL     OW28717   3.377   5.259   6.187
 9273SOL    HW128718   3.408   5.303   6.272
 9273SOL    HW228719   3.437   5.286   6.112
 9274SOL     OW28720   4.866   1.468   1.689
 9274SOL    HW128721   4.862   1.414   1.773
 9274SOL    HW228722   4.799   1.543   1.695
 9275SOL     OW28723   6.558   0.459   6.331
 9275SOL    HW128724   6.533   0.528   6.400
 9275SOL    HW228725   6.480   0.398   6.317
 9276SOL     OW28726   4.800   0.226   4.240
 9276SOL    HW128727   4.728   0.162   4.266
 9276SOL    HW228728   4.790   0.310   4.293
 9277SOL     OW28729   5.340   2.681   6.812
 9277SOL    HW128730   5.301   2.772   6.799
 9277SOL    HW228731   5.329   2.653   6.907
 9278SOL     OW28732   1.549   2.340   1.353
 9278SOL    HW128733   1.610   2.283   1.299
 9278SOL    HW228734   1.492   2.282   1.411
 9279SOL     OW28735   2.138   0.159   0.796
 9279SOL    HW128736   2.110   0.087   0.859
 9279SOL    HW228737   2.060   0.188   0.741
 9280SOL     OW28738   1.828   0.575   2.087
 9280SOL    HW128739   1.834   0.542   2.181
 9280SOL    HW228740   1.736   0.555   2.051
 9281SOL     OW28741   2.117   2.434   0.116
 9281SOL    HW128742   2.158   2.476   0.197
 9281SOL    HW228743   2.071   2.350   0.143
 9282SOL     OW28744   3.995   1.099   6.082
 9282SOL    HW128745   3.955   1.008   6.087
 9282SOL    HW228746   4.029   1.116   5.989
 9283SOL     OW28747   5.581   2.537   3.290
 9283SOL    HW128748   5.654   2.602   3.270
 9283SOL    HW228749   5.546   2.554   3.382
 9284SOL     OW28750   3.805   3.851   1.918
 9284SOL    HW128751   3.881   3.887   1.972
 9284SOL    HW228752   3.727   3.913   1.923
 9285SOL     OW28753   6.546   2.593   6.853
 9285SOL    HW128754   6.544   2.670   6.790
 9285SOL    HW228755   6.636   2.548   6.847
 9286SOL     OW28756   5.464   5.451   4.348
 9286SOL    HW128757   5.474   5.505   4.264
 9286SOL    HW228758   5.369   5.420   4.356
 9287SOL     OW28759   3.195   0.024   2.402
 9287SOL    HW128760   3.193   0.093   2.329
 9287SOL    HW228761   3.218   6.951   2.363
 9288SOL     OW28762   4.143   1.868   6.953
 9288SOL    HW128763   4.105   1.905   6.868
 9288SOL    HW228764   4.227   1.818   6.933
 9289SOL     OW28765   5.230   3.546   3.387
 9289SOL    HW128766   5.251   3.597   3.471
 9289SOL    HW228767   5.189   3.608   3.321
 9290SOL     OW28768   4.153   2.153   4.291
 9290SOL    HW128769   4.095   2.191   4.363
 9290SOL    HW228770   4.185   2.227   4.231
 9291SOL     OW28771   0.938   2.812   4.962
 9291SOL    HW128772   0.997   2.803   5.042
 9291SOL    HW228773   0.845   2.834   4.992
 9292SOL     OW28774   1.253   4.192   7.002
 9292SOL    HW128775   1.157   4.180   0.011
 9292SOL    HW228776   1.281   4.117   6.941
 9293SOL     OW28777   5.313   3.674   6.335
 9293SOL    HW128778   5.394   3.638   6.381
 9293SOL    HW228779   5.318   3.652   6.237
 9294SOL     OW28780   5.552   5.619   6.971
 9294SOL    HW128781   5.596   5.536   7.007
 9294SOL    HW228782   5.622   5.684   6.943
 9295SOL     OW28783   4.907   2.962   3.307
 9295SOL    HW128784   4.870   3.043   3.352
 9295SOL    HW228785   4.847   2.884   3.324
 9296SOL     OW28786   5.901   0.453   5.051
 9296SOL    HW128787   5.881   0.366   5.095
 9296SOL    HW228788   5.917   0.523   5.121
 9297SOL     OW28789   0.344   0.360   1.708
 9297SOL    HW128790   0.279   0.288   1.733
 9297SOL    HW228791   0.335   0.437   1.772
 9298SOL     OW28792   0.143   6.624   4.345
 9298SOL    HW128793   0.091   6.612   4.261
 9298SOL    HW228794   0.083   6.609   4.424
 9299SOL     OW28795   1.516   2.525   4.805
 9299SOL    HW128796   1.435   2.553   4.856
 9299SOL    HW228797   1.584   2.599   4.809
 9300SOL     OW28798   5.843   4.527   3.871
 9300SOL    HW128799   5.894   4.609   3.894
 9300SOL    HW228800   5.889   4.478   3.797
 9301SOL     OW28801   6.752   5.100   1.484
 9301SOL    HW128802   6.679   5.037   1.456
 9301SOL    HW228803   6.814   5.053   1.546
 9302SOL     OW28804   1.428   2.360   2.509
 9302SOL    HW128805   1.449   2.340   2.413
 9302SOL    HW228806   1.343   2.412   2.514
 9303SOL     OW28807   4.689   4.301   0.515
 9303SOL    HW128808   4.636   4.371   0.563
 9303SOL    HW228809   4.743   4.249   0.581
 9304SOL     OW28810   4.779   3.861   0.491
 9304SOL    HW128811   4.816   3.772   0.466
 9304SOL    HW228812   4.684   3.868   0.460
 9305SOL     OW28813   4.514   4.106   1.650
 9305SOL    HW128814   4.463   4.132   1.567
 9305SOL    HW228815   4.463   4.136   1.730
 9306SOL     OW28816   0.256   6.039   3.012
 9306SOL    HW128817   0.224   6.094   3.089
 9306SOL    HW228818   0.290   5.951   3.045
 9307SOL     OW28819   2.280   0.778   6.067
 9307SOL    HW128820   2.335   0.696   6.083
 9307SOL    HW228821   2.183   0.753   6.067
 9308SOL     OW28822   0.367   2.459   0.379
 9308SOL    HW128823   0.316   2.419   0.455
 9308SOL    HW228824   0.384   2.556   0.397
 9309SOL     OW28825   4.784   2.834   6.784
 9309SOL    HW128826   4.688   2.820   6.811
 9309SOL    HW228827   4.788   2.887   6.700
 9310SOL     OW28828   3.871   6.605   1.070
 9310SOL    HW128829   3.963   6.587   1.104
 9310SOL    HW228830   3.835   6.687   1.114
 9311SOL     OW28831   0.185   3.177   1.575
 9311SOL    HW128832   0.247   3.246   1.613
 9311SOL    HW228833   0.224   3.086   1.590
 9312SOL     OW28834   1.461   3.986   4.627
 9312SOL    HW128835   1.458   3.888   4.607
 9312SOL    HW228836   1.369   4.020   4.643
 9313SOL     OW28837   6.392   0.530   2.899
 9313SOL    HW128838   6.343   0.451   2.938
 9313SOL    HW228839   6.459   0.563   2.966
 9314SOL     OW28840   0.049   3.979   0.228
 9314SOL    HW128841   0.059   3.938   0.318
 9314SOL    HW228842   0.027   3.909   0.161
 9315SOL     OW28843   0.311   5.624   6.190
 9315SOL    HW128844   0.233   5.684   6.205
 9315SOL    HW228845   0.396   5.677   6.197
 9316SOL     OW28846   2.750   4.790   4.616
 9316SOL    HW128847   2.686   4.737   4.671
 9316SOL    HW228848   2.802   4.852   4.676
 9317SOL     OW28849   3.971   4.083   5.485
 9317SOL    HW128850   3.904   4.010   5.493
 9317SOL    HW228851   4.011   4.081   5.393
 9318SOL     OW28852   6.975   6.793   6.231
 9318SOL    HW128853   0.015   6.855   6.287
 9318SOL    HW228854   6.903   6.846   6.185
 9319SOL     OW28855   6.304   3.714   4.402
 9319SOL    HW128856   6.232   3.653   4.370
 9319SOL    HW228857   6.391   3.665   4.402
 9320SOL     OW28858   3.898   2.971   5.499
 9320SOL    HW128859   3.879   2.876   5.473
 9320SOL    HW228860   3.816   3.011   5.540
 9321SOL     OW28861   5.222   0.358   4.160
 9321SOL    HW128862   5.177   0.421   4.096
 9321SOL    HW228863   5.251   0.276   4.112
 9322SOL     OW28864   0.957   6.039   1.310
 9322SOL    HW128865   0.966   6.121   1.255
 9322SOL    HW228866   0.864   6.003   1.301
 9323SOL     OW28867   0.774   1.199   6.100
 9323SOL    HW128868   0.716   1.275   6.130
 9323SOL    HW228869   0.860   1.201   6.151
 9324SOL     OW28870   1.290   5.296   6.875
 9324SOL    HW128871   1.331   5.386   6.893
 9324SOL    HW228872   1.350   5.225   6.912
 9325SOL     OW28873   0.629   2.959   6.512
 9325SOL    HW128874   0.568   3.003   6.577
 9325SOL    HW228875   0.578   2.889   6.461
 9326SOL     OW28876   2.562   5.976   1.726
 9326SOL    HW128877   2.586   5.999   1.820
 9326SOL    HW228878   2.559   6.059   1.671
 9327SOL     OW28879   1.907   2.141   4.413
 9327SOL    HW128880   1.862   2.217   4.461
 9327SOL    HW228881   1.841   2.096   4.352
 9328SOL     OW28882   2.161   1.582   1.911
 9328SOL    HW128883   2.182   1.676   1.939
 9328SOL    HW228884   2.234   1.547   1.852
 9329SOL     OW28885   1.036   3.786   1.482
 9329SOL    HW128886   1.062   3.874   1.523
 9329SOL    HW228887   0.993   3.803   1.393
 9330SOL     OW28888   5.115   5.908   6.742
 9330SOL    HW128889   5.206   5.905   6.783
 9330SOL    HW228890   5.086   6.003   6.732
 9331SOL     OW28891   1.153   1.185   0.422
 9331SOL    HW128892   1.124   1.115   0.488
 9331SOL    HW228893   1.188   1.264   0.471
 9332SOL     OW28894   3.540   4.024   5.192
 9332SOL    HW128895   3.639   4.037   5.190
 9332SOL    HW228896   3.498   4.088   5.127
 9333SOL     OW28897   5.290   6.294   1.151
 9333SOL    HW128898   5.371   6.243   1.124
 9333SOL    HW228899   5.238   6.320   1.070
 9334SOL     OW28900   2.099   6.359   5.008
 9334SOL    HW128901   2.054   6.320   4.928
 9334SOL    HW228902   2.040   6.429   5.049
 9335SOL     OW28903   0.902   1.542   2.465
 9335SOL    HW128904   0.940   1.611   2.526
 9335SOL    HW228905   0.873   1.462   2.518
 9336SOL     OW28906   3.260   0.328   5.006
 9336SOL    HW128907   3.170   0.350   5.043
 9336SOL    HW228908   3.293   0.242   5.045
 9337SOL     OW28909   4.895   6.482   3.386
 9337SOL    HW128910   4.828   6.495   3.460
 9337SOL    HW228911   4.848   6.453   3.303
 9338SOL     OW28912   2.273   6.579   2.327
 9338SOL    HW128913   2.237   6.584   2.420
 9338SOL    HW228914   2.332   6.658   2.310
 9339SOL     OW28915   3.768   5.553   2.058
 9339SOL    HW128916   3.676   5.545   2.020
 9339SOL    HW228917   3.811   5.637   2.024
 9340SOL     OW28918   6.838   2.823   6.805
 9340SOL    HW128919   6.822   2.788   6.898
 9340SOL    HW228920   6.888   2.754   6.752
 9341SOL     OW28921   0.487   4.005   5.663
 9341SOL    HW128922   0.523   4.060   5.737
 9341SOL    HW228923   0.444   3.922   5.700
 9342SOL     OW28924   1.636   0.531   0.183
 9342SOL    HW128925   1.603   0.617   0.223
 9342SOL    HW228926   1.645   0.541   0.084
 9343SOL     OW28927   6.268   6.623   3.081
 9343SOL    HW128928   6.251   6.594   3.175
 9343SOL    HW228929   6.318   6.710   3.081
 9344SOL     OW28930   5.139   6.322   0.683
 9344SOL    HW128931   5.102   6.412   0.660
 9344SOL    HW228932   5.170   6.322   0.778
 9345SOL     OW28933   0.754   2.151   0.562
 9345SOL    HW128934   0.828   2.084   0.562
 9345SOL    HW228935   0.758   2.206   0.479
 9346SOL     OW28936   6.149   0.233   0.929
 9346SOL    HW128937   6.183   0.140   0.915
 9346SOL    HW228938   6.225   0.297   0.925
 9347SOL     OW28939   2.204   6.255   2.600
 9347SOL    HW128940   2.261   6.250   2.682
 9347SOL    HW228941   2.244   6.320   2.536
 9348SOL     OW28942   2.760   5.106   0.296
 9348SOL    HW128943   2.755   5.009   0.320
 9348SOL    HW228944   2.849   5.125   0.253
 9349SOL     OW28945   1.221   6.371   2.700
 9349SOL    HW128946   1.170   6.320   2.630
 9349SOL    HW228947   1.189   6.466   2.701
 9350SOL     OW28948   0.450   3.182   5.589
 9350SOL    HW128949   0.505   3.175   5.506
 9350SOL    HW228950   0.360   3.140   5.574
 9351SOL     OW28951   3.064   6.559   0.187
 9351SOL    HW128952   3.145   6.538   0.132
 9351SOL    HW228953   3.058   6.658   0.200
 9352SOL     OW28954   2.767   5.094   5.816
 9352SOL    HW128955   2.677   5.123   5.781
 9352SOL    HW228956   2.807   5.028   5.752
 9353SOL     OW28957   6.910   0.375   0.806
 9353SOL    HW128958   6.919   0.300   0.740
 9353SOL    HW228959   6.985   0.440   0.794
 9354SOL     OW28960   1.025   1.170   5.691
 9354SOL    HW128961   1.067   1.161   5.601
 9354SOL    HW228962   0.977   1.258   5.697
 9355SOL     OW28963   0.972   1.449   5.602
 9355SOL    HW128964   0.986   1.428   5.506
 9355SOL    HW228965   0.916   1.532   5.610
 9356SOL     OW28966   3.870   0.691   3.710
 9356SOL    HW128967   3.844   0.769   3.653
 9356SOL    HW228968   3.884   0.721   3.804
 9357SOL     OW28969   2.294   2.719   0.603
 9357SOL    HW128970   2.331   2.793   0.660
 9357SOL    HW228971   2.358   2.700   0.528
 9358SOL     OW28972   1.336   1.777   0.590
 9358SOL    HW128973   1.377   1.813   0.674
 9358SOL    HW228974   1.313   1.680   0.603
 9359SOL     OW28975   0.615   0.613   5.765
 9359SOL    HW128976   0.527   0.618   5.812
 9359SOL    HW228977   0.639   0.703   5.728
 9360SOL     OW28978   6.490   0.255   5.690
 9360SOL    HW128979   6.539   0.276   5.775
 9360SOL    HW228980   6.491   0.156   5.674
 9361SOL     OW28981   2.288   5.548   4.777
 9361SOL    HW128982   2.271   5.646   4.785
 9361SOL    HW228983   2.241   5.500   4.850
 9362SOL     OW28984   1.831   0.440   2.306
 9362SOL    HW128985   1.828   0.466   2.402
 9362SOL    HW228986   1.912   0.383   2.289
 9363SOL     OW28987   1.829   2.556   2.262
 9363SOL    HW128988   1.912   2.610   2.251
 9363SOL    HW228989   1.764   2.607   2.319
 9364SOL     OW28990   0.506   1.913   6.714
 9364SOL    HW128991   0.477   1.853   6.640
 9364SOL    HW228992   0.569   1.864   6.775
 9365SOL     OW28993   2.744   0.989   5.023
 9365SOL    HW128994   2.703   1.062   5.078
 9365SOL    HW228995   2.711   0.995   4.929
 9366SOL     OW28996   3.247   6.289   2.478
 9366SOL    HW128997   3.162   6.237   2.466
 9366SOL    HW228998   3.291   6.300   2.388
 9367SOL     OW28999   6.852   0.007   1.537
 9367SOL    HW129000   6.788   0.048   1.602
 9367SOL    HW229001   6.938   7.001   1.584
 9368SOL     OW29002   2.155   0.811   3.286
 9368SOL    HW129003   2.210   0.729   3.302
 9368SOL    HW229004   2.215   0.886   3.259
 9369SOL     OW29005   3.656   5.056   0.964
 9369SOL    HW129006   3.723   5.128   0.946
 9369SOL    HW229007   3.701   4.967   0.963
 9370SOL     OW29008   4.631   2.396   5.082
 9370SOL    HW129009   4.591   2.441   5.163
 9370SOL    HW229010   4.610   2.299   5.086
 9371SOL     OW29011   4.011   4.914   0.365
 9371SOL    HW129012   3.995   4.816   0.377
 9371SOL    HW229013   4.097   4.927   0.315
 9372SOL     OW29014   5.278   0.020   0.664
 9372SOL    HW129015   5.278   0.084   0.741
 9372SOL    HW229016   5.363   6.984   0.664
 9373SOL     OW29017   0.266   1.800   1.411
 9373SOL    HW129018   0.334   1.730   1.391
 9373SOL    HW229019   0.175   1.767   1.382
 9374SOL     OW29020   6.766   5.316   6.213
 9374SOL    HW129021   6.807   5.399   6.175
 9374SOL    HW229022   6.821   5.285   6.291
 9375SOL     OW29023   1.750   1.453   6.711
 9375SOL    HW129024   1.817   1.432   6.640
 9375SOL    HW229025   1.790   1.437   6.801
 9376SOL     OW29026   3.466   3.971   0.583
 9376SOL    HW129027   3.446   3.931   0.494
 9376SOL    HW229028   3.440   3.907   0.655
 9377SOL     OW29029   0.586   1.094   3.430
 9377SOL    HW129030   0.520   1.073   3.358
 9377SOL    HW229031   0.605   1.192   3.431
 9378SOL     OW29032   4.061   1.158   5.232
 9378SOL    HW129033   4.088   1.063   5.249
 9378SOL    HW229034   4.008   1.192   5.310
 9379SOL     OW29035   3.815   6.738   4.697
 9379SOL    HW129036   3.720   6.758   4.671
 9379SOL    HW229037   3.864   6.699   4.619
 9380SOL     OW29038   5.097   6.291   1.376
 9380SOL    HW129039   5.008   6.324   1.345
 9380SOL    HW229040   5.165   6.306   1.304
 9381SOL     OW29041   4.586   1.529   5.035
 9381SOL    HW129042   4.646   1.450   5.019
 9381SOL    HW229043   4.560   1.569   4.947
 9382SOL     OW29044   2.989   5.586   6.388
 9382SOL    HW129045   2.904   5.559   6.433
 9382SOL    HW229046   3.025   5.509   6.337
 9383SOL     OW29047   5.647   4.059   0.999
 9383SOL    HW129048   5.678   4.002   1.074
 9383SOL    HW229049   5.644   4.006   0.915
 9384SOL     OW29050   4.276   0.408   0.748
 9384SOL    HW129051   4.372   0.433   0.738
 9384SOL    HW229052   4.269   0.318   0.792
 9385SOL     OW29053   4.388   2.310   4.145
 9385SOL    HW129054   4.367   2.301   4.047
 9385SOL    HW229055   4.477   2.354   4.155
 9386SOL     OW29056   5.599   0.246   0.751
 9386SOL    HW129057   5.646   0.331   0.774
 9386SOL    HW229058   5.666   0.172   0.743
 9387SOL     OW29059   3.357   2.352   6.769
 9387SOL    HW129060   3.385   2.330   6.676
 9387SOL    HW229061   3.411   2.297   6.834
 9388SOL     OW29062   2.154   6.191   5.407
 9388SOL    HW129063   2.238   6.219   5.452
 9388SOL    HW229064   2.159   6.093   5.385
 9389SOL     OW29065   2.138   3.691   1.957
 9389SOL    HW129066   2.174   3.598   1.948
 9389SOL    HW229067   2.203   3.756   1.916
 9390SOL     OW29068   5.853   5.436   4.260
 9390SOL    HW129069   5.875   5.407   4.353
 9390SOL    HW229070   5.788   5.371   4.219
 9391SOL     OW29071   0.284   5.112   4.162
 9391SOL    HW129072   0.373   5.103   4.207
 9391SOL    HW229073   0.218   5.150   4.228
 9392SOL     OW29074   2.949   5.274   2.744
 9392SOL    HW129075   2.868   5.248   2.692
 9392SOL    HW229076   3.029   5.227   2.707
 9393SOL     OW29077   1.907   5.065   0.206
 9393SOL    HW129078   1.877   4.975   0.236
 9393SOL    HW229079   2.006   5.063   0.190
 9394SOL     OW29080   4.657   0.178   6.909
 9394SOL    HW129081   4.624   0.269   6.883
 9394SOL    HW229082   4.626   0.111   6.842
 9395SOL     OW29083   0.783   0.939   1.275
 9395SOL    HW129084   0.877   0.958   1.248
 9395SOL    HW229085   0.748   1.018   1.326
 9396SOL     OW29086   1.164   1.138   6.591
 9396SOL    HW129087   1.192   1.123   6.686
 9396SOL    HW229088   1.238   1.111   6.529
 9397SOL     OW29089   3.345   1.731   5.833
 9397SOL    HW129090   3.280   1.656   5.842
 9397SOL    HW229091   3.395   1.744   5.919
 9398SOL     OW29092   6.738   3.080   6.811
 9398SOL    HW129093   6.695   3.129   6.886
 9398SOL    HW229094   6.760   2.987   6.840
 9399SOL     OW29095   1.305   2.674   4.894
 9399SOL    HW129096   1.362   2.736   4.948
 9399SOL    HW229097   1.266   2.723   4.816
 9400SOL     OW29098   5.565   1.244   0.979
 9400SOL    HW129099   5.615   1.278   0.899
 9400SOL    HW229100   5.616   1.167   1.018
 9401SOL     OW29101   6.461   1.821   3.632
 9401SOL    HW129102   6.457   1.826   3.732
 9401SOL    HW229103   6.549   1.782   3.605
 9402SOL     OW29104   3.751   5.580   5.466
 9402SOL    HW129105   3.657   5.606   5.489
 9402SOL    HW229106   3.814   5.618   5.534
 9403SOL     OW29107   5.594   2.013   0.869
 9403SOL    HW129108   5.618   1.923   0.832
 9403SOL    HW229109   5.515   2.049   0.819
 9404SOL     OW29110   2.809   2.667   0.710
 9404SOL    HW129111   2.906   2.651   0.725
 9404SOL    HW229112   2.756   2.588   0.740
 9405SOL     OW29113   5.943   5.314   5.263
 9405SOL    HW129114   5.865   5.362   5.222
 9405SOL    HW229115   5.924   5.293   5.359
 9406SOL     OW29116   1.755   1.045   0.774
 9406SOL    HW129117   1.743   0.967   0.712
 9406SOL    HW229118   1.787   1.012   0.863
 9407SOL     OW29119   1.802   4.425   4.709
 9407SOL    HW129120   1.876   4.382   4.761
 9407SOL    HW229121   1.811   4.400   4.612
 9408SOL     OW29122   5.865   4.998   3.928
 9408SOL    HW129123   5.959   4.982   3.956
 9408SOL    HW229124   5.842   5.095   3.939
 9409SOL     OW29125   5.910   4.802   1.460
 9409SOL    HW129126   5.928   4.899   1.446
 9409SOL    HW229127   5.948   4.750   1.384
 9410SOL     OW29128   4.536   0.485   0.703
 9410SOL    HW129129   4.602   0.417   0.736
 9410SOL    HW229130   4.584   0.554   0.649
 9411SOL     OW29131   3.771   3.814   4.949
 9411SOL    HW129132   3.726   3.841   4.864
 9411SOL    HW229133   3.719   3.740   4.992
 9412SOL     OW29134   3.900   6.849   1.847
 9412SOL    HW129135   3.898   6.800   1.934
 9412SOL    HW229136   3.995   6.856   1.815
 9413SOL     OW29137   4.130   5.062   3.254
 9413SOL    HW129138   4.102   4.981   3.203
 9413SOL    HW229139   4.177   5.126   3.194
 9414SOL     OW29140   2.259   0.805   2.593
 9414SOL    HW129141   2.195   0.817   2.670
 9414SOL    HW229142   2.249   0.881   2.530
 9415SOL     OW29143   4.714   1.158   0.709
 9415SOL    HW129144   4.666   1.093   0.768
 9415SOL    HW229145   4.767   1.222   0.765
 9416SOL     OW29146   6.384   4.802   5.951
 9416SOL    HW129147   6.409   4.803   6.047
 9416SOL    HW229148   6.325   4.723   5.933
 9417SOL     OW29149   4.182   6.353   3.224
 9417SOL    HW129150   4.235   6.332   3.306
 9417SOL    HW229151   4.163   6.269   3.174
 9418SOL     OW29152   2.508   2.150   4.947
 9418SOL    HW129153   2.562   2.125   5.028
 9418SOL    HW229154   2.428   2.091   4.941
 9419SOL     OW29155   2.870   2.453   6.113
 9419SOL    HW129156   2.810   2.436   6.035
 9419SOL    HW229157   2.821   2.436   6.198
 9420SOL     OW29158   5.120   3.650   5.758
 9420SOL    HW129159   5.101   3.728   5.698
 9420SOL    HW229160   5.128   3.567   5.702
 9421SOL     OW29161   3.772   6.856   7.001
 9421SOL    HW129162   3.848   6.884   0.042
 9421SOL    HW229163   3.694   6.916   0.001
 9422SOL     OW29164   1.797   6.204   5.880
 9422SOL    HW129165   1.738   6.250   5.813
 9422SOL    HW229166   1.831   6.119   5.840
 9423SOL     OW29167   5.288   4.762   1.025
 9423SOL    HW129168   5.323   4.669   1.020
 9423SOL    HW229169   5.188   4.760   1.015
 9424SOL     OW29170   5.831   6.620   3.561
 9424SOL    HW129171   5.834   6.718   3.583
 9424SOL    HW229172   5.843   6.608   3.463
 9425SOL     OW29173   0.452   5.783   1.219
 9425SOL    HW129174   0.451   5.744   1.310
 9425SOL    HW229175   0.503   5.724   1.157
 9426SOL     OW29176   5.057   1.528   6.017
 9426SOL    HW129177   5.091   1.503   6.108
 9426SOL    HW229178   5.049   1.628   6.011
 9427SOL     OW29179   3.205   5.942   2.005
 9427SOL    HW129180   3.218   5.890   1.921
 9427SOL    HW229181   3.286   5.998   2.023
 9428SOL     OW29182   6.791   6.433   4.350
 9428SOL    HW129183   6.858   6.448   4.422
 9428SOL    HW229184   6.838   6.422   4.262
 9429SOL     OW29185   3.251   2.151   3.939
 9429SOL    HW129186   3.309   2.079   3.977
 9429SOL    HW229187   3.272   2.238   3.983
 9430SOL     OW29188   1.176   0.246   3.799
 9430SOL    HW129189   1.236   0.311   3.752
 9430SOL    HW229190   1.196   0.153   3.768
 9431SOL     OW29191   1.357   4.888   5.067
 9431SOL    HW129192   1.417   4.968   5.073
 9431SOL    HW229193   1.403   4.815   5.018
 9432SOL     OW29194   6.586   1.881   2.858
 9432SOL    HW129195   6.668   1.827   2.838
 9432SOL    HW229196   6.557   1.929   2.775
 9433SOL     OW29197   3.982   5.398   1.907
 9433SOL    HW129198   3.888   5.397   1.941
 9433SOL    HW229199   4.029   5.315   1.939
 9434SOL     OW29200   5.090   5.949   4.658
 9434SOL    HW129201   5.103   6.041   4.622
 9434SOL    HW229202   5.163   5.928   4.723
 9435SOL     OW29203   6.763   3.908   6.966
 9435SOL    HW129204   6.799   3.996   6.935
 9435SOL    HW229205   6.664   3.913   6.976
 9436SOL     OW29206   2.954   2.186   2.643
 9436SOL    HW129207   3.012   2.184   2.561
 9436SOL    HW229208   2.859   2.203   2.616
 9437SOL     OW29209   4.538   1.430   3.846
 9437SOL    HW129210   4.481   1.494   3.898
 9437SOL    HW229211   4.631   1.431   3.882
 9438SOL     OW29212   4.769   0.105   3.094
 9438SOL    HW129213   4.827   0.171   3.046
 9438SOL    HW229214   4.747   0.140   3.185
 9439SOL     OW29215   1.250   5.140   1.025
 9439SOL    HW129216   1.287   5.053   0.992
 9439SOL    HW229217   1.196   5.184   0.953
 9440SOL     OW29218   1.777   5.134   4.202
 9440SOL    HW129219   1.863   5.084   4.205
 9440SOL    HW229220   1.781   5.213   4.263
 9441SOL     OW29221   6.392   6.189   4.636
 9441SOL    HW129222   6.450   6.107   4.638
 9441SOL    HW229223   6.321   6.181   4.706
 9442SOL     OW29224   6.882   2.804   1.171
 9442SOL    HW129225   6.927   2.892   1.186
 9442SOL    HW229226   6.807   2.815   1.106
 9443SOL     OW29227   1.244   4.852   1.280
 9443SOL    HW129228   1.249   4.951   1.265
 9443SOL    HW229229   1.155   4.829   1.318
 9444SOL     OW29230   2.311   5.968   5.861
 9444SOL    HW129231   2.239   5.937   5.799
 9444SOL    HW229232   2.322   5.902   5.936
 9445SOL     OW29233   1.069   1.244   4.094
 9445SOL    HW129234   0.994   1.208   4.149
 9445SOL    HW229235   1.157   1.218   4.135
 9446SOL     OW29236   5.044   5.466   3.330
 9446SOL    HW129237   5.085   5.454   3.420
 9446SOL    HW229238   4.944   5.465   3.339
 9447SOL     OW29239   5.944   5.126   2.115
 9447SOL    HW129240   5.914   5.042   2.160
 9447SOL    HW229241   5.901   5.205   2.160
 9448SOL     OW29242   5.059   3.129   0.061
 9448SOL    HW129243   5.000   3.124   6.996
 9448SOL    HW229244   5.023   3.068   0.131
 9449SOL     OW29245   4.201   0.090   3.456
 9449SOL    HW129246   4.109   0.127   3.440
 9449SOL    HW229247   4.193   7.016   3.498
 9450SOL     OW29248   0.661   0.576   2.062
 9450SOL    HW129249   0.623   0.590   2.154
 9450SOL    HW229250   0.622   0.493   2.022
 9451SOL     OW29251   4.364   4.982   0.430
 9451SOL    HW129252   4.372   5.077   0.458
 9451SOL    HW229253   4.415   4.924   0.494
 9452SOL     OW29254   6.060   2.576   5.827
 9452SOL    HW129255   6.030   2.551   5.919
 9452SOL    HW229256   6.157   2.597   5.829
 9453SOL     OW29257   6.190   4.934   2.795
 9453SOL    HW129258   6.188   5.034   2.789
 9453SOL    HW229259   6.270   4.905   2.847
 9454SOL     OW29260   5.545   5.496   1.140
 9454SOL    HW129261   5.490   5.578   1.127
 9454SOL    HW229262   5.593   5.475   1.055
 9455SOL     OW29263   4.479   0.955   1.480
 9455SOL    HW129264   4.537   0.993   1.552
 9455SOL    HW229265   4.412   0.893   1.521
 9456SOL     OW29266   6.892   2.691   2.156
 9456SOL    HW129267   6.869   2.610   2.102
 9456SOL    HW229268   6.905   2.665   2.251
 9457SOL     OW29269   6.485   6.286   4.324
 9457SOL    HW129270   6.430   6.262   4.404
 9457SOL    HW229271   6.466   6.223   4.249
 9458SOL     OW29272   0.307   4.248   6.752
 9458SOL    HW129273   0.244   4.171   6.759
 9458SOL    HW229274   0.401   4.215   6.747
 9459SOL     OW29275   6.528   4.768   5.374
 9459SOL    HW129276   6.451   4.729   5.424
 9459SOL    HW229277   6.597   4.800   5.438
 9460SOL     OW29278   2.084   3.085   3.018
 9460SOL    HW129279   2.102   3.165   3.076
 9460SOL    HW229280   2.136   3.007   3.052
 9461SOL     OW29281   1.238   1.355   1.153
 9461SOL    HW129282   1.138   1.347   1.155
 9461SOL    HW229283   1.269   1.418   1.224
 9462SOL     OW29284   0.073   0.957   5.615
 9462SOL    HW129285   0.119   0.900   5.547
 9462SOL    HW229286   0.012   0.900   5.670
 9463SOL     OW29287   0.622   5.015   0.879
 9463SOL    HW129288   0.574   5.100   0.855
 9463SOL    HW229289   0.719   5.035   0.895
 9464SOL     OW29290   1.095   0.785   2.025
 9464SOL    HW129291   1.174   0.732   1.995
 9464SOL    HW229292   1.091   0.871   1.974
 9465SOL     OW29293   1.080   5.543   0.063
 9465SOL    HW129294   1.129   5.502   7.002
 9465SOL    HW229295   1.127   5.521   0.148
 9466SOL     OW29296   3.816   4.308   5.551
 9466SOL    HW129297   3.854   4.215   5.542
 9466SOL    HW229298   3.838   4.360   5.468
 9467SOL     OW29299   1.319   3.930   1.546
 9467SOL    HW129300   1.379   3.868   1.495
 9467SOL    HW229301   1.338   3.923   1.644
 9468SOL     OW29302   6.661   2.100   1.181
 9468SOL    HW129303   6.726   2.155   1.234
 9468SOL    HW229304   6.568   2.126   1.206
 9469SOL     OW29305   5.755   6.442   2.115
 9469SOL    HW129306   5.700   6.485   2.043
 9469SOL    HW229307   5.833   6.395   2.074
 9470SOL     OW29308   3.497   3.494   1.050
 9470SOL    HW129309   3.552   3.561   1.000
 9470SOL    HW229310   3.470   3.420   0.989
 9471SOL     OW29311   0.074   3.148   4.885
 9471SOL    HW129312   0.064   3.225   4.822
 9471SOL    HW229313   0.157   3.097   4.861
 9472SOL     OW29314   2.210   4.441   5.744
 9472SOL    HW129315   2.246   4.382   5.672
 9472SOL    HW229316   2.222   4.396   5.833
 9473SOL     OW29317   2.812   3.471   1.746
 9473SOL    HW129318   2.855   3.511   1.827
 9473SOL    HW229319   2.730   3.523   1.722
 9474SOL     OW29320   6.040   4.249   1.099
 9474SOL    HW129321   5.958   4.254   1.156
 9474SOL    HW229322   6.073   4.154   1.098
 9475SOL     OW29323   6.197   3.298   6.833
 9475SOL    HW129324   6.297   3.297   6.829
 9475SOL    HW229325   6.161   3.216   6.788
 9476SOL     OW29326   3.915   3.571   1.020
 9476SOL    HW129327   4.012   3.584   0.999
 9476SOL    HW229328   3.888   3.478   0.996
 9477SOL     OW29329   0.886   5.734   1.216
 9477SOL    HW129330   0.819   5.805   1.193
 9477SOL    HW229331   0.976   5.776   1.226
 9478SOL     OW29332   0.704   3.653   5.355
 9478SOL    HW129333   0.614   3.610   5.345
 9478SOL    HW229334   0.775   3.585   5.334
 9479SOL     OW29335   4.031   0.857   2.337
 9479SOL    HW129336   3.953   0.898   2.383
 9479SOL    HW229337   4.078   0.926   2.281
 9480SOL     OW29338   5.565   0.953   1.330
 9480SOL    HW129339   5.481   0.908   1.300
 9480SOL    HW229340   5.549   1.051   1.337
 9481SOL     OW29341   5.152   0.180   3.860
 9481SOL    HW129342   5.144   0.126   3.777
 9481SOL    HW229343   5.097   0.263   3.852
 9482SOL     OW29344   5.556   4.303   6.328
 9482SOL    HW129345   5.605   4.219   6.306
 9482SOL    HW229346   5.482   4.283   6.393
 9483SOL     OW29347   5.534   4.850   0.400
 9483SOL    HW129348   5.447   4.801   0.406
 9483SOL    HW229349   5.602   4.792   0.355
 9484SOL     OW29350   1.460   5.713   3.918
 9484SOL    HW129351   1.551   5.755   3.922
 9484SOL    HW229352   1.460   5.641   3.848
 9485SOL     OW29353   6.643   1.436   5.736
 9485SOL    HW129354   6.547   1.408   5.736
 9485SOL    HW229355   6.687   1.402   5.653
 9486SOL     OW29356   6.219   5.245   6.124
 9486SOL    HW129357   6.169   5.314   6.071
 9486SOL    HW229358   6.318   5.259   6.112
 9487SOL     OW29359   2.966   3.350   4.080
 9487SOL    HW129360   2.963   3.447   4.102
 9487SOL    HW229361   2.940   3.336   3.985
 9488SOL     OW29362   1.049   1.170   2.647
 9488SOL    HW129363   0.956   1.191   2.617
 9488SOL    HW229364   1.087   1.097   2.590
 9489SOL     OW29365   0.209   4.495   6.718
 9489SOL    HW129366   0.254   4.409   6.742
 9489SOL    HW229367   0.187   4.495   6.621
 9490SOL     OW29368   5.439   4.112   4.872
 9490SOL    HW129369   5.506   4.169   4.918
 9490SOL    HW229370   5.426   4.028   4.924
 9491SOL     OW29371   5.147   0.114   2.214
 9491SOL    HW129372   5.156   0.155   2.304
 9491SOL    HW229373   5.118   0.183   2.148
 9492SOL     OW29374   4.833   2.887   4.208
 9492SOL    HW129375   4.805   2.892   4.112
 9492SOL    HW229376   4.917   2.833   4.216
 9493SOL     OW29377   2.312   6.556   3.191
 9493SOL    HW129378   2.384   6.624   3.201
 9493SOL    HW229379   2.351   6.464   3.203
 9494SOL     OW29380   4.816   2.412   2.482
 9494SOL    HW129381   4.846   2.502   2.514
 9494SOL    HW229382   4.755   2.423   2.403
 9495SOL     OW29383   6.185   2.313   0.912
 9495SOL    HW129384   6.213   2.233   0.965
 9495SOL    HW229385   6.260   2.342   0.852
 9496SOL     OW29386   6.469   2.993   0.520
 9496SOL    HW129387   6.537   2.925   0.493
 9496SOL    HW229388   6.506   3.085   0.509
 9497SOL     OW29389   6.087   4.712   4.935
 9497SOL    HW129390   6.156   4.758   4.880
 9497SOL    HW229391   6.131   4.663   5.011
 9498SOL     OW29392   1.011   6.186   5.887
 9498SOL    HW129393   0.957   6.109   5.853
 9498SOL    HW229394   0.958   6.271   5.878
 9499SOL     OW29395   5.782   6.284   3.321
 9499SOL    HW129396   5.744   6.233   3.398
 9499SOL    HW229397   5.802   6.222   3.246
 9500SOL     OW29398   2.434   1.747   0.503
 9500SOL    HW129399   2.479   1.659   0.490
 9500SOL    HW229400   2.414   1.788   0.414
 9501SOL     OW29401   1.503   3.242   4.814
 9501SOL    HW129402   1.487   3.327   4.865
 9501SOL    HW229403   1.601   3.231   4.797
 9502SOL     OW29404   5.574   4.592   3.695
 9502SOL    HW129405   5.584   4.660   3.768
 9502SOL    HW229406   5.581   4.500   3.734
 9503SOL     OW29407   6.749   0.659   0.218
 9503SOL    HW129408   6.794   0.656   0.308
 9503SOL    HW229409   6.680   0.732   0.218
 9504SOL     OW29410   6.246   4.674   2.688
 9504SOL    HW129411   6.251   4.765   2.727
 9504SOL    HW229412   6.232   4.607   2.761
 9505SOL     OW29413   5.063   2.808   0.331
 9505SOL    HW129414   5.095   2.717   0.305
 9505SOL    HW229415   4.968   2.819   0.302
 9506SOL     OW29416   3.964   1.268   1.688
 9506SOL    HW129417   4.003   1.185   1.728
 9506SOL    HW229418   3.946   1.252   1.591
 9507SOL     OW29419   0.082   5.970   1.496
 9507SOL    HW129420   0.035   6.006   1.577
 9507SOL    HW229421   0.180   5.990   1.503
 9508SOL     OW29422   4.934   1.397   2.230
 9508SOL    HW129423   5.028   1.370   2.207
 9508SOL    HW229424   4.889   1.322   2.278
 9509SOL     OW29425   5.586   1.588   3.751
 9509SOL    HW129426   5.528   1.515   3.715
 9509SOL    HW229427   5.631   1.636   3.676
 9510SOL     OW29428   1.628   3.496   2.369
 9510SOL    HW129429   1.635   3.467   2.274
 9510SOL    HW229430   1.626   3.596   2.373
 9511SOL     OW29431   0.872   1.250   0.765
 9511SOL    HW129432   0.949   1.220   0.710
 9511SOL    HW229433   0.904   1.313   0.836
 9512SOL     OW29434   6.429   2.560   1.466
 9512SOL    HW129435   6.342   2.584   1.508
 9512SOL    HW229436   6.474   2.490   1.521
 9513SOL     OW29437   5.037   3.439   4.572
 9513SOL    HW129438   4.979   3.424   4.652
 9513SOL    HW229439   4.980   3.436   4.489
 9514SOL     OW29440   3.668   3.269   1.414
 9514SOL    HW129441   3.681   3.366   1.434
 9514SOL    HW229442   3.670   3.217   1.499
 9515SOL     OW29443   6.200   6.621   2.770
 9515SOL    HW129444   6.200   6.674   2.855
 9515SOL    HW229445   6.251   6.537   2.783
 9516SOL     OW29446   1.487   2.571   6.945
 9516SOL    HW129447   1.572   2.620   6.961
 9516SOL    HW229448   1.501   2.473   6.963
 9517SOL     OW29449   0.418   6.584   2.071
 9517SOL    HW129450   0.391   6.675   2.105
 9517SOL    HW229451   0.443   6.526   2.148
 9518SOL     OW29452   6.130   6.806   1.039
 9518SOL    HW129453   6.132   6.718   0.991
 9518SOL    HW229454   6.122   6.791   1.137
 9519SOL     OW29455   1.422   2.778   5.761
 9519SOL    HW129456   1.413   2.699   5.699
 9519SOL    HW229457   1.340   2.785   5.818
 9520SOL     OW29458   3.866   6.541   2.160
 9520SOL    HW129459   3.867   6.445   2.131
 9520SOL    HW229460   3.956   6.582   2.145
 9521SOL     OW29461   5.528   5.055   2.956
 9521SOL    HW129462   5.589   5.134   2.955
 9521SOL    HW229463   5.491   5.042   3.048
 9522SOL     OW29464   3.799   5.105   5.513
 9522SOL    HW129465   3.892   5.116   5.546
 9522SOL    HW229466   3.775   5.008   5.512
 9523SOL     OW29467   1.078   6.566   4.566
 9523SOL    HW129468   1.173   6.534   4.570
 9523SOL    HW229469   1.077   6.666   4.568
 9524SOL     OW29470   6.075   3.241   0.566
 9524SOL    HW129471   6.016   3.182   0.512
 9524SOL    HW229472   6.063   3.220   0.663
 9525SOL     OW29473   4.314   0.489   4.294
 9525SOL    HW129474   4.232   0.543   4.277
 9525SOL    HW229475   4.296   0.393   4.271
 9526SOL     OW29476   4.665   5.227   0.580
 9526SOL    HW129477   4.597   5.187   0.641
 9526SOL    HW229478   4.681   5.323   0.606
 9527SOL     OW29479   6.945   0.955   0.344
 9527SOL    HW129480   6.858   0.920   0.379
 9527SOL    HW229481   6.936   1.052   0.324
 9528SOL     OW29482   5.575   1.149   2.386
 9528SOL    HW129483   5.519   1.166   2.305
 9528SOL    HW229484   5.615   1.057   2.380
 9529SOL     OW29485   1.361   2.574   5.549
 9529SOL    HW129486   1.411   2.492   5.575
 9529SOL    HW229487   1.263   2.554   5.548
 9530SOL     OW29488   2.456   1.305   3.593
 9530SOL    HW129489   2.514   1.228   3.568
 9530SOL    HW229490   2.364   1.272   3.613
 9531SOL     OW29491   2.507   6.618   3.927
 9531SOL    HW129492   2.568   6.696   3.934
 9531SOL    HW229493   2.427   6.633   3.984
 9532SOL     OW29494   3.496   1.307   1.491
 9532SOL    HW129495   3.558   1.348   1.425
 9532SOL    HW229496   3.524   1.332   1.584
 9533SOL     OW29497   0.190   1.524   4.216
 9533SOL    HW129498   0.164   1.483   4.303
 9533SOL    HW229499   0.202   1.452   4.148
 9534SOL     OW29500   5.155   1.311   3.942
 9534SOL    HW129501   5.140   1.368   3.861
 9534SOL    HW229502   5.068   1.276   3.975
 9535SOL     OW29503   3.009   1.360   4.663
 9535SOL    HW129504   2.921   1.314   4.678
 9535SOL    HW229505   3.041   1.342   4.569
 9536SOL     OW29506   2.069   5.695   6.744
 9536SOL    HW129507   2.096   5.791   6.754
 9536SOL    HW229508   2.114   5.656   6.664
 9537SOL     OW29509   2.461   0.557   0.060
 9537SOL    HW129510   2.452   0.655   0.040
 9537SOL    HW229511   2.490   0.509   6.993
 9538SOL     OW29512   5.790   3.777   3.411
 9538SOL    HW129513   5.829   3.807   3.497
 9538SOL    HW229514   5.834   3.691   3.382
 9539SOL     OW29515   1.274   2.691   0.227
 9539SOL    HW129516   1.205   2.685   0.155
 9539SOL    HW229517   1.230   2.681   0.317
 9540SOL     OW29518   6.029   3.301   5.301
 9540SOL    HW129519   6.046   3.315   5.204
 9540SOL    HW229520   6.091   3.230   5.336
 9541SOL     OW29521   6.399   2.257   2.727
 9541SOL    HW129522   6.452   2.176   2.706
 9541SOL    HW229523   6.302   2.233   2.736
 9542SOL     OW29524   4.915   3.501   4.067
 9542SOL    HW129525   4.902   3.431   3.997
 9542SOL    HW229526   5.013   3.523   4.074
 9543SOL     OW29527   3.762   2.275   0.180
 9543SOL    HW129528   3.703   2.353   0.160
 9543SOL    HW229529   3.847   2.308   0.221
 9544SOL     OW29530   4.856   0.075   1.207
 9544SOL    HW129531   4.836   0.001   1.141
 9544SOL    HW229532   4.930   0.132   1.171
 9545SOL     OW29533   1.066   0.474   4.230
 9545SOL    HW129534   1.165   0.468   4.217
 9545SOL    HW229535   1.025   0.520   4.151
 9546SOL     OW29536   3.029   4.267   1.705
 9546SOL    HW129537   3.074   4.326   1.639
 9546SOL    HW229538   2.962   4.320   1.757
 9547SOL     OW29539   5.629   6.772   2.254
 9547SOL    HW129540   5.727   6.756   2.261
 9547SOL    HW229541   5.609   6.868   2.270
 9548SOL     OW29542   6.381   6.894   1.700
 9548SOL    HW129543   6.378   6.963   1.628
 9548SOL    HW229544   6.475   6.884   1.733
 9549SOL     OW29545   1.957   6.091   0.304
 9549SOL    HW129546   2.038   6.147   0.319
 9549SOL    HW229547   1.980   6.015   0.243
 9550SOL     OW29548   1.655   0.852   0.576
 9550SOL    HW129549   1.578   0.790   0.563
 9550SOL    HW229550   1.636   0.939   0.532
 9551SOL     OW29551   1.242   5.531   4.460
 9551SOL    HW129552   1.238   5.519   4.361
 9551SOL    HW229553   1.330   5.498   4.494
 9552SOL     OW29554   6.689   5.431   3.067
 9552SOL    HW129555   6.689   5.529   3.087
 9552SOL    HW229556   6.617   5.386   3.120
 9553SOL     OW29557   5.292   4.824   6.647
 9553SOL    HW129558   5.273   4.787   6.738
 9553SOL    HW229559   5.218   4.884   6.618
 9554SOL     OW29560   1.933   2.742   1.583
 9554SOL    HW129561   1.898   2.773   1.495
 9554SOL    HW229562   1.903   2.648   1.599
 9555SOL     OW29563   0.488   2.166   6.610
 9555SOL    HW129564   0.572   2.176   6.557
 9555SOL    HW229565   0.477   2.071   6.637
 9556SOL     OW29566   5.726   1.394   1.586
 9556SOL    HW129567   5.721   1.421   1.489
 9556SOL    HW229568   5.639   1.414   1.630
 9557SOL     OW29569   5.027   1.893   1.201
 9557SOL    HW129570   5.123   1.897   1.229
 9557SOL    HW229571   5.016   1.825   1.128
 9558SOL     OW29572   6.675   4.099   1.828
 9558SOL    HW129573   6.688   4.113   1.730
 9558SOL    HW229574   6.715   4.011   1.854
 9559SOL     OW29575   0.037   4.868   3.453
 9559SOL    HW129576   0.020   4.948   3.395
 9559SOL    HW229577   0.006   4.785   3.405
 9560SOL     OW29578   3.702   2.338   5.693
 9560SOL    HW129579   3.695   2.348   5.594
 9560SOL    HW229580   3.785   2.383   5.726
 9561SOL     OW29581   3.273   5.246   6.652
 9561SOL    HW129582   3.194   5.192   6.679
 9561SOL    HW229583   3.351   5.224   6.712
 9562SOL     OW29584   6.229   5.379   3.939
 9562SOL    HW129585   6.263   5.470   3.961
 9562SOL    HW229586   6.194   5.336   4.023
 9563SOL     OW29587   0.764   1.078   5.844
 9563SOL    HW129588   0.753   1.119   5.934
 9563SOL    HW229589   0.857   1.096   5.810
 9564SOL     OW29590   6.821   0.407   5.976
 9564SOL    HW129591   6.841   0.386   6.072
 9564SOL    HW229592   6.868   0.492   5.950
 9565SOL     OW29593   2.866   5.566   5.356
 9565SOL    HW129594   2.902   5.525   5.440
 9565SOL    HW229595   2.767   5.575   5.364
 9566SOL     OW29596   2.362   6.008   5.317
 9566SOL    HW129597   2.351   5.930   5.378
 9566SOL    HW229598   2.422   6.075   5.359
 9567SOL     OW29599   5.441   5.710   3.315
 9567SOL    HW129600   5.459   5.617   3.283
 9567SOL    HW229601   5.520   5.767   3.294
 9568SOL     OW29602   6.223   3.501   4.698
 9568SOL    HW129603   6.225   3.405   4.669
 9568SOL    HW229604   6.287   3.514   4.774
 9569SOL     OW29605   5.223   0.438   0.944
 9569SOL    HW129606   5.151   0.504   0.923
 9569SOL    HW229607   5.269   0.464   1.029
 9570SOL     OW29608   0.191   3.472   6.084
 9570SOL    HW129609   0.140   3.517   6.011
 9570SOL    HW229610   0.269   3.530   6.110
 9571SOL     OW29611   3.304   1.664   0.981
 9571SOL    HW129612   3.250   1.593   1.028
 9571SOL    HW229613   3.313   1.743   1.041
 9572SOL     OW29614   0.763   3.500   0.839
 9572SOL    HW129615   0.669   3.470   0.851
 9572SOL    HW229616   0.763   3.592   0.799
 9573SOL     OW29617   4.635   2.148   1.679
 9573SOL    HW129618   4.672   2.104   1.597
 9573SOL    HW229619   4.595   2.079   1.739
 9574SOL     OW29620   1.812   1.546   3.731
 9574SOL    HW129621   1.861   1.633   3.726
 9574SOL    HW229622   1.771   1.526   3.642
 9575SOL     OW29623   3.285   1.780   2.708
 9575SOL    HW129624   3.338   1.863   2.700
 9575SOL    HW229625   3.196   1.792   2.663
 9576SOL     OW29626   4.654   2.837   5.693
 9576SOL    HW129627   4.611   2.901   5.629
 9576SOL    HW229628   4.598   2.756   5.702
 9577SOL     OW29629   0.762   5.887   3.440
 9577SOL    HW129630   0.832   5.947   3.478
 9577SOL    HW229631   0.721   5.833   3.513
 9578SOL     OW29632   6.527   4.408   1.578
 9578SOL    HW129633   6.621   4.414   1.546
 9578SOL    HW229634   6.500   4.494   1.620
 9579SOL     OW29635   1.427   4.774   2.552
 9579SOL    HW129636   1.496   4.754   2.482
 9579SOL    HW229637   1.440   4.868   2.585
 9580SOL     OW29638   4.053   3.825   4.979
 9580SOL    HW129639   4.103   3.883   4.914
 9580SOL    HW229640   3.955   3.836   4.964
 9581SOL     OW29641   0.575   0.080   6.906
 9581SOL    HW129642   0.599   0.168   6.865
 9581SOL    HW229643   0.637   0.061   6.982
 9582SOL     OW29644   4.365   5.452   2.967
 9582SOL    HW129645   4.440   5.432   3.030
 9582SOL    HW229646   4.284   5.480   3.019
 9583SOL     OW29647   1.492   5.028   2.681
 9583SOL    HW129648   1.446   5.117   2.672
 9583SOL    HW229649   1.529   5.019   2.773
 9584SOL     OW29650   5.244   4.976   0.145
 9584SOL    HW129651   5.288   4.961   0.056
 9584SOL    HW229652   5.261   4.898   0.205
 9585SOL     OW29653   5.760   1.361   2.407
 9585SOL    HW129654   5.838   1.329   2.461
 9585SOL    HW229655   5.694   1.287   2.396
 9586SOL     OW29656   3.970   4.786   2.469
 9586SOL    HW129657   3.999   4.875   2.434
 9586SOL    HW229658   4.050   4.728   2.483
 9587SOL     OW29659   4.069   6.553   1.892
 9587SOL    HW129660   4.123   6.612   1.833
 9587SOL    HW229661   4.127   6.478   1.926
 9588SOL     OW29662   5.789   1.412   3.489
 9588SOL    HW129663   5.828   1.443   3.575
 9588SOL    HW229664   5.790   1.487   3.423
 9589SOL     OW29665   4.199   2.221   4.777
 9589SOL    HW129666   4.190   2.298   4.840
 9589SOL    HW229667   4.171   2.137   4.822
 9590SOL     OW29668   0.055   4.755   5.429
 9590SOL    HW129669   0.096   4.760   5.338
 9590SOL    HW229670   0.112   4.805   5.494
 9591SOL     OW29671   0.080   4.511   2.154
 9591SOL    HW129672   0.068   4.425   2.104
 9591SOL    HW229673   7.009   4.559   2.160
 9592SOL     OW29674   3.927   5.262   1.213
 9592SOL    HW129675   3.850   5.255   1.276
 9592SOL    HW229676   3.977   5.175   1.213
 9593SOL     OW29677   2.213   3.026   3.724
 9593SOL    HW129678   2.162   3.053   3.642
 9593SOL    HW229679   2.244   2.931   3.714
 9594SOL     OW29680   5.567   0.345   0.420
 9594SOL    HW129681   5.551   0.292   0.503
 9594SOL    HW229682   5.660   0.382   0.422
 9595SOL     OW29683   2.061   4.541   5.239
 9595SOL    HW129684   2.012   4.514   5.322
 9595SOL    HW229685   2.159   4.532   5.255
 9596SOL     OW29686   5.240   4.650   2.221
 9596SOL    HW129687   5.253   4.727   2.283
 9596SOL    HW229688   5.320   4.590   2.224
 9597SOL     OW29689   1.671   4.079   1.987
 9597SOL    HW129690   1.727   3.997   1.977
 9597SOL    HW229691   1.721   4.158   1.955
 9598SOL     OW29692   0.545   6.446   5.307
 9598SOL    HW129693   0.589   6.368   5.351
 9598SOL    HW229694   0.577   6.531   5.349
 9599SOL     OW29695   4.257   2.137   5.635
 9599SOL    HW129696   4.206   2.103   5.715
 9599SOL    HW229697   4.221   2.095   5.552
 9600SOL     OW29698   1.736   5.375   6.797
 9600SOL    HW129699   1.810   5.380   6.864
 9600SOL    HW229700   1.730   5.283   6.760
 9601SOL     OW29701   1.110   0.179   5.058
 9601SOL    HW129702   1.137   0.225   5.142
 9601SOL    HW229703   1.011   0.166   5.056
 9602SOL     OW29704   1.121   5.647   6.145
 9602SOL    HW129705   1.021   5.636   6.150
 9602SOL    HW229706   1.146   5.740   6.174
 9603SOL     OW29707   1.498   5.169   1.795
 9603SOL    HW129708   1.486   5.195   1.699
 9603SOL    HW229709   1.503   5.069   1.802
 9604SOL     OW29710   6.159   0.286   5.876
 9604SOL    HW129711   6.090   0.359   5.883
 9604SOL    HW229712   6.161   0.251   5.782
 9605SOL     OW29713   3.370   5.010   0.586
 9605SOL    HW129714   3.290   5.047   0.539
 9605SOL    HW229715   3.376   5.049   0.679
 9606SOL     OW29716   6.793   1.493   4.617
 9606SOL    HW129717   6.775   1.487   4.519
 9606SOL    HW229718   6.740   1.568   4.656
 9607SOL     OW29719   6.541   3.459   3.589
 9607SOL    HW129720   6.542   3.386   3.657
 9607SOL    HW229721   6.632   3.500   3.582
 9608SOL     OW29722   5.988   0.789   1.396
 9608SOL    HW129723   6.025   0.846   1.322
 9608SOL    HW229724   5.910   0.835   1.437
 9609SOL     OW29725   1.072   2.125   3.444
 9609SOL    HW129726   0.973   2.121   3.458
 9609SOL    HW229727   1.101   2.220   3.434
 9610SOL     OW29728   5.278   1.421   5.844
 9610SOL    HW129729   5.297   1.418   5.942
 9610SOL    HW229730   5.307   1.335   5.802
 9611SOL     OW29731   5.286   5.253   1.898
 9611SOL    HW129732   5.280   5.179   1.831
 9611SOL    HW229733   5.352   5.228   1.969
 9612SOL     OW29734   4.819   3.870   3.587
 9612SOL    HW129735   4.793   3.924   3.666
 9612SOL    HW229736   4.838   3.776   3.615
 9613SOL     OW29737   4.483   1.578   4.780
 9613SOL    HW129738   4.440   1.658   4.741
 9613SOL    HW229739   4.419   1.532   4.842
 9614SOL     OW29740   3.372   2.318   0.098
 9614SOL    HW129741   3.273   2.324   0.110
 9614SOL    HW229742   3.396   2.227   0.064
 9615SOL     OW29743   6.363   6.286   3.347
 9615SOL    HW129744   6.401   6.247   3.431
 9615SOL    HW229745   6.384   6.384   3.344
 9616SOL     OW29746   0.286   2.304   1.080
 9616SOL    HW129747   0.360   2.236   1.077
 9616SOL    HW229748   0.237   2.304   0.993
 9617SOL     OW29749   1.134   3.420   3.764
 9617SOL    HW129750   1.134   3.379   3.855
 9617SOL    HW229751   1.096   3.512   3.770
 9618SOL     OW29752   5.404   4.086   1.711
 9618SOL    HW129753   5.441   4.023   1.780
 9618SOL    HW229754   5.404   4.041   1.622
 9619SOL     OW29755   1.553   1.343   0.985
 9619SOL    HW129756   1.637   1.360   0.932
 9619SOL    HW229757   1.504   1.429   0.997
 9620SOL     OW29758   3.261   1.236   5.889
 9620SOL    HW129759   3.322   1.201   5.818
 9620SOL    HW229760   3.308   1.232   5.978
 9621SOL     OW29761   6.986   0.266   0.238
 9621SOL    HW129762   6.984   0.166   0.238
 9621SOL    HW229763   6.901   0.301   0.276
 9622SOL     OW29764   6.399   0.349   4.719
 9622SOL    HW129765   6.431   0.389   4.633
 9622SOL    HW229766   6.312   0.303   4.704
 9623SOL     OW29767   2.266   5.561   6.168
 9623SOL    HW129768   2.244   5.564   6.265
 9623SOL    HW229769   2.185   5.536   6.116
 9624SOL     OW29770   4.095   4.879   6.281
 9624SOL    HW129771   4.127   4.964   6.323
 9624SOL    HW229772   4.095   4.806   6.349
 9625SOL     OW29773   4.993   3.796   6.192
 9625SOL    HW129774   4.939   3.800   6.276
 9625SOL    HW229775   5.024   3.702   6.177
 9626SOL     OW29776   3.036   2.666   0.123
 9626SOL    HW129777   2.984   2.595   0.076
 9626SOL    HW229778   3.052   2.640   0.217
 9627SOL     OW29779   7.006   5.310   0.403
 9627SOL    HW129780   6.940   5.261   0.460
 9627SOL    HW229781   0.070   5.253   0.388
 9628SOL     OW29782   6.156   1.489   5.437
 9628SOL    HW129783   6.079   1.515   5.496
 9628SOL    HW229784   6.229   1.557   5.446
 9629SOL     OW29785   0.439   5.956   3.954
 9629SOL    HW129786   0.424   6.054   3.961
 9629SOL    HW229787   0.535   5.939   3.929
 9630SOL     OW29788   5.953   0.401   5.438
 9630SOL    HW129789   5.980   0.479   5.382
 9630SOL    HW229790   6.001   0.406   5.526
 9631SOL     OW29791   4.215   6.143   0.223
 9631SOL    HW129792   4.241   6.193   0.306
 9631SOL    HW229793   4.280   6.163   0.150
 9632SOL     OW29794   2.689   5.777   2.975
 9632SOL    HW129795   2.619   5.779   2.903
 9632SOL    HW229796   2.646   5.796   3.063
 9633SOL     OW29797   2.134   3.134   5.680
 9633SOL    HW129798   2.139   3.077   5.761
 9633SOL    HW229799   2.111   3.078   5.600
 9634SOL     OW29800   5.649   4.844   3.292
 9634SOL    HW129801   5.706   4.917   3.330
 9634SOL    HW229802   5.688   4.814   3.204
 9635SOL     OW29803   0.971   5.432   4.011
 9635SOL    HW129804   0.962   5.430   4.111
 9635SOL    HW229805   1.065   5.458   3.988
 9636SOL     OW29806   4.934   3.650   3.699
 9636SOL    HW129807   4.953   3.702   3.783
 9636SOL    HW229808   5.000   3.575   3.691
 9637SOL     OW29809   3.411   2.304   6.407
 9637SOL    HW129810   3.451   2.334   6.321
 9637SOL    HW229811   3.475   2.322   6.482
 9638SOL     OW29812   1.320   4.184   6.319
 9638SOL    HW129813   1.312   4.221   6.412
 9638SOL    HW229814   1.234   4.139   6.295
 9639SOL     OW29815   5.658   2.825   1.541
 9639SOL    HW129816   5.741   2.772   1.558
 9639SOL    HW229817   5.582   2.764   1.520
 9640SOL     OW29818   2.892   6.215   3.454
 9640SOL    HW129819   2.832   6.188   3.529
 9640SOL    HW229820   2.841   6.274   3.391
 9641SOL     OW29821   1.006   2.540   4.335
 9641SOL    HW129822   0.908   2.544   4.356
 9641SOL    HW229823   1.058   2.524   4.419
 9642SOL     OW29824   0.673   3.024   4.532
 9642SOL    HW129825   0.710   2.934   4.509
 9642SOL    HW229826   0.694   3.088   4.458
 9643SOL     OW29827   6.294   5.695   4.754
 9643SOL    HW129828   6.355   5.750   4.697
 9643SOL    HW229829   6.200   5.727   4.743
 9644SOL     OW29830   0.948   5.042   3.809
 9644SOL    HW129831   0.999   5.094   3.740
 9644SOL    HW229832   1.012   5.002   3.874
 9645SOL     OW29833   0.355   4.931   0.604
 9645SOL    HW129834   0.280   4.882   0.648
 9645SOL    HW229835   0.368   4.896   0.511
 9646SOL     OW29836   2.172   5.201   0.654
 9646SOL    HW129837   2.113   5.149   0.715
 9646SOL    HW229838   2.122   5.279   0.618
 9647SOL     OW29839   5.067   0.094   2.721
 9647SOL    HW129840   5.033   0.147   2.799
 9647SOL    HW229841   5.074   0.153   2.641
 9648SOL     OW29842   4.017   2.145   0.761
 9648SOL    HW129843   3.943   2.150   0.695
 9648SOL    HW229844   4.044   2.049   0.773
 9649SOL     OW29845   0.247   5.355   0.221
 9649SOL    HW129846   0.206   5.264   0.214
 9649SOL    HW229847   0.334   5.357   0.172
 9650SOL     OW29848   0.123   5.260   5.530
 9650SOL    HW129849   0.114   5.258   5.430
 9650SOL    HW229850   0.033   5.274   5.571
 9651SOL     OW29851   3.858   1.093   0.981
 9651SOL    HW129852   3.930   1.140   0.930
 9651SOL    HW229853   3.769   1.114   0.939
 9652SOL     OW29854   0.575   4.105   0.061
 9652SOL    HW129855   0.490   4.057   0.085
 9652SOL    HW229856   0.557   4.203   0.051
 9653SOL     OW29857   5.876   3.642   4.942
 9653SOL    HW129858   5.900   3.652   4.845
 9653SOL    HW229859   5.869   3.545   4.964
 9654SOL     OW29860   3.748   3.278   4.486
 9654SOL    HW129861   3.681   3.339   4.529
 9654SOL    HW229862   3.701   3.206   4.435
 9655SOL     OW29863   4.502   0.821   0.415
 9655SOL    HW129864   4.409   0.785   0.414
 9655SOL    HW229865   4.500   0.918   0.441
 9656SOL     OW29866   5.253   4.874   4.892
 9656SOL    HW129867   5.276   4.795   4.835
 9656SOL    HW229868   5.335   4.928   4.908
 9657SOL     OW29869   5.060   4.822   2.543
 9657SOL    HW129870   5.150   4.811   2.503
 9657SOL    HW229871   4.991   4.829   2.470
 9658SOL     OW29872   5.166   1.378   2.606
 9658SOL    HW129873   5.191   1.283   2.588
 9658SOL    HW229874   5.066   1.386   2.609
 9659SOL     OW29875   4.526   3.260   0.533
 9659SOL    HW129876   4.502   3.357   0.530
 9659SOL    HW229877   4.495   3.216   0.449
 9660SOL     OW29878   2.699   0.338   1.705
 9660SOL    HW129879   2.670   0.430   1.728
 9660SOL    HW229880   2.621   0.285   1.671
 9661SOL     OW29881   3.550   3.817   2.333
 9661SOL    HW129882   3.636   3.767   2.325
 9661SOL    HW229883   3.560   3.908   2.292
 9662SOL     OW29884   4.129   0.670   4.883
 9662SOL    HW129885   4.121   0.646   4.980
 9662SOL    HW229886   4.081   0.602   4.828
 9663SOL     OW29887   1.110   5.707   2.070
 9663SOL    HW129888   1.110   5.724   2.168
 9663SOL    HW229889   1.017   5.686   2.040
 9664SOL     OW29890   1.589   4.805   2.344
 9664SOL    HW129891   1.525   4.830   2.271
 9664SOL    HW229892   1.660   4.874   2.352
 9665SOL     OW29893   6.102   3.829   6.712
 9665SOL    HW129894   6.035   3.805   6.782
 9665SOL    HW229895   6.099   3.762   6.638
 9666SOL     OW29896   5.144   4.355   1.280
 9666SOL    HW129897   5.129   4.353   1.379
 9666SOL    HW229898   5.240   4.332   1.261
 9667SOL     OW29899   5.913   6.139   0.404
 9667SOL    HW129900   5.817   6.152   0.431
 9667SOL    HW229901   5.939   6.044   0.417
 9668SOL     OW29902   2.220   0.505   0.710
 9668SOL    HW129903   2.149   0.516   0.641
 9668SOL    HW229904   2.229   0.589   0.763
 9669SOL     OW29905   3.540   0.247   0.851
 9669SOL    HW129906   3.508   0.180   0.784
 9669SOL    HW229907   3.631   0.221   0.883
 9670SOL     OW29908   0.411   0.258   2.590
 9670SOL    HW129909   0.353   0.279   2.668
 9670SOL    HW229910   0.354   0.226   2.514
 9671SOL     OW29911   0.930   5.885   6.696
 9671SOL    HW129912   0.933   5.853   6.790
 9671SOL    HW229913   0.975   5.818   6.637
 9672SOL     OW29914   0.186   4.111   4.463
 9672SOL    HW129915   0.174   4.014   4.443
 9672SOL    HW229916   0.210   4.160   4.379
 9673SOL     OW29917   2.106   2.913   5.512
 9673SOL    HW129918   2.016   2.870   5.524
 9673SOL    HW229919   2.150   2.877   5.430
 9674SOL     OW29920   1.581   0.485   3.751
 9674SOL    HW129921   1.668   0.503   3.705
 9674SOL    HW229922   1.509   0.472   3.682
 9675SOL     OW29923   6.833   3.999   6.146
 9675SOL    HW129924   6.919   4.014   6.097
 9675SOL    HW229925   6.822   4.069   6.216
 9676SOL     OW29926   0.871   2.801   6.172
 9676SOL    HW129927   0.964   2.773   6.152
 9676SOL    HW229928   0.862   2.901   6.162
 9677SOL     OW29929   0.535   4.974   3.137
 9677SOL    HW129930   0.501   5.067   3.156
 9677SOL    HW229931   0.591   4.943   3.214
 9678SOL     OW29932   4.919   3.191   6.829
 9678SOL    HW129933   4.959   3.274   6.868
 9678SOL    HW229934   4.951   3.179   6.735
 9679SOL     OW29935   1.660   1.506   4.093
 9679SOL    HW129936   1.568   1.520   4.131
 9679SOL    HW229937   1.728   1.531   4.162
 9680SOL     OW29938   4.397   6.370   2.885
 9680SOL    HW129939   4.400   6.324   2.796
 9680SOL    HW229940   4.475   6.341   2.940
 9681SOL     OW29941   0.677   2.747   1.091
 9681SOL    HW129942   0.578   2.739   1.107
 9681SOL    HW229943   0.714   2.658   1.065
 9682SOL     OW29944   4.075   6.462   5.415
 9682SOL    HW129945   4.138   6.388   5.393
 9682SOL    HW229946   3.981   6.428   5.413
 9683SOL     OW29947   3.032   6.003   3.930
 9683SOL    HW129948   3.006   5.908   3.915
 9683SOL    HW229949   2.950   6.060   3.932
 9684SOL     OW29950   1.689   2.701   6.269
 9684SOL    HW129951   1.630   2.659   6.200
 9684SOL    HW229952   1.764   2.639   6.291
 9685SOL     OW29953   3.923   4.878   1.525
 9685SOL    HW129954   4.003   4.853   1.579
 9685SOL    HW229955   3.850   4.909   1.586
 9686SOL     OW29956   0.843   2.134   6.046
 9686SOL    HW129957   0.772   2.104   6.110
 9686SOL    HW229958   0.927   2.154   6.095
 9687SOL     OW29959   5.875   0.541   3.932
 9687SOL    HW129960   5.887   0.529   4.031
 9687SOL    HW229961   5.798   0.486   3.901
 9688SOL     OW29962   0.887   5.111   2.451
 9688SOL    HW129963   0.843   5.028   2.484
 9688SOL    HW229964   0.982   5.092   2.426
 9689SOL     OW29965   1.975   5.829   1.001
 9689SOL    HW129966   2.032   5.872   1.072
 9689SOL    HW229967   1.918   5.899   0.958
 9690SOL     OW29968   5.875   4.287   3.991
 9690SOL    HW129969   5.885   4.284   4.091
 9690SOL    HW229970   5.841   4.376   3.963
 9691SOL     OW29971   4.018   3.936   2.073
 9691SOL    HW129972   4.070   3.996   2.012
 9691SOL    HW229973   4.068   3.851   2.087
 9692SOL     OW29974   6.530   5.529   0.237
 9692SOL    HW129975   6.435   5.557   0.248
 9692SOL    HW229976   6.572   5.515   0.326
 9693SOL     OW29977   4.394   3.757   6.670
 9693SOL    HW129978   4.380   3.856   6.662
 9693SOL    HW229979   4.444   3.724   6.591
 9694SOL     OW29980   2.807   6.034   1.313
 9694SOL    HW129981   2.859   6.091   1.377
 9694SOL    HW229982   2.818   5.937   1.337
 9695SOL     OW29983   1.595   2.690   3.613
 9695SOL    HW129984   1.595   2.708   3.711
 9695SOL    HW229985   1.506   2.715   3.574
 9696SOL     OW29986   4.520   4.409   3.560
 9696SOL    HW129987   4.573   4.330   3.528
 9696SOL    HW229988   4.532   4.419   3.658
 9697SOL     OW29989   6.875   6.873   2.902
 9697SOL    HW129990   6.973   6.879   2.920
 9697SOL    HW229991   6.857   6.898   2.807
 9698SOL     OW29992   0.220   2.502   1.233
 9698SOL    HW129993   0.274   2.533   1.311
 9698SOL    HW229994   0.271   2.433   1.182
 9699SOL     OW29995   1.782   0.138   2.269
 9699SOL    HW129996   1.726   0.075   2.215
 9699SOL    HW229997   1.735   0.160   2.354
 9700SOL     OW29998   6.147   0.648   5.802
 9700SOL    HW129999   6.214   0.603   5.742
 9700SOL    HW230000   6.117   0.733   5.759
 9701SOL     OW30001   5.734   3.735   6.633
 9701SOL    HW130002   5.764   3.681   6.711
 9701SOL    HW230003   5.719   3.830   6.662
 9702SOL     OW30004   2.919   3.634   1.939
 9702SOL    HW130005   2.956   3.677   2.022
 9702SOL    HW230006   2.910   3.703   1.867
 9703SOL     OW30007   6.363   4.479   3.594
 9703SOL    HW130008   6.272   4.442   3.576
 9703SOL    HW230009   6.357   4.546   3.668
 9704SOL     OW30010   1.154   4.907   1.975
 9704SOL    HW130011   1.070   4.950   2.009
 9704SOL    HW230012   1.232   4.964   2.000
 9705SOL     OW30013   0.071   4.082   5.316
 9705SOL    HW130014   0.115   4.000   5.279
 9705SOL    HW230015   0.083   4.085   5.415
 9706SOL     OW30016   0.030   6.873   2.495
 9706SOL    HW130017   0.014   6.934   2.417
 9706SOL    HW230018   0.122   6.886   2.530
 9707SOL     OW30019   0.988   4.475   1.452
 9707SOL    HW130020   1.005   4.446   1.357
 9707SOL    HW230021   0.889   4.481   1.467
 9708SOL     OW30022   2.974   0.832   1.876
 9708SOL    HW130023   3.009   0.871   1.791
 9708SOL    HW230024   2.900   0.890   1.911
 9709SOL     OW30025   3.659   1.646   2.105
 9709SOL    HW130026   3.610   1.691   2.180
 9709SOL    HW230027   3.619   1.674   2.018
 9710SOL     OW30028   5.042   4.705   4.159
 9710SOL    HW130029   5.079   4.722   4.250
 9710SOL    HW230030   5.099   4.637   4.113
 9711SOL     OW30031   3.237   0.315   6.639
 9711SOL    HW130032   3.197   0.384   6.700
 9711SOL    HW230033   3.326   0.286   6.676
 9712SOL     OW30034   4.788   6.796   5.639
 9712SOL    HW130035   4.733   6.716   5.665
 9712SOL    HW230036   4.736   6.855   5.578
 9713SOL     OW30037   0.385   0.521   2.988
 9713SOL    HW130038   0.317   0.579   2.943
 9713SOL    HW230039   0.462   0.507   2.926
 9714SOL     OW30040   2.230   2.725   3.647
 9714SOL    HW130041   2.247   2.679   3.560
 9714SOL    HW230042   2.252   2.663   3.723
 9715SOL     OW30043   0.420   1.854   6.473
 9715SOL    HW130044   0.453   1.781   6.413
 9715SOL    HW230045   0.364   1.918   6.420
 9716SOL     OW30046   1.283   6.137   0.970
 9716SOL    HW130047   1.307   6.181   1.057
 9716SOL    HW230048   1.354   6.159   0.903
 9717SOL     OW30049   4.422   1.915   6.281
 9717SOL    HW130050   4.339   1.860   6.290
 9717SOL    HW230051   4.449   1.949   6.371
 9718SOL     OW30052   3.060   2.714   6.529
 9718SOL    HW130053   3.071   2.760   6.441
 9718SOL    HW230054   3.008   2.774   6.591
 9719SOL     OW30055   5.092   0.345   6.218
 9719SOL    HW130056   5.079   0.300   6.306
 9719SOL    HW230057   5.019   0.317   6.155
 9720SOL     OW30058   2.502   2.426   2.047
 9720SOL    HW130059   2.469   2.430   2.141
 9720SOL    HW230060   2.436   2.374   1.991
 9721SOL     OW30061   0.398   2.084   1.250
 9721SOL    HW130062   0.383   1.993   1.289
 9721SOL    HW230063   0.328   2.147   1.283
 9722SOL     OW30064   3.381   2.707   5.960
 9722SOL    HW130065   3.426   2.646   5.896
 9722SOL    HW230066   3.323   2.654   6.022
 9723SOL     OW30067   5.781   1.255   4.472
 9723SOL    HW130068   5.709   1.314   4.509
 9723SOL    HW230069   5.748   1.212   4.388
 9724SOL     OW30070   1.566   5.574   1.609
 9724SOL    HW130071   1.568   5.529   1.698
 9724SOL    HW230072   1.616   5.518   1.542
 9725SOL     OW30073   5.674   5.249   4.933
 9725SOL    HW130074   5.685   5.344   4.903
 9725SOL    HW230075   5.752   5.195   4.901
 9726SOL     OW30076   6.819   0.095   2.978
 9726SOL    HW130077   6.836   7.013   2.970
 9726SOL    HW230078   6.879   0.145   2.916
 9727SOL     OW30079   6.927   3.197   0.849
 9727SOL    HW130080   6.926   3.296   0.835
 9727SOL    HW230081   7.012   3.171   0.895
 9728SOL     OW30082   5.252   2.216   5.266
 9728SOL    HW130083   5.175   2.260   5.220
 9728SOL    HW230084   5.221   2.177   5.353
 9729SOL     OW30085   6.731   3.518   2.682
 9729SOL    HW130086   6.644   3.564   2.700
 9729SOL    HW230087   6.803   3.586   2.672
 9730SOL     OW30088   0.457   6.319   3.113
 9730SOL    HW130089   0.477   6.327   3.211
 9730SOL    HW230090   0.377   6.261   3.100
 9731SOL     OW30091   6.355   1.109   1.396
 9731SOL    HW130092   6.439   1.060   1.419
 9731SOL    HW230093   6.323   1.158   1.478
 9732SOL     OW30094   6.835   2.825   3.122
 9732SOL    HW130095   6.855   2.749   3.059
 9732SOL    HW230096   6.897   2.821   3.200
 9733SOL     OW30097   4.946   5.769   0.270
 9733SOL    HW130098   5.032   5.754   0.222
 9733SOL    HW230099   4.896   5.683   0.277
 9734SOL     OW30100   4.013   3.735   0.288
 9734SOL    HW130101   3.957   3.674   0.232
 9734SOL    HW230102   4.108   3.703   0.288
 9735SOL     OW30103   1.052   1.896   0.036
 9735SOL    HW130104   0.966   1.946   0.030
 9735SOL    HW230105   1.049   1.833   0.114
 9736SOL     OW30106   5.849   2.545   6.110
 9736SOL    HW130107   5.891   2.574   6.196
 9736SOL    HW230108   5.809   2.624   6.064
 9737SOL     OW30109   5.195   3.487   5.231
 9737SOL    HW130110   5.245   3.567   5.198
 9737SOL    HW230111   5.253   3.434   5.292
 9738SOL     OW30112   2.526   6.240   1.619
 9738SOL    HW130113   2.595   6.286   1.564
 9738SOL    HW230114   2.440   6.234   1.567
 9739SOL     OW30115   5.295   6.092   0.861
 9739SOL    HW130116   5.370   6.101   0.927
 9739SOL    HW230117   5.217   6.046   0.904
 9740SOL     OW30118   6.935   0.185   0.596
 9740SOL    HW130119   6.835   0.190   0.594
 9740SOL    HW230120   6.966   0.119   0.527
 9741SOL     OW30121   2.376   2.683   2.930
 9741SOL    HW130122   2.461   2.646   2.893
 9741SOL    HW230123   2.356   2.640   3.017
 9742SOL     OW30124   5.023   6.796   6.791
 9742SOL    HW130125   5.105   6.775   6.738
 9742SOL    HW230126   4.986   6.885   6.763
 9743SOL     OW30127   5.847   3.774   4.496
 9743SOL    HW130128   5.911   3.846   4.525
 9743SOL    HW230129   5.809   3.729   4.577
 9744SOL     OW30130   1.641   2.771   1.984
 9744SOL    HW130131   1.626   2.834   2.060
 9744SOL    HW230132   1.556   2.722   1.964
 9745SOL     OW30133   1.378   0.022   5.906
 9745SOL    HW130134   1.409   6.945   5.925
 9745SOL    HW230135   1.381   0.039   5.808
 9746SOL     OW30136   3.659   5.762   5.746
 9746SOL    HW130137   3.593   5.766   5.671
 9746SOL    HW230138   3.617   5.800   5.829
 9747SOL     OW30139   4.547   1.452   3.549
 9747SOL    HW130140   4.557   1.526   3.484
 9747SOL    HW230141   4.540   1.489   3.642
 9748SOL     OW30142   0.742   1.754   1.826
 9748SOL    HW130143   0.663   1.808   1.855
 9748SOL    HW230144   0.736   1.736   1.728
 9749SOL     OW30145   6.445   0.142   1.773
 9749SOL    HW130146   6.399   0.201   1.839
 9749SOL    HW230147   6.394   0.056   1.764
 9750SOL     OW30148   5.567   3.007   4.578
 9750SOL    HW130149   5.648   2.989   4.522
 9750SOL    HW230150   5.521   3.089   4.545
 9751SOL     OW30151   2.894   4.904   0.773
 9751SOL    HW130152   2.838   4.830   0.738
 9751SOL    HW230153   2.920   4.966   0.699
 9752SOL     OW30154   4.793   4.348   1.039
 9752SOL    HW130155   4.775   4.253   1.065
 9752SOL    HW230156   4.764   4.409   1.113
 9753SOL     OW30157   5.827   6.274   2.715
 9753SOL    HW130158   5.857   6.188   2.675
 9753SOL    HW230159   5.897   6.307   2.779
 9754SOL     OW30160   3.674   1.136   2.123
 9754SOL    HW130161   3.656   1.056   2.067
 9754SOL    HW230162   3.770   1.137   2.151
 9755SOL     OW30163   3.796   4.280   1.176
 9755SOL    HW130164   3.810   4.297   1.274
 9755SOL    HW230165   3.729   4.207   1.165
 9756SOL     OW30166   4.597   0.457   6.843
 9756SOL    HW130167   4.639   0.490   6.928
 9756SOL    HW230168   4.646   0.496   6.764
 9757SOL     OW30169   5.305   4.224   4.016
 9757SOL    HW130170   5.287   4.261   3.925
 9757SOL    HW230171   5.388   4.265   4.053
 9758SOL     OW30172   3.307   0.807   0.930
 9758SOL    HW130173   3.254   0.733   0.889
 9758SOL    HW230174   3.278   0.820   1.025
 9759SOL     OW30175   6.311   1.134   0.611
 9759SOL    HW130176   6.375   1.110   0.684
 9759SOL    HW230177   6.232   1.180   0.650
 9760SOL     OW30178   4.937   0.652   5.633
 9760SOL    HW130179   4.983   0.741   5.629
 9760SOL    HW230180   4.891   0.642   5.721
 9761SOL     OW30181   0.875   2.521   1.508
 9761SOL    HW130182   0.798   2.501   1.448
 9761SOL    HW230183   0.952   2.557   1.455
 9762SOL     OW30184   3.890   1.519   5.346
 9762SOL    HW130185   3.903   1.617   5.331
 9762SOL    HW230186   3.832   1.482   5.274
 9763SOL     OW30187   6.288   2.099   1.025
 9763SOL    HW130188   6.229   2.023   1.055
 9763SOL    HW230189   6.362   2.112   1.091
 9764SOL     OW30190   0.039   2.739   3.352
 9764SOL    HW130191   0.049   2.821   3.295
 9764SOL    HW230192   6.969   2.693   3.330
 9765SOL     OW30193   6.968   2.001   0.795
 9765SOL    HW130194   0.007   1.960   0.867
 9765SOL    HW230195   6.880   2.030   0.833
 9766SOL     OW30196   0.960   3.144   2.851
 9766SOL    HW130197   1.031   3.208   2.823
 9766SOL    HW230198   0.999   3.073   2.909
 9767SOL     OW30199   3.962   1.763   4.700
 9767SOL    HW130200   4.008   1.799   4.620
 9767SOL    HW230201   3.987   1.667   4.713
 9768SOL     OW30202   4.727   3.432   6.679
 9768SOL    HW130203   4.668   3.493   6.626
 9768SOL    HW230204   4.686   3.340   6.682
 9769SOL     OW30205   3.023   0.628   5.691
 9769SOL    HW130206   3.033   0.540   5.738
 9769SOL    HW230207   2.943   0.676   5.727
 9770SOL     OW30208   1.964   3.448   4.760
 9770SOL    HW130209   1.903   3.370   4.750
 9770SOL    HW230210   1.913   3.526   4.795
 9771SOL     OW30211   3.822   0.298   1.687
 9771SOL    HW130212   3.819   0.386   1.736
 9771SOL    HW230213   3.833   0.224   1.753
 9772SOL     OW30214   0.615   0.770   1.398
 9772SOL    HW130215   0.675   0.695   1.424
 9772SOL    HW230216   0.670   0.850   1.372
 9773SOL     OW30217   4.166   6.366   2.648
 9773SOL    HW130218   4.113   6.441   2.608
 9773SOL    HW230219   4.149   6.363   2.746
 9774SOL     OW30220   1.182   5.161   5.076
 9774SOL    HW130221   1.196   5.169   4.977
 9774SOL    HW230222   1.175   5.064   5.101
 9775SOL     OW30223   1.453   1.542   3.536
 9775SOL    HW130224   1.372   1.484   3.531
 9775SOL    HW230225   1.449   1.598   3.619
 9776SOL     OW30226   0.500   5.627   1.453
 9776SOL    HW130227   0.410   5.614   1.495
 9776SOL    HW230228   0.561   5.553   1.482
 9777SOL     OW30229   4.998   2.330   5.155
 9777SOL    HW130230   4.948   2.283   5.228
 9777SOL    HW230231   4.945   2.324   5.070
 9778SOL     OW30232   1.939   3.235   2.807
 9778SOL    HW130233   1.965   3.184   2.889
 9778SOL    HW230234   1.851   3.279   2.822
 9779SOL     OW30235   1.851   0.932   2.761
 9779SOL    HW130236   1.949   0.930   2.779
 9779SOL    HW230237   1.804   0.870   2.824
 9780SOL     OW30238   1.771   1.944   1.475
 9780SOL    HW130239   1.736   1.922   1.384
 9780SOL    HW230240   1.695   1.962   1.537
 9781SOL     OW30241   1.621   1.244   2.106
 9781SOL    HW130242   1.537   1.242   2.160
 9781SOL    HW230243   1.598   1.228   2.009
 9782SOL     OW30244   0.617   2.594   6.909
 9782SOL    HW130245   0.545   2.534   6.874
 9782SOL    HW230246   0.602   2.612   7.006
 9783SOL     OW30247   5.444   1.146   2.155
 9783SOL    HW130248   5.507   1.183   2.087
 9783SOL    HW230249   5.413   1.055   2.126
 9784SOL     OW30250   2.525   1.263   0.413
 9784SOL    HW130251   2.467   1.225   0.484
 9784SOL    HW230252   2.468   1.299   0.339
 9785SOL     OW30253   1.745   3.787   4.253
 9785SOL    HW130254   1.815   3.715   4.254
 9785SOL    HW230255   1.786   3.874   4.277
 9786SOL     OW30256   3.019   4.358   0.095
 9786SOL    HW130257   3.021   4.353   7.012
 9786SOL    HW230258   2.924   4.367   0.126
 9787SOL     OW30259   2.767   3.479   1.128
 9787SOL    HW130260   2.823   3.529   1.195
 9787SOL    HW230261   2.687   3.533   1.104
 9788SOL     OW30262   2.488   0.118   3.957
 9788SOL    HW130263   2.482   0.212   3.925
 9788SOL    HW230264   2.552   0.067   3.899
 9789SOL     OW30265   4.187   1.696   0.202
 9789SOL    HW130266   4.266   1.746   0.237
 9789SOL    HW230267   4.121   1.761   0.165
 9790SOL     OW30268   4.466   5.764   5.100
 9790SOL    HW130269   4.463   5.825   5.179
 9790SOL    HW230270   4.472   5.670   5.132
 9791SOL     OW30271   0.605   0.862   1.091
 9791SOL    HW130272   0.680   0.867   1.156
 9791SOL    HW230273   0.629   0.801   1.016
 9792SOL     OW30274   2.803   3.496   0.103
 9792SOL    HW130275   2.810   3.423   0.171
 9792SOL    HW230276   2.739   3.469   0.031
 9793SOL     OW30277   5.449   0.870   1.750
 9793SOL    HW130278   5.465   0.784   1.798
 9793SOL    HW230279   5.362   0.909   1.779
 9794SOL     OW30280   4.180   5.846   5.506
 9794SOL    HW130281   4.151   5.938   5.481
 9794SOL    HW230282   4.270   5.850   5.550
 9795SOL     OW30283   2.040   4.275   3.468
 9795SOL    HW130284   2.097   4.205   3.425
 9795SOL    HW230285   2.064   4.365   3.429
 9796SOL     OW30286   3.980   3.568   4.981
 9796SOL    HW130287   4.015   3.659   4.959
 9796SOL    HW230288   4.056   3.506   4.999
 9797SOL     OW30289   3.804   5.125   0.372
 9797SOL    HW130290   3.877   5.060   0.396
 9797SOL    HW230291   3.749   5.146   0.453
 9798SOL     OW30292   0.602   4.081   5.939
 9798SOL    HW130293   0.653   3.996   5.929
 9798SOL    HW230294   0.654   4.144   5.998
 9799SOL     OW30295   3.395   0.361   6.120
 9799SOL    HW130296   3.456   0.388   6.045
 9799SOL    HW230297   3.360   0.269   6.103
 9800SOL     OW30298   0.180   4.347   4.637
 9800SOL    HW130299   0.167   4.250   4.615
 9800SOL    HW230300   0.190   4.399   4.552
 9801SOL     OW30301   3.973   6.868   1.253
 9801SOL    HW130302   3.972   6.966   1.235
 9801SOL    HW230303   4.044   6.847   1.321
 9802SOL     OW30304   3.920   2.418   0.364
 9802SOL    HW130305   4.004   2.467   0.385
 9802SOL    HW230306   3.845   2.454   0.420
 9803SOL     OW30307   2.547   3.661   0.078
 9803SOL    HW130308   2.605   3.706   0.146
 9803SOL    HW230309   2.563   3.563   0.080
 9804SOL     OW30310   1.032   3.907   2.933
 9804SOL    HW130311   1.040   4.006   2.929
 9804SOL    HW230312   1.080   3.873   3.014
 9805SOL     OW30313   6.917   4.537   5.304
 9805SOL    HW130314   6.987   4.553   5.374
 9805SOL    HW230315   6.901   4.621   5.252
 9806SOL     OW30316   3.537   1.225   0.187
 9806SOL    HW130317   3.477   1.302   0.208
 9806SOL    HW230318   3.599   1.250   0.113
 9807SOL     OW30319   3.865   3.746   4.460
 9807SOL    HW130320   3.842   3.840   4.487
 9807SOL    HW230321   3.801   3.716   4.389
 9808SOL     OW30322   2.672   6.628   2.587
 9808SOL    HW130323   2.584   6.674   2.581
 9808SOL    HW230324   2.657   6.530   2.604
 9809SOL     OW30325   6.913   3.474   0.820
 9809SOL    HW130326   6.893   3.549   0.883
 9809SOL    HW230327   7.009   3.477   0.793
 9810SOL     OW30328   4.057   3.283   1.536
 9810SOL    HW130329   4.067   3.250   1.630
 9810SOL    HW230330   4.024   3.209   1.478
 9811SOL     OW30331   5.104   3.421   3.837
 9811SOL    HW130332   5.170   3.359   3.796
 9811SOL    HW230333   5.144   3.465   3.917
 9812SOL     OW30334   3.166   5.548   6.605
 9812SOL    HW130335   3.209   5.458   6.601
 9812SOL    HW230336   3.109   5.562   6.524
 9813SOL     OW30337   4.603   0.590   1.925
 9813SOL    HW130338   4.602   0.615   1.828
 9813SOL    HW230339   4.529   0.525   1.944
 9814SOL     OW30340   6.606   1.552   6.781
 9814SOL    HW130341   6.688   1.587   6.735
 9814SOL    HW230342   6.570   1.474   6.730
 9815SOL     OW30343   5.117   2.481   4.682
 9815SOL    HW130344   5.147   2.400   4.631
 9815SOL    HW230345   5.191   2.513   4.739
 9816SOL     OW30346   3.846   0.961   0.181
 9816SOL    HW130347   3.831   0.870   0.220
 9816SOL    HW230348   3.857   1.027   0.255
 9817SOL     OW30349   6.313   0.047   1.489
 9817SOL    HW130350   6.360   6.980   1.459
 9817SOL    HW230351   6.294   0.104   1.409
 9818SOL     OW30352   4.055   2.192   5.074
 9818SOL    HW130353   4.080   2.109   5.024
 9818SOL    HW230354   4.089   2.272   5.025
 9819SOL     OW30355   2.540   0.411   2.162
 9819SOL    HW130356   2.496   0.490   2.121
 9819SOL    HW230357   2.489   0.328   2.139
 9820SOL     OW30358   4.193   2.686   0.071
 9820SOL    HW130359   4.101   2.650   0.054
 9820SOL    HW230360   4.214   2.757   0.004
 9821SOL     OW30361   0.623   6.549   6.700
 9821SOL    HW130362   0.634   6.453   6.675
 9821SOL    HW230363   0.667   6.565   6.789
 9822SOL     OW30364   6.999   1.970   2.073
 9822SOL    HW130365   6.935   1.956   2.149
 9822SOL    HW230366   0.069   1.924   2.092
 9823SOL     OW30367   2.939   6.425   2.396
 9823SOL    HW130368   2.855   6.435   2.342
 9823SOL    HW230369   3.003   6.498   2.373
 9824SOL     OW30370   2.237   3.986   5.381
 9824SOL    HW130371   2.168   4.053   5.408
 9824SOL    HW230372   2.260   3.999   5.285
 9825SOL     OW30373   4.468   4.503   5.380
 9825SOL    HW130374   4.439   4.577   5.440
 9825SOL    HW230375   4.503   4.427   5.435
 9826SOL     OW30376   6.191   0.385   5.234
 9826SOL    HW130377   6.119   0.347   5.291
 9826SOL    HW230378   6.210   0.479   5.262
 9827SOL     OW30379   1.027   5.634   4.855
 9827SOL    HW130380   0.933   5.624   4.887
 9827SOL    HW230381   1.041   5.579   4.773
 9828SOL     OW30382   2.420   1.338   0.183
 9828SOL    HW130383   2.429   1.239   0.189
 9828SOL    HW230384   2.339   1.367   0.235
 9829SOL     OW30385   3.190   4.342   1.466
 9829SOL    HW130386   3.232   4.255   1.438
 9829SOL    HW230387   3.129   4.373   1.393
 9830SOL     OW30388   5.842   1.155   1.071
 9830SOL    HW130389   5.871   1.141   0.976
 9830SOL    HW230390   5.914   1.203   1.121
 9831SOL     OW30391   0.017   5.721   1.027
 9831SOL    HW130392   0.072   5.640   1.009
 9831SOL    HW230393   0.030   5.751   1.121
 9832SOL     OW30394   3.075   3.652   1.508
 9832SOL    HW130395   3.156   3.691   1.464
 9832SOL    HW230396   3.040   3.716   1.576
 9833SOL     OW30397   5.160   4.369   0.435
 9833SOL    HW130398   5.097   4.324   0.372
 9833SOL    HW230399   5.248   4.384   0.389
 9834SOL     OW30400   2.024   3.085   3.925
 9834SOL    HW130401   2.049   3.173   3.964
 9834SOL    HW230402   2.096   3.053   3.865
 9835SOL     OW30403   4.933   2.321   4.862
 9835SOL    HW130404   4.957   2.224   4.861
 9835SOL    HW230405   4.980   2.368   4.787
 9836SOL     OW30406   5.448   5.010   1.433
 9836SOL    HW130407   5.446   4.913   1.411
 9836SOL    HW230408   5.434   5.064   1.350
 9837SOL     OW30409   2.358   5.013   5.302
 9837SOL    HW130410   2.429   5.033   5.234
 9837SOL    HW230411   2.307   4.932   5.274
 9838SOL     OW30412   6.921   6.671   5.114
 9838SOL    HW130413   6.985   6.745   5.093
 9838SOL    HW230414   6.928   6.648   5.211
 9839SOL     OW30415   5.888   3.135   3.219
 9839SOL    HW130416   5.819   3.188   3.170
 9839SOL    HW230417   5.964   3.196   3.244
 9840SOL     OW30418   5.865   6.962   0.421
 9840SOL    HW130419   5.939   6.894   0.425
 9840SOL    HW230420   5.897   0.027   0.373
 9841SOL     OW30421   1.678   2.917   4.114
 9841SOL    HW130422   1.596   2.896   4.168
 9841SOL    HW230423   1.758   2.879   4.159
 9842SOL     OW30424   3.084   3.072   4.097
 9842SOL    HW130425   2.997   3.121   4.091
 9842SOL    HW230426   3.089   3.023   4.184
 9843SOL     OW30427   6.111   4.428   3.496
 9843SOL    HW130428   6.066   4.442   3.585
 9843SOL    HW230429   6.045   4.442   3.423
 9844SOL     OW30430   4.097   0.267   2.068
 9844SOL    HW130431   4.024   0.331   2.043
 9844SOL    HW230432   4.168   0.269   1.998
 9845SOL     OW30433   1.115   1.906   4.503
 9845SOL    HW130434   1.206   1.869   4.526
 9845SOL    HW230435   1.045   1.842   4.534
 9846SOL     OW30436   3.024   3.297   4.340
 9846SOL    HW130437   2.964   3.350   4.400
 9846SOL    HW230438   2.994   3.308   4.245
 9847SOL     OW30439   2.410   4.386   4.223
 9847SOL    HW130440   2.425   4.406   4.126
 9847SOL    HW230441   2.461   4.452   4.279
 9848SOL     OW30442   6.946   4.470   0.042
 9848SOL    HW130443   6.966   4.549   0.100
 9848SOL    HW230444   0.013   4.415   0.031
 9849SOL     OW30445   6.554   6.067   5.438
 9849SOL    HW130446   6.526   6.142   5.497
 9849SOL    HW230447   6.558   5.982   5.492
 9850SOL     OW30448   5.397   6.823   3.667
 9850SOL    HW130449   5.320   6.883   3.690
 9850SOL    HW230450   5.445   6.859   3.587
 9851SOL     OW30451   5.586   2.567   4.941
 9851SOL    HW130452   5.656   2.635   4.963
 9851SOL    HW230453   5.514   2.569   5.010
 9852SOL     OW30454   5.292   1.974   3.853
 9852SOL    HW130455   5.224   2.013   3.916
 9852SOL    HW230456   5.281   2.016   3.763
 9853SOL     OW30457   0.037   5.181   1.154
 9853SOL    HW130458   0.101   5.124   1.102
 9853SOL    HW230459   0.042   5.157   1.251
 9854SOL     OW30460   3.125   6.580   4.253
 9854SOL    HW130461   3.048   6.528   4.291
 9854SOL    HW230462   3.132   6.667   4.302
 9855SOL     OW30463   2.398   4.213   1.057
 9855SOL    HW130464   2.388   4.119   1.092
 9855SOL    HW230465   2.312   4.263   1.071
 9856SOL     OW30466   3.734   3.313   1.139
 9856SOL    HW130467   3.698   3.287   1.228
 9856SOL    HW230468   3.677   3.384   1.099
 9857SOL     OW30469   6.118   4.700   3.081
 9857SOL    HW130470   6.081   4.689   3.174
 9857SOL    HW230471   6.089   4.788   3.044
 9858SOL     OW30472   3.357   1.212   1.289
 9858SOL    HW130473   3.414   1.202   1.207
 9858SOL    HW230474   3.417   1.219   1.370
 9859SOL     OW30475   0.375   6.482   1.508
 9859SOL    HW130476   0.438   6.429   1.451
 9859SOL    HW230477   0.287   6.434   1.515
 9860SOL     OW30478   0.945   1.071   2.882
 9860SOL    HW130479   0.846   1.077   2.876
 9860SOL    HW230480   0.986   1.113   2.801
 9861SOL     OW30481   2.064   6.208   3.686
 9861SOL    HW130482   2.146   6.258   3.715
 9861SOL    HW230483   2.090   6.139   3.618
 9862SOL     OW30484   0.323   1.967   0.637
 9862SOL    HW130485   0.248   1.937   0.577
 9862SOL    HW230486   0.394   2.009   0.581
 9863SOL     OW30487   4.686   0.650   0.552
 9863SOL    HW130488   4.624   0.720   0.517
 9863SOL    HW230489   4.745   0.616   0.478
 9864SOL     OW30490   3.689   5.540   3.931
 9864SOL    HW130491   3.707   5.454   3.978
 9864SOL    HW230492   3.600   5.535   3.885
 9865SOL     OW30493   1.714   3.543   3.919
 9865SOL    HW130494   1.778   3.599   3.973
 9865SOL    HW230495   1.755   3.523   3.830
 9866SOL     OW30496   2.966   4.856   3.195
 9866SOL    HW130497   3.060   4.854   3.230
 9866SOL    HW230498   2.915   4.929   3.240
 9867SOL     OW30499   3.632   6.506   5.997
 9867SOL    HW130500   3.631   6.571   6.073
 9867SOL    HW230501   3.686   6.543   5.921
 9868SOL     OW30502   1.231   5.089   6.048
 9868SOL    HW130503   1.151   5.030   6.056
 9868SOL    HW230504   1.205   5.175   6.004
 9869SOL     OW30505   0.846   5.045   3.145
 9869SOL    HW130506   0.899   5.079   3.224
 9869SOL    HW230507   0.866   4.949   3.131
 9870SOL     OW30508   4.380   5.499   1.817
 9870SOL    HW130509   4.461   5.501   1.876
 9870SOL    HW230510   4.348   5.592   1.800
 9871SOL     OW30511   2.332   2.878   5.977
 9871SOL    HW130512   2.328   2.855   5.879
 9871SOL    HW230513   2.353   2.796   6.030
 9872SOL     OW30514   1.439   3.843   3.201
 9872SOL    HW130515   1.354   3.878   3.163
 9872SOL    HW230516   1.444   3.744   3.188
 9873SOL     OW30517   2.079   2.255   1.596
 9873SOL    HW130518   2.142   2.329   1.619
 9873SOL    HW230519   2.129   2.182   1.550
 9874SOL     OW30520   0.975   4.097   4.560
 9874SOL    HW130521   0.992   4.182   4.509
 9874SOL    HW230522   0.878   4.089   4.579
 9875SOL     OW30523   1.433   1.468   3.185
 9875SOL    HW130524   1.418   1.370   3.191
 9875SOL    HW230525   1.432   1.508   3.276
 9876SOL     OW30526   6.543   6.011   2.309
 9876SOL    HW130527   6.576   5.923   2.342
 9876SOL    HW230528   6.444   6.007   2.293
 9877SOL     OW30529   4.122   0.517   1.095
 9877SOL    HW130530   4.206   0.464   1.108
 9877SOL    HW230531   4.086   0.500   1.003
 9878SOL     OW30532   6.517   1.495   4.836
 9878SOL    HW130533   6.501   1.558   4.912
 9878SOL    HW230534   6.450   1.512   4.764
 9879SOL     OW30535   5.246   5.212   5.473
 9879SOL    HW130536   5.208   5.169   5.391
 9879SOL    HW230537   5.317   5.277   5.447
 9880SOL     OW30538   0.883   2.694   3.669
 9880SOL    HW130539   0.884   2.732   3.577
 9880SOL    HW230540   0.791   2.662   3.691
 9881SOL     OW30541   0.339   1.519   5.983
 9881SOL    HW130542   0.286   1.499   5.900
 9881SOL    HW230543   0.333   1.617   6.003
 9882SOL     OW30544   1.626   2.499   3.314
 9882SOL    HW130545   1.708   2.540   3.355
 9882SOL    HW230546   1.593   2.557   3.240
 9883SOL     OW30547   2.821   1.404   2.371
 9883SOL    HW130548   2.915   1.438   2.378
 9883SOL    HW230549   2.807   1.331   2.437
 9884SOL     OW30550   2.903   0.325   3.651
 9884SOL    HW130551   2.921   0.390   3.726
 9884SOL    HW230552   2.951   0.355   3.569
 9885SOL     OW30553   6.835   2.769   4.818
 9885SOL    HW130554   6.889   2.717   4.752
 9885SOL    HW230555   6.767   2.825   4.770
 9886SOL     OW30556   0.140   2.832   2.154
 9886SOL    HW130557   0.179   2.841   2.246
 9886SOL    HW230558   0.066   2.765   2.157
 9887SOL     OW30559   4.397   5.882   5.858
 9887SOL    HW130560   4.408   5.843   5.767
 9887SOL    HW230561   4.301   5.907   5.872
 9888SOL     OW30562   6.647   5.276   5.009
 9888SOL    HW130563   6.555   5.308   5.033
 9888SOL    HW230564   6.687   5.226   5.086
 9889SOL     OW30565   0.714   5.791   0.842
 9889SOL    HW130566   0.668   5.880   0.838
 9889SOL    HW230567   0.802   5.796   0.796
 9890SOL     OW30568   0.788   2.941   0.924
 9890SOL    HW130569   0.756   2.869   0.985
 9890SOL    HW230570   0.720   3.014   0.921
 9891SOL     OW30571   4.970   1.180   2.475
 9891SOL    HW130572   4.905   1.146   2.407
 9891SOL    HW230573   4.928   1.253   2.528
 9892SOL     OW30574   1.249   0.396   6.476
 9892SOL    HW130575   1.217   0.491   6.478
 9892SOL    HW230576   1.257   0.365   6.382
 9893SOL     OW30577   2.218   1.426   0.372
 9893SOL    HW130578   2.238   1.521   0.397
 9893SOL    HW230579   2.155   1.425   0.294
 9894SOL     OW30580   2.220   1.019   1.578
 9894SOL    HW130581   2.235   1.118   1.580
 9894SOL    HW230582   2.231   0.982   1.671
 9895SOL     OW30583   4.268   2.712   5.571
 9895SOL    HW130584   4.281   2.733   5.474
 9895SOL    HW230585   4.287   2.794   5.626
 9896SOL     OW30586   6.482   6.575   5.948
 9896SOL    HW130587   6.499   6.477   5.937
 9896SOL    HW230588   6.397   6.589   5.997
 9897SOL     OW30589   5.948   4.915   5.257
 9897SOL    HW130590   6.012   4.979   5.217
 9897SOL    HW230591   5.885   4.964   5.317
 9898SOL     OW30592   2.484   0.117   6.907
 9898SOL    HW130593   2.547   0.181   6.951
 9898SOL    HW230594   2.471   0.142   6.811
 9899SOL     OW30595   0.014   4.673   0.255
 9899SOL    HW130596   6.995   4.758   0.293
 9899SOL    HW230597   0.098   4.692   0.203
 9900SOL     OW30598   2.513   4.887   3.401
 9900SOL    HW130599   2.510   4.932   3.312
 9900SOL    HW230600   2.469   4.797   3.395
 9901SOL     OW30601   1.963   3.457   5.436
 9901SOL    HW130602   2.040   3.510   5.399
 9901SOL    HW230603   1.990   3.360   5.443
 9902SOL     OW30604   2.982   4.404   1.332
 9902SOL    HW130605   2.946   4.477   1.274
 9902SOL    HW230606   2.907   4.356   1.378
 9903SOL     OW30607   5.447   1.329   5.198
 9903SOL    HW130608   5.385   1.375   5.262
 9903SOL    HW230609   5.435   1.368   5.107
 9904SOL     OW30610   6.159   1.639   0.318
 9904SOL    HW130611   6.170   1.711   0.250
 9904SOL    HW230612   6.148   1.680   0.409
 9905SOL     OW30613   4.977   0.246   0.242
 9905SOL    HW130614   4.938   0.188   0.170
 9905SOL    HW230615   5.018   0.188   0.313
 9906SOL     OW30616   3.043   3.365   5.283
 9906SOL    HW130617   2.944   3.372   5.289
 9906SOL    HW230618   3.082   3.355   5.374
 9907SOL     OW30619   1.620   6.178   1.545
 9907SOL    HW130620   1.572   6.109   1.491
 9907SOL    HW230621   1.615   6.154   1.642
 9908SOL     OW30622   5.392   3.443   1.705
 9908SOL    HW130623   5.369   3.492   1.789
 9908SOL    HW230624   5.425   3.508   1.637
 9909SOL     OW30625   1.723   0.249   4.432
 9909SOL    HW130626   1.649   0.285   4.374
 9909SOL    HW230627   1.717   0.149   4.434
 9910SOL     OW30628   0.178   4.509   4.411
 9910SOL    HW130629   0.168   4.607   4.399
 9910SOL    HW230630   0.097   4.462   4.377
 9911SOL     OW30631   2.686   6.683   2.162
 9911SOL    HW130632   2.699   6.584   2.170
 9911SOL    HW230633   2.756   6.722   2.104
 9912SOL     OW30634   4.584   0.880   5.642
 9912SOL    HW130635   4.548   0.828   5.719
 9912SOL    HW230636   4.675   0.915   5.665
 9913SOL     OW30637   5.298   2.890   0.497
 9913SOL    HW130638   5.226   2.904   0.429
 9913SOL    HW230639   5.387   2.910   0.456
 9914SOL     OW30640   0.337   3.199   4.589
 9914SOL    HW130641   0.376   3.192   4.680
 9914SOL    HW230642   0.349   3.292   4.554
 9915SOL     OW30643   4.418   1.200   3.773
 9915SOL    HW130644   4.320   1.223   3.769
 9915SOL    HW230645   4.471   1.285   3.782
 9916SOL     OW30646   1.575   2.896   1.510
 9916SOL    HW130647   1.636   2.892   1.590
 9916SOL    HW230648   1.527   2.984   1.509
 9917SOL     OW30649   6.328   4.565   5.763
 9917SOL    HW130650   6.271   4.602   5.837
 9917SOL    HW230651   6.321   4.623   5.682
 9918SOL     OW30652   4.975   3.135   2.537
 9918SOL    HW130653   5.050   3.069   2.532
 9918SOL    HW230654   4.921   3.130   2.454
 9919SOL     OW30655   5.193   5.547   0.304
 9919SOL    HW130656   5.130   5.476   0.335
 9919SOL    HW230657   5.206   5.614   0.377
 9920SOL     OW30658   4.563   1.054   2.590
 9920SOL    HW130659   4.618   0.980   2.628
 9920SOL    HW230660   4.590   1.070   2.495
 9921SOL     OW30661   4.131   4.916   6.008
 9921SOL    HW130662   4.068   4.880   5.939
 9921SOL    HW230663   4.084   4.921   6.096
 9922SOL     OW30664   0.226   6.182   1.329
 9922SOL    HW130665   0.292   6.241   1.284
 9922SOL    HW230666   0.155   6.237   1.373
 9923SOL     OW30667   6.360   4.081   0.176
 9923SOL    HW130668   6.279   4.040   0.134
 9923SOL    HW230669   6.363   4.057   0.273
 9924SOL     OW30670   1.398   4.593   4.437
 9924SOL    HW130671   1.439   4.510   4.475
 9924SOL    HW230672   1.467   4.643   4.385
 9925SOL     OW30673   4.573   2.626   4.026
 9925SOL    HW130674   4.644   2.683   3.984
 9925SOL    HW230675   4.573   2.640   4.125
 9926SOL     OW30676   3.657   5.143   1.589
 9926SOL    HW130677   3.582   5.077   1.587
 9926SOL    HW230678   3.635   5.216   1.655
 9927SOL     OW30679   5.224   0.558   3.965
 9927SOL    HW130680   5.181   0.647   3.977
 9927SOL    HW230681   5.275   0.557   3.878
 9928SOL     OW30682   5.107   4.300   2.394
 9928SOL    HW130683   5.036   4.350   2.345
 9928SOL    HW230684   5.150   4.234   2.333
 9929SOL     OW30685   0.922   4.175   3.349
 9929SOL    HW130686   1.021   4.185   3.337
 9929SOL    HW230687   0.903   4.093   3.402
 9930SOL     OW30688   5.388   0.668   2.657
 9930SOL    HW130689   5.450   0.687   2.733
 9930SOL    HW230690   5.412   0.580   2.615
 9931SOL     OW30691   1.535   5.600   5.465
 9931SOL    HW130692   1.540   5.510   5.424
 9931SOL    HW230693   1.494   5.593   5.556
 9932SOL     OW30694   0.220   5.826   4.481
 9932SOL    HW130695   0.156   5.898   4.456
 9932SOL    HW230696   0.170   5.740   4.495
 9933SOL     OW30697   6.508   6.706   2.765
 9933SOL    HW130698   6.424   6.656   2.745
 9933SOL    HW230699   6.585   6.660   2.722
 9934SOL     OW30700   0.059   2.592   4.710
 9934SOL    HW130701   0.108   2.657   4.769
 9934SOL    HW230702   0.012   2.642   4.638
 9935SOL     OW30703   1.950   0.370   5.748
 9935SOL    HW130704   1.966   0.332   5.657
 9935SOL    HW230705   1.860   0.413   5.751
 9936SOL     OW30706   1.907   4.635   3.747
 9936SOL    HW130707   1.821   4.603   3.708
 9936SOL    HW230708   1.901   4.638   3.846
 9937SOL     OW30709   6.594   2.675   5.728
 9937SOL    HW130710   6.529   2.602   5.705
 9937SOL    HW230711   6.673   2.669   5.666
 9938SOL     OW30712   6.531   6.047   2.748
 9938SOL    HW130713   6.591   6.126   2.756
 9938SOL    HW230714   6.462   6.064   2.678
 9939SOL     OW30715   3.317   3.131   3.549
 9939SOL    HW130716   3.359   3.091   3.468
 9939SOL    HW230717   3.386   3.142   3.621
 9940SOL     OW30718   0.333   1.105   0.998
 9940SOL    HW130719   0.433   1.101   1.003
 9940SOL    HW230720   0.306   1.174   0.931
 9941SOL     OW30721   3.558   5.880   5.280
 9941SOL    HW130722   3.569   5.791   5.234
 9941SOL    HW230723   3.640   5.935   5.266
 9942SOL     OW30724   2.677   6.229   4.035
 9942SOL    HW130725   2.649   6.220   4.131
 9942SOL    HW230726   2.701   6.139   3.998
 9943SOL     OW30727   0.584   6.502   4.614
 9943SOL    HW130728   0.648   6.548   4.676
 9943SOL    HW230729   0.633   6.466   4.535
 9944SOL     OW30730   1.734   4.715   5.858
 9944SOL    HW130731   1.826   4.752   5.847
 9944SOL    HW230732   1.706   4.669   5.774
 9945SOL     OW30733   0.250   5.529   6.511
 9945SOL    HW130734   0.181   5.521   6.439
 9945SOL    HW230735   0.319   5.596   6.483
 9946SOL     OW30736   5.427   0.595   3.765
 9946SOL    HW130737   5.430   0.569   3.668
 9946SOL    HW230738   5.454   0.691   3.774
 9947SOL     OW30739   6.185   4.198   3.897
 9947SOL    HW130740   6.120   4.229   3.966
 9947SOL    HW230741   6.202   4.100   3.908
 9948SOL     OW30742   5.380   4.226   3.525
 9948SOL    HW130743   5.398   4.127   3.525
 9948SOL    HW230744   5.286   4.243   3.496
 9949SOL     OW30745   6.228   4.752   1.822
 9949SOL    HW130746   6.212   4.673   1.881
 9949SOL    HW230747   6.142   4.780   1.779
 9950SOL     OW30748   3.973   6.330   0.156
 9950SOL    HW130749   3.905   6.364   0.221
 9950SOL    HW230750   4.051   6.294   0.205
 9951SOL     OW30751   5.862   3.021   2.778
 9951SOL    HW130752   5.866   2.924   2.799
 9951SOL    HW230753   5.949   3.064   2.802
 9952SOL     OW30754   0.864   4.619   6.106
 9952SOL    HW130755   0.772   4.649   6.134
 9952SOL    HW230756   0.863   4.593   6.010
 9953SOL     OW30757   5.648   3.040   3.640
 9953SOL    HW130758   5.730   3.033   3.697
 9953SOL    HW230759   5.660   3.115   3.574
 9954SOL     OW30760   5.262   1.014   4.949
 9954SOL    HW130761   5.272   1.070   4.866
 9954SOL    HW230762   5.169   0.977   4.953
 9955SOL     OW30763   0.697   5.071   4.735
 9955SOL    HW130764   0.774   5.042   4.793
 9955SOL    HW230765   0.698   5.170   4.724
 9956SOL     OW30766   0.750   5.876   0.168
 9956SOL    HW130767   0.699   5.835   0.244
 9956SOL    HW230768   0.732   5.975   0.166
 9957SOL     OW30769   5.793   5.709   2.270
 9957SOL    HW130770   5.768   5.774   2.197
 9957SOL    HW230771   5.868   5.747   2.324
 9958SOL     OW30772   3.050   4.569   0.583
 9958SOL    HW130773   3.095   4.486   0.552
 9958SOL    HW230774   3.058   4.577   0.682
 9959SOL     OW30775   3.586   4.094   1.124
 9959SOL    HW130776   3.577   4.001   1.162
 9959SOL    HW230777   3.581   4.089   1.024
 9960SOL     OW30778   0.771   0.980   2.289
 9960SOL    HW130779   0.809   0.905   2.234
 9960SOL    HW230780   0.842   1.049   2.304
 9961SOL     OW30781   1.831   4.328   4.458
 9961SOL    HW130782   1.839   4.333   4.358
 9961SOL    HW230783   1.902   4.268   4.494
 9962SOL     OW30784   6.230   6.552   4.476
 9962SOL    HW130785   6.266   6.641   4.447
 9962SOL    HW230786   6.303   6.498   4.519
 9963SOL     OW30787   3.334   2.171   0.371
 9963SOL    HW130788   3.261   2.154   0.304
 9963SOL    HW230789   3.423   2.164   0.326
 9964SOL     OW30790   5.560   6.299   4.393
 9964SOL    HW130791   5.592   6.255   4.476
 9964SOL    HW230792   5.461   6.284   4.383
 9965SOL     OW30793   4.809   0.162   1.967
 9965SOL    HW130794   4.834   0.211   1.884
 9965SOL    HW230795   4.793   0.065   1.946
 9966SOL     OW30796   6.956   1.298   2.583
 9966SOL    HW130797   6.881   1.362   2.567
 9966SOL    HW230798   6.965   1.280   2.681
 9967SOL     OW30799   0.851   5.429   0.569
 9967SOL    HW130800   0.779   5.415   0.501
 9967SOL    HW230801   0.912   5.350   0.570
 9968SOL     OW30802   3.465   2.936   2.933
 9968SOL    HW130803   3.438   2.957   2.839
 9968SOL    HW230804   3.387   2.946   2.994
 9969SOL     OW30805   1.462   3.304   0.850
 9969SOL    HW130806   1.390   3.245   0.888
 9969SOL    HW230807   1.475   3.281   0.753
 9970SOL     OW30808   6.821   4.371   2.751
 9970SOL    HW130809   6.773   4.451   2.713
 9970SOL    HW230810   6.762   4.326   2.818
 9971SOL     OW30811   2.692   6.793   0.013
 9971SOL    HW130812   2.636   6.873   7.007
 9971SOL    HW230813   2.633   6.714   0.026
 9972SOL     OW30814   6.825   4.985   1.767
 9972SOL    HW130815   6.796   4.889   1.761
 9972SOL    HW230816   6.868   5.000   1.856
 9973SOL     OW30817   5.192   6.559   3.966
 9973SOL    HW130818   5.196   6.659   3.975
 9973SOL    HW230819   5.233   6.517   4.048
 9974SOL     OW30820   2.787   1.130   4.070
 9974SOL    HW130821   2.697   1.174   4.070
 9974SOL    HW230822   2.777   1.034   4.045
 9975SOL     OW30823   6.442   3.909   1.549
 9975SOL    HW130824   6.419   4.006   1.563
 9975SOL    HW230825   6.459   3.892   1.452
 9976SOL     OW30826   3.054   6.171   4.580
 9976SOL    HW130827   2.977   6.153   4.641
 9976SOL    HW230828   3.082   6.086   4.535
 9977SOL     OW30829   6.469   4.729   4.067
 9977SOL    HW130830   6.412   4.809   4.049
 9977SOL    HW230831   6.414   4.659   4.114
 9978SOL     OW30832   0.056   3.184   4.405
 9978SOL    HW130833   0.043   3.115   4.334
 9978SOL    HW230834   0.154   3.203   4.415
 9979SOL     OW30835   1.095   3.363   5.257
 9979SOL    HW130836   1.081   3.349   5.355
 9979SOL    HW230837   1.062   3.453   5.231
 9980SOL     OW30838   3.100   6.524   5.606
 9980SOL    HW130839   3.077   6.618   5.580
 9980SOL    HW230840   3.017   6.476   5.633
 9981SOL     OW30841   3.256   1.610   3.224
 9981SOL    HW130842   3.347   1.569   3.237
 9981SOL    HW230843   3.240   1.626   3.127
 9982SOL     OW30844   6.164   6.969   2.721
 9982SOL    HW130845   6.163   0.014   2.642
 9982SOL    HW230846   6.075   6.924   2.729
 9983SOL     OW30847   6.602   0.646   0.972
 9983SOL    HW130848   6.699   0.657   0.953
 9983SOL    HW230849   6.571   0.557   0.938
 9984SOL     OW30850   3.187   0.516   6.838
 9984SOL    HW130851   3.177   0.441   6.903
 9984SOL    HW230852   3.133   0.595   6.870
 9985SOL     OW30853   1.672   1.940   0.770
 9985SOL    HW130854   1.695   1.893   0.684
 9985SOL    HW230855   1.689   1.879   0.847
 9986SOL     OW30856   5.060   4.007   5.134
 9986SOL    HW130857   5.133   3.962   5.083
 9986SOL    HW230858   4.989   3.939   5.156
 9987SOL     OW30859   0.220   4.453   4.863
 9987SOL    HW130860   0.222   4.398   4.780
 9987SOL    HW230861   0.228   4.393   4.943
 9988SOL     OW30862   6.237   1.138   4.148
 9988SOL    HW130863   6.156   1.185   4.113
 9988SOL    HW230864   6.307   1.206   4.170
 9989SOL     OW30865   1.657   2.640   5.139
 9989SOL    HW130866   1.693   2.559   5.186
 9989SOL    HW230867   1.571   2.667   5.182
 9990SOL     OW30868   0.950   4.403   1.187
 9990SOL    HW130869   0.892   4.322   1.190
 9990SOL    HW230870   0.917   4.465   1.115
 9991SOL     OW30871   3.914   2.092   3.556
 9991SOL    HW130872   3.879   2.135   3.640
 9991SOL    HW230873   3.840   2.087   3.489
 9992SOL     OW30874   6.474   5.003   6.315
 9992SOL    HW130875   6.425   4.922   6.280
 9992SOL    HW230876   6.572   4.991   6.301
 9993SOL     OW30877   1.450   1.141   1.791
 9993SOL    HW130878   1.550   1.149   1.780
 9993SOL    HW230879   1.414   1.081   1.721
 9994SOL     OW30880   5.911   4.481   3.327
 9994SOL    HW130881   5.825   4.448   3.366
 9994SOL    HW230882   5.905   4.477   3.227
 9995SOL     OW30883   5.258   1.622   4.446
 9995SOL    HW130884   5.277   1.531   4.482
 9995SOL    HW230885   5.344   1.671   4.433
 9996SOL     OW30886   3.230   2.908   1.076
 9996SOL    HW130887   3.175   2.865   1.005
 9996SOL    HW230888   3.289   2.977   1.034
 9997SOL     OW30889   2.607   0.792   4.546
 9997SOL    HW130890   2.598   0.883   4.507
 9997SOL    HW230891   2.682   0.744   4.501
 9998SOL     OW30892   6.246   6.270   5.342
 9998SOL    HW130893   6.218   6.364   5.326
 9998SOL    HW230894   6.340   6.257   5.308
 9999SOL     OW30895   0.561   0.712   5.221
 9999SOL    HW130896   0.542   0.618   5.249
 9999SOL    HW230897   0.474   0.762   5.213
10000SOL     OW30898   6.542   5.080   0.753
10000SOL    HW130899   6.505   5.172   0.736
10000SOL    HW230900   6.467   5.016   0.765
10001SOL     OW30901   3.610   0.573   3.650
10001SOL    HW130902   3.600   0.491   3.707
10001SOL    HW230903   3.693   0.622   3.676
10002SOL     OW30904   1.257   2.213   1.745
10002SOL    HW130905   1.226   2.158   1.823
10002SOL    HW230906   1.293   2.300   1.779
10003SOL     OW30907   5.466   3.564   1.178
10003SOL    HW130908   5.371   3.576   1.208
10003SOL    HW230909   5.469   3.501   1.101
10004SOL     OW30910   6.039   3.602   4.342
10004SOL    HW130911   6.076   3.511   4.365
10004SOL    HW230912   5.947   3.611   4.380
10005SOL     OW30913   4.703   6.733   3.221
10005SOL    HW130914   4.638   6.769   3.287
10005SOL    HW230915   4.775   6.801   3.205
10006SOL     OW30916   5.298   2.760   4.193
10006SOL    HW130917   5.306   2.694   4.119
10006SOL    HW230918   5.383   2.813   4.199
10007SOL     OW30919   5.050   5.662   3.872
10007SOL    HW130920   5.030   5.691   3.779
10007SOL    HW230921   5.028   5.736   3.936
10008SOL     OW30922   2.401   6.429   4.355
10008SOL    HW130923   2.480   6.371   4.340
10008SOL    HW230924   2.414   6.484   4.438
10009SOL     OW30925   2.352   4.328   1.722
10009SOL    HW130926   2.315   4.332   1.629
10009SOL    HW230927   2.433   4.385   1.729
10010SOL     OW30928   5.246   0.453   5.396
10010SOL    HW130929   5.214   0.514   5.323
10010SOL    HW230930   5.289   0.507   5.468
10011SOL     OW30931   6.155   6.864   3.499
10011SOL    HW130932   6.169   6.931   3.426
10011SOL    HW230933   6.239   6.811   3.512
10012SOL     OW30934   4.905   1.714   4.957
10012SOL    HW130935   4.914   1.738   5.054
10012SOL    HW230936   4.850   1.630   4.949
10013SOL     OW30937   1.680   0.867   1.280
10013SOL    HW130938   1.583   0.843   1.272
10013SOL    HW230939   1.693   0.928   1.358
10014SOL     OW30940   1.341   4.905   5.739
10014SOL    HW130941   1.265   4.943   5.793
10014SOL    HW230942   1.314   4.899   5.643
10015SOL     OW30943   2.584   5.804   6.459
10015SOL    HW130944   2.612   5.892   6.496
10015SOL    HW230945   2.485   5.803   6.447
10016SOL     OW30946   2.457   1.510   4.990
10016SOL    HW130947   2.547   1.521   4.949
10016SOL    HW230948   2.397   1.459   4.927
10017SOL     OW30949   6.295   1.933   2.979
10017SOL    HW130950   6.252   1.854   2.936
10017SOL    HW230951   6.395   1.925   2.971
10018SOL     OW30952   4.235   6.934   5.828
10018SOL    HW130953   4.229   6.900   5.734
10018SOL    HW230954   4.143   6.938   5.868
10019SOL     OW30955   0.489   0.727   3.590
10019SOL    HW130956   0.552   0.786   3.641
10019SOL    HW230957   0.538   0.687   3.513
10020SOL     OW30958   1.145   3.858   0.427
10020SOL    HW130959   1.054   3.827   0.455
10020SOL    HW230960   1.135   3.934   0.362
10021SOL     OW30961   5.124   2.764   1.108
10021SOL    HW130962   5.186   2.729   1.178
10021SOL    HW230963   5.176   2.813   1.039
10022SOL     OW30964   2.517   1.261   5.909
10022SOL    HW130965   2.585   1.272   5.836
10022SOL    HW230966   2.524   1.169   5.947
10023SOL     OW30967   0.859   3.180   0.320
10023SOL    HW130968   0.765   3.153   0.301
10023SOL    HW230969   0.888   3.251   0.256
10024SOL     OW30970   0.619   3.735   2.349
10024SOL    HW130971   0.588   3.802   2.416
10024SOL    HW230972   0.541   3.678   2.321
10025SOL     OW30973   1.582   1.551   0.729
10025SOL    HW130974   1.602   1.584   0.637
10025SOL    HW230975   1.491   1.509   0.731
10026SOL     OW30976   5.906   0.544   4.208
10026SOL    HW130977   5.843   0.502   4.273
10026SOL    HW230978   6.000   0.522   4.234
10027SOL     OW30979   6.234   2.785   5.965
10027SOL    HW130980   6.280   2.863   6.007
10027SOL    HW230981   6.233   2.708   6.030
10028SOL     OW30982   1.384   1.807   1.248
10028SOL    HW130983   1.391   1.890   1.192
10028SOL    HW230984   1.323   1.824   1.325
10029SOL     OW30985   3.712   1.445   4.847
10029SOL    HW130986   3.697   1.346   4.846
10029SOL    HW230987   3.729   1.476   4.940
10030SOL     OW30988   0.929   1.160   1.680
10030SOL    HW130989   1.010   1.170   1.622
10030SOL    HW230990   0.862   1.102   1.634
10031SOL     OW30991   0.277   5.374   3.052
10031SOL    HW130992   0.372   5.407   3.052
10031SOL    HW230993   0.232   5.404   3.136
10032SOL     OW30994   3.808   2.175   5.229
10032SOL    HW130995   3.895   2.180   5.181
10032SOL    HW230996   3.744   2.120   5.175
10033SOL     OW30997   6.214   2.993   4.104
10033SOL    HW130998   6.221   2.968   4.201
10033SOL    HW230999   6.141   3.061   4.093
10034SOL     OW31000   3.958   6.767   6.004
10034SOL    HW131001   4.031   6.708   6.041
10034SOL    HW231002   3.915   6.721   5.926
10035SOL     OW31003   0.130   6.144   4.116
10035SOL    HW131004   0.167   6.065   4.165
10035SOL    HW231005   0.185   6.161   4.034
10036SOL     OW31006   6.340   0.016   0.013
10036SOL    HW131007   6.291   6.945   0.010
10036SOL    HW231008   6.359   0.041   0.108
10037SOL     OW31009   6.930   0.430   1.559
10037SOL    HW131010   6.935   0.384   1.648
10037SOL    HW231011   6.908   0.364   1.488
10038SOL     OW31012   5.704   0.066   1.403
10038SOL    HW131013   5.734   0.097   1.312
10038SOL    HW231014   5.636   7.010   1.392
10039SOL     OW31015   3.685   0.864   2.946
10039SOL    HW131016   3.701   0.859   3.044
10039SOL    HW231017   3.656   0.775   2.912
10040SOL     OW31018   0.982   1.514   0.473
10040SOL    HW131019   1.020   1.490   0.563
10040SOL    HW231020   0.945   1.607   0.475
10041SOL     OW31021   0.537   6.621   0.193
10041SOL    HW131022   0.540   6.714   0.230
10041SOL    HW231023   0.472   6.618   0.117
10042SOL     OW31024   6.577   1.876   4.363
10042SOL    HW131025   6.586   1.909   4.269
10042SOL    HW231026   6.509   1.931   4.411
10043SOL     OW31027   2.345   3.260   5.352
10043SOL    HW131028   2.246   3.246   5.364
10043SOL    HW231029   2.384   3.182   5.304
10044SOL     OW31030   3.998   0.706   6.020
10044SOL    HW131031   3.918   0.739   6.069
10044SOL    HW231032   3.975   0.620   5.974
10045SOL     OW31033   2.705   0.169   1.300
10045SOL    HW131034   2.781   0.104   1.309
10045SOL    HW231035   2.668   0.190   1.390
10046SOL     OW31036   0.706   6.559   6.969
10046SOL    HW131037   0.762   6.632   7.008
10046SOL    HW231038   0.646   6.522   0.024
10047SOL     OW31039   1.682   4.214   1.197
10047SOL    HW131040   1.615   4.287   1.189
10047SOL    HW231041   1.639   4.126   1.177
10048SOL     OW31042   6.752   3.208   1.072
10048SOL    HW131043   6.812   3.213   0.993
10048SOL    HW231044   6.656   3.207   1.042
10049SOL     OW31045   6.611   2.107   4.605
10049SOL    HW131046   6.621   2.187   4.546
10049SOL    HW231047   6.700   2.067   4.623
10050SOL     OW31048   0.309   1.799   6.046
10050SOL    HW131049   0.404   1.827   6.034
10050SOL    HW231050   0.249   1.860   5.994
10051SOL     OW31051   1.572   0.525   2.345
10051SOL    HW131052   1.550   0.512   2.442
10051SOL    HW231053   1.665   0.494   2.327
10052SOL     OW31054   0.844   0.071   4.609
10052SOL    HW131055   0.841   0.070   4.509
10052SOL    HW231056   0.803   0.156   4.642
10053SOL     OW31057   5.911   5.551   2.013
10053SOL    HW131058   5.901   5.498   2.098
10053SOL    HW231059   5.909   5.489   1.935
10054SOL     OW31060   4.765   4.575   3.521
10054SOL    HW131061   4.695   4.573   3.592
10054SOL    HW231062   4.774   4.669   3.486
10055SOL     OW31063   2.136   1.618   6.616
10055SOL    HW131064   2.128   1.549   6.544
10055SOL    HW231065   2.087   1.701   6.588
10056SOL     OW31066   4.874   3.096   4.572
10056SOL    HW131067   4.832   3.084   4.483
10056SOL    HW231068   4.865   3.012   4.625
10057SOL     OW31069   5.888   4.147   5.033
10057SOL    HW131070   5.944   4.162   4.952
10057SOL    HW231071   5.895   4.051   5.060
10058SOL     OW31072   5.621   3.785   4.047
10058SOL    HW131073   5.665   3.696   4.044
10058SOL    HW231074   5.522   3.773   4.056
10059SOL     OW31075   5.385   6.518   6.101
10059SOL    HW131076   5.351   6.466   6.180
10059SOL    HW231077   5.469   6.477   6.067
10060SOL     OW31078   3.449   1.222   1.953
10060SOL    HW131079   3.417   1.312   1.984
10060SOL    HW231080   3.542   1.207   1.985
10061SOL     OW31081   3.994   0.269   3.117
10061SOL    HW131082   3.964   0.186   3.070
10061SOL    HW231083   3.915   0.315   3.158
10062SOL     OW31084   6.164   6.760   4.154
10062SOL    HW131085   6.174   6.843   4.209
10062SOL    HW231086   6.223   6.767   4.073
10063SOL     OW31087   4.176   2.306   2.535
10063SOL    HW131088   4.249   2.374   2.528
10063SOL    HW231089   4.106   2.325   2.466
10064SOL     OW31090   1.926   6.332   2.242
10064SOL    HW131091   1.925   6.273   2.162
10064SOL    HW231092   2.015   6.325   2.287
10065SOL     OW31093   6.531   1.847   1.199
10065SOL    HW131094   6.589   1.926   1.177
10065SOL    HW231095   6.436   1.877   1.209
10066SOL     OW31096   5.980   4.245   3.667
10066SOL    HW131097   6.058   4.246   3.605
10066SOL    HW231098   5.998   4.182   3.743
10067SOL     OW31099   5.656   3.317   5.322
10067SOL    HW131100   5.629   3.230   5.278
10067SOL    HW231101   5.665   3.303   5.420
10068SOL     OW31102   2.078   4.420   2.981
10068SOL    HW131103   2.061   4.373   2.894
10068SOL    HW231104   1.991   4.434   3.029
10069SOL     OW31105   3.073   5.445   1.099
10069SOL    HW131106   3.075   5.398   1.011
10069SOL    HW231107   3.152   5.416   1.154
10070SOL     OW31108   5.251   0.593   0.075
10070SOL    HW131109   5.338   0.630   0.106
10070SOL    HW231110   5.262   0.553   7.000
10071SOL     OW31111   5.443   1.324   4.585
10071SOL    HW131112   5.468   1.420   4.597
10071SOL    HW231113   5.452   1.299   4.488
10072SOL     OW31114   5.834   3.249   1.555
10072SOL    HW131115   5.783   3.265   1.639
10072SOL    HW231116   5.780   3.193   1.493
10073SOL     OW31117   5.465   5.358   5.432
10073SOL    HW131118   5.417   5.439   5.399
10073SOL    HW231119   5.550   5.346   5.380
10074SOL     OW31120   2.187   4.598   1.357
10074SOL    HW131121   2.116   4.667   1.370
10074SOL    HW231122   2.177   4.526   1.425
10075SOL     OW31123   0.684   3.553   1.652
10075SOL    HW131124   0.662   3.472   1.705
10075SOL    HW231125   0.713   3.526   1.560
10076SOL     OW31126   6.129   4.929   3.935
10076SOL    HW131127   6.227   4.944   3.949
10076SOL    HW231128   6.107   4.943   3.838
10077SOL     OW31129   4.205   3.898   0.014
10077SOL    HW131130   4.231   3.984   6.985
10077SOL    HW231131   4.178   3.917   0.109
10078SOL     OW31132   5.903   6.285   3.678
10078SOL    HW131133   5.818   6.253   3.635
10078SOL    HW231134   5.971   6.304   3.606
10079SOL     OW31135   6.015   4.981   3.262
10079SOL    HW131136   6.111   5.003   3.247
10079SOL    HW231137   6.008   4.898   3.319
10080SOL     OW31138   5.251   2.986   4.399
10080SOL    HW131139   5.214   3.013   4.310
10080SOL    HW231140   5.200   2.907   4.434
10081SOL     OW31141   1.611   5.202   0.971
10081SOL    HW131142   1.525   5.169   1.011
10081SOL    HW231143   1.600   5.211   0.872
10082SOL     OW31144   6.635   4.253   2.051
10082SOL    HW131145   6.707   4.240   2.119
10082SOL    HW231146   6.656   4.201   1.969
10083SOL     OW31147   3.147   5.602   2.502
10083SOL    HW131148   3.122   5.570   2.593
10083SOL    HW231149   3.135   5.701   2.496
10084SOL     OW31150   1.842   4.044   4.302
10084SOL    HW131151   1.750   4.080   4.284
10084SOL    HW231152   1.873   4.078   4.391
10085SOL     OW31153   3.414   6.626   1.759
10085SOL    HW131154   3.417   6.537   1.714
10085SOL    HW231155   3.495   6.679   1.733
10086SOL     OW31156   2.472   1.057   2.835
10086SOL    HW131157   2.451   1.154   2.843
10086SOL    HW231158   2.413   1.005   2.897
10087SOL     OW31159   1.471   5.452   0.040
10087SOL    HW131160   1.544   5.470   6.990
10087SOL    HW231161   1.464   5.354   0.058
10088SOL     OW31162   5.340   1.860   0.754
10088SOL    HW131163   5.356   1.954   0.723
10088SOL    HW231164   5.360   1.854   0.852
10089SOL     OW31165   3.458   6.980   3.537
10089SOL    HW131166   3.516   6.953   3.615
10089SOL    HW231167   3.378   6.921   3.533
10090SOL     OW31168   3.376   6.084   3.186
10090SOL    HW131169   3.311   6.156   3.207
10090SOL    HW231170   3.465   6.106   3.227
10091SOL     OW31171   4.638   6.111   3.513
10091SOL    HW131172   4.659   6.158   3.598
10091SOL    HW231173   4.580   6.031   3.532
10092SOL     OW31174   6.108   1.132   1.912
10092SOL    HW131175   6.189   1.147   1.970
10092SOL    HW231176   6.034   1.192   1.943
10093SOL     OW31177   4.287   4.262   6.150
10093SOL    HW131178   4.308   4.173   6.109
10093SOL    HW231179   4.305   4.334   6.083
10094SOL     OW31180   4.352   3.149   0.059
10094SOL    HW131181   4.346   3.054   0.029
10094SOL    HW231182   4.327   3.210   7.000
10095SOL     OW31183   4.292   2.720   5.284
10095SOL    HW131184   4.245   2.648   5.232
10095SOL    HW231185   4.389   2.698   5.290
10096SOL     OW31186   6.201   4.816   1.514
10096SOL    HW131187   6.192   4.717   1.509
10096SOL    HW231188   6.234   4.843   1.604
10097SOL     OW31189   0.544   0.462   0.942
10097SOL    HW131190   0.498   0.487   1.027
10097SOL    HW231191   0.632   0.509   0.936
10098SOL     OW31192   3.807   4.680   0.676
10098SOL    HW131193   3.768   4.662   0.767
10098SOL    HW231194   3.768   4.765   0.639
10099SOL     OW31195   0.412   6.378   2.731
10099SOL    HW131196   0.407   6.325   2.816
10099SOL    HW231197   0.485   6.446   2.739
10100SOL     OW31198   5.735   5.689   3.950
10100SOL    HW131199   5.818   5.726   3.992
10100SOL    HW231200   5.671   5.763   3.930
10101SOL     OW31201   6.923   2.381   6.251
10101SOL    HW131202   6.846   2.432   6.290
10101SOL    HW231203   6.976   2.338   6.325
10102SOL     OW31204   6.961   5.180   3.993
10102SOL    HW131205   0.018   5.156   3.930
10102SOL    HW231206   7.002   5.212   4.079
10103SOL     OW31207   0.710   0.554   6.605
10103SOL    HW131208   0.727   0.579   6.700
10103SOL    HW231209   0.699   0.455   6.597
10104SOL     OW31210   3.090   1.507   4.322
10104SOL    HW131211   2.990   1.511   4.325
10104SOL    HW231212   3.128   1.586   4.371
10105SOL     OW31213   3.588   1.411   4.444
10105SOL    HW131214   3.550   1.348   4.511
10105SOL    HW231215   3.613   1.496   4.489
10106SOL     OW31216   6.955   3.555   1.996
10106SOL    HW131217   0.006   3.486   1.970
10106SOL    HW231218   6.864   3.513   2.001
10107SOL     OW31219   4.700   5.779   4.936
10107SOL    HW131220   4.753   5.834   5.001
10107SOL    HW231221   4.623   5.736   4.983
10108SOL     OW31222   3.414   2.008   4.748
10108SOL    HW131223   3.357   2.065   4.688
10108SOL    HW231224   3.394   2.030   4.844
10109SOL     OW31225   1.320   2.899   0.860
10109SOL    HW131226   1.383   2.829   0.826
10109SOL    HW231227   1.236   2.898   0.805
10110SOL     OW31228   6.369   6.144   1.725
10110SOL    HW131229   6.420   6.144   1.639
10110SOL    HW231230   6.424   6.186   1.797
10111SOL     OW31231   6.444   2.305   1.576
10111SOL    HW131232   6.502   2.225   1.563
10111SOL    HW231233   6.361   2.278   1.624
10112SOL     OW31234   7.001   3.084   3.664
10112SOL    HW131235   6.984   3.164   3.606
10112SOL    HW231236   0.001   3.114   3.758
10113SOL     OW31237   6.816   6.473   5.919
10113SOL    HW131238   6.901   6.515   5.885
10113SOL    HW231239   6.838   6.406   5.990
10114SOL     OW31240   6.145   4.284   1.510
10114SOL    HW131241   6.240   4.255   1.519
10114SOL    HW231242   6.084   4.208   1.532
10115SOL     OW31243   2.608   1.763   6.806
10115SOL    HW131244   2.520   1.765   6.759
10115SOL    HW231245   2.682   1.760   6.739
10116SOL     OW31246   1.151   0.176   6.034
10116SOL    HW131247   1.086   0.208   5.966
10116SOL    HW231248   1.205   0.101   5.996
10117SOL     OW31249   0.813   4.568   0.989
10117SOL    HW131250   0.813   4.651   1.045
10117SOL    HW231251   0.852   4.588   0.899
10118SOL     OW31252   3.876   5.682   3.257
10118SOL    HW131253   3.834   5.622   3.190
10118SOL    HW231254   3.827   5.769   3.260
10119SOL     OW31255   5.914   5.404   6.771
10119SOL    HW131256   5.932   5.322   6.824
10119SOL    HW231257   5.952   5.484   6.818
10120SOL     OW31258   2.409   2.202   2.543
10120SOL    HW131259   2.504   2.178   2.523
10120SOL    HW231260   2.365   2.126   2.592
10121SOL     OW31261   6.409   5.901   1.994
10121SOL    HW131262   6.334   5.887   1.930
10121SOL    HW231263   6.373   5.915   2.086
10122SOL     OW31264   1.782   6.981   4.052
10122SOL    HW131265   1.876   6.985   4.085
10122SOL    HW231266   1.774   0.015   3.965
10123SOL     OW31267   6.071   6.152   6.728
10123SOL    HW131268   6.126   6.084   6.680
10123SOL    HW231269   6.044   6.224   6.665
10124SOL     OW31270   0.310   4.888   3.316
10124SOL    HW131271   0.266   4.923   3.398
10124SOL    HW231272   0.408   4.876   3.333
10125SOL     OW31273   2.324   2.582   3.904
10125SOL    HW131274   2.242   2.640   3.909
10125SOL    HW231275   2.378   2.594   3.987
10126SOL     OW31276   6.846   6.168   4.735
10126SOL    HW131277   6.828   6.228   4.657
10126SOL    HW231278   6.858   6.074   4.703
10127SOL     OW31279   2.396   0.681   5.228
10127SOL    HW131280   2.483   0.713   5.265
10127SOL    HW231281   2.321   0.726   5.276
10128SOL     OW31282   3.215   0.501   0.580
10128SOL    HW131283   3.215   0.512   0.679
10128SOL    HW231284   3.151   0.566   0.539
10129SOL     OW31285   6.871   2.391   5.724
10129SOL    HW131286   6.916   2.480   5.734
10129SOL    HW231287   6.909   2.343   5.645
10130SOL     OW31288   0.572   2.788   3.354
10130SOL    HW131289   0.591   2.885   3.370
10130SOL    HW231290   0.517   2.752   3.429
10131SOL     OW31291   2.454   0.780   4.780
10131SOL    HW131292   2.453   0.820   4.688
10131SOL    HW231293   2.443   0.680   4.773
10132SOL     OW31294   5.835   0.972   2.022
10132SOL    HW131295   5.897   0.911   1.974
10132SOL    HW231296   5.832   1.061   1.975
10133SOL     OW31297   4.785   5.378   1.365
10133SOL    HW131298   4.844   5.424   1.299
10133SOL    HW231299   4.793   5.279   1.355
10134SOL     OW31300   6.305   1.025   2.741
10134SOL    HW131301   6.347   0.971   2.814
10134SOL    HW231302   6.345   1.000   2.653
10135SOL     OW31303   5.828   6.651   3.262
10135SOL    HW131304   5.831   6.663   3.163
10135SOL    HW231305   5.737   6.677   3.296
10136SOL     OW31306   5.163   0.225   3.164
10136SOL    HW131307   5.231   0.299   3.159
10136SOL    HW231308   5.210   0.137   3.159
10137SOL     OW31309   6.161   5.688   2.059
10137SOL    HW131310   6.070   5.649   2.074
10137SOL    HW231311   6.183   5.684   1.962
10138SOL     OW31312   0.613   1.277   1.719
10138SOL    HW131313   0.562   1.214   1.777
10138SOL    HW231314   0.685   1.320   1.772
10139SOL     OW31315   4.361   2.285   0.475
10139SOL    HW131316   4.340   2.259   0.569
10139SOL    HW231317   4.348   2.384   0.465
10140SOL     OW31318   6.103   6.613   3.356
10140SOL    HW131319   6.016   6.606   3.309
10140SOL    HW231320   6.117   6.707   3.387
10141SOL     OW31321   0.742   1.649   5.584
10141SOL    HW131322   0.714   1.636   5.489
10141SOL    HW231323   0.741   1.746   5.606
10142SOL     OW31324   3.863   5.955   1.742
10142SOL    HW131325   3.917   5.903   1.677
10142SOL    HW231326   3.856   6.050   1.713
10143SOL     OW31327   0.556   3.430   6.458
10143SOL    HW131328   0.590   3.503   6.398
10143SOL    HW231329   0.601   3.437   6.547
10144SOL     OW31330   4.723   0.010   2.855
10144SOL    HW131331   4.719   0.103   2.819
10144SOL    HW231332   4.719   0.012   2.954
10145SOL     OW31333   6.168   1.201   5.141
10145SOL    HW131334   6.180   1.186   5.043
10145SOL    HW231335   6.125   1.290   5.157
10146SOL     OW31336   1.836   1.088   5.534
10146SOL    HW131337   1.768   1.018   5.557
10146SOL    HW231338   1.792   1.177   5.528
10147SOL     OW31339   4.099   4.647   6.749
10147SOL    HW131340   4.175   4.711   6.748
10147SOL    HW231341   4.134   4.554   6.765
10148SOL     OW31342   6.500   5.672   6.344
10148SOL    HW131343   6.513   5.619   6.260
10148SOL    HW231344   6.490   5.769   6.322
10149SOL     OW31345   3.449   2.919   4.597
10149SOL    HW131346   3.401   2.894   4.681
10149SOL    HW231347   3.542   2.883   4.600
10150SOL     OW31348   6.627   4.153   6.738
10150SOL    HW131349   6.564   4.109   6.674
10150SOL    HW231350   6.584   4.158   6.828
10151SOL     OW31351   0.361   0.429   6.983
10151SOL    HW131352   0.431   0.382   6.929
10151SOL    HW231353   0.330   0.511   6.934
10152SOL     OW31354   3.442   6.978   4.073
10152SOL    HW131355   3.363   0.024   4.073
10152SOL    HW231356   3.419   6.895   4.022
10153SOL     OW31357   4.015   4.634   0.349
10153SOL    HW131358   3.967   4.570   0.289
10153SOL    HW231359   4.110   4.642   0.320
10154SOL     OW31360   4.616   4.972   6.292
10154SOL    HW131361   4.546   5.041   6.306
10154SOL    HW231362   4.625   4.951   6.195
10155SOL     OW31363   4.757   2.905   4.754
10155SOL    HW131364   4.811   2.909   4.838
10155SOL    HW231365   4.660   2.893   4.777
10156SOL     OW31366   3.162   1.876   6.512
10156SOL    HW131367   3.232   1.850   6.447
10156SOL    HW231368   3.076   1.831   6.488
10157SOL     OW31369   0.411   5.453   2.651
10157SOL    HW131370   0.510   5.443   2.640
10157SOL    HW231371   0.380   5.536   2.605
10158SOL     OW31372   0.518   4.702   5.921
10158SOL    HW131373   0.551   4.661   6.006
10158SOL    HW231374   0.561   4.657   5.843
10159SOL     OW31375   4.179   3.127   1.815
10159SOL    HW131376   4.118   3.169   1.882
10159SOL    HW231377   4.134   3.048   1.774
10160SOL     OW31378   6.809   4.617   2.519
10160SOL    HW131379   6.739   4.685   2.542
10160SOL    HW231380   6.802   4.594   2.422
10161SOL     OW31381   6.643   2.766   0.153
10161SOL    HW131382   6.715   2.753   0.085
10161SOL    HW231383   6.555   2.782   0.107
10162SOL     OW31384   1.777   2.092   2.568
10162SOL    HW131385   1.869   2.078   2.533
10162SOL    HW231386   1.747   2.185   2.548
10163SOL     OW31387   4.261   5.228   4.444
10163SOL    HW131388   4.254   5.197   4.349
10163SOL    HW231389   4.184   5.287   4.465
10164SOL     OW31390   0.429   1.891   3.479
10164SOL    HW131391   0.485   1.820   3.522
10164SOL    HW231392   0.483   1.939   3.409
10165SOL     OW31393   1.818   3.033   3.592
10165SOL    HW131394   1.818   3.017   3.691
10165SOL    HW231395   1.912   3.027   3.558
10166SOL     OW31396   3.401   6.478   4.182
10166SOL    HW131397   3.396   6.397   4.239
10166SOL    HW231398   3.338   6.548   4.217
10167SOL     OW31399   3.596   2.089   0.300
10167SOL    HW131400   3.671   2.151   0.276
10167SOL    HW231401   3.632   1.996   0.311
10168SOL     OW31402   0.387   1.297   6.467
10168SOL    HW131403   0.308   1.358   6.457
10168SOL    HW231404   0.392   1.236   6.388
10169SOL     OW31405   4.619   4.740   2.462
10169SOL    HW131406   4.700   4.685   2.441
10169SOL    HW231407   4.645   4.813   2.527
10170SOL     OW31408   4.314   0.048   0.150
10170SOL    HW131409   4.389   0.114   0.153
10170SOL    HW231410   4.233   0.090   0.110
10171SOL     OW31411   1.023   5.009   2.865
10171SOL    HW131412   0.927   4.994   2.886
10171SOL    HW231413   1.057   4.934   2.809
10172SOL     OW31414   0.253   6.986   3.502
10172SOL    HW131415   0.159   7.014   3.485
10172SOL    HW231416   0.311   7.013   3.425
10173SOL     OW31417   4.743   2.616   3.621
10173SOL    HW131418   4.671   2.560   3.663
10173SOL    HW231419   4.833   2.579   3.647
10174SOL     OW31420   3.781   5.838   1.100
10174SOL    HW131421   3.873   5.877   1.100
10174SOL    HW231422   3.727   5.879   1.173
10175SOL     OW31423   6.644   0.008   4.843
10175SOL    HW131424   6.691   0.087   4.806
10175SOL    HW231425   6.705   6.973   4.903
10176SOL     OW31426   0.037   1.556   4.792
10176SOL    HW131427   6.994   1.557   4.712
10176SOL    HW231428   0.015   1.477   4.850
10177SOL     OW31429   3.048   0.475   4.783
10177SOL    HW131430   3.131   0.423   4.802
10177SOL    HW231431   3.073   0.567   4.752
10178SOL     OW31432   5.941   1.521   2.074
10178SOL    HW131433   5.950   1.570   1.987
10178SOL    HW231434   5.945   1.586   2.149
10179SOL     OW31435   6.889   6.182   0.975
10179SOL    HW131436   6.939   6.210   1.056
10179SOL    HW231437   6.940   6.112   0.926
10180SOL     OW31438   2.139   0.093   6.075
10180SOL    HW131439   2.137   7.011   6.057
10180SOL    HW231440   2.233   0.127   6.067
10181SOL     OW31441   0.039   4.272   2.600
10181SOL    HW131442   6.996   4.308   2.672
10181SOL    HW231443   0.083   4.347   2.552
10182SOL     OW31444   2.761   6.993   6.601
10182SOL    HW131445   2.681   6.935   6.613
10182SOL    HW231446   2.844   6.940   6.619
10183SOL     OW31447   3.784   6.220   6.602
10183SOL    HW131448   3.752   6.125   6.593
10183SOL    HW231449   3.884   6.222   6.604
10184SOL     OW31450   5.034   2.684   4.210
10184SOL    HW131451   5.011   2.628   4.290
10184SOL    HW231452   5.133   2.700   4.209
10185SOL     OW31453   2.683   4.756   1.755
10185SOL    HW131454   2.713   4.714   1.840
10185SOL    HW231455   2.709   4.698   1.677
10186SOL     OW31456   3.586   3.073   2.032
10186SOL    HW131457   3.540   2.984   2.033
10186SOL    HW231458   3.588   3.110   2.125
10187SOL     OW31459   1.493   3.356   4.559
10187SOL    HW131460   1.481   3.311   4.648
10187SOL    HW231461   1.563   3.428   4.568
10188SOL     OW31462   2.533   6.589   0.088
10188SOL    HW131463   2.546   6.502   0.041
10188SOL    HW231464   2.516   6.572   0.185
10189SOL     OW31465   1.430   1.760   5.457
10189SOL    HW131466   1.397   1.834   5.515
10189SOL    HW231467   1.390   1.769   5.366
10190SOL     OW31468   2.796   4.229   1.195
10190SOL    HW131469   2.732   4.295   1.155
10190SOL    HW231470   2.832   4.169   1.123
10191SOL     OW31471   6.621   0.489   6.708
10191SOL    HW131472   6.580   0.560   6.651
10191SOL    HW231473   6.559   0.466   6.783
10192SOL     OW31474   3.120   0.927   3.928
10192SOL    HW131475   3.056   0.975   3.868
10192SOL    HW231476   3.187   0.878   3.872
10193SOL     OW31477   3.611   3.121   4.315
10193SOL    HW131478   3.532   3.107   4.374
10193SOL    HW231479   3.580   3.143   4.222
10194SOL     OW31480   3.051   6.016   3.560
10194SOL    HW131481   3.102   6.061   3.634
10194SOL    HW231482   3.008   6.085   3.502
10195SOL     OW31483   5.384   6.547   1.627
10195SOL    HW131484   5.466   6.509   1.585
10195SOL    HW231485   5.304   6.517   1.576
10196SOL     OW31486   4.771   4.585   4.717
10196SOL    HW131487   4.714   4.505   4.697
10196SOL    HW231488   4.715   4.668   4.707
10197SOL     OW31489   5.893   1.929   2.438
10197SOL    HW131490   5.858   1.998   2.373
10197SOL    HW231491   5.827   1.855   2.445
10198SOL     OW31492   3.376   1.480   2.144
10198SOL    HW131493   3.426   1.546   2.201
10198SOL    HW231494   3.288   1.518   2.119
10199SOL     OW31495   1.476   1.791   6.908
10199SOL    HW131496   1.494   1.715   6.971
10199SOL    HW231497   1.515   1.771   6.819
10200SOL     OW31498   4.094   6.768   3.884
10200SOL    HW131499   4.115   6.708   3.807
10200SOL    HW231500   4.136   6.732   3.967
10201SOL     OW31501   0.320   5.018   2.443
10201SOL    HW131502   0.288   4.962   2.519
10201SOL    HW231503   0.327   5.114   2.473
10202SOL     OW31504   1.656   3.256   3.503
10202SOL    HW131505   1.687   3.169   3.543
10202SOL    HW231506   1.575   3.239   3.447
10203SOL     OW31507   6.616   2.454   1.268
10203SOL    HW131508   6.706   2.470   1.308
10203SOL    HW231509   6.546   2.498   1.324
10204SOL     OW31510   1.390   5.953   4.066
10204SOL    HW131511   1.413   5.941   3.970
10204SOL    HW231512   1.298   5.990   4.075
10205SOL     OW31513   3.715   6.632   1.495
10205SOL    HW131514   3.711   6.675   1.405
10205SOL    HW231515   3.660   6.549   1.496
10206SOL     OW31516   5.888   5.895   6.550
10206SOL    HW131517   5.846   5.967   6.605
10206SOL    HW231518   5.845   5.892   6.460
10207SOL     OW31519   2.867   1.217   1.810
10207SOL    HW131520   2.774   1.202   1.775
10207SOL    HW231521   2.868   1.301   1.865
10208SOL     OW31522   1.102   2.236   6.141
10208SOL    HW131523   1.174   2.170   6.160
10208SOL    HW231524   1.140   2.312   6.087
10209SOL     OW31525   3.989   6.580   0.600
10209SOL    HW131526   3.954   6.501   0.651
10209SOL    HW231527   4.086   6.566   0.578
10210SOL     OW31528   4.170   6.465   6.514
10210SOL    HW131529   4.140   6.470   6.609
10210SOL    HW231530   4.262   6.505   6.507
10211SOL     OW31531   3.624   4.944   4.587
10211SOL    HW131532   3.598   4.873   4.522
10211SOL    HW231533   3.550   4.959   4.653
10212SOL     OW31534   6.522   5.553   5.718
10212SOL    HW131535   6.510   5.469   5.664
10212SOL    HW231536   6.589   5.612   5.673
10213SOL     OW31537   3.277   0.302   4.560
10213SOL    HW131538   3.363   0.289   4.610
10213SOL    HW231539   3.275   0.394   4.521
10214SOL     OW31540   6.924   7.009   0.214
10214SOL    HW131541   6.845   6.949   0.200
10214SOL    HW231542   7.008   6.954   0.216
10215SOL     OW31543   4.692   2.137   0.031
10215SOL    HW131544   4.720   2.116   0.125
10215SOL    HW231545   4.691   2.053   6.993
10216SOL     OW31546   4.996   0.266   2.925
10216SOL    HW131547   5.006   0.357   2.886
10216SOL    HW231548   5.064   0.252   2.996
10217SOL     OW31549   2.517   1.994   6.003
10217SOL    HW131550   2.508   2.033   5.912
10217SOL    HW231551   2.435   1.942   6.026
10218SOL     OW31552   3.773   0.829   5.604
10218SOL    HW131553   3.854   0.791   5.648
10218SOL    HW231554   3.780   0.929   5.602
10219SOL     OW31555   6.572   5.328   1.094
10219SOL    HW131556   6.641   5.329   1.023
10219SOL    HW231557   6.588   5.404   1.157
10220SOL     OW31558   4.515   2.633   6.588
10220SOL    HW131559   4.477   2.640   6.495
10220SOL    HW231560   4.602   2.584   6.584
10221SOL     OW31561   1.888   0.282   4.716
10221SOL    HW131562   1.852   0.257   4.806
10221SOL    HW231563   1.812   0.296   4.653
10222SOL     OW31564   2.756   5.195   5.516
10222SOL    HW131565   2.704   5.110   5.529
10222SOL    HW231566   2.811   5.187   5.433
10223SOL     OW31567   2.567   5.842   5.696
10223SOL    HW131568   2.472   5.831   5.726
10223SOL    HW231569   2.628   5.798   5.761
10224SOL     OW31570   4.147   5.648   5.305
10224SOL    HW131571   4.063   5.686   5.266
10224SOL    HW231572   4.191   5.716   5.363
10225SOL     OW31573   5.105   0.867   5.312
10225SOL    HW131574   5.006   0.865   5.298
10225SOL    HW231575   5.129   0.944   5.371
10226SOL     OW31576   6.487   2.470   6.569
10226SOL    HW131577   6.545   2.528   6.626
10226SOL    HW231578   6.451   2.395   6.623
10227SOL     OW31579   4.758   4.995   5.326
10227SOL    HW131580   4.825   5.068   5.311
10227SOL    HW231581   4.729   4.958   5.237
10228SOL     OW31582   1.101   2.607   1.249
10228SOL    HW131583   1.127   2.632   1.156
10228SOL    HW231584   1.183   2.595   1.304
10229SOL     OW31585   2.778   0.463   2.025
10229SOL    HW131586   2.704   0.433   2.086
10229SOL    HW231587   2.739   0.513   1.948
10230SOL     OW31588   5.480   0.163   3.351
10230SOL    HW131589   5.462   0.217   3.433
10230SOL    HW231590   5.397   0.114   3.324
10231SOL     OW31591   5.175   0.514   4.991
10231SOL    HW131592   5.205   0.569   5.068
10231SOL    HW231593   5.236   0.435   4.980
10232SOL     OW31594   4.042   1.969   2.670
10232SOL    HW131595   3.971   1.905   2.699
10232SOL    HW231596   4.132   1.930   2.690
10233SOL     OW31597   5.091   6.800   4.795
10233SOL    HW131598   5.183   6.807   4.834
10233SOL    HW231599   5.041   6.884   4.814
10234SOL     OW31600   3.323   3.937   1.001
10234SOL    HW131601   3.244   3.951   0.941
10234SOL    HW231602   3.398   3.900   0.947
10235SOL     OW31603   4.927   6.492   0.032
10235SOL    HW131604   4.957   6.402   0.063
10235SOL    HW231605   5.004   6.556   0.039
10236SOL     OW31606   1.060   5.120   1.216
10236SOL    HW131607   1.076   5.202   1.272
10236SOL    HW231608   1.123   5.120   1.138
10237SOL     OW31609   5.710   2.269   2.300
10237SOL    HW131610   5.624   2.320   2.299
10237SOL    HW231611   5.763   2.292   2.218
10238SOL     OW31612   4.836   4.763   6.305
10238SOL    HW131613   4.918   4.790   6.255
10238SOL    HW231614   4.761   4.748   6.241
10239SOL     OW31615   5.754   4.159   3.567
10239SOL    HW131616   5.712   4.232   3.513
10239SOL    HW231617   5.845   4.187   3.596
10240SOL     OW31618   5.329   3.361   2.279
10240SOL    HW131619   5.369   3.396   2.195
10240SOL    HW231620   5.402   3.328   2.339
10241SOL     OW31621   1.252   2.397   2.811
10241SOL    HW131622   1.184   2.405   2.738
10241SOL    HW231623   1.337   2.443   2.783
10242SOL     OW31624   1.065   5.670   6.567
10242SOL    HW131625   1.055   5.577   6.603
10242SOL    HW231626   1.163   5.690   6.558
10243SOL     OW31627   6.769   5.965   3.363
10243SOL    HW131628   6.759   5.974   3.264
10243SOL    HW231629   6.827   6.040   3.397
10244SOL     OW31630   2.478   6.205   0.572
10244SOL    HW131631   2.570   6.230   0.542
10244SOL    HW231632   2.479   6.110   0.606
10245SOL     OW31633   4.055   3.305   0.754
10245SOL    HW131634   3.991   3.323   0.679
10245SOL    HW231635   4.004   3.281   0.836
10246SOL     OW31636   3.495   3.589   4.713
10246SOL    HW131637   3.472   3.536   4.631
10246SOL    HW231638   3.428   3.663   4.724
10247SOL     OW31639   1.036   5.492   6.759
10247SOL    HW131640   0.978   5.474   6.838
10247SOL    HW231641   1.116   5.432   6.761
10248SOL     OW31642   5.770   6.898   3.537
10248SOL    HW131643   5.683   6.877   3.491
10248SOL    HW231644   5.831   6.943   3.472
10249SOL     OW31645   4.218   1.588   5.908
10249SOL    HW131646   4.273   1.550   5.833
10249SOL    HW231647   4.277   1.642   5.967
10250SOL     OW31648   4.437   5.351   0.967
10250SOL    HW131649   4.445   5.424   1.034
10250SOL    HW231650   4.515   5.288   0.976
10251SOL     OW31651   4.248   4.377   0.994
10251SOL    HW131652   4.300   4.321   0.929
10251SOL    HW231653   4.276   4.473   0.985
10252SOL     OW31654   0.183   4.332   0.604
10252SOL    HW131655   0.156   4.372   0.517
10252SOL    HW231656   0.102   4.319   0.661
10253SOL     OW31657   5.450   3.755   0.233
10253SOL    HW131658   5.498   3.776   0.147
10253SOL    HW231659   5.355   3.730   0.213
10254SOL     OW31660   3.613   2.082   5.699
10254SOL    HW131661   3.641   2.177   5.688
10254SOL    HW231662   3.574   2.048   5.613
10255SOL     OW31663   2.737   4.682   3.747
10255SOL    HW131664   2.718   4.655   3.653
10255SOL    HW231665   2.835   4.703   3.757
10256SOL     OW31666   5.687   4.258   0.185
10256SOL    HW131667   5.751   4.319   0.138
10256SOL    HW231668   5.690   4.277   0.283
10257SOL     OW31669   1.679   4.204   4.880
10257SOL    HW131670   1.667   4.280   4.817
10257SOL    HW231671   1.632   4.224   4.966
10258SOL     OW31672   3.497   1.281   2.286
10258SOL    HW131673   3.467   1.360   2.233
10258SOL    HW231674   3.551   1.220   2.228
10259SOL     OW31675   5.475   2.889   3.374
10259SOL    HW131676   5.488   2.953   3.449
10259SOL    HW231677   5.398   2.918   3.317
10260SOL     OW31678   0.233   5.895   2.477
10260SOL    HW131679   0.139   5.907   2.445
10260SOL    HW231680   0.243   5.933   2.569
10261SOL     OW31681   1.669   0.229   2.508
10261SOL    HW131682   1.653   0.271   2.597
10261SOL    HW231683   1.587   0.240   2.451
10262SOL     OW31684   6.496   6.518   3.395
10262SOL    HW131685   6.528   6.599   3.346
10262SOL    HW231686   6.573   6.474   3.442
10263SOL     OW31687   6.802   3.815   4.816
10263SOL    HW131688   6.895   3.798   4.782
10263SOL    HW231689   6.785   3.913   4.818
10264SOL     OW31690   0.745   0.083   1.074
10264SOL    HW131691   0.657   0.065   1.118
10264SOL    HW231692   0.780   7.014   1.035
10265SOL     OW31693   5.197   2.373   4.404
10265SOL    HW131694   5.273   2.349   4.344
10265SOL    HW231695   5.173   2.294   4.461
10266SOL     OW31696   3.092   3.530   0.179
10266SOL    HW131697   3.013   3.476   0.148
10266SOL    HW231698   3.121   3.591   0.105
10267SOL     OW31699   6.769   0.633   6.209
10267SOL    HW131700   6.734   0.679   6.291
10267SOL    HW231701   6.704   0.563   6.180
10268SOL     OW31702   6.586   4.509   0.390
10268SOL    HW131703   6.650   4.544   0.320
10268SOL    HW231704   6.638   4.473   0.467
10269SOL     OW31705   3.568   1.586   5.426
10269SOL    HW131706   3.588   1.648   5.350
10269SOL    HW231707   3.597   1.629   5.512
10270SOL     OW31708   3.623   6.195   3.950
10270SOL    HW131709   3.558   6.121   3.971
10270SOL    HW231710   3.584   6.255   3.881
10271SOL     OW31711   1.066   4.757   1.009
10271SOL    HW131712   1.029   4.711   0.928
10271SOL    HW231713   0.998   4.822   1.044
10272SOL     OW31714   1.187   3.383   4.087
10272SOL    HW131715   1.211   3.342   4.175
10272SOL    HW231716   1.269   3.421   4.044
10273SOL     OW31717   4.596   0.677   4.447
10273SOL    HW131718   4.549   0.761   4.419
10273SOL    HW231719   4.537   0.598   4.428
10274SOL     OW31720   1.944   4.260   6.713
10274SOL    HW131721   1.914   4.234   6.805
10274SOL    HW231722   1.921   4.355   6.696
10275SOL     OW31723   6.909   5.644   1.995
10275SOL    HW131724   6.989   5.661   2.053
10275SOL    HW231725   6.830   5.689   2.035
10276SOL     OW31726   2.982   6.800   0.398
10276SOL    HW131727   2.884   6.798   0.376
10276SOL    HW231728   3.023   6.882   0.359
10277SOL     OW31729   6.090   5.963   2.054
10277SOL    HW131730   5.990   5.971   2.057
10277SOL    HW231731   6.116   5.867   2.060
10278SOL     OW31732   6.195   1.154   4.882
10278SOL    HW131733   6.290   1.143   4.852
10278SOL    HW231734   6.133   1.126   4.809
10279SOL     OW31735   3.853   6.791   4.043
10279SOL    HW131736   3.842   6.711   4.102
10279SOL    HW231737   3.929   6.776   3.980
10280SOL     OW31738   2.835   2.393   6.796
10280SOL    HW131739   2.840   2.445   6.711
10280SOL    HW231740   2.927   2.377   6.832
10281SOL     OW31741   4.161   1.122   4.498
10281SOL    HW131742   4.217   1.171   4.564
10281SOL    HW231743   4.113   1.047   4.544
10282SOL     OW31744   1.588   3.302   3.829
10282SOL    HW131745   1.627   3.238   3.763
10282SOL    HW231746   1.659   3.362   3.865
10283SOL     OW31747   1.973   5.858   0.163
10283SOL    HW131748   1.898   5.798   0.134
10283SOL    HW231749   2.050   5.846   0.101
10284SOL     OW31750   5.675   2.476   0.202
10284SOL    HW131751   5.670   2.432   0.291
10284SOL    HW231752   5.605   2.546   0.194
10285SOL     OW31753   5.146   1.491   0.323
10285SOL    HW131754   5.147   1.426   0.247
10285SOL    HW231755   5.226   1.475   0.382
10286SOL     OW31756   2.534   6.423   3.742
10286SOL    HW131757   2.596   6.463   3.675
10286SOL    HW231758   2.532   6.479   3.825
10287SOL     OW31759   1.883   4.584   2.279
10287SOL    HW131760   1.960   4.619   2.332
10287SOL    HW231761   1.880   4.631   2.191
10288SOL     OW31762   4.834   7.005   4.463
10288SOL    HW131763   4.807   6.938   4.532
10288SOL    HW231764   4.932   0.008   4.471
10289SOL     OW31765   2.627   1.628   2.796
10289SOL    HW131766   2.561   1.697   2.767
10289SOL    HW231767   2.595   1.537   2.767
10290SOL     OW31768   3.237   4.090   2.891
10290SOL    HW131769   3.214   4.122   2.799
10290SOL    HW231770   3.332   4.111   2.911
10291SOL     OW31771   4.286   0.420   3.488
10291SOL    HW131772   4.257   0.395   3.580
10291SOL    HW231773   4.284   0.520   3.479
10292SOL     OW31774   0.160   2.934   4.576
10292SOL    HW131775   0.130   3.028   4.561
10292SOL    HW231776   0.202   2.926   4.666
10293SOL     OW31777   1.601   5.261   3.236
10293SOL    HW131778   1.511   5.256   3.280
10293SOL    HW231779   1.633   5.168   3.215
10294SOL     OW31780   6.153   0.676   3.323
10294SOL    HW131781   6.167   0.713   3.232
10294SOL    HW231782   6.059   0.644   3.333
10295SOL     OW31783   1.512   4.387   3.584
10295SOL    HW131784   1.451   4.427   3.516
10295SOL    HW231785   1.595   4.354   3.540
10296SOL     OW31786   0.238   3.482   1.375
10296SOL    HW131787   0.147   3.442   1.361
10296SOL    HW231788   0.244   3.519   1.468
10297SOL     OW31789   3.760   4.409   6.061
10297SOL    HW131790   3.832   4.339   6.062
10297SOL    HW231791   3.707   4.401   5.976
10298SOL     OW31792   5.740   3.281   2.764
10298SOL    HW131793   5.782   3.190   2.769
10298SOL    HW231794   5.640   3.270   2.761
10299SOL     OW31795   3.786   5.092   2.634
10299SOL    HW131796   3.872   5.140   2.616
10299SOL    HW231797   3.806   5.002   2.671
10300SOL     OW31798   0.371   6.006   2.705
10300SOL    HW131799   0.332   6.029   2.794
10300SOL    HW231800   0.470   5.995   2.714
10301SOL     OW31801   4.246   0.836   1.869
10301SOL    HW131802   4.257   0.737   1.879
10301SOL    HW231803   4.313   0.884   1.926
10302SOL     OW31804   6.931   4.642   3.343
10302SOL    HW131805   6.847   4.660   3.291
10302SOL    HW231806   7.008   4.636   3.281
10303SOL     OW31807   4.762   3.496   1.005
10303SOL    HW131808   4.693   3.515   1.075
10303SOL    HW231809   4.835   3.440   1.044
10304SOL     OW31810   5.968   6.584   4.475
10304SOL    HW131811   5.913   6.563   4.394
10304SOL    HW231812   6.065   6.570   4.454
10305SOL     OW31813   0.645   5.256   1.225
10305SOL    HW131814   0.556   5.221   1.256
10305SOL    HW231815   0.697   5.181   1.183
10306SOL     OW31816   4.631   3.669   6.530
10306SOL    HW131817   4.568   3.649   6.455
10306SOL    HW231818   4.717   3.705   6.492
10307SOL     OW31819   2.570   2.591   5.914
10307SOL    HW131820   2.625   2.513   5.887
10307SOL    HW231821   2.526   2.572   6.002
10308SOL     OW31822   2.823   4.733   4.154
10308SOL    HW131823   2.788   4.716   4.246
10308SOL    HW231824   2.761   4.694   4.086
10309SOL     OW31825   6.381   6.140   3.943
10309SOL    HW131826   6.311   6.211   3.952
10309SOL    HW231827   6.460   6.177   3.895
10310SOL     OW31828   4.129   3.666   4.416
10310SOL    HW131829   4.038   3.706   4.422
10310SOL    HW231830   4.124   3.568   4.438
10311SOL     OW31831   1.935   0.840   0.645
10311SOL    HW131832   1.844   0.844   0.604
10311SOL    HW231833   1.935   0.773   0.720
10312SOL     OW31834   3.051   4.229   0.322
10312SOL    HW131835   3.036   4.277   0.236
10312SOL    HW231836   3.113   4.282   0.380
10313SOL     OW31837   6.381   5.812   3.198
10313SOL    HW131838   6.403   5.870   3.276
10313SOL    HW231839   6.307   5.750   3.223
10314SOL     OW31840   6.676   5.789   5.150
10314SOL    HW131841   6.666   5.845   5.067
10314SOL    HW231842   6.669   5.692   5.125
10315SOL     OW31843   4.444   5.485   5.201
10315SOL    HW131844   4.347   5.485   5.176
10315SOL    HW231845   4.488   5.401   5.167
10316SOL     OW31846   0.093   2.657   3.874
10316SOL    HW131847   0.177   2.612   3.904
10316SOL    HW231848   0.099   2.680   3.777
10317SOL     OW31849   6.326   3.892   6.099
10317SOL    HW131850   6.307   3.937   6.013
10317SOL    HW231851   6.326   3.793   6.086
10318SOL     OW31852   5.002   4.589   2.110
10318SOL    HW131853   4.960   4.667   2.065
10318SOL    HW231854   5.093   4.615   2.143
10319SOL     OW31855   6.160   6.566   3.731
10319SOL    HW131856   6.090   6.634   3.709
10319SOL    HW231857   6.156   6.491   3.664
10320SOL     OW31858   3.098   6.422   1.606
10320SOL    HW131859   3.121   6.513   1.640
10320SOL    HW231860   3.165   6.394   1.536
10321SOL     OW31861   4.762   6.272   5.450
10321SOL    HW131862   4.790   6.270   5.354
10321SOL    HW231863   4.677   6.323   5.460
10322SOL     OW31864   0.041   1.821   6.284
10322SOL    HW131865   6.986   1.860   6.225
10322SOL    HW231866   0.027   1.722   6.291
10323SOL     OW31867   0.114   1.864   5.368
10323SOL    HW131868   0.152   1.943   5.415
10323SOL    HW231869   0.106   1.787   5.431
10324SOL     OW31870   2.775   3.729   5.275
10324SOL    HW131871   2.704   3.798   5.285
10324SOL    HW231872   2.855   3.770   5.231
10325SOL     OW31873   0.435   3.032   3.681
10325SOL    HW131874   0.354   2.997   3.634
10325SOL    HW231875   0.515   3.021   3.621
10326SOL     OW31876   6.088   0.754   0.695
10326SOL    HW131877   6.033   0.747   0.612
10326SOL    HW231878   6.028   0.768   0.774
10327SOL     OW31879   6.610   2.124   3.713
10327SOL    HW131880   6.540   2.116   3.784
10327SOL    HW231881   6.567   2.120   3.623
10328SOL     OW31882   0.285   3.434   1.840
10328SOL    HW131883   0.350   3.486   1.896
10328SOL    HW231884   0.212   3.399   1.899
10329SOL     OW31885   2.325   5.781   2.469
10329SOL    HW131886   2.287   5.746   2.554
10329SOL    HW231887   2.302   5.878   2.460
10330SOL     OW31888   4.164   3.265   0.448
10330SOL    HW131889   4.189   3.216   0.532
10330SOL    HW231890   4.163   3.363   0.467
10331SOL     OW31891   4.706   1.638   4.131
10331SOL    HW131892   4.708   1.738   4.124
10331SOL    HW231893   4.723   1.599   4.040
10332SOL     OW31894   2.039   2.929   6.242
10332SOL    HW131895   1.945   2.956   6.219
10332SOL    HW231896   2.076   2.992   6.309
10333SOL     OW31897   6.844   4.282   5.556
10333SOL    HW131898   6.824   4.360   5.496
10333SOL    HW231899   6.782   4.207   5.534
10334SOL     OW31900   0.551   5.149   5.996
10334SOL    HW131901   0.508   5.211   6.062
10334SOL    HW231902   0.643   5.127   6.027
10335SOL     OW31903   2.565   4.955   2.843
10335SOL    HW131904   2.646   4.905   2.873
10335SOL    HW231905   2.570   4.972   2.744
10336SOL     OW31906   4.090   0.747   2.847
10336SOL    HW131907   4.052   0.655   2.835
10336SOL    HW231908   4.061   0.784   2.935
10337SOL     OW31909   1.867   3.227   6.133
10337SOL    HW131910   1.906   3.294   6.071
10337SOL    HW231911   1.880   3.258   6.228
10338SOL     OW31912   2.311   4.173   3.255
10338SOL    HW131913   2.286   4.119   3.335
10338SOL    HW231914   2.267   4.136   3.173
10339SOL     OW31915   3.366   6.774   6.700
10339SOL    HW131916   3.417   6.780   6.786
10339SOL    HW231917   3.404   6.698   6.645
10340SOL     OW31918   2.074   5.823   0.711
10340SOL    HW131919   2.061   5.922   0.721
10340SOL    HW231920   2.061   5.779   0.800
10341SOL     OW31921   0.352   2.324   1.991
10341SOL    HW131922   0.259   2.357   1.973
10341SOL    HW231923   0.418   2.384   1.945
10342SOL     OW31924   3.235   4.917   4.077
10342SOL    HW131925   3.232   4.870   3.989
10342SOL    HW231926   3.175   4.870   4.142
10343SOL     OW31927   2.728   2.324   4.448
10343SOL    HW131928   2.691   2.415   4.460
10343SOL    HW231929   2.672   2.257   4.497
10344SOL     OW31930   4.965   4.573   1.311
10344SOL    HW131931   5.009   4.511   1.246
10344SOL    HW231932   5.034   4.635   1.349
10345SOL     OW31933   2.750   2.154   6.049
10345SOL    HW131934   2.669   2.095   6.044
10345SOL    HW231935   2.831   2.097   6.064
10346SOL     OW31936   6.766   4.936   6.416
10346SOL    HW131937   6.816   4.947   6.502
10346SOL    HW231938   6.822   4.969   6.340
10347SOL     OW31939   3.543   6.536   2.402
10347SOL    HW131940   3.483   6.612   2.378
10347SOL    HW231941   3.638   6.565   2.395
10348SOL     OW31942   0.377   3.061   3.981
10348SOL    HW131943   0.299   2.998   3.984
10348SOL    HW231944   0.397   3.084   3.886
10349SOL     OW31945   6.596   1.361   0.214
10349SOL    HW131946   6.657   1.409   0.151
10349SOL    HW231947   6.502   1.392   0.200
10350SOL     OW31948   1.945   5.453   3.845
10350SOL    HW131949   2.029   5.504   3.863
10350SOL    HW231950   1.874   5.481   3.910
10351SOL     OW31951   3.962   5.710   5.626
10351SOL    HW131952   4.039   5.767   5.597
10351SOL    HW231953   3.915   5.754   5.702
10352SOL     OW31954   0.719   1.525   1.982
10352SOL    HW131955   0.808   1.481   1.970
10352SOL    HW231956   0.715   1.609   1.928
10353SOL     OW31957   5.197   2.716   3.513
10353SOL    HW131958   5.199   2.770   3.596
10353SOL    HW231959   5.288   2.678   3.496
10354SOL     OW31960   6.795   2.172   1.977
10354SOL    HW131961   6.788   2.189   1.878
10354SOL    HW231962   6.883   2.128   1.997
10355SOL     OW31963   6.725   1.713   0.689
10355SOL    HW131964   6.717   1.619   0.656
10355SOL    HW231965   6.674   1.774   0.629
10356SOL     OW31966   6.302   2.625   6.205
10356SOL    HW131967   6.320   2.535   6.165
10356SOL    HW231968   6.281   2.614   6.302
10357SOL     OW31969   0.652   6.504   6.379
10357SOL    HW131970   0.562   6.493   6.421
10357SOL    HW231971   0.712   6.430   6.409
10358SOL     OW31972   0.296   3.577   3.972
10358SOL    HW131973   0.300   3.640   3.894
10358SOL    HW231974   0.369   3.600   4.036
10359SOL     OW31975   0.603   2.943   1.979
10359SOL    HW131976   0.683   2.955   1.921
10359SOL    HW231977   0.584   2.845   1.990
10360SOL     OW31978   5.709   4.489   1.235
10360SOL    HW131979   5.697   4.451   1.143
10360SOL    HW231980   5.788   4.550   1.236
10361SOL     OW31981   5.703   2.050   4.208
10361SOL    HW131982   5.639   2.029   4.134
10361SOL    HW231983   5.653   2.081   4.288
10362SOL     OW31984   6.702   6.394   2.395
10362SOL    HW131985   6.797   6.422   2.384
10362SOL    HW231986   6.672   6.344   2.313
10363SOL     OW31987   4.898   5.234   6.547
10363SOL    HW131988   4.817   5.280   6.511
10363SOL    HW231989   4.936   5.173   6.476
10364SOL     OW31990   6.491   5.265   1.400
10364SOL    HW131991   6.584   5.231   1.390
10364SOL    HW231992   6.492   5.365   1.401
10365SOL     OW31993   6.250   5.989   6.573
10365SOL    HW131994   6.338   6.013   6.613
10365SOL    HW231995   6.259   5.903   6.522
10366SOL     OW31996   2.304   0.601   3.365
10366SOL    HW131997   2.288   0.516   3.314
10366SOL    HW231998   2.400   0.604   3.395
10367SOL     OW31999   3.848   6.160   2.807
10367SOL    HW132000   3.895   6.082   2.767
10367SOL    HW232001   3.749   6.149   2.796
10368SOL     OW32002   1.217   5.875   1.867
10368SOL    HW132003   1.294   5.910   1.920
10368SOL    HW232004   1.139   5.858   1.927
10369SOL     OW32005   2.981   1.331   5.253
10369SOL    HW132006   3.080   1.318   5.243
10369SOL    HW232007   2.964   1.391   5.331
10370SOL     OW32008   2.378   2.033   6.684
10370SOL    HW132009   2.399   1.937   6.670
10370SOL    HW232010   2.321   2.067   6.609
10371SOL     OW32011   3.586   5.489   2.512
10371SOL    HW132012   3.606   5.552   2.587
10371SOL    HW232013   3.658   5.497   2.443
10372SOL     OW32014   0.985   6.288   1.143
10372SOL    HW132015   1.063   6.348   1.155
10372SOL    HW232016   1.000   6.228   1.064
10373SOL     OW32017   6.712   0.847   5.151
10373SOL    HW132018   6.750   0.893   5.231
10373SOL    HW232019   6.616   0.825   5.168
10374SOL     OW32020   1.795   5.581   1.919
10374SOL    HW132021   1.790   5.635   2.003
10374SOL    HW232022   1.847   5.497   1.937
10375SOL     OW32023   2.496   5.236   6.661
10375SOL    HW132024   2.423   5.168   6.659
10375SOL    HW232025   2.466   5.319   6.615
10376SOL     OW32026   1.973   5.137   3.393
10376SOL    HW132027   2.066   5.111   3.419
10376SOL    HW232028   1.908   5.071   3.429
10377SOL     OW32029   3.196   1.190   3.989
10377SOL    HW132030   3.161   1.100   3.964
10377SOL    HW232031   3.120   1.253   4.002
10378SOL     OW32032   6.797   6.664   5.434
10378SOL    HW132033   6.775   6.661   5.531
10378SOL    HW232034   6.897   6.664   5.423
10379SOL     OW32035   0.410   5.298   3.447
10379SOL    HW132036   0.425   5.350   3.362
10379SOL    HW232037   0.462   5.340   3.521
10380SOL     OW32038   3.177   1.733   3.909
10380SOL    HW132039   3.102   1.747   3.973
10380SOL    HW232040   3.232   1.655   3.939
10381SOL     OW32041   1.977   6.693   4.064
10381SOL    HW132042   1.943   6.685   4.158
10381SOL    HW232043   2.020   6.782   4.052
10382SOL     OW32044   3.503   5.777   2.895
10382SOL    HW132045   3.493   5.677   2.899
10382SOL    HW232046   3.418   5.817   2.861
10383SOL     OW32047   0.562   6.913   0.274
10383SOL    HW132048   0.593   7.008   0.271
10383SOL    HW232049   0.528   6.892   0.366
10384SOL     OW32050   5.489   5.120   1.158
10384SOL    HW132051   5.455   5.104   1.065
10384SOL    HW232052   5.588   5.134   1.155
10385SOL     OW32053   3.748   4.297   6.760
10385SOL    HW132054   3.785   4.240   6.834
10385SOL    HW232055   3.819   4.312   6.691
10386SOL     OW32056   6.856   0.349   1.867
10386SOL    HW132057   6.799   0.317   1.942
10386SOL    HW232058   6.929   0.407   1.903
10387SOL     OW32059   5.127   0.836   2.284
10387SOL    HW132060   5.190   0.889   2.228
10387SOL    HW232061   5.125   0.741   2.251
10388SOL     OW32062   0.821   6.560   4.715
10388SOL    HW132063   0.825   6.552   4.814
10388SOL    HW232064   0.914   6.563   4.678
10389SOL     OW32065   0.538   3.682   0.975
10389SOL    HW132066   0.520   3.781   0.970
10389SOL    HW232067   0.564   3.658   1.068
10390SOL     OW32068   1.371   2.599   2.297
10390SOL    HW132069   1.296   2.582   2.361
10390SOL    HW232070   1.434   2.522   2.299
10391SOL     OW32071   6.359   0.293   3.391
10391SOL    HW132072   6.316   0.382   3.407
10391SOL    HW232073   6.424   0.275   3.465
10392SOL     OW32074   5.567   3.151   4.247
10392SOL    HW132075   5.503   3.175   4.320
10392SOL    HW232076   5.624   3.074   4.275
10393SOL     OW32077   1.984   2.525   1.313
10393SOL    HW132078   2.038   2.474   1.247
10393SOL    HW232079   1.895   2.546   1.273
10394SOL     OW32080   2.658   5.478   4.228
10394SOL    HW132081   2.710   5.410   4.281
10394SOL    HW232082   2.720   5.550   4.198
10395SOL     OW32083   0.713   1.427   1.308
10395SOL    HW132084   0.782   1.492   1.340
10395SOL    HW232085   0.623   1.455   1.339
10396SOL     OW32086   3.332   1.962   5.274
10396SOL    HW132087   3.315   1.864   5.276
10396SOL    HW232088   3.256   2.008   5.228
10397SOL     OW32089   4.525   0.945   3.875
10397SOL    HW132090   4.525   1.028   3.820
10397SOL    HW232091   4.458   0.953   3.949
10398SOL     OW32092   4.507   2.538   2.915
10398SOL    HW132093   4.506   2.594   2.832
10398SOL    HW232094   4.557   2.454   2.898
10399SOL     OW32095   0.726   2.709   1.648
10399SOL    HW132096   0.772   2.637   1.596
10399SOL    HW232097   0.629   2.687   1.658
10400SOL     OW32098   1.511   6.689   0.167
10400SOL    HW132099   1.549   6.781   0.176
10400SOL    HW232100   1.493   6.651   0.258
10401SOL     OW32101   6.311   0.966   5.232
10401SOL    HW132102   6.267   0.923   5.311
10401SOL    HW232103   6.247   1.031   5.190
10402SOL     OW32104   6.254   4.314   5.894
10402SOL    HW132105   6.274   4.374   5.816
10402SOL    HW232106   6.339   4.273   5.927
10403SOL     OW32107   3.533   6.999   1.738
10403SOL    HW132108   3.556   0.069   1.785
10403SOL    HW232109   3.612   6.939   1.738
10404SOL     OW32110   0.834   5.411   5.845
10404SOL    HW132111   0.866   5.327   5.801
10404SOL    HW232112   0.786   5.468   5.779
10405SOL     OW32113   0.044   1.040   0.047
10405SOL    HW132114   0.086   0.950   0.065
10405SOL    HW232115   0.093   1.110   0.099
10406SOL     OW32116   1.873   5.065   1.364
10406SOL    HW132117   1.941   5.086   1.433
10406SOL    HW232118   1.847   5.149   1.316
10407SOL     OW32119   2.115   6.356   0.622
10407SOL    HW132120   2.035   6.402   0.585
10407SOL    HW232121   2.198   6.397   0.583
10408SOL     OW32122   4.551   0.811   6.478
10408SOL    HW132123   4.546   0.909   6.498
10408SOL    HW232124   4.644   0.788   6.450
10409SOL     OW32125   6.459   3.731   0.688
10409SOL    HW132126   6.471   3.637   0.719
10409SOL    HW232127   6.523   3.751   0.613
10410SOL     OW32128   3.999   0.023   0.784
10410SOL    HW132129   4.013   6.948   0.821
10410SOL    HW232130   4.088   0.067   0.769
10411SOL     OW32131   1.604   5.248   4.000
10411SOL    HW132132   1.649   5.251   3.911
10411SOL    HW232133   1.666   5.206   4.067
10412SOL     OW32134   4.891   0.560   1.971
10412SOL    HW132135   4.920   0.551   1.876
10412SOL    HW232136   4.793   0.581   1.974
10413SOL     OW32137   6.214   3.473   2.094
10413SOL    HW132138   6.162   3.418   2.160
10413SOL    HW232139   6.190   3.444   2.001
10414SOL     OW32140   5.170   4.037   3.711
10414SOL    HW132141   5.221   4.123   3.713
10414SOL    HW232142   5.114   4.033   3.629
10415SOL     OW32143   0.748   0.944   6.896
10415SOL    HW132144   0.727   0.948   6.798
10415SOL    HW232145   0.674   0.984   6.948
10416SOL     OW32146   4.875   2.578   2.713
10416SOL    HW132147   4.935   2.659   2.712
10416SOL    HW232148   4.785   2.603   2.677
10417SOL     OW32149   1.888   3.931   2.333
10417SOL    HW132150   1.871   4.027   2.351
10417SOL    HW232151   1.986   3.917   2.319
10418SOL     OW32152   1.392   5.649   6.001
10418SOL    HW132153   1.399   5.622   6.097
10418SOL    HW232154   1.304   5.621   5.965
10419SOL     OW32155   1.097   0.892   5.986
10419SOL    HW132156   1.123   0.988   5.990
10419SOL    HW232157   1.079   0.866   5.891
10420SOL     OW32158   0.703   3.478   2.166
10420SOL    HW132159   0.692   3.573   2.196
10420SOL    HW232160   0.766   3.431   2.228
10421SOL     OW32161   1.010   2.461   2.682
10421SOL    HW132162   0.942   2.391   2.662
10421SOL    HW232163   0.965   2.549   2.697
10422SOL     OW32164   5.969   1.956   0.216
10422SOL    HW132165   5.953   2.003   0.303
10422SOL    HW232166   5.881   1.929   0.177
10423SOL     OW32167   4.397   5.805   2.710
10423SOL    HW132168   4.312   5.759   2.737
10423SOL    HW232169   4.382   5.855   2.625
10424SOL     OW32170   4.707   1.291   6.095
10424SOL    HW132171   4.803   1.294   6.069
10424SOL    HW232172   4.682   1.197   6.121
10425SOL     OW32173   1.728   6.860   1.944
10425SOL    HW132174   1.670   6.898   1.872
10425SOL    HW232175   1.724   6.760   1.940
10426SOL     OW32176   6.519   4.050   6.522
10426SOL    HW132177   6.569   4.120   6.472
10426SOL    HW232178   6.435   4.028   6.473
10427SOL     OW32179   4.704   0.826   0.240
10427SOL    HW132180   4.697   0.879   0.155
10427SOL    HW232181   4.616   0.829   0.288
10428SOL     OW32182   4.564   2.358   3.574
10428SOL    HW132183   4.598   2.365   3.668
10428SOL    HW232184   4.615   2.287   3.525
10429SOL     OW32185   5.854   5.368   2.225
10429SOL    HW132186   5.757   5.391   2.220
10429SOL    HW232187   5.891   5.393   2.314
10430SOL     OW32188   3.797   6.132   3.079
10430SOL    HW132189   3.815   6.117   2.982
10430SOL    HW232190   3.715   6.188   3.090
10431SOL     OW32191   3.133   2.127   5.596
10431SOL    HW132192   3.169   2.034   5.592
10431SOL    HW232193   3.045   2.131   5.550
10432SOL     OW32194   4.336   0.496   4.756
10432SOL    HW132195   4.341   0.510   4.855
10432SOL    HW232196   4.418   0.449   4.725
10433SOL     OW32197   2.133   5.991   1.207
10433SOL    HW132198   2.118   6.089   1.194
10433SOL    HW232199   2.193   5.976   1.285
10434SOL     OW32200   3.646   2.327   5.426
10434SOL    HW132201   3.713   2.295   5.358
10434SOL    HW232202   3.557   2.288   5.404
10435SOL     OW32203   5.971   4.764   6.861
10435SOL    HW132204   5.964   4.840   6.797
10435SOL    HW232205   5.921   4.786   6.945
10436SOL     OW32206   0.072   1.938   2.899
10436SOL    HW132207   0.035   1.913   2.988
10436SOL    HW232208   0.084   1.856   2.843
10437SOL     OW32209   1.619   3.003   0.618
10437SOL    HW132210   1.651   3.042   0.705
10437SOL    HW232211   1.688   2.939   0.584
10438SOL     OW32212   2.745   6.864   5.866
10438SOL    HW132213   2.812   6.935   5.844
10438SOL    HW232214   2.753   6.789   5.801
10439SOL     OW32215   3.544   0.436   5.562
10439SOL    HW132216   3.452   0.417   5.597
10439SOL    HW232217   3.578   0.521   5.601
10440SOL     OW32218   1.042   6.042   0.303
10440SOL    HW132219   1.002   6.053   0.212
10440SOL    HW232220   0.976   5.998   0.363
10441SOL     OW32221   4.739   6.830   1.081
10441SOL    HW132222   4.659   6.870   1.126
10441SOL    HW232223   4.724   6.826   0.983
10442SOL     OW32224   3.498   6.582   6.566
10442SOL    HW132225   3.586   6.614   6.531
10442SOL    HW232226   3.495   6.482   6.562
10443SOL     OW32227   0.512   2.923   4.792
10443SOL    HW132228   0.587   2.970   4.839
10443SOL    HW232229   0.514   2.944   4.695
10444SOL     OW32230   3.980   4.817   5.148
10444SOL    HW132231   4.010   4.851   5.059
10444SOL    HW232232   4.059   4.798   5.205
10445SOL     OW32233   6.482   6.318   1.916
10445SOL    HW132234   6.531   6.297   2.000
10445SOL    HW232235   6.448   6.412   1.919
10446SOL     OW32236   1.280   6.725   5.697
10446SOL    HW132237   1.351   6.763   5.756
10446SOL    HW232238   1.319   6.655   5.637
10447SOL     OW32239   5.379   2.518   6.585
10447SOL    HW132240   5.421   2.432   6.613
10447SOL    HW232241   5.364   2.576   6.666
10448SOL     OW32242   3.757   3.621   2.242
10448SOL    HW132243   3.765   3.540   2.301
10448SOL    HW232244   3.713   3.595   2.156
10449SOL     OW32245   1.278   5.442   5.117
10449SOL    HW132246   1.222   5.362   5.137
10449SOL    HW232247   1.228   5.525   5.142
10450SOL     OW32248   1.193   3.109   0.127
10450SOL    HW132249   1.218   3.053   0.206
10450SOL    HW232250   1.139   3.188   0.157
10451SOL     OW32251   2.183   4.177   2.450
10451SOL    HW132252   2.194   4.199   2.353
10451SOL    HW232253   2.180   4.262   2.503
10452SOL     OW32254   2.185   3.468   6.203
10452SOL    HW132255   2.093   3.458   6.240
10452SOL    HW232256   2.185   3.541   6.134
10453SOL     OW32257   5.041   0.576   2.207
10453SOL    HW132258   5.004   0.515   2.277
10453SOL    HW232259   4.970   0.597   2.139
10454SOL     OW32260   3.337   5.388   2.457
10454SOL    HW132261   3.290   5.474   2.438
10454SOL    HW232262   3.436   5.401   2.449
10455SOL     OW32263   1.376   5.242   3.416
10455SOL    HW132264   1.415   5.203   3.499
10455SOL    HW232265   1.328   5.327   3.438
10456SOL     OW32266   3.693   6.795   0.912
10456SOL    HW132267   3.743   6.795   0.825
10456SOL    HW232268   3.709   6.709   0.960
10457SOL     OW32269   3.501   3.050   3.301
10457SOL    HW132270   3.516   3.059   3.203
10457SOL    HW232271   3.575   2.997   3.342
10458SOL     OW32272   6.308   6.199   2.637
10458SOL    HW132273   6.317   6.292   2.601
10458SOL    HW232274   6.281   6.137   2.563
10459SOL     OW32275   6.891   5.335   2.098
10459SOL    HW132276   6.929   5.388   2.022
10459SOL    HW232277   6.794   5.359   2.110
10460SOL     OW32278   1.174   4.243   1.198
10460SOL    HW132279   1.204   4.222   1.105
10460SOL    HW232280   1.093   4.302   1.195
10461SOL     OW32281   3.995   0.490   6.422
10461SOL    HW132282   4.059   0.528   6.355
10461SOL    HW232283   3.903   0.485   6.382
10462SOL     OW32284   5.331   6.602   0.973
10462SOL    HW132285   5.419   6.570   0.939
10462SOL    HW232286   5.343   6.643   1.064
10463SOL     OW32287   4.513   3.115   0.274
10463SOL    HW132288   4.456   3.130   0.193
10463SOL    HW232289   4.601   3.162   0.263
10464SOL     OW32290   5.773   7.007   1.657
10464SOL    HW132291   5.742   0.020   1.566
10464SOL    HW232292   5.705   0.016   1.725
10465SOL     OW32293   7.000   4.519   5.886
10465SOL    HW132294   6.947   4.603   5.896
10465SOL    HW232295   0.080   4.543   5.871
10466SOL     OW32296   4.104   5.485   5.553
10466SOL    HW132297   4.072   5.566   5.603
10466SOL    HW232298   4.110   5.507   5.455
10467SOL     OW32299   4.386   1.775   4.193
10467SOL    HW132300   4.450   1.718   4.247
10467SOL    HW232301   4.416   1.870   4.197
10468SOL     OW32302   2.879   5.372   3.221
10468SOL    HW132303   2.910   5.341   3.131
10468SOL    HW232304   2.957   5.404   3.274
10469SOL     OW32305   0.995   4.923   5.764
10469SOL    HW132306   0.958   4.994   5.704
10469SOL    HW232307   0.964   4.833   5.732
10470SOL     OW32308   2.274   2.193   4.047
10470SOL    HW132309   2.228   2.156   4.128
10470SOL    HW232310   2.211   2.255   3.999
10471SOL     OW32311   4.627   3.755   6.838
10471SOL    HW132312   4.639   3.695   6.758
10471SOL    HW232313   4.536   3.742   6.877
10472SOL     OW32314   4.167   1.631   3.794
10472SOL    HW132315   4.175   1.691   3.714
10472SOL    HW232316   4.121   1.681   3.868
10473SOL     OW32317   5.021   4.600   0.376
10473SOL    HW132318   5.084   4.531   0.410
10473SOL    HW232319   4.942   4.555   0.334
10474SOL     OW32320   4.657   1.099   4.265
10474SOL    HW132321   4.673   1.002   4.247
10474SOL    HW232322   4.596   1.136   4.195
10475SOL     OW32323   4.123   6.535   1.180
10475SOL    HW132324   4.139   6.504   1.087
10475SOL    HW232325   4.158   6.467   1.245
10476SOL     OW32326   0.523   4.845   0.027
10476SOL    HW132327   0.588   4.864   6.970
10476SOL    HW232328   0.568   4.855   0.116
10477SOL     OW32329   5.173   4.703   4.405
10477SOL    HW132330   5.131   4.612   4.400
10477SOL    HW232331   5.272   4.693   4.415
10478SOL     OW32332   0.575   0.089   2.730
10478SOL    HW132333   0.530   0.046   2.808
10478SOL    HW232334   0.510   0.146   2.681
10479SOL     OW32335   0.740   4.127   2.897
10479SOL    HW132336   0.700   4.058   2.957
10479SOL    HW232337   0.766   4.207   2.951
10480SOL     OW32338   4.706   1.477   6.697
10480SOL    HW132339   4.729   1.546   6.767
10480SOL    HW232340   4.611   1.449   6.709
10481SOL     OW32341   3.894   1.380   3.637
10481SOL    HW132342   3.887   1.366   3.538
10481SOL    HW232343   3.989   1.400   3.661
10482SOL     OW32344   0.497   6.543   5.924
10482SOL    HW132345   0.487   6.588   5.836
10482SOL    HW232346   0.594   6.521   5.940
10483SOL     OW32347   0.747   6.193   0.444
10483SOL    HW132348   0.796   6.280   0.456
10483SOL    HW232349   0.706   6.190   0.354
10484SOL     OW32350   6.954   1.599   1.908
10484SOL    HW132351   6.960   1.502   1.889
10484SOL    HW232352   6.966   1.651   1.823
10485SOL     OW32353   3.593   3.844   4.747
10485SOL    HW132354   3.586   3.749   4.716
10485SOL    HW232355   3.507   3.872   4.789
10486SOL     OW32356   6.158   4.620   5.973
10486SOL    HW132357   6.118   4.683   6.040
10486SOL    HW232358   6.146   4.526   6.005
10487SOL     OW32359   5.339   4.032   2.728
10487SOL    HW132360   5.265   3.969   2.705
10487SOL    HW232361   5.349   4.036   2.828
10488SOL     OW32362   0.904   2.123   5.602
10488SOL    HW132363   0.834   2.171   5.549
10488SOL    HW232364   0.870   2.033   5.629
10489SOL     OW32365   5.926   4.864   2.718
10489SOL    HW132366   5.927   4.764   2.724
10489SOL    HW232367   6.018   4.899   2.735
10490SOL     OW32368   5.388   6.027   6.593
10490SOL    HW132369   5.438   6.088   6.654
10490SOL    HW232370   5.347   6.079   6.518
10491SOL     OW32371   2.174   1.947   5.575
10491SOL    HW132372   2.087   1.944   5.526
10491SOL    HW232373   2.237   1.881   5.535
10492SOL     OW32374   3.510   6.729   6.934
10492SOL    HW132375   3.465   6.649   6.973
10492SOL    HW232376   3.609   6.723   6.951
10493SOL     OW32377   3.899   6.692   0.382
10493SOL    HW132378   3.950   6.667   0.465
10493SOL    HW232379   3.864   6.785   0.392
10494SOL     OW32380   6.472   6.004   3.378
10494SOL    HW132381   6.446   6.054   3.460
10494SOL    HW232382   6.571   5.993   3.375
10495SOL     OW32383   6.298   6.494   0.221
10495SOL    HW132384   6.350   6.529   0.299
10495SOL    HW232385   6.360   6.454   0.154
10496SOL     OW32386   1.319   3.847   6.155
10496SOL    HW132387   1.409   3.857   6.112
10496SOL    HW232388   1.330   3.843   6.254
10497SOL     OW32389   4.133   0.199   0.023
10497SOL    HW132390   4.191   0.241   6.970
10497SOL    HW232391   4.087   0.270   0.075
10498SOL     OW32392   3.482   3.889   0.323
10498SOL    HW132393   3.495   3.806   0.269
10498SOL    HW232394   3.406   3.942   0.285
10499SOL     OW32395   3.997   4.803   4.016
10499SOL    HW132396   4.032   4.784   3.925
10499SOL    HW232397   4.071   4.794   4.083
10500SOL     OW32398   1.985   2.662   4.978
10500SOL    HW132399   1.948   2.578   4.937
10500SOL    HW232400   1.913   2.706   5.031
10501SOL     OW32401   3.981   4.797   2.991
10501SOL    HW132402   4.039   4.723   3.023
10501SOL    HW232403   3.898   4.802   3.047
10502SOL     OW32404   3.575   3.347   3.100
10502SOL    HW132405   3.538   3.382   3.014
10502SOL    HW232406   3.526   3.388   3.176
10503SOL     OW32407   0.157   6.337   0.667
10503SOL    HW132408   0.126   6.243   0.653
10503SOL    HW232409   0.080   6.399   0.655
10504SOL     OW32410   1.849   2.871   5.536
10504SOL    HW132411   1.805   2.955   5.504
10504SOL    HW232412   1.816   2.849   5.628
10505SOL     OW32413   4.983   6.716   1.440
10505SOL    HW132414   4.984   6.798   1.496
10505SOL    HW232415   5.011   6.637   1.495
10506SOL     OW32416   0.686   5.295   6.323
10506SOL    HW132417   0.726   5.204   6.310
10506SOL    HW232418   0.729   5.340   6.401
10507SOL     OW32419   2.078   6.446   5.668
10507SOL    HW132420   2.138   6.524   5.652
10507SOL    HW232421   2.129   6.375   5.718
10508SOL     OW32422   2.131   6.270   1.133
10508SOL    HW132423   2.102   6.292   1.040
10508SOL    HW232424   2.154   6.354   1.181
10509SOL     OW32425   4.974   3.623   1.832
10509SOL    HW132426   4.952   3.600   1.737
10509SOL    HW232427   4.959   3.720   1.847
10510SOL     OW32428   4.966   6.628   1.893
10510SOL    HW132429   5.046   6.688   1.896
10510SOL    HW232430   4.990   6.539   1.931
10511SOL     OW32431   3.975   1.611   0.737
10511SOL    HW132432   3.919   1.607   0.654
10511SOL    HW232433   3.917   1.604   0.818
10512SOL     OW32434   3.922   7.011   4.849
10512SOL    HW132435   3.992   6.950   4.886
10512SOL    HW232436   3.913   6.996   4.751
10513SOL     OW32437   4.080   3.730   0.689
10513SOL    HW132438   4.157   3.791   0.672
10513SOL    HW232439   4.068   3.718   0.788
10514SOL     OW32440   1.005   4.766   1.413
10514SOL    HW132441   0.911   4.787   1.440
10514SOL    HW232442   1.019   4.667   1.416
10515SOL     OW32443   2.160   3.217   4.781
10515SOL    HW132444   2.141   3.213   4.683
10515SOL    HW232445   2.193   3.309   4.804
10516SOL     OW32446   5.532   1.928   1.153
10516SOL    HW132447   5.460   1.859   1.154
10516SOL    HW232448   5.496   2.014   1.116
10517SOL     OW32449   6.671   2.026   2.168
10517SOL    HW132450   6.586   1.983   2.138
10517SOL    HW232451   6.701   2.091   2.099
10518SOL     OW32452   0.039   5.706   3.122
10518SOL    HW132453   6.957   5.707   3.106
10518SOL    HW232454   0.071   5.612   3.131
10519SOL     OW32455   1.618   6.410   0.431
10519SOL    HW132456   1.546   6.472   0.400
10519SOL    HW232457   1.581   6.318   0.440
10520SOL     OW32458   3.217   2.571   6.130
10520SOL    HW132459   3.190   2.491   6.077
10520SOL    HW232460   3.146   2.592   6.198
10521SOL     OW32461   5.698   2.057   1.919
10521SOL    HW132462   5.653   2.143   1.897
10521SOL    HW232463   5.712   2.004   1.835
10522SOL     OW32464   5.101   1.172   2.942
10522SOL    HW132465   5.045   1.121   2.877
10522SOL    HW232466   5.048   1.246   2.982
10523SOL     OW32467   0.412   3.966   1.693
10523SOL    HW132468   0.478   4.040   1.678
10523SOL    HW232469   0.442   3.884   1.643
10524SOL     OW32470   5.909   6.513   4.724
10524SOL    HW132471   5.988   6.527   4.784
10524SOL    HW232472   5.938   6.521   4.629
10525SOL     OW32473   4.939   2.157   3.828
10525SOL    HW132474   4.988   2.243   3.844
10525SOL    HW232475   4.980   2.084   3.882
10526SOL     OW32476   1.665   6.301   6.125
10526SOL    HW132477   1.688   6.258   6.037
10526SOL    HW232478   1.588   6.252   6.167
10527SOL     OW32479   0.733   6.340   5.667
10527SOL    HW132480   0.794   6.286   5.610
10527SOL    HW232481   0.710   6.288   5.750
10528SOL     OW32482   2.842   5.973   5.233
10528SOL    HW132483   2.833   5.884   5.189
10528SOL    HW232484   2.806   5.968   5.326
10529SOL     OW32485   0.034   5.562   6.347
10529SOL    HW132486   0.072   5.648   6.312
10529SOL    HW232487   6.954   5.576   6.370
10530SOL     OW32488   5.361   0.278   1.543
10530SOL    HW132489   5.459   0.293   1.534
10530SOL    HW232490   5.326   0.328   1.622
10531SOL     OW32491   3.402   0.803   6.330
10531SOL    HW132492   3.409   0.733   6.401
10531SOL    HW232493   3.453   0.884   6.358
10532SOL     OW32494   4.565   5.602   5.441
10532SOL    HW132495   4.646   5.648   5.404
10532SOL    HW232496   4.490   5.609   5.376
10533SOL     OW32497   4.371   6.481   4.152
10533SOL    HW132498   4.371   6.578   4.172
10533SOL    HW232499   4.419   6.464   4.066
10534SOL     OW32500   0.663   6.165   4.688
10534SOL    HW132501   0.611   6.219   4.622
10534SOL    HW232502   0.602   6.099   4.732
10535SOL     OW32503   3.770   1.544   2.372
10535SOL    HW132504   3.729   1.467   2.421
10535SOL    HW232505   3.700   1.590   2.317
10536SOL     OW32506   5.863   3.250   4.304
10536SOL    HW132507   5.933   3.292   4.362
10536SOL    HW232508   5.774   3.292   4.323
10537SOL     OW32509   2.379   1.391   2.479
10537SOL    HW132510   2.435   1.397   2.562
10537SOL    HW232511   2.351   1.296   2.465
10538SOL     OW32512   6.199   2.669   3.796
10538SOL    HW132513   6.221   2.602   3.726
10538SOL    HW232514   6.243   2.756   3.774
10539SOL     OW32515   6.559   0.595   1.621
10539SOL    HW132516   6.554   0.643   1.534
10539SOL    HW232517   6.530   0.500   1.609
10540SOL     OW32518   2.091   2.387   6.066
10540SOL    HW132519   2.067   2.435   6.151
10540SOL    HW232520   2.147   2.307   6.087
10541SOL     OW32521   3.902   2.674   6.761
10541SOL    HW132522   3.894   2.758   6.708
10541SOL    HW232523   3.998   2.646   6.764
10542SOL     OW32524   3.603   6.305   3.108
10542SOL    HW132525   3.649   6.381   3.153
10542SOL    HW232526   3.510   6.334   3.082
10543SOL     OW32527   0.844   2.823   4.004
10543SOL    HW132528   0.752   2.786   3.990
10543SOL    HW232529   0.912   2.756   3.972
10544SOL     OW32530   2.812   2.158   2.296
10544SOL    HW132531   2.727   2.110   2.274
10544SOL    HW232532   2.859   2.183   2.212
10545SOL     OW32533   0.949   3.194   1.448
10545SOL    HW132534   1.025   3.223   1.506
10545SOL    HW232535   0.971   3.106   1.406
10546SOL     OW32536   1.746   0.220   4.992
10546SOL    HW132537   1.757   0.186   5.085
10546SOL    HW232538   1.771   0.317   4.988
10547SOL     OW32539   3.199   5.851   6.371
10547SOL    HW132540   3.119   5.848   6.430
10547SOL    HW232541   3.233   5.945   6.366
10548SOL     OW32542   1.355   5.295   3.118
10548SOL    HW132543   1.445   5.332   3.094
10548SOL    HW232544   1.366   5.205   3.159
10549SOL     OW32545   6.977   1.586   2.252
10549SOL    HW132546   7.012   1.669   2.296
10549SOL    HW232547   6.897   1.609   2.197
10550SOL     OW32548   0.030   4.563   2.641
10550SOL    HW132549   6.960   4.572   2.591
10550SOL    HW232550   0.106   4.556   2.576
10551SOL     OW32551   4.648   0.802   4.709
10551SOL    HW132552   4.661   0.742   4.630
10551SOL    HW232553   4.586   0.876   4.684
10552SOL     OW32554   2.105   6.927   4.106
10552SOL    HW132555   2.100   6.938   4.206
10552SOL    HW232556   2.127   7.015   4.064
10553SOL     OW32557   5.950   5.074   1.417
10553SOL    HW132558   5.967   5.090   1.514
10553SOL    HW232559   5.856   5.102   1.395
10554SOL     OW32560   5.238   5.557   1.894
10554SOL    HW132561   5.149   5.588   1.859
10554SOL    HW232562   5.247   5.459   1.877
10555SOL     OW32563   3.214   2.950   2.493
10555SOL    HW132564   3.263   2.932   2.408
10555SOL    HW232565   3.130   2.895   2.495
10556SOL     OW32566   2.296   2.061   2.205
10556SOL    HW132567   2.261   2.062   2.112
10556SOL    HW232568   2.286   1.969   2.244
10557SOL     OW32569   1.092   4.531   3.177
10557SOL    HW132570   1.098   4.612   3.235
10557SOL    HW232571   1.183   4.492   3.166
10558SOL     OW32572   5.149   5.420   4.225
10558SOL    HW132573   5.126   5.491   4.158
10558SOL    HW232574   5.169   5.335   4.177
10559SOL     OW32575   3.818   5.798   1.981
10559SOL    HW132576   3.831   5.870   1.913
10559SOL    HW232577   3.858   5.828   2.068
10560SOL     OW32578   5.784   0.072   4.034
10560SOL    HW132579   5.766   6.990   4.040
10560SOL    HW232580   5.761   0.105   3.942
10561SOL     OW32581   0.801   5.612   5.643
10561SOL    HW132582   0.868   5.630   5.715
10561SOL    HW232583   0.741   5.692   5.633
10562SOL     OW32584   2.599   1.360   2.649
10562SOL    HW132585   2.628   1.276   2.603
10562SOL    HW232586   2.670   1.389   2.713
10563SOL     OW32587   1.654   5.305   2.172
10563SOL    HW132588   1.740   5.344   2.206
10563SOL    HW232589   1.672   5.257   2.086
10564SOL     OW32590   5.422   5.567   3.807
10564SOL    HW132591   5.437   5.640   3.741
10564SOL    HW232592   5.495   5.499   3.799
10565SOL     OW32593   6.983   1.008   4.365
10565SOL    HW132594   6.901   1.019   4.421
10565SOL    HW232595   0.045   0.989   4.425
10566SOL     OW32596   3.652   1.343   0.707
10566SOL    HW132597   3.664   1.324   0.610
10566SOL    HW232598   3.742   1.350   0.750
10567SOL     OW32599   3.234   1.759   6.263
10567SOL    HW132600   3.156   1.750   6.201
10567SOL    HW232601   3.283   1.672   6.268
10568SOL     OW32602   6.249   1.327   6.742
10568SOL    HW132603   6.332   1.279   6.769
10568SOL    HW232604   6.261   1.426   6.755
10569SOL     OW32605   4.080   0.564   1.707
10569SOL    HW132606   4.093   0.584   1.609
10569SOL    HW232607   3.984   0.545   1.725
10570SOL     OW32608   1.382   4.012   3.450
10570SOL    HW132609   1.457   4.038   3.512
10570SOL    HW232610   1.420   3.978   3.364
10571SOL     OW32611   0.947   3.900   4.894
10571SOL    HW132612   0.872   3.938   4.839
10571SOL    HW232613   1.001   3.837   4.838
10572SOL     OW32614   6.869   5.373   0.646
10572SOL    HW132615   6.877   5.281   0.684
10572SOL    HW232616   6.949   5.427   0.673
10573SOL     OW32617   5.637   1.910   2.814
10573SOL    HW132618   5.702   1.931   2.886
10573SOL    HW232619   5.679   1.851   2.745
10574SOL     OW32620   5.448   2.252   3.019
10574SOL    HW132621   5.394   2.189   3.075
10574SOL    HW232622   5.517   2.200   2.969
10575SOL     OW32623   4.912   6.921   3.180
10575SOL    HW132624   4.984   6.892   3.118
10575SOL    HW232625   4.864   7.000   3.142
10576SOL     OW32626   1.130   3.169   5.042
10576SOL    HW132627   1.096   3.180   4.949
10576SOL    HW232628   1.087   3.237   5.101
10577SOL     OW32629   4.512   4.859   6.517
10577SOL    HW132630   4.463   4.775   6.496
10577SOL    HW232631   4.570   4.884   6.440
10578SOL     OW32632   1.586   3.017   2.189
10578SOL    HW132633   1.532   3.056   2.115
10578SOL    HW232634   1.590   3.081   2.266
10579SOL     OW32635   0.562   3.016   0.330
10579SOL    HW132636   0.500   3.089   0.299
10579SOL    HW232637   0.534   2.985   0.421
10580SOL     OW32638   4.601   6.053   6.008
10580SOL    HW132639   4.577   6.147   6.030
10580SOL    HW232640   4.528   6.011   5.954
10581SOL     OW32641   3.397   0.684   2.621
10581SOL    HW132642   3.389   0.689   2.521
10581SOL    HW232643   3.349   0.602   2.653
10582SOL     OW32644   0.310   3.659   0.233
10582SOL    HW132645   0.218   3.654   0.273
10582SOL    HW232646   0.356   3.571   0.244
10583SOL     OW32647   3.845   1.964   5.809
10583SOL    HW132648   3.841   1.976   5.908
10583SOL    HW232649   3.762   2.001   5.768
10584SOL     OW32650   6.849   0.372   3.931
10584SOL    HW132651   6.899   0.376   3.845
10584SOL    HW232652   6.779   0.443   3.932
10585SOL     OW32653   1.827   1.041   4.532
10585SOL    HW132654   1.792   1.099   4.458
10585SOL    HW232655   1.849   0.951   4.496
10586SOL     OW32656   4.717   3.395   6.207
10586SOL    HW132657   4.624   3.367   6.183
10586SOL    HW232658   4.715   3.488   6.245
10587SOL     OW32659   2.083   4.949   6.136
10587SOL    HW132660   2.155   5.005   6.096
10587SOL    HW232661   2.039   4.895   6.064
10588SOL     OW32662   1.156   4.513   4.331
10588SOL    HW132663   1.248   4.515   4.371
10588SOL    HW232664   1.159   4.461   4.245
10589SOL     OW32665   6.338   0.708   3.518
10589SOL    HW132666   6.269   0.722   3.447
10589SOL    HW232667   6.321   0.770   3.594
10590SOL     OW32668   6.325   6.430   2.201
10590SOL    HW132669   6.243   6.393   2.156
10590SOL    HW232670   6.298   6.496   2.270
10591SOL     OW32671   6.385   4.380   2.764
10591SOL    HW132672   6.317   4.410   2.830
10591SOL    HW232673   6.343   4.372   2.674
10592SOL     OW32674   6.072   3.619   5.693
10592SOL    HW132675   6.023   3.705   5.706
10592SOL    HW232676   6.151   3.634   5.634
10593SOL     OW32677   3.465   5.824   3.184
10593SOL    HW132678   3.410   5.905   3.165
10593SOL    HW232679   3.514   5.796   3.102
10594SOL     OW32680   3.940   6.026   3.617
10594SOL    HW132681   3.916   6.105   3.560
10594SOL    HW232682   3.921   6.048   3.713
10595SOL     OW32683   6.231   5.645   1.017
10595SOL    HW132684   6.145   5.697   1.009
10595SOL    HW232685   6.224   5.560   0.965
10596SOL     OW32686   6.369   3.408   1.139
10596SOL    HW132687   6.279   3.379   1.108
10596SOL    HW232688   6.404   3.479   1.079
10597SOL     OW32689   0.981   6.661   4.979
10597SOL    HW132690   1.015   6.743   5.025
10597SOL    HW232691   1.055   6.620   4.925
10598SOL     OW32692   2.857   1.497   0.892
10598SOL    HW132693   2.954   1.506   0.869
10598SOL    HW232694   2.816   1.424   0.838
10599SOL     OW32695   0.727   1.832   1.010
10599SOL    HW132696   0.733   1.734   0.989
10599SOL    HW232697   0.679   1.844   1.097
10600SOL     OW32698   4.554   1.224   1.959
10600SOL    HW132699   4.645   1.263   1.942
10600SOL    HW232700   4.496   1.293   2.003
10601SOL     OW32701   1.753   2.138   5.186
10601SOL    HW132702   1.658   2.166   5.197
10601SOL    HW232703   1.808   2.216   5.155
10602SOL     OW32704   6.807   6.638   0.930
10602SOL    HW132705   6.826   6.711   0.995
10602SOL    HW232706   6.730   6.583   0.963
10603SOL     OW32707   5.719   0.229   3.004
10603SOL    HW132708   5.726   0.254   3.100
10603SOL    HW232709   5.779   0.151   2.985
10604SOL     OW32710   5.771   2.113   4.716
10604SOL    HW132711   5.740   2.182   4.782
10604SOL    HW232712   5.827   2.046   4.763
10605SOL     OW32713   4.818   1.553   1.404
10605SOL    HW132714   4.794   1.502   1.487
10605SOL    HW232715   4.765   1.638   1.401
10606SOL     OW32716   5.758   1.788   0.838
10606SOL    HW132717   5.798   1.872   0.874
10606SOL    HW232718   5.818   1.751   0.766
10607SOL     OW32719   1.710   4.871   1.472
10607SOL    HW132720   1.732   4.885   1.568
10607SOL    HW232721   1.762   4.935   1.416
10608SOL     OW32722   5.224   3.846   2.500
10608SOL    HW132723   5.204   3.778   2.429
10608SOL    HW232724   5.208   3.938   2.463
10609SOL     OW32725   5.733   5.769   6.825
10609SOL    HW132726   5.817   5.734   6.866
10609SOL    HW232727   5.747   5.862   6.791
10610SOL     OW32728   0.311   2.521   3.193
10610SOL    HW132729   0.383   2.458   3.164
10610SOL    HW232730   0.226   2.469   3.205
10611SOL     OW32731   4.020   5.709   6.676
10611SOL    HW132732   4.037   5.613   6.655
10611SOL    HW232733   3.934   5.718   6.727
10612SOL     OW32734   5.353   2.163   4.150
10612SOL    HW132735   5.423   2.118   4.095
10612SOL    HW232736   5.322   2.245   4.103
10613SOL     OW32737   4.879   4.860   5.881
10613SOL    HW132738   4.898   4.800   5.803
10613SOL    HW232739   4.786   4.844   5.913
10614SOL     OW32740   4.323   1.434   0.185
10614SOL    HW132741   4.377   1.407   0.264
10614SOL    HW232742   4.282   1.524   0.202
10615SOL     OW32743   4.234   2.993   5.953
10615SOL    HW132744   4.178   2.952   6.025
10615SOL    HW232745   4.330   2.991   5.980
10616SOL     OW32746   1.595   5.213   0.311
10616SOL    HW132747   1.585   5.293   0.371
10616SOL    HW232748   1.688   5.211   0.274
10617SOL     OW32749   2.173   3.417   0.270
10617SOL    HW132750   2.218   3.490   0.217
10617SOL    HW232751   2.203   3.422   0.365
10618SOL     OW32752   0.201   4.848   5.207
10618SOL    HW132753   0.191   4.769   5.147
10618SOL    HW232754   0.289   4.892   5.190
10619SOL     OW32755   1.501   2.049   1.067
10619SOL    HW132756   1.520   1.992   0.987
10619SOL    HW232757   1.587   2.070   1.113
10620SOL     OW32758   4.006   1.250   5.767
10620SOL    HW132759   4.003   1.342   5.726
10620SOL    HW232760   3.918   1.205   5.752
10621SOL     OW32761   0.785   5.529   4.510
10621SOL    HW132762   0.691   5.503   4.491
10621SOL    HW232763   0.787   5.621   4.548
10622SOL     OW32764   4.086   2.196   6.251
10622SOL    HW132765   4.004   2.254   6.244
10622SOL    HW232766   4.058   2.101   6.265
10623SOL     OW32767   5.639   4.919   5.058
10623SOL    HW132768   5.641   4.962   5.148
10623SOL    HW232769   5.710   4.849   5.053
10624SOL     OW32770   0.279   1.245   5.561
10624SOL    HW132771   0.206   1.249   5.493
10624SOL    HW232772   0.332   1.162   5.548
10625SOL     OW32773   6.415   4.985   6.812
10625SOL    HW132774   6.359   4.917   6.765
10625SOL    HW232775   6.511   4.957   6.807
10626SOL     OW32776   5.475   3.622   1.533
10626SOL    HW132777   5.410   3.695   1.511
10626SOL    HW232778   5.552   3.626   1.470
10627SOL     OW32779   4.977   5.467   5.483
10627SOL    HW132780   4.957   5.551   5.535
10627SOL    HW232781   5.068   5.475   5.441
10628SOL     OW32782   2.585   6.376   1.850
10628SOL    HW132783   2.597   6.305   1.780
10628SOL    HW232784   2.537   6.454   1.810
10629SOL     OW32785   4.394   5.577   4.037
10629SOL    HW132786   4.388   5.571   4.137
10629SOL    HW232787   4.341   5.655   4.005
10630SOL     OW32788   4.104   1.049   1.785
10630SOL    HW132789   4.096   1.013   1.692
10630SOL    HW232790   4.149   0.981   1.843
10631SOL     OW32791   3.589   5.973   1.930
10631SOL    HW132792   3.666   5.938   1.984
10631SOL    HW232793   3.611   6.065   1.899
10632SOL     OW32794   6.044   0.782   4.919
10632SOL    HW132795   6.032   0.720   4.997
10632SOL    HW232796   5.955   0.810   4.884
10633SOL     OW32797   2.753   3.735   0.214
10633SOL    HW132798   2.768   3.646   0.170
10633SOL    HW232799   2.834   3.792   0.205
10634SOL     OW32800   0.916   4.106   0.962
10634SOL    HW132801   0.923   4.203   0.938
10634SOL    HW232802   0.997   4.058   0.930
10635SOL     OW32803   3.151   5.072   0.457
10635SOL    HW132804   3.087   5.080   0.533
10635SOL    HW232805   3.101   5.041   0.375
10636SOL     OW32806   0.730   2.656   0.412
10636SOL    HW132807   0.804   2.687   0.352
10636SOL    HW232808   0.709   2.728   0.479
10637SOL     OW32809   1.584   6.506   5.217
10637SOL    HW132810   1.601   6.568   5.293
10637SOL    HW232811   1.504   6.538   5.165
10638SOL     OW32812   5.946   4.176   6.905
10638SOL    HW132813   5.918   4.118   6.829
10638SOL    HW232814   5.912   4.269   6.892
10639SOL     OW32815   6.759   5.250   6.540
10639SOL    HW132816   6.795   5.162   6.573
10639SOL    HW232817   6.667   5.236   6.503
10640SOL     OW32818   4.381   5.713   4.849
10640SOL    HW132819   4.384   5.613   4.840
10640SOL    HW232820   4.405   5.739   4.943
10641SOL     OW32821   0.933   1.290   3.319
10641SOL    HW132822   0.857   1.240   3.278
10641SOL    HW232823   0.932   1.276   3.418
10642SOL     OW32824   6.452   2.232   5.748
10642SOL    HW132825   6.505   2.147   5.740
10642SOL    HW232826   6.497   2.293   5.814
10643SOL     OW32827   3.537   5.464   4.822
10643SOL    HW132828   3.548   5.562   4.840
10643SOL    HW232829   3.521   5.416   4.908
10644SOL     OW32830   1.735   3.967   3.800
10644SOL    HW132831   1.690   4.046   3.759
10644SOL    HW232832   1.791   3.997   3.877
10645SOL     OW32833   1.839   3.246   3.280
10645SOL    HW132834   1.887   3.193   3.349
10645SOL    HW232835   1.904   3.285   3.215
10646SOL     OW32836   5.437   1.254   3.201
10646SOL    HW132837   5.350   1.235   3.247
10646SOL    HW232838   5.430   1.231   3.104
10647SOL     OW32839   4.749   6.031   4.682
10647SOL    HW132840   4.657   6.065   4.669
10647SOL    HW232841   4.762   5.946   4.630
10648SOL     OW32842   4.494   3.275   5.790
10648SOL    HW132843   4.540   3.200   5.837
10648SOL    HW232844   4.397   3.276   5.814
10649SOL     OW32845   6.122   3.305   3.321
10649SOL    HW132846   6.169   3.218   3.331
10649SOL    HW232847   6.174   3.377   3.367
10650SOL     OW32848   0.652   1.086   2.765
10650SOL    HW132849   0.563   1.060   2.802
10650SOL    HW232850   0.665   1.041   2.676
10651SOL     OW32851   2.236   5.659   5.219
10651SOL    HW132852   2.193   5.749   5.221
10651SOL    HW232853   2.335   5.669   5.229
10652SOL     OW32854   3.405   0.296   0.186
10652SOL    HW132855   3.379   0.383   0.227
10652SOL    HW232856   3.458   0.243   0.252
10653SOL     OW32857   6.154   6.095   4.815
10653SOL    HW132858   6.071   6.138   4.852
10653SOL    HW232859   6.224   6.093   4.886
10654SOL     OW32860   6.791   1.640   3.796
10654SOL    HW132861   6.833   1.575   3.859
10654SOL    HW232862   6.833   1.630   3.706
10655SOL     OW32863   6.314   4.873   0.717
10655SOL    HW132864   6.273   4.880   0.627
10655SOL    HW232865   6.391   4.809   0.714
10656SOL     OW32866   5.537   0.657   5.537
10656SOL    HW132867   5.486   0.743   5.532
10656SOL    HW232868   5.503   0.602   5.612
10657SOL     OW32869   5.028   0.398   5.720
10657SOL    HW132870   4.990   0.488   5.700
10657SOL    HW232871   5.127   0.400   5.708
10658SOL     OW32872   1.381   0.890   5.023
10658SOL    HW132873   1.312   0.928   5.085
10658SOL    HW232874   1.456   0.850   5.076
10659SOL     OW32875   0.529   5.586   6.717
10659SOL    HW132876   0.468   5.654   6.675
10659SOL    HW232877   0.595   5.633   6.777
10660SOL     OW32878   6.394   2.173   6.115
10660SOL    HW132879   6.428   2.228   6.191
10660SOL    HW232880   6.465   2.111   6.084
10661SOL     OW32881   4.192   5.540   6.016
10661SOL    HW132882   4.118   5.556   6.081
10661SOL    HW232883   4.159   5.486   5.939
10662SOL     OW32884   3.406   1.672   1.292
10662SOL    HW132885   3.336   1.743   1.289
10662SOL    HW232886   3.474   1.696   1.361
10663SOL     OW32887   6.770   3.404   3.931
10663SOL    HW132888   6.744   3.406   4.027
10663SOL    HW232889   6.870   3.401   3.924
10664SOL     OW32890   0.513   6.170   4.452
10664SOL    HW132891   0.592   6.141   4.398
10664SOL    HW232892   0.487   6.096   4.515
10665SOL     OW32893   4.641   3.757   0.958
10665SOL    HW132894   4.629   3.704   1.041
10665SOL    HW232895   4.732   3.797   0.956
10666SOL     OW32896   5.280   3.617   1.865
10666SOL    HW132897   5.180   3.623   1.871
10666SOL    HW232898   5.314   3.686   1.801
10667SOL     OW32899   5.630   2.683   4.220
10667SOL    HW132900   5.661   2.602   4.271
10667SOL    HW232901   5.624   2.661   4.123
10668SOL     OW32902   3.086   3.539   5.889
10668SOL    HW132903   2.991   3.544   5.859
10668SOL    HW232904   3.093   3.476   5.967
10669SOL     OW32905   6.874   2.479   1.955
10669SOL    HW132906   6.960   2.510   1.915
10669SOL    HW232907   6.803   2.477   1.884
10670SOL     OW32908   4.743   4.656   4.083
10670SOL    HW132909   4.653   4.622   4.109
10670SOL    HW232910   4.812   4.621   4.146
10671SOL     OW32911   1.765   3.326   4.242
10671SOL    HW132912   1.769   3.258   4.169
10671SOL    HW232913   1.671   3.358   4.253
10672SOL     OW32914   6.303   5.174   1.622
10672SOL    HW132915   6.361   5.198   1.544
10672SOL    HW232916   6.339   5.091   1.666
10673SOL     OW32917   3.210   1.012   1.466
10673SOL    HW132918   3.183   1.102   1.430
10673SOL    HW232919   3.307   1.015   1.493
10674SOL     OW32920   3.833   2.913   3.155
10674SOL    HW132921   3.754   2.956   3.111
10674SOL    HW232922   3.914   2.926   3.098
10675SOL     OW32923   3.878   6.382   5.759
10675SOL    HW132924   3.859   6.357   5.664
10675SOL    HW232925   3.845   6.475   5.776
10676SOL     OW32926   1.226   1.363   4.475
10676SOL    HW132927   1.166   1.443   4.464
10676SOL    HW232928   1.316   1.394   4.506
10677SOL     OW32929   0.127   1.127   6.757
10677SOL    HW132930   0.118   1.058   6.829
10677SOL    HW232931   0.198   1.193   6.783
10678SOL     OW32932   3.268   4.944   2.704
10678SOL    HW132933   3.171   4.927   2.725
10678SOL    HW232934   3.287   4.916   2.610
10679SOL     OW32935   5.468   3.973   6.898
10679SOL    HW132936   5.517   3.995   6.982
10679SOL    HW232937   5.459   4.056   6.842
10680SOL     OW32938   4.078   1.988   4.902
10680SOL    HW132939   3.989   2.018   4.867
10680SOL    HW232940   4.079   1.889   4.911
10681SOL     OW32941   2.700   3.245   5.712
10681SOL    HW132942   2.633   3.247   5.786
10681SOL    HW232943   2.656   3.272   5.626
10682SOL     OW32944   5.391   3.350   6.112
10682SOL    HW132945   5.331   3.304   6.047
10682SOL    HW232946   5.352   3.345   6.204
10683SOL     OW32947   1.885   6.581   3.031
10683SOL    HW132948   1.858   6.486   3.013
10683SOL    HW232949   1.853   6.608   3.122
10684SOL     OW32950   4.929   4.034   1.378
10684SOL    HW132951   4.995   4.064   1.309
10684SOL    HW232952   4.973   4.029   1.467
10685SOL     OW32953   0.651   0.844   2.563
10685SOL    HW132954   0.749   0.840   2.543
10685SOL    HW232955   0.604   0.771   2.515
10686SOL     OW32956   2.915   1.889   6.733
10686SOL    HW132957   2.843   1.951   6.766
10686SOL    HW232958   2.873   1.809   6.691
10687SOL     OW32959   0.635   3.340   3.167
10687SOL    HW132960   0.628   3.440   3.175
10687SOL    HW232961   0.649   3.301   3.258
10688SOL     OW32962   4.654   1.208   3.588
10688SOL    HW132963   4.641   1.303   3.558
10688SOL    HW232964   4.565   1.167   3.606
10689SOL     OW32965   1.716   1.267   3.272
10689SOL    HW132966   1.727   1.304   3.180
10689SOL    HW232967   1.666   1.180   3.268
10690SOL     OW32968   1.390   5.896   4.840
10690SOL    HW132969   1.304   5.891   4.891
10690SOL    HW232970   1.413   5.991   4.822
10691SOL     OW32971   3.432   6.599   1.247
10691SOL    HW132972   3.365   6.671   1.266
10691SOL    HW232973   3.514   6.613   1.301
10692SOL     OW32974   2.768   2.202   4.191
10692SOL    HW132975   2.864   2.176   4.181
10692SOL    HW232976   2.753   2.242   4.282
10693SOL     OW32977   1.424   4.091   0.190
10693SOL    HW132978   1.484   4.012   0.177
10693SOL    HW232979   1.400   4.130   0.101
10694SOL     OW32980   5.115   2.460   5.590
10694SOL    HW132981   5.148   2.486   5.681
10694SOL    HW232982   5.016   2.477   5.585
10695SOL     OW32983   4.643   4.873   1.591
10695SOL    HW132984   4.646   4.802   1.661
10695SOL    HW232985   4.676   4.835   1.504
10696SOL     OW32986   6.572   5.090   4.234
10696SOL    HW132987   6.594   5.064   4.328
10696SOL    HW232988   6.654   5.078   4.177
10697SOL     OW32989   2.573   4.953   5.002
10697SOL    HW132990   2.516   4.872   4.997
10697SOL    HW232991   2.662   4.929   5.041
10698SOL     OW32992   3.924   4.833   6.865
10698SOL    HW132993   3.890   4.833   6.958
10698SOL    HW232994   3.974   4.748   6.848
10699SOL     OW32995   4.526   3.821   1.578
10699SOL    HW132996   4.612   3.810   1.627
10699SOL    HW232997   4.498   3.917   1.581
10700SOL     OW32998   4.980   0.134   1.448
10700SOL    HW132999   5.033   0.219   1.449
10700SOL    HW233000   4.937   0.123   1.359
10701SOL     OW33001   3.483   6.629   5.737
10701SOL    HW133002   3.517   6.536   5.728
10701SOL    HW233003   3.401   6.640   5.681
10702SOL     OW33004   5.788   2.791   2.325
10702SOL    HW133005   5.864   2.841   2.366
10702SOL    HW233006   5.775   2.823   2.231
10703SOL     OW33007   0.743   1.915   5.650
10703SOL    HW133008   0.754   1.911   5.749
10703SOL    HW233009   0.665   1.972   5.627
10704SOL     OW33010   5.237   6.688   1.838
10704SOL    HW133011   5.275   6.614   1.782
10704SOL    HW233012   5.278   6.685   1.929
10705SOL     OW33013   4.764   3.820   1.695
10705SOL    HW133014   4.807   3.891   1.752
10705SOL    HW233015   4.834   3.773   1.642
10706SOL     OW33016   3.141   1.095   2.050
10706SOL    HW133017   3.052   1.092   2.095
10706SOL    HW233018   3.131   1.064   1.955
10707SOL     OW33019   3.886   6.934   3.249
10707SOL    HW133020   3.788   6.914   3.255
10707SOL    HW233021   3.907   6.966   3.156
10708SOL     OW33022   4.292   1.112   1.347
10708SOL    HW133023   4.340   1.042   1.401
10708SOL    HW233024   4.359   1.169   1.300
10709SOL     OW33025   5.652   4.266   3.087
10709SOL    HW133026   5.608   4.203   3.151
10709SOL    HW233027   5.637   4.234   2.994
10710SOL     OW33028   4.543   1.731   3.144
10710SOL    HW133029   4.625   1.720   3.088
10710SOL    HW233030   4.464   1.749   3.084
10711SOL     OW33031   2.360   6.295   3.183
10711SOL    HW133032   2.366   6.199   3.210
10711SOL    HW233033   2.266   6.327   3.193
10712SOL     OW33034   5.303   0.855   3.230
10712SOL    HW133035   5.265   0.809   3.150
10712SOL    HW233036   5.281   0.802   3.312
10713SOL     OW33037   0.989   3.998   1.267
10713SOL    HW133038   1.063   4.065   1.272
10713SOL    HW233039   1.009   3.932   1.194
10714SOL     OW33040   3.110   4.038   4.916
10714SOL    HW133041   3.023   4.002   4.951
10714SOL    HW233042   3.146   4.106   4.980
10715SOL     OW33043   6.283   0.858   1.671
10715SOL    HW133044   6.261   0.825   1.579
10715SOL    HW233045   6.360   0.806   1.707
10716SOL     OW33046   4.871   0.893   3.135
10716SOL    HW133047   4.913   0.984   3.138
10716SOL    HW233048   4.913   0.835   3.204
10717SOL     OW33049   3.405   3.101   0.524
10717SOL    HW133050   3.350   3.169   0.476
10717SOL    HW233051   3.444   3.037   0.457
10718SOL     OW33052   1.822   5.178   6.488
10718SOL    HW133053   1.736   5.187   6.437
10718SOL    HW233054   1.826   5.087   6.530
10719SOL     OW33055   6.816   4.589   5.628
10719SOL    HW133056   6.736   4.563   5.681
10719SOL    HW233057   6.897   4.586   5.686
10720SOL     OW33058   6.967   5.348   2.996
10720SOL    HW133059   6.880   5.377   3.036
10720SOL    HW233060   6.962   5.357   2.896
10721SOL     OW33061   5.128   2.835   6.529
10721SOL    HW133062   5.078   2.897   6.468
10721SOL    HW233063   5.171   2.888   6.602
10722SOL     OW33064   0.065   3.839   5.537
10722SOL    HW133065   0.031   3.933   5.526
10722SOL    HW233066   7.014   3.785   5.588
10723SOL     OW33067   5.819   5.967   0.861
10723SOL    HW133068   5.732   5.926   0.832
10723SOL    HW233069   5.827   6.059   0.823
10724SOL     OW33070   0.443   6.264   6.229
10724SOL    HW133071   0.530   6.239   6.186
10724SOL    HW233072   0.401   6.338   6.177
10725SOL     OW33073   2.523   6.614   6.196
10725SOL    HW133074   2.604   6.556   6.182
10725SOL    HW233075   2.443   6.571   6.155
10726SOL     OW33076   3.578   0.658   4.216
10726SOL    HW133077   3.569   0.733   4.150
10726SOL    HW233078   3.632   0.584   4.176
10727SOL     OW33079   2.388   6.161   6.794
10727SOL    HW133080   2.431   6.071   6.785
10727SOL    HW233081   2.321   6.159   6.869
10728SOL     OW33082   5.251   6.053   1.890
10728SOL    HW133083   5.175   6.097   1.841
10728SOL    HW233084   5.269   6.103   1.974
10729SOL     OW33085   6.600   1.884   0.534
10729SOL    HW133086   6.562   1.830   0.458
10729SOL    HW233087   6.561   1.976   0.531
10730SOL     OW33088   4.672   0.485   3.224
10730SOL    HW133089   4.593   0.434   3.190
10730SOL    HW233090   4.644   0.539   3.304
10731SOL     OW33091   3.327   0.063   0.936
10731SOL    HW133092   3.319   6.980   0.948
10731SOL    HW233093   3.410   0.095   0.982
10732SOL     OW33094   0.610   3.182   5.837
10732SOL    HW133095   0.567   3.206   5.750
10732SOL    HW233096   0.542   3.139   5.896
10733SOL     OW33097   6.083   0.378   7.008
10733SOL    HW133098   6.131   0.308   6.955
10733SOL    HW233099   5.984   0.360   7.006
10734SOL     OW33100   5.562   3.037   1.717
10734SOL    HW133101   5.466   3.022   1.691
10734SOL    HW233102   5.618   2.963   1.681
10735SOL     OW33103   6.829   5.626   2.744
10735SOL    HW133104   6.737   5.632   2.704
10735SOL    HW233105   6.866   5.534   2.729
10736SOL     OW33106   1.997   1.404   4.912
10736SOL    HW133107   2.005   1.381   5.009
10736SOL    HW233108   1.993   1.504   4.902
10737SOL     OW33109   0.190   1.673   6.477
10737SOL    HW133110   0.267   1.646   6.420
10737SOL    HW233111   0.143   1.751   6.436
10738SOL     OW33112   3.999   0.193   4.437
10738SOL    HW133113   3.985   0.098   4.408
10738SOL    HW233114   3.952   0.254   4.373
10739SOL     OW33115   1.848   1.452   2.131
10739SOL    HW133116   1.784   1.377   2.147
10739SOL    HW233117   1.802   1.525   2.080
10740SOL     OW33118   4.288   6.241   3.840
10740SOL    HW133119   4.358   6.169   3.844
10740SOL    HW233120   4.205   6.210   3.884
10741SOL     OW33121   2.264   0.585   3.035
10741SOL    HW133122   2.297   0.526   3.108
10741SOL    HW233123   2.217   0.531   2.966
10742SOL     OW33124   6.805   5.646   0.260
10742SOL    HW133125   6.805   5.745   0.249
10742SOL    HW233126   6.722   5.608   0.218
10743SOL     OW33127   3.516   1.238   5.066
10743SOL    HW133128   3.522   1.212   4.969
10743SOL    HW233129   3.476   1.163   5.118
10744SOL     OW33130   6.054   1.357   0.514
10744SOL    HW133131   6.022   1.269   0.480
10744SOL    HW233132   6.003   1.431   0.468
10745SOL     OW33133   6.887   6.019   6.278
10745SOL    HW133134   6.925   6.004   6.370
10745SOL    HW233135   6.884   6.117   6.260
10746SOL     OW33136   1.876   4.435   5.039
10746SOL    HW133137   1.915   4.494   5.111
10746SOL    HW233138   1.938   4.432   4.961
10747SOL     OW33139   2.850   2.225   5.025
10747SOL    HW133140   2.936   2.276   5.034
10747SOL    HW233141   2.786   2.278   4.969
10748SOL     OW33142   5.708   1.657   2.695
10748SOL    HW133143   5.803   1.646   2.665
10748SOL    HW233144   5.649   1.593   2.647
10749SOL     OW33145   3.529   0.165   0.413
10749SOL    HW133146   3.447   0.112   0.433
10749SOL    HW233147   3.602   0.139   0.476
10750SOL     OW33148   4.732   6.268   6.425
10750SOL    HW133149   4.775   6.186   6.388
10750SOL    HW233150   4.643   6.282   6.381
10751SOL     OW33151   2.404   6.174   2.777
10751SOL    HW133152   2.449   6.224   2.852
10751SOL    HW233153   2.459   6.183   2.694
10752SOL     OW33154   4.816   5.674   4.298
10752SOL    HW133155   4.875   5.751   4.322
10752SOL    HW233156   4.722   5.696   4.323
10753SOL     OW33157   5.685   4.321   4.497
10753SOL    HW133158   5.663   4.230   4.461
10753SOL    HW233159   5.609   4.383   4.479
10754SOL     OW33160   1.216   6.754   2.487
10754SOL    HW133161   1.240   6.727   2.393
10754SOL    HW233162   1.123   6.791   2.488
10755SOL     OW33163   6.305   5.785   1.498
10755SOL    HW133164   6.264   5.826   1.579
10755SOL    HW233165   6.233   5.760   1.433
10756SOL     OW33166   0.297   6.793   5.103
10756SOL    HW133167   0.359   6.839   5.039
10756SOL    HW233168   0.323   6.697   5.112
10757SOL     OW33169   2.865   2.815   1.613
10757SOL    HW133170   2.777   2.792   1.656
10757SOL    HW233171   2.895   2.738   1.556
10758SOL     OW33172   6.850   5.351   4.348
10758SOL    HW133173   6.809   5.324   4.261
10758SOL    HW233174   6.830   5.282   4.418
10759SOL     OW33175   6.892   0.858   6.622
10759SOL    HW133176   6.905   0.805   6.707
10759SOL    HW233177   6.859   0.949   6.645
10760SOL     OW33178   5.648   1.868   4.612
10760SOL    HW133179   5.715   1.818   4.668
10760SOL    HW233180   5.683   1.960   4.594
10761SOL     OW33181   3.496   5.301   5.935
10761SOL    HW133182   3.557   5.380   5.933
10761SOL    HW233183   3.508   5.247   5.852
10762SOL     OW33184   2.986   1.007   6.349
10762SOL    HW133185   3.054   0.984   6.280
10762SOL    HW233186   2.907   0.946   6.340
10763SOL     OW33187   5.007   5.031   4.257
10763SOL    HW133188   5.021   4.936   4.286
10763SOL    HW233189   4.949   5.078   4.324
10764SOL     OW33190   4.587   0.381   4.704
10764SOL    HW133191   4.671   0.397   4.652
10764SOL    HW233192   4.608   0.383   4.802
10765SOL     OW33193   7.014   3.791   0.042
10765SOL    HW133194   6.929   3.816   7.013
10765SOL    HW233195   7.010   3.695   0.070
10766SOL     OW33196   3.092   3.374   2.015
10766SOL    HW133197   2.996   3.361   2.041
10766SOL    HW233198   3.103   3.463   1.972
10767SOL     OW33199   4.698   1.959   2.026
10767SOL    HW133200   4.634   1.987   2.098
10767SOL    HW233201   4.653   1.969   1.937
10768SOL     OW33202   5.854   4.405   6.499
10768SOL    HW133203   5.945   4.367   6.518
10768SOL    HW233204   5.836   4.400   6.401
10769SOL     OW33205   1.989   3.600   4.540
10769SOL    HW133206   2.045   3.683   4.545
10769SOL    HW233207   1.996   3.550   4.626
10770SOL     OW33208   3.842   6.016   3.887
10770SOL    HW133209   3.761   6.073   3.901
10770SOL    HW233210   3.825   5.925   3.924
10771SOL     OW33211   2.438   1.968   4.027
10771SOL    HW133212   2.530   2.000   4.002
10771SOL    HW233213   2.374   2.045   4.021
10772SOL     OW33214   5.027   5.795   4.112
10772SOL    HW133215   4.964   5.738   4.163
10772SOL    HW233216   5.121   5.767   4.131
10773SOL     OW33217   5.330   5.233   2.785
10773SOL    HW133218   5.414   5.250   2.732
10773SOL    HW233219   5.269   5.176   2.732
10774SOL     OW33220   7.003   6.826   3.261
10774SOL    HW133221   7.002   6.925   3.248
10774SOL    HW233222   0.052   6.784   3.198
10775SOL     OW33223   0.220   2.814   1.110
10775SOL    HW133224   0.219   2.899   1.056
10775SOL    HW233225   0.244   2.737   1.051
10776SOL     OW33226   1.676   0.472   5.813
10776SOL    HW133227   1.699   0.565   5.784
10776SOL    HW233228   1.672   0.468   5.912
10777SOL     OW33229   3.156   5.614   1.590
10777SOL    HW133230   3.063   5.601   1.558
10777SOL    HW233231   3.216   5.633   1.512
10778SOL     OW33232   5.723   6.041   1.423
10778SOL    HW133233   5.676   5.963   1.383
10778SOL    HW233234   5.688   6.057   1.516
10779SOL     OW33235   4.858   2.915   3.633
10779SOL    HW133236   4.843   2.828   3.586
10779SOL    HW233237   4.828   2.990   3.575
10780SOL     OW33238   6.676   0.276   2.072
10780SOL    HW133239   6.676   0.294   2.171
10780SOL    HW233240   6.619   0.345   2.027
10781SOL     OW33241   3.197   0.101   3.723
10781SOL    HW133242   3.124   0.039   3.695
10781SOL    HW233243   3.225   0.158   3.646
10782SOL     OW33244   6.570   5.775   3.532
10782SOL    HW133245   6.523   5.700   3.578
10782SOL    HW233246   6.503   5.832   3.484
10783SOL     OW33247   6.470   2.502   2.662
10783SOL    HW133248   6.446   2.410   2.694
10783SOL    HW233249   6.453   2.508   2.564
10784SOL     OW33250   1.778   1.766   5.023
10784SOL    HW133251   1.772   1.841   5.089
10784SOL    HW233252   1.725   1.790   4.942
10785SOL     OW33253   1.467   3.616   5.823
10785SOL    HW133254   1.460   3.527   5.779
10785SOL    HW233255   1.432   3.610   5.917
10786SOL     OW33256   6.504   4.378   4.805
10786SOL    HW133257   6.528   4.325   4.724
10786SOL    HW233258   6.516   4.475   4.787
10787SOL     OW33259   2.171   2.356   5.808
10787SOL    HW133260   2.158   2.259   5.784
10787SOL    HW233261   2.142   2.371   5.902
10788SOL     OW33262   5.829   3.612   6.230
10788SOL    HW133263   5.844   3.706   6.201
10788SOL    HW233264   5.733   3.599   6.255
10789SOL     OW33265   4.837   1.009   6.646
10789SOL    HW133266   4.843   1.092   6.701
10789SOL    HW233267   4.817   0.931   6.706
10790SOL     OW33268   5.543   6.621   2.473
10790SOL    HW133269   5.571   6.674   2.393
10790SOL    HW233270   5.589   6.532   2.473
10791SOL     OW33271   0.836   6.207   2.692
10791SOL    HW133272   0.757   6.146   2.687
10791SOL    HW233273   0.842   6.246   2.784
10792SOL     OW33274   3.851   4.526   6.360
10792SOL    HW133275   3.790   4.590   6.406
10792SOL    HW233276   3.822   4.515   6.264
10793SOL     OW33277   5.414   4.405   4.491
10793SOL    HW133278   5.388   4.379   4.584
10793SOL    HW233279   5.348   4.367   4.426
10794SOL     OW33280   3.440   3.387   4.555
10794SOL    HW133281   3.355   3.424   4.516
10794SOL    HW233282   3.418   3.313   4.618
10795SOL     OW33283   6.916   4.874   3.087
10795SOL    HW133284   6.884   4.789   3.045
10795SOL    HW233285   6.839   4.925   3.124
10796SOL     OW33286   0.922   6.714   5.533
10796SOL    HW133287   0.980   6.637   5.508
10796SOL    HW233288   0.978   6.796   5.542
10797SOL     OW33289   3.789   2.546   0.558
10797SOL    HW133290   3.862   2.612   0.537
10797SOL    HW233291   3.700   2.591   0.553
10798SOL     OW33292   5.701   1.405   0.792
10798SOL    HW133293   5.715   1.445   0.701
10798SOL    HW233294   5.775   1.434   0.853
10799SOL     OW33295   5.121   1.383   1.043
10799SOL    HW133296   5.088   1.412   1.133
10799SOL    HW233297   5.150   1.287   1.047
10800SOL     OW33298   6.634   6.498   1.074
10800SOL    HW133299   6.587   6.433   1.014
10800SOL    HW233300   6.706   6.451   1.124
10801SOL     OW33301   2.110   0.631   1.313
10801SOL    HW133302   2.167   0.577   1.251
10801SOL    HW233303   2.152   0.720   1.328
10802SOL     OW33304   5.388   1.372   3.685
10802SOL    HW133305   5.306   1.429   3.672
10802SOL    HW233306   5.423   1.346   3.595
10803SOL     OW33307   2.249   4.727   4.983
10803SOL    HW133308   2.156   4.718   4.946
10803SOL    HW233309   2.294   4.638   4.983
10804SOL     OW33310   6.141   3.373   4.039
10804SOL    HW133311   6.133   3.321   3.954
10804SOL    HW233312   6.157   3.469   4.018
10805SOL     OW33313   6.936   6.773   6.601
10805SOL    HW133314   6.907   6.865   6.628
10805SOL    HW233315   0.018   6.763   6.614
10806SOL     OW33316   1.503   4.967   1.170
10806SOL    HW133317   1.566   4.907   1.219
10806SOL    HW233318   1.452   4.913   1.102
10807SOL     OW33319   3.151   5.138   5.025
10807SOL    HW133320   3.227   5.183   5.071
10807SOL    HW233321   3.155   5.159   4.927
10808SOL     OW33322   1.685   2.932   0.320
10808SOL    HW133323   1.641   2.996   0.384
10808SOL    HW233324   1.638   2.844   0.323
10809SOL     OW33325   1.286   0.785   4.753
10809SOL    HW133326   1.345   0.710   4.721
10809SOL    HW233327   1.291   0.791   4.852
10810SOL     OW33328   6.408   0.494   3.647
10810SOL    HW133329   6.370   0.585   3.630
10810SOL    HW233330   6.507   0.500   3.654
10811SOL     OW33331   5.427   5.526   5.122
10811SOL    HW133332   5.334   5.491   5.116
10811SOL    HW233333   5.427   5.609   5.178
10812SOL     OW33334   0.468   3.032   1.052
10812SOL    HW133335   0.530   3.089   0.999
10812SOL    HW233336   0.499   3.028   1.147
10813SOL     OW33337   1.082   3.686   6.783
10813SOL    HW133338   0.989   3.654   6.800
10813SOL    HW233339   1.142   3.654   6.857
10814SOL     OW33340   3.346   2.008   2.158
10814SOL    HW133341   3.263   2.063   2.166
10814SOL    HW233342   3.328   1.928   2.102
10815SOL     OW33343   5.602   1.011   4.635
10815SOL    HW133344   5.610   1.038   4.540
10815SOL    HW233345   5.509   0.979   4.653
10816SOL     OW33346   3.159   3.185   5.936
10816SOL    HW133347   3.060   3.173   5.949
10816SOL    HW233348   3.203   3.096   5.931
10817SOL     OW33349   1.643   6.109   4.595
10817SOL    HW133350   1.661   6.020   4.553
10817SOL    HW233351   1.714   6.174   4.568
10818SOL     OW33352   4.765   3.709   0.117
10818SOL    HW133353   4.710   3.788   0.143
10818SOL    HW233354   4.721   3.626   0.151
10819SOL     OW33355   6.238   5.829   5.412
10819SOL    HW133356   6.226   5.926   5.434
10819SOL    HW233357   6.255   5.778   5.497
10820SOL     OW33358   1.460   4.825   6.331
10820SOL    HW133359   1.475   4.793   6.238
10820SOL    HW233360   1.412   4.913   6.329
10821SOL     OW33361   4.234   5.802   4.017
10821SOL    HW133362   4.153   5.750   4.046
10821SOL    HW233363   4.252   5.875   4.083
10822SOL     OW33364   5.441   0.311   2.779
10822SOL    HW133365   5.506   0.364   2.834
10822SOL    HW233366   5.351   0.356   2.781
10823SOL     OW33367   5.300   6.650   2.565
10823SOL    HW133368   5.293   6.587   2.642
10823SOL    HW233369   5.387   6.637   2.518
10824SOL     OW33370   1.664   2.210   3.292
10824SOL    HW133371   1.650   2.309   3.297
10824SOL    HW233372   1.582   2.167   3.254
10825SOL     OW33373   6.901   1.214   0.253
10825SOL    HW133374   6.975   1.280   0.236
10825SOL    HW233375   6.816   1.247   0.212
10826SOL     OW33376   6.940   3.180   2.903
10826SOL    HW133377   6.934   3.265   2.955
10826SOL    HW233378   0.011   3.135   2.920
10827SOL     OW33379   7.006   3.175   3.983
10827SOL    HW133380   6.975   3.100   4.043
10827SOL    HW233381   0.073   3.215   4.020
10828SOL     OW33382   6.773   4.310   4.958
10828SOL    HW133383   6.842   4.342   4.894
10828SOL    HW233384   6.817   4.280   5.042
10829SOL     OW33385   4.035   3.034   5.287
10829SOL    HW133386   3.980   3.014   5.368
10829SOL    HW233387   3.975   3.037   5.207
10830SOL     OW33388   5.032   1.808   3.586
10830SOL    HW133389   4.965   1.749   3.542
10830SOL    HW233390   5.006   1.904   3.572
10831SOL     OW33391   4.222   0.108   3.100
10831SOL    HW133392   4.252   0.051   3.177
10831SOL    HW233393   4.191   0.197   3.133
10832SOL     OW33394   6.696   3.214   6.407
10832SOL    HW133395   6.685   3.275   6.485
10832SOL    HW233396   6.695   3.267   6.323
10833SOL     OW33397   0.875   1.138   6.552
10833SOL    HW133398   0.882   1.216   6.615
10833SOL    HW233399   0.966   1.113   6.519
10834SOL     OW33400   6.962   6.384   2.264
10834SOL    HW133401   6.943   6.309   2.202
10834SOL    HW233402   6.995   6.463   2.213
10835SOL     OW33403   6.880   2.820   5.569
10835SOL    HW133404   6.807   2.768   5.526
10835SOL    HW233405   6.890   2.908   5.523
10836SOL     OW33406   6.959   1.639   3.549
10836SOL    HW133407   6.995   1.578   3.479
10836SOL    HW233408   0.004   1.640   3.628
10837SOL     OW33409   6.878   3.289   3.518
10837SOL    HW133410   6.936   3.359   3.561
10837SOL    HW233411   6.891   3.293   3.419
10838SOL     OW33412   0.320   6.861   2.548
10838SOL    HW133413   0.392   6.837   2.482
10838SOL    HW233414   0.350   6.835   2.640
10839SOL     OW33415   4.652   2.464   0.261
10839SOL    HW133416   4.638   2.424   0.171
10839SOL    HW233417   4.744   2.442   0.294
10840SOL     OW33418   2.893   0.515   2.328
10840SOL    HW133419   2.885   0.521   2.228
10840SOL    HW233420   2.831   0.582   2.370
10841SOL     OW33421   2.122   5.154   4.601
10841SOL    HW133422   2.166   5.204   4.676
10841SOL    HW233423   2.186   5.149   4.523
10842SOL     OW33424   6.749   4.718   1.733
10842SOL    HW133425   6.796   4.669   1.807
10842SOL    HW233426   6.655   4.737   1.760
10843SOL     OW33427   3.030   1.208   1.380
10843SOL    HW133428   3.076   1.273   1.440
10843SOL    HW233429   2.987   1.257   1.304
10844SOL     OW33430   1.662   5.503   4.301
10844SOL    HW133431   1.650   5.602   4.305
10844SOL    HW233432   1.575   5.460   4.277
10845SOL     OW33433   3.792   0.935   4.113
10845SOL    HW133434   3.703   0.910   4.078
10845SOL    HW233435   3.781   0.984   4.200
10846SOL     OW33436   5.503   6.537   6.485
10846SOL    HW133437   5.539   6.487   6.407
10846SOL    HW233438   5.436   6.605   6.454
10847SOL     OW33439   3.386   6.960   7.012
10847SOL    HW133440   3.454   6.887   6.999
10847SOL    HW233441   3.304   6.921   0.039
10848SOL     OW33442   1.593   3.228   2.352
10848SOL    HW133443   1.683   3.192   2.378
10848SOL    HW233444   1.595   3.328   2.359
10849SOL     OW33445   1.155   6.295   3.601
10849SOL    HW133446   1.246   6.270   3.567
10849SOL    HW233447   1.088   6.231   3.565
10850SOL     OW33448   5.004   4.250   0.261
10850SOL    HW133449   4.936   4.322   0.276
10850SOL    HW233450   5.002   4.222   0.165
10851SOL     OW33451   1.551   4.807   0.771
10851SOL    HW133452   1.620   4.760   0.826
10851SOL    HW233453   1.568   4.905   0.773
10852SOL     OW33454   3.157   0.589   1.318
10852SOL    HW133455   3.119   0.605   1.409
10852SOL    HW233456   3.102   0.638   1.250
10853SOL     OW33457   3.451   1.154   5.715
10853SOL    HW133458   3.391   1.079   5.689
10853SOL    HW233459   3.535   1.118   5.756
10854SOL     OW33460   2.924   6.293   6.146
10854SOL    HW133461   2.940   6.202   6.109
10854SOL    HW233462   2.938   6.292   6.246
10855SOL     OW33463   4.152   0.860   6.621
10855SOL    HW133464   4.104   0.889   6.704
10855SOL    HW233465   4.197   0.939   6.580
10856SOL     OW33466   0.336   0.253   0.869
10856SOL    HW133467   0.396   0.179   0.837
10856SOL    HW233468   0.388   0.338   0.875
10857SOL     OW33469   6.434   1.698   1.865
10857SOL    HW133470   6.352   1.641   1.864
10857SOL    HW233471   6.514   1.640   1.879
10858SOL     OW33472   2.050   6.286   1.806
10858SOL    HW133473   2.069   6.250   1.715
10858SOL    HW233474   2.055   6.386   1.805
10859SOL     OW33475   1.661   5.182   3.715
10859SOL    HW133476   1.710   5.114   3.769
10859SOL    HW233477   1.717   5.209   3.636
10860SOL     OW33478   0.601   3.925   3.044
10860SOL    HW133479   0.691   3.890   3.068
10860SOL    HW233480   0.530   3.863   3.077
10861SOL     OW33481   4.610   3.297   5.310
10861SOL    HW133482   4.511   3.305   5.321
10861SOL    HW233483   4.639   3.353   5.233
10862SOL     OW33484   1.115   0.445   5.436
10862SOL    HW133485   1.191   0.508   5.420
10862SOL    HW233486   1.081   0.458   5.530
10863SOL     OW33487   1.925   6.555   4.307
10863SOL    HW133488   1.828   6.535   4.315
10863SOL    HW233489   1.977   6.470   4.297
10864SOL     OW33490   3.256   6.818   3.548
10864SOL    HW133491   3.168   6.842   3.589
10864SOL    HW233492   3.264   6.719   3.542
10865SOL     OW33493   6.573   1.090   6.019
10865SOL    HW133494   6.549   1.025   5.946
10865SOL    HW233495   6.525   1.065   6.103
10866SOL     OW33496   6.270   4.834   0.045
10866SOL    HW133497   6.351   4.893   0.044
10866SOL    HW233498   6.262   4.789   6.972
10867SOL     OW33499   3.088   1.711   6.892
10867SOL    HW133500   3.010   1.708   6.955
10867SOL    HW233501   3.066   1.769   6.814
10868SOL     OW33502   1.440   2.365   3.470
10868SOL    HW133503   1.503   2.423   3.419
10868SOL    HW233504   1.491   2.289   3.510
10869NA      NA33505   6.787   2.285   5.282
10870NA      NA33506   4.525   4.548   5.151
10871NA      NA33507   2.051   3.297   1.897
10872NA      NA33508   4.998   3.402   4.972
10873NA      NA33509   4.200   2.300   5.310
10874NA      NA33510   3.744   4.937   2.089
10875NA      NA33511   6.748   6.526   4.997
10876NA      NA33512   3.769   3.448   5.049
10877NA      NA33513   4.704   5.899   6.164
10878NA      NA33514   2.743   6.823   4.970
10879NA      NA33515   0.312   4.908   3.045
10880NA      NA33516   1.976   0.413   1.920
10881NA      NA33517   4.039   4.334   1.092
10882NA      NA33518   3.939   3.637   3.151
   7.01610   7.01610   7.01610
