Generated by trjconv : CNT in water t= 246.00000
33518
    1C        C    1   2.846   2.771   4.745
    1C        C    2   2.905   2.725   4.865
    1C        C    3   2.843   2.772   4.982
    1C        C    4   2.851   2.774   4.260
    1C        C    5   2.898   2.722   4.383
    1C        C    6   2.845   2.771   4.504
    1C        C    7   3.014   2.639   4.625
    1C        C    8   2.898   2.720   4.625
    1C        C    9   3.079   2.601   4.745
    1C        C   10   3.015   2.637   4.866
    1C        C   11   3.178   2.489   4.977
    1C        C   12   3.059   2.564   4.977
    1C        C   13   2.853   2.773   3.773
    1C        C   14   2.907   2.725   3.895
    1C        C   15   2.851   2.773   4.016
    1C        C   16   3.019   2.644   4.139
    1C        C   17   2.906   2.729   4.138
    1C        C   18   3.083   2.617   4.262
    1C        C   19   3.019   2.648   4.383
    1C        C   20   3.208   2.551   4.505
    1C        C   21   3.078   2.606   4.504
    1C        C   22   3.278   2.528   4.626
    1C        C   23   3.209   2.545   4.748
    1C        C   24   3.412   2.478   4.864
    1C        C   25   3.270   2.496   4.867
    1C        C   26   3.489   2.472   4.981
    1C        C   27   2.851   2.768   3.282
    1C        C   28   2.912   2.731   3.404
    1C        C   29   2.858   2.774   3.527
    1C        C   30   3.019   2.640   3.651
    1C        C   31   2.909   2.729   3.651
    1C        C   32   3.079   2.601   3.773
    1C        C   33   3.018   2.638   3.896
    1C        C   34   3.208   2.547   4.016
    1C        C   35   3.077   2.600   4.018
    1C        C   36   3.275   2.527   4.139
    1C        C   37   3.212   2.558   4.261
    1C        C   38   3.418   2.509   4.381
    1C        C   39   3.278   2.532   4.383
    1C        C   40   3.488   2.498   4.503
    1C        C   41   3.415   2.497   4.624
    1C        C   42   3.630   2.480   4.743
    1C        C   43   3.488   2.482   4.744
    1C        C   44   3.703   2.489   4.863
    1C        C   45   3.628   2.479   4.981
    1C        C   46   2.842   2.758   2.794
    1C        C   47   2.900   2.718   2.916
    1C        C   48   2.850   2.768   3.038
    1C        C   49   3.018   2.638   3.161
    1C        C   50   2.903   2.721   3.160
    1C        C   51   3.078   2.599   3.284
    1C        C   52   3.021   2.641   3.406
    1C        C   53   3.208   2.544   3.528
    1C        C   54   3.080   2.604   3.529
    1C        C   55   3.276   2.522   3.649
    1C        C   56   3.209   2.547   3.771
    1C        C   57   3.415   2.502   3.895
    1C        C   58   3.277   2.529   3.894
    1C        C   59   3.486   2.497   4.017
    1C        C   60   3.415   2.505   4.139
    1C        C   61   3.629   2.493   4.260
    1C        C   62   3.488   2.493   4.259
    1C        C   63   3.702   2.507   4.380
    1C        C   64   3.629   2.502   4.501
    1C        C   65   3.835   2.547   4.621
    1C        C   66   3.701   2.504   4.623
    1C        C   67   3.904   2.564   4.743
    1C        C   68   3.838   2.531   4.863
    1C        C   69   4.051   2.579   4.971
    1C        C   70   3.919   2.534   4.977
    1C        C   71   2.825   2.736   2.307
    1C        C   72   2.882   2.692   2.428
    1C        C   73   2.832   2.746   2.550
    1C        C   74   3.012   2.632   2.672
    1C        C   75   2.892   2.707   2.672
    1C        C   76   3.072   2.600   2.795
    1C        C   77   3.010   2.629   2.919
    1C        C   78   3.208   2.545   3.040
    1C        C   79   3.076   2.596   3.040
    1C        C   80   3.277   2.524   3.161
    1C        C   81   3.208   2.544   3.283
    1C        C   82   3.413   2.496   3.403
    1C        C   83   3.274   2.520   3.405
    1C        C   84   3.484   2.493   3.525
    1C        C   85   3.416   2.497   3.649
    1C        C   86   3.626   2.499   3.770
    1C        C   87   3.485   2.493   3.772
    1C        C   88   3.697   2.508   3.891
    1C        C   89   3.627   2.499   4.014
    1C        C   90   3.832   2.546   4.135
    1C        C   91   3.697   2.504   4.137
    1C        C   92   3.902   2.573   4.255
    1C        C   93   3.838   2.542   4.377
    1C        C   94   4.027   2.640   4.498
    1C        C   95   3.904   2.571   4.499
    1C        C   96   4.088   2.672   4.621
    1C        C   97   4.031   2.627   4.742
    1C        C   98   4.192   2.768   4.863
    1C        C   99   4.103   2.656   4.862
    1C        C  100   4.209   2.848   4.977
    1C        C  101   2.821   2.733   2.069
    1C        C  102   2.989   2.592   2.192
    1C        C  103   2.879   2.684   2.187
    1C        C  104   3.064   2.573   2.312
    1C        C  105   3.003   2.620   2.430
    1C        C  106   3.198   2.530   2.552
    1C        C  107   3.069   2.588   2.551
    1C        C  108   3.269   2.518   2.673
    1C        C  109   3.200   2.540   2.794
    1C        C  110   3.408   2.491   2.915
    1C        C  111   3.270   2.519   2.915
    1C        C  112   3.482   2.490   3.036
    1C        C  113   3.416   2.499   3.160
    1C        C  114   3.628   2.494   3.279
    1C        C  115   3.486   2.489   3.282
    1C        C  116   3.697   2.506   3.402
    1C        C  117   3.625   2.496   3.523
    1C        C  118   3.830   2.545   3.646
    1C        C  119   3.694   2.506   3.646
    1C        C  120   3.896   2.572   3.768
    1C        C  121   3.832   2.549   3.892
    1C        C  122   4.025   2.636   4.013
    1C        C  123   3.899   2.572   4.014
    1C        C  124   4.086   2.681   4.133
    1C        C  125   4.024   2.644   4.254
    1C        C  126   4.191   2.775   4.377
    1C        C  127   4.084   2.684   4.376
    1C        C  128   4.242   2.822   4.500
    1C        C  129   4.192   2.767   4.620
    1C        C  130   4.331   2.931   4.740
    1C        C  131   4.243   2.820   4.741
    1C        C  132   4.357   3.003   4.859
    1C        C  133   4.284   2.965   4.973
    1C        C  134   3.171   2.465   2.081
    1C        C  135   3.038   2.510   2.085
    1C        C  136   3.258   2.476   2.191
    1C        C  137   3.195   2.518   2.310
    1C        C  138   3.403   2.473   2.428
    1C        C  139   3.263   2.494   2.432
    1C        C  140   3.478   2.480   2.547
    1C        C  141   3.408   2.492   2.670
    1C        C  142   3.619   2.496   2.791
    1C        C  143   3.478   2.489   2.792
    1C        C  144   3.693   2.508   2.911
    1C        C  145   3.623   2.498   3.033
    1C        C  146   3.831   2.541   3.155
    1C        C  147   3.694   2.507   3.155
    1C        C  148   3.899   2.563   3.277
    1C        C  149   3.833   2.544   3.400
    1C        C  150   4.021   2.637   3.524
    1C        C  151   3.897   2.569   3.524
    1C        C  152   4.079   2.676   3.647
    1C        C  153   4.021   2.638   3.770
    1C        C  154   4.191   2.768   3.887
    1C        C  155   4.079   2.681   3.891
    1C        C  156   4.246   2.817   4.008
    1C        C  157   4.194   2.772   4.131
    1C        C  158   4.336   2.929   4.254
    1C        C  159   4.244   2.822   4.254
    1C        C  160   4.376   2.987   4.376
    1C        C  161   4.330   2.933   4.498
    1C        C  162   4.442   3.115   4.617
    1C        C  163   4.375   2.991   4.619
    1C        C  164   4.470   3.185   4.737
    1C        C  165   4.434   3.121   4.857
    1C        C  166   4.517   3.318   4.972
    1C        C  167   4.484   3.183   4.972
    1C        C  168   3.473   2.439   2.071
    1C        C  169   3.398   2.460   2.187
    1C        C  170   3.616   2.469   2.305
    1C        C  171   3.473   2.462   2.307
    1C        C  172   3.690   2.484   2.424
    1C        C  173   3.619   2.486   2.546
    1C        C  174   3.826   2.536   2.666
    1C        C  175   3.688   2.505   2.668
    1C        C  176   3.895   2.560   2.787
    1C        C  177   3.830   2.542   2.911
    1C        C  178   4.025   2.626   3.030
    1C        C  179   3.898   2.565   3.033
    1C        C  180   4.080   2.668   3.153
    1C        C  181   4.024   2.629   3.276
    1C        C  182   4.191   2.755   3.400
    1C        C  183   4.082   2.665   3.400
    1C        C  184   4.241   2.809   3.520
    1C        C  185   4.190   2.763   3.644
    1C        C  186   4.336   2.920   3.764
    1C        C  187   4.245   2.812   3.765
    1C        C  188   4.380   2.979   3.885
    1C        C  189   4.337   2.925   4.008
    1C        C  190   4.447   3.107   4.128
    1C        C  191   4.377   2.985   4.130
    1C        C  192   4.471   3.175   4.250
    1C        C  193   4.443   3.112   4.373
    1C        C  194   4.511   3.314   4.492
    1C        C  195   4.471   3.178   4.494
    1C        C  196   4.528   3.387   4.611
    1C        C  197   4.512   3.321   4.735
    1C        C  198   4.556   3.535   4.851
    1C        C  199   4.532   3.394   4.855
    1C        C  200   4.583   3.621   4.963
    1C        C  201   3.612   2.423   2.068
    1C        C  202   3.822   2.514   2.183
    1C        C  203   3.688   2.464   2.183
    1C        C  204   3.894   2.545   2.301
    1C        C  205   3.826   2.522   2.423
    1C        C  206   4.019   2.621   2.542
    1C        C  207   3.892   2.558   2.543
    1C        C  208   4.082   2.656   2.664
    1C        C  209   4.022   2.622   2.787
    1C        C  210   4.191   2.755   2.909
    1C        C  211   4.082   2.665   2.907
    1C        C  212   4.244   2.802   3.031
    1C        C  213   4.193   2.754   3.154
    1C        C  214   4.331   2.913   3.273
    1C        C  215   4.243   2.803   3.277
    1C        C  216   4.367   2.975   3.394
    1C        C  217   4.327   2.921   3.518
    1C        C  218   4.434   3.105   3.638
    1C        C  219   4.368   2.981   3.640
    1C        C  220   4.469   3.166   3.760
    1C        C  221   4.447   3.103   3.885
    1C        C  222   4.508   3.308   4.004
    1C        C  223   4.477   3.170   4.005
    1C        C  224   4.519   3.379   4.125
    1C        C  225   4.511   3.310   4.248
    1C        C  226   4.529   3.523   4.369
    1C        C  227   4.527   3.382   4.369
    1C        C  228   4.530   3.598   4.488
    1C        C  229   4.539   3.528   4.611
    1C        C  230   4.503   3.742   4.727
    1C        C  231   4.544   3.606   4.728
    1C        C  232   4.501   3.822   4.844
    1C        C  233   4.548   3.756   4.958
    1C        C  234   4.013   2.612   2.064
    1C        C  235   3.895   2.539   2.066
    1C        C  236   4.084   2.648   2.179
    1C        C  237   4.021   2.609   2.299
    1C        C  238   4.197   2.734   2.421
    1C        C  239   4.084   2.647   2.420
    1C        C  240   4.250   2.785   2.541
    1C        C  241   4.194   2.741   2.664
    1C        C  242   4.337   2.903   2.786
    1C        C  243   4.244   2.796   2.784
    1C        C  244   4.381   2.962   2.906
    1C        C  245   4.332   2.912   3.029
    1C        C  246   4.433   3.098   3.148
    1C        C  247   4.372   2.971   3.151
    1C        C  248   4.457   3.165   3.271
    1C        C  249   4.435   3.100   3.394
    1C        C  250   4.505   3.303   3.514
    1C        C  251   4.464   3.168   3.515
    1C        C  252   4.515   3.372   3.637
    1C        C  253   4.508   3.302   3.759
    1C        C  254   4.530   3.515   3.878
    1C        C  255   4.519   3.374   3.880
    1C        C  256   4.519   3.587   3.999
    1C        C  257   4.519   3.521   4.124
    1C        C  258   4.493   3.731   4.242
    1C        C  259   4.518   3.592   4.246
    1C        C  260   4.476   3.802   4.362
    1C        C  261   4.499   3.736   4.485
    1C        C  262   4.425   3.939   4.605
    1C        C  263   4.476   3.807   4.605
    1C        C  264   4.399   4.011   4.723
    1C        C  265   4.436   3.947   4.843
    1C        C  266   4.325   4.135   4.958
    1C        C  267   4.397   4.015   4.960
    1C        C  268   4.257   2.776   2.060
    1C        C  269   4.198   2.731   2.180
    1C        C  270   4.343   2.891   2.300
    1C        C  271   4.253   2.781   2.300
    1C        C  272   4.382   2.954   2.420
    1C        C  273   4.337   2.896   2.541
    1C        C  274   4.445   3.081   2.659
    1C        C  275   4.375   2.959   2.662
    1C        C  276   4.478   3.148   2.779
    1C        C  277   4.450   3.086   2.903
    1C        C  278   4.505   3.292   3.024
    1C        C  279   4.469   3.155   3.024
    1C        C  280   4.510   3.364   3.145
    1C        C  281   4.498   3.300   3.270
    1C        C  282   4.525   3.511   3.388
    1C        C  283   4.521   3.370   3.391
    1C        C  284   4.523   3.582   3.510
    1C        C  285   4.521   3.513   3.634
    1C        C  286   4.490   3.723   3.755
    1C        C  287   4.522   3.585   3.756
    1C        C  288   4.475   3.794   3.876
    1C        C  289   4.491   3.726   3.999
    1C        C  290   4.422   3.930   4.119
    1C        C  291   4.472   3.798   4.119
    1C        C  292   4.400   4.001   4.240
    1C        C  293   4.429   3.936   4.362
    1C        C  294   4.326   4.125   4.479
    1C        C  295   4.393   4.000   4.482
    1C        C  296   4.288   4.191   4.598
    1C        C  297   4.323   4.132   4.721
    1C        C  298   4.198   4.312   4.840
    1C        C  299   4.277   4.193   4.841
    1C        C  300   4.169   4.400   4.949
    1C        C  301   4.353   2.876   2.065
    1C        C  302   4.468   3.068   2.173
    1C        C  303   4.399   2.942   2.180
    1C        C  304   4.483   3.140   2.295
    1C        C  305   4.449   3.078   2.418
    1C        C  306   4.512   3.284   2.536
    1C        C  307   4.474   3.148   2.538
    1C        C  308   4.517   3.356   2.657
    1C        C  309   4.507   3.286   2.780
    1C        C  310   4.521   3.501   2.897
    1C        C  311   4.513   3.360   2.900
    1C        C  312   4.520   3.571   3.019
    1C        C  313   4.521   3.505   3.144
    1C        C  314   4.493   3.718   3.264
    1C        C  315   4.518   3.579   3.264
    1C        C  316   4.469   3.784   3.387
    1C        C  317   4.491   3.719   3.511
    1C        C  318   4.423   3.922   3.627
    1C        C  319   4.473   3.790   3.632
    1C        C  320   4.396   3.987   3.750
    1C        C  321   4.424   3.926   3.874
    1C        C  322   4.318   4.111   3.989
    1C        C  323   4.392   3.991   3.995
    1C        C  324   4.280   4.174   4.110
    1C        C  325   4.329   4.123   4.232
    1C        C  326   4.182   4.273   4.351
    1C        C  327   4.287   4.179   4.355
    1C        C  328   4.132   4.328   4.472
    1C        C  329   4.191   4.294   4.595
    1C        C  330   4.027   4.435   4.713
    1C        C  331   4.140   4.349   4.715
    1C        C  332   3.970   4.489   4.831
    1C        C  333   4.050   4.474   4.945
    1C        C  334   4.552   3.267   2.062
    1C        C  335   4.535   3.128   2.062
    1C        C  336   4.535   3.350   2.174
    1C        C  337   4.509   3.279   2.294
    1C        C  338   4.528   3.495   2.411
    1C        C  339   4.517   3.354   2.413
    1C        C  340   4.526   3.567   2.532
    1C        C  341   4.523   3.497   2.655
    1C        C  342   4.497   3.710   2.773
    1C        C  343   4.525   3.572   2.775
    1C        C  344   4.478   3.777   2.896
    1C        C  345   4.500   3.711   3.019
    1C        C  346   4.422   3.911   3.139
    1C        C  347   4.480   3.782   3.139
    1C        C  348   4.388   3.977   3.259
    1C        C  349   4.425   3.918   3.382
    1C        C  350   4.318   4.102   3.503
    1C        C  351   4.394   3.983   3.503
    1C        C  352   4.270   4.160   3.623
    1C        C  353   4.318   4.105   3.744
    1C        C  354   4.176   4.264   3.866
    1C        C  355   4.272   4.160   3.865
    1C        C  356   4.120   4.310   3.988
    1C        C  357   4.176   4.270   4.111
    1C        C  358   4.006   4.399   4.229
    1C        C  359   4.121   4.318   4.232
    1C        C  360   3.950   4.443   4.351
    1C        C  361   4.017   4.411   4.472
    1C        C  362   3.826   4.506   4.592
    1C        C  363   3.958   4.455   4.592
    1C        C  364   3.761   4.541   4.713
    1C        C  365   3.837   4.537   4.832
    1C        C  366   3.629   4.592   4.951
    1C        C  367   3.766   4.570   4.948
    1C        C  368   4.511   3.566   2.052
    1C        C  369   4.524   3.490   2.169
    1C        C  370   4.499   3.705   2.286
    1C        C  371   4.520   3.565   2.288
    1C        C  372   4.481   3.775   2.407
    1C        C  373   4.499   3.705   2.528
    1C        C  374   4.418   3.904   2.652
    1C        C  375   4.477   3.775   2.649
    1C        C  376   4.392   3.970   2.773
    1C        C  377   4.430   3.910   2.895
    1C        C  378   4.316   4.092   3.011
    1C        C  379   4.395   3.975   3.016
    1C        C  380   4.272   4.150   3.132
    1C        C  381   4.312   4.096   3.256
    1C        C  382   4.173   4.253   3.376
    1C        C  383   4.271   4.152   3.380
    1C        C  384   4.119   4.301   3.498
    1C        C  385   4.172   4.261   3.622
    1C        C  386   4.001   4.385   3.743
    1C        C  387   4.119   4.309   3.745
    1C        C  388   3.942   4.425   3.865
    1C        C  389   4.002   4.387   3.987
    1C        C  390   3.814   4.490   4.110
    1C        C  391   3.943   4.433   4.107
    1C        C  392   3.747   4.515   4.232
    1C        C  393   3.821   4.499   4.351
    1C        C  394   3.615   4.556   4.473
    1C        C  395   3.753   4.523   4.473
    1C        C  396   3.546   4.569   4.595
    1C        C  397   3.621   4.563   4.714
    1C        C  398   3.412   4.554   4.839
    1C        C  399   3.551   4.578   4.835
    1C        C  400   3.343   4.517   4.956
    1C        C  401   4.498   3.704   2.049
    1C        C  402   4.455   3.916   2.168
    1C        C  403   4.494   3.780   2.166
    1C        C  404   4.410   3.977   2.287
    1C        C  405   4.434   3.908   2.409
    1C        C  406   4.324   4.092   2.526
    1C        C  407   4.397   3.972   2.530
    1C        C  408   4.275   4.149   2.645
    1C        C  409   4.314   4.088   2.767
    1C        C  410   4.172   4.247   2.889
    1C        C  411   4.270   4.145   2.888
    1C        C  412   4.120   4.297   3.010
    1C        C  413   4.172   4.250   3.133
    1C        C  414   3.999   4.374   3.253
    1C        C  415   4.117   4.296   3.254
    1C        C  416   3.941   4.416   3.375
    1C        C  417   3.999   4.376   3.498
    1C        C  418   3.810   4.474   3.619
    1C        C  419   3.937   4.412   3.620
    1C        C  420   3.748   4.510   3.741
    1C        C  421   3.814   4.485   3.863
    1C        C  422   3.611   4.544   3.982
    1C        C  423   3.749   4.511   3.986
    1C        C  424   3.541   4.550   4.104
    1C        C  425   3.609   4.545   4.228
    1C        C  426   3.402   4.552   4.355
    1C        C  427   3.543   4.558   4.352
    1C        C  428   3.332   4.547   4.477
    1C        C  429   3.405   4.559   4.598
    1C        C  430   3.197   4.516   4.724
    1C        C  431   3.336   4.545   4.720
    1C        C  432   3.125   4.494   4.845
    1C        C  433   3.205   4.496   4.960
    1C        C  434   4.387   4.122   2.051
    1C        C  435   4.453   3.998   2.055
    1C        C  436   4.305   4.163   2.161
    1C        C  437   4.333   4.097   2.283
    1C        C  438   4.182   4.249   2.402
    1C        C  439   4.282   4.150   2.404
    1C        C  440   4.127   4.299   2.522
    1C        C  441   4.177   4.250   2.646
    1C        C  442   4.005   4.378   2.763
    1C        C  443   4.120   4.296   2.767
    1C        C  444   3.942   4.413   2.885
    1C        C  445   4.003   4.377   3.007
    1C        C  446   3.812   4.468   3.129
    1C        C  447   3.941   4.410   3.129
    1C        C  448   3.746   4.491   3.252
    1C        C  449   3.811   4.469   3.375
    1C        C  450   3.606   4.531   3.495
    1C        C  451   3.743   4.496   3.496
    1C        C  452   3.539   4.546   3.619
    1C        C  453   3.612   4.547   3.740
    1C        C  454   3.398   4.549   3.865
    1C        C  455   3.539   4.555   3.861
    1C        C  456   3.328   4.540   3.987
    1C        C  457   3.400   4.547   4.108
    1C        C  458   3.196   4.503   4.235
    1C        C  459   3.333   4.538   4.232
    1C        C  460   3.130   4.488   4.360
    1C        C  461   3.194   4.515   4.483
    1C        C  462   2.997   4.435   4.604
    1C        C  463   3.125   4.494   4.604
    1C        C  464   2.928   4.404   4.724
    1C        C  465   2.990   4.448   4.844
    1C        C  466   2.801   4.336   4.961
    1C        C  467   2.904   4.431   4.958
    1C        C  468   4.126   4.290   2.044
    1C        C  469   4.188   4.245   2.162
    1C        C  470   4.009   4.376   2.277
    1C        C  471   4.124   4.292   2.280
    1C        C  472   3.946   4.408   2.399
    1C        C  473   4.009   4.375   2.521
    1C        C  474   3.814   4.466   2.643
    1C        C  475   3.945   4.415   2.641
    1C        C  476   3.742   4.487   2.763
    1C        C  477   3.810   4.462   2.885
    1C        C  478   3.608   4.523   3.009
    1C        C  479   3.745   4.492   3.007
    1C        C  480   3.537   4.537   3.130
    1C        C  481   3.610   4.529   3.251
    1C        C  482   3.396   4.533   3.377
    1C        C  483   3.537   4.535   3.372
    1C        C  484   3.325   4.535   3.500
    1C        C  485   3.398   4.542   3.620
    1C        C  486   3.193   4.496   3.744
    1C        C  487   3.329   4.536   3.743
    1C        C  488   3.127   4.477   3.868
    1C        C  489   3.191   4.504   3.990
    1C        C  490   3.002   4.413   4.115
    1C        C  491   3.127   4.480   4.114
    1C        C  492   2.946   4.381   4.241
    1C        C  493   3.003   4.426   4.362
    1C        C  494   2.833   4.298   4.483
    1C        C  495   2.941   4.389   4.483
    1C        C  496   2.773   4.254   4.603
    1C        C  497   2.821   4.310   4.723
    1C        C  498   2.675   4.158   4.848
    1C        C  499   2.759   4.271   4.844
    1C        C  500   2.605   4.113   4.961
    1C        C  501   4.003   4.353   2.039
    1C        C  502   3.815   4.463   2.159
    1C        C  503   3.943   4.404   2.155
    1C        C  504   3.744   4.485   2.279
    1C        C  505   3.813   4.456   2.399
    1C        C  506   3.606   4.507   2.517
    1C        C  507   3.744   4.478   2.521
    1C        C  508   3.535   4.518   2.640
    1C        C  509   3.604   4.516   2.763
    1C        C  510   3.395   4.524   2.885
    1C        C  511   3.536   4.524   2.887
    1C        C  512   3.326   4.524   3.008
    1C        C  513   3.396   4.539   3.130
    1C        C  514   3.190   4.497   3.255
    1C        C  515   3.328   4.530   3.254
    1C        C  516   3.121   4.472   3.376
    1C        C  517   3.189   4.496   3.497
    1C        C  518   3.003   4.403   3.625
    1C        C  519   3.128   4.469   3.622
    1C        C  520   2.941   4.370   3.748
    1C        C  521   3.004   4.407   3.869
    1C        C  522   2.839   4.279   3.996
    1C        C  523   2.948   4.369   3.993
    1C        C  524   2.786   4.237   4.120
    1C        C  525   2.838   4.291   4.240
    1C        C  526   2.698   4.131   4.365
    1C        C  527   2.786   4.243   4.362
    1C        C  528   2.654   4.073   4.486
    1C        C  529   2.687   4.142   4.605
    1C        C  530   2.583   3.961   4.729
    1C        C  531   2.644   4.089   4.728
    1C        C  532   2.541   3.902   4.852
    1C        C  533   2.531   3.994   4.961
    1C        C  534   3.618   4.548   2.036
    1C        C  535   3.752   4.507   2.042
    1C        C  536   3.536   4.537   2.153
    1C        C  537   3.604   4.512   2.276
    1C        C  538   3.391   4.518   2.398
    1C        C  539   3.533   4.517   2.397
    1C        C  540   3.320   4.513   2.520
    1C        C  541   3.394   4.521   2.641
    1C        C  542   3.188   4.480   2.764
    1C        C  543   3.324   4.516   2.763
    1C        C  544   3.122   4.464   2.888
    1C        C  545   3.191   4.483   3.010
    1C        C  546   2.998   4.402   3.133
    1C        C  547   3.125   4.464   3.134
    1C        C  548   2.941   4.363   3.256
    1C        C  549   2.997   4.405   3.379
    1C        C  550   2.832   4.277   3.505
    1C        C  551   2.941   4.367   3.503
    1C        C  552   2.784   4.228   3.628
    1C        C  553   2.831   4.282   3.750
    1C        C  554   2.698   4.121   3.875
    1C        C  555   2.784   4.233   3.874
    1C        C  556   2.666   4.060   3.999
    1C        C  557   2.703   4.122   4.120
    1C        C  558   2.604   3.939   4.246
    1C        C  559   2.666   4.066   4.244
    1C        C  560   2.569   3.877   4.368
    1C        C  561   2.587   3.949   4.489
    1C        C  562   2.531   3.747   4.615
    1C        C  563   2.560   3.885   4.612
    1C        C  564   2.511   3.680   4.737
    1C        C  565   2.516   3.761   4.854
    1C        C  566   2.535   3.545   4.978
    1C        C  567   2.529   3.684   4.971
    1C        C  568   3.327   4.475   2.039
    1C        C  569   3.396   4.515   2.154
    1C        C  570   3.184   4.475   2.278
    1C        C  571   3.322   4.510   2.276
    1C        C  572   3.115   4.457   2.400
    1C        C  573   3.182   4.484   2.522
    1C        C  574   2.986   4.403   2.647
    1C        C  575   3.114   4.463   2.644
    1C        C  576   2.931   4.363   2.771
    1C        C  577   2.997   4.400   2.891
    1C        C  578   2.830   4.268   3.015
    1C        C  579   2.935   4.364   3.013
    1C        C  580   2.784   4.217   3.139
    1C        C  581   2.837   4.268   3.260
    1C        C  582   2.699   4.111   3.386
    1C        C  583   2.783   4.224   3.383
    1C        C  584   2.662   4.053   3.509
    1C        C  585   2.700   4.114   3.630
    1C        C  586   2.596   3.934   3.757
    1C        C  587   2.657   4.061   3.754
    1C        C  588   2.568   3.871   3.880
    1C        C  589   2.600   3.935   4.002
    1C        C  590   2.530   3.738   4.127
    1C        C  591   2.571   3.873   4.125
    1C        C  592   2.519   3.671   4.251
    1C        C  593   2.536   3.740   4.373
    1C        C  594   2.509   3.532   4.496
    1C        C  595   2.517   3.673   4.495
    1C        C  596   2.515   3.464   4.620
    1C        C  597   2.512   3.538   4.740
    1C        C  598   2.536   3.327   4.865
    1C        C  599   2.522   3.467   4.862
    1C        C  600   2.527   3.248   4.980
    1C        C  601   3.193   4.440   2.043
    1C        C  602   2.980   4.395   2.156
    1C        C  603   3.114   4.444   2.158
    1C        C  604   2.926   4.360   2.283
    1C        C  605   2.989   4.395   2.405
    1C        C  606   2.816   4.272   2.528
    1C        C  607   2.926   4.361   2.527
    1C        C  608   2.776   4.215   2.651
    1C        C  609   2.824   4.271   2.772
    1C        C  610   2.691   4.107   2.894
    1C        C  611   2.777   4.219   2.894
    1C        C  612   2.653   4.052   3.019
    1C        C  613   2.693   4.110   3.142
    1C        C  614   2.591   3.926   3.265
    1C        C  615   2.655   4.053   3.265
    1C        C  616   2.564   3.864   3.388
    1C        C  617   2.599   3.926   3.511
    1C        C  618   2.532   3.730   3.638
    1C        C  619   2.575   3.864   3.635
    1C        C  620   2.522   3.662   3.762
    1C        C  621   2.535   3.733   3.883
    1C        C  622   2.504   3.525   4.009
    1C        C  623   2.519   3.666   4.006
    1C        C  624   2.514   3.456   4.132
    1C        C  625   2.517   3.530   4.252
    1C        C  626   2.541   3.320   4.378
    1C        C  627   2.516   3.459   4.374
    1C        C  628   2.558   3.253   4.501
    1C        C  629   2.535   3.324   4.621
    1C        C  630   2.600   3.122   4.743
    1C        C  631   2.554   3.256   4.744
    1C        C  632   2.618   3.051   4.865
    1C        C  633   2.565   3.113   4.983
    1C        C  634   2.775   4.306   2.057
    1C        C  635   2.888   4.389   2.047
    1C        C  636   2.746   4.230   2.171
    1C        C  637   2.809   4.279   2.288
    1C        C  638   2.679   4.109   2.409
    1C        C  639   2.756   4.227   2.408
    1C        C  640   2.645   4.047   2.531
    1C        C  641   2.685   4.108   2.653
    1C        C  642   2.581   3.921   2.777
    1C        C  643   2.646   4.047   2.774
    1C        C  644   2.559   3.857   2.901
    1C        C  645   2.588   3.927   3.020
    1C        C  646   2.529   3.724   3.150
    1C        C  647   2.563   3.861   3.143
    1C        C  648   2.514   3.654   3.272
    1C        C  649   2.527   3.728   3.392
    1C        C  650   2.510   3.518   3.519
    1C        C  651   2.521   3.659   3.516
    1C        C  652   2.510   3.450   3.642
    1C        C  653   2.513   3.521   3.764
    1C        C  654   2.538   3.314   3.888
    1C        C  655   2.511   3.453   3.888
    1C        C  656   2.554   3.247   4.011
    1C        C  657   2.534   3.316   4.133
    1C        C  658   2.603   3.117   4.257
    1C        C  659   2.552   3.249   4.256
    1C        C  660   2.637   3.056   4.380
    1C        C  661   2.610   3.122   4.501
    1C        C  662   2.711   2.937   4.626
    1C        C  663   2.634   3.055   4.623
    1C        C  664   2.749   2.875   4.747
    1C        C  665   2.700   2.933   4.867
    1C        C  666   2.745   2.870   4.984
    1C        C  667   2.676   4.022   2.054
    1C        C  668   2.684   4.104   2.167
    1C        C  669   2.589   3.912   2.293
    1C        C  670   2.647   4.042   2.288
    1C        C  671   2.559   3.847   2.414
    1C        C  672   2.587   3.918   2.533
    1C        C  673   2.518   3.719   2.658
    1C        C  674   2.556   3.855   2.655
    1C        C  675   2.510   3.650   2.781
    1C        C  676   2.526   3.719   2.903
    1C        C  677   2.506   3.513   3.027
    1C        C  678   2.519   3.654   3.028
    1C        C  679   2.513   3.442   3.149
    1C        C  680   2.506   3.513   3.271
    1C        C  681   2.540   3.310   3.399
    1C        C  682   2.511   3.448   3.396
    1C        C  683   2.553   3.241   3.522
    1C        C  684   2.531   3.310   3.643
    1C        C  685   2.607   3.113   3.768
    1C        C  686   2.554   3.244   3.766
    1C        C  687   2.635   3.049   3.891
    1C        C  688   2.599   3.113   4.012
    1C        C  689   2.717   2.939   4.138
    1C        C  690   2.632   3.052   4.135
    1C        C  691   2.758   2.881   4.260
    1C        C  692   2.715   2.938   4.382
    1C        C  693   2.755   2.880   4.504
    1C        C  694   2.624   3.892   2.053
    1C        C  695   2.526   3.706   2.175
    1C        C  696   2.581   3.835   2.174
    1C        C  697   2.501   3.637   2.297
    1C        C  698   2.520   3.711   2.416
    1C        C  699   2.486   3.505   2.543
    1C        C  700   2.496   3.646   2.539
    1C        C  701   2.494   3.435   2.665
    1C        C  702   2.504   3.509   2.785
    1C        C  703   2.517   3.297   2.909
    1C        C  704   2.501   3.438   2.907
    1C        C  705   2.539   3.229   3.031
    1C        C  706   2.534   3.303   3.151
    1C        C  707   2.599   3.107   3.277
    1C        C  708   2.551   3.240   3.277
    1C        C  709   2.633   3.044   3.399
    1C        C  710   2.603   3.109   3.521
    1C        C  711   2.715   2.932   3.648
    1C        C  712   2.637   3.050   3.645
    1C        C  713   2.756   2.876   3.770
    1C        C  714   2.714   2.932   3.893
    1C        C  715   2.757   2.879   4.017
    1C        C  716   2.451   3.498   2.062
    1C        C  717   2.498   3.630   2.061
    1C        C  718   2.463   3.420   2.181
    1C        C  719   2.479   3.497   2.299
    1C        C  720   2.512   3.292   2.425
    1C        C  721   2.481   3.430   2.423
    1C        C  722   2.536   3.224   2.547
    1C        C  723   2.515   3.295   2.667
    1C        C  724   2.586   3.094   2.791
    1C        C  725   2.530   3.224   2.789
    1C        C  726   2.612   3.029   2.914
    1C        C  727   2.579   3.094   3.035
    1C        C  728   2.709   2.924   3.158
    1C        C  729   2.625   3.038   3.156
    1C        C  730   2.756   2.873   3.281
    1C        C  731   2.716   2.930   3.404
    1C        C  732   2.759   2.875   3.527
    1C        C  733   2.498   3.203   2.066
    1C        C  734   2.486   3.278   2.183
    1C        C  735   2.583   3.088   2.305
    1C        C  736   2.525   3.218   2.306
    1C        C  737   2.614   3.022   2.426
    1C        C  738   2.588   3.092   2.545
    1C        C  739   2.693   2.910   2.670
    1C        C  740   2.623   3.033   2.669
    1C        C  741   2.743   2.859   2.792
    1C        C  742   2.702   2.920   2.912
    1C        C  743   2.751   2.869   3.035
    1C        C  744   2.558   3.077   2.068
    1C        C  745   2.679   2.897   2.187
    1C        C  746   2.607   3.018   2.185
    1C        C  747   2.730   2.842   2.307
    1C        C  748   2.687   2.901   2.428
    1C        C  749   2.733   2.846   2.550
    1C        C  750   2.724   2.832   2.071
    1C        C  751   3.657   2.320   1.972
    1C        O  752   3.618   2.201   1.974
    1C        O  753   3.699   2.356   1.843
    1C        C  754   4.631   3.059   1.973
    1C        O  755   4.592   3.023   1.858
    1C        O  756   4.769   3.079   1.984
    1C        C  757   4.466   4.219   1.972
    1C        O  758   4.502   4.331   2.016
    1C        O  759   4.458   4.221   1.832
    1C        C  760   3.596   4.650   1.931
    1C        O  761   3.641   4.766   1.947
    1C        O  762   3.585   4.630   1.793
    1C        C  763   2.867   4.502   1.954
    1C        O  764   2.942   4.510   1.853
    1C        O  765   2.819   4.626   2.000
    1C        C  766   2.350   3.473   1.957
    1C        O  767   2.384   3.437   1.841
    1C        O  768   2.211   3.462   1.970
    1C        C  769   4.709   3.587   5.033
    1C        O  770   4.702   3.555   5.154
    1C        O  771   4.828   3.648   4.993
    1C        C  772   4.282   4.456   5.027
    1C        O  773   4.297   4.426   5.149
    1C        O  774   4.397   4.509   4.968
    1C        C  775   4.136   2.504   5.066
    1C        O  776   4.198   2.399   5.036
    1C        O  777   4.136   2.507   5.206
    1C        C  778   2.894   4.540   5.057
    1C        O  779   2.819   4.636   5.027
    1C        O  780   2.906   4.528   5.196
    1C        C  781   2.482   3.040   5.081
    1C        O  782   2.376   2.982   5.045
    1C        O  783   2.521   2.996   5.207
    1C        C  784   2.441   3.982   5.078
    1C        O  785   2.317   3.965   5.068
    1C        O  786   2.497   3.928   5.195
    1C        C  787   2.941   2.429   2.009
    1C        O  788   2.908   2.449   1.889
    1C        O  789   2.912   2.297   2.041
    1C        C  790   3.169   2.359   5.046
    1C        O  791   3.106   2.266   4.990
    1C        O  792   3.125   2.354   5.179
    1C        H  793   4.261   3.040   5.046
    1C        H  794   4.137   2.839   5.055
    1C        H  795   4.546   3.123   5.036
    1C        H  796   4.537   3.363   5.067
    1C        H  797   4.523   3.799   5.053
    1C        H  798   4.420   3.981   5.058
    1C        H  799   4.314   4.182   5.054
    1C        H  800   4.018   4.510   5.040
    1C        H  801   3.824   4.629   5.016
    1C        H  802   3.596   4.662   5.025
    1C        H  803   3.400   4.467   5.032
    1C        H  804   3.162   4.510   5.057
    1C        H  805   3.883   2.497   5.071
    1C        H  806   3.675   2.493   5.076
    1C        H  807   2.975   2.520   5.026
    1C        H  808   3.446   2.412   5.059
    1C        H  809   2.845   2.704   5.064
    1C        H  810   2.763   2.940   5.063
    1C        H  811   2.526   3.298   5.075
    1C        H  812   2.495   3.508   5.070
    1C        H  813   2.557   3.736   5.060
    1C        H  814   2.628   4.153   5.057
    1C        H  815   2.807   4.281   5.052
    1C        H  816   2.704   2.882   1.978
    1C        H  817   2.886   2.741   1.985
    1C        H  818   3.210   2.451   1.983
    1C        H  819   3.431   2.473   1.978
    1C        H  820   3.835   2.558   1.979
    1C        H  821   4.026   2.667   1.973
    1C        H  822   4.265   2.713   1.974
    1C        H  823   4.398   2.904   1.972
    1C        H  824   4.582   3.311   1.969
    1C        H  825   4.479   3.518   1.961
    1C        H  826   4.514   3.750   1.953
    1C        H  827   3.819   4.540   1.966
    1C        H  828   3.950   4.352   1.946
    1C        H  829   4.162   4.250   1.951
    1C        H  830   4.536   3.988   1.988
    1C        H  831   2.625   3.839   1.960
    1C        H  832   2.737   4.043   1.968
    1C        H  833   2.712   4.299   1.971
    1C        H  834   3.372   4.479   1.942
    1C        H  835   3.148   4.407   1.952
    1C        H  836   2.534   3.012   1.986
    1C        H  837   2.472   3.240   1.968
    1C        H  838   2.475   3.681   1.969
    2V3OU   H29  839   2.813   3.550   2.503
    2V3OU   C27  840   2.790   3.500   2.601
    2V3OU   H27  841   2.735   3.570   2.668
    2V3OU   H28  842   2.733   3.407   2.573
    2V3OU   O11  843   2.917   3.472   2.662
    2V3OU   C15  844   2.926   3.399   2.779
    2V3OU   C13  845   3.052   3.374   2.837
    2V3OU   C14  846   3.078   3.267   2.924
    2V3OU   C16  847   2.977   3.179   2.961
    2V3OU    H6  848   2.990   3.106   3.042
    2V3OU   C12  849   3.216   3.226   2.960
    2V3OU    O2  850   3.244   3.119   3.019
    2V3OU   C10  851   3.328   3.309   2.915
    2V3OU    C8  852   3.456   3.270   2.952
    2V3OU   O10  853   3.491   3.150   3.007
    2V3OU   H26  854   3.404   3.114   3.031
    2V3OU    C6  855   3.565   3.354   2.912
    2V3OU    C5  856   3.538   3.468   2.837
    2V3OU    C4  857   3.701   3.293   2.916
    2V3OU    H4  858   3.725   3.224   3.002
    2V3OU    H5  859   3.707   3.224   2.826
    2V3OU    C2  860   3.815   3.395   2.912
    2V3OU    O6  861   3.810   3.476   3.029
    2V3OU   H21  862   3.761   3.554   2.997
    2V3OU    C3  863   3.781   3.494   2.801
    2V3OU    H2  864   3.862   3.572   2.800
    2V3OU    H3  865   3.781   3.441   2.702
    2V3OU   C25  866   3.953   3.329   2.904
    2V3OU    O7  867   3.997   3.298   2.793
    2V3OU   C26  868   4.034   3.293   3.027
    2V3OU   H22  869   4.064   3.385   3.083
    2V3OU   H23  870   4.118   3.225   2.999
    2V3OU    O8  871   3.961   3.212   3.117
    2V3OU   H24  872   3.924   3.270   3.186
    2V3OU    C1  873   3.648   3.567   2.817
    2V3OU    H1  874   3.622   3.621   2.721
    2V3OU    O3  875   3.663   3.653   2.931
    2V3OU   C19  876   3.622   3.789   2.922
    2V3OU    H9  877   3.524   3.799   2.867
    2V3OU    O4  878   3.715   3.849   2.834
    2V3OU   C20  879   3.844   3.876   2.888
    2V3OU   H10  880   3.888   3.774   2.910
    2V3OU   C24  881   3.609   3.850   3.062
    2V3OU   H16  882   3.542   3.788   3.125
    2V3OU   H17  883   3.565   3.953   3.058
    2V3OU   C23  884   3.746   3.876   3.126
    2V3OU   H15  885   3.788   3.772   3.146
    2V3OU    N1  886   3.737   3.951   3.249
    2V3OU   H19  887   3.807   3.910   3.307
    2V3OU   H20  888   3.645   3.937   3.286
    2V3OU   C21  889   3.843   3.945   3.025
    2V3OU   H11  890   3.949   3.928   3.060
    2V3OU    O5  891   3.828   4.086   3.023
    2V3OU   H18  892   3.789   4.102   3.110
    2V3OU   C22  893   3.910   3.949   2.772
    2V3OU   H12  894   3.848   4.041   2.752
    2V3OU   H13  895   3.895   3.888   2.680
    2V3OU   H14  896   4.019   3.961   2.793
    2V3OU   C11  897   3.162   3.462   2.797
    2V3OU    O1  898   3.139   3.583   2.772
    2V3OU    C9  899   3.299   3.421   2.833
    2V3OU    C7  900   3.406   3.503   2.796
    2V3OU    O9  901   3.392   3.619   2.723
    2V3OU   H25  902   3.296   3.629   2.713
    2V3OU   C17  903   2.825   3.316   2.832
    2V3OU    H7  904   2.726   3.349   2.801
    2V3OU   C18  905   2.849   3.209   2.917
    2V3OU    H8  906   2.780   3.171   2.994
    3SOL     OW  907   2.495   5.475   0.145
    3SOL    HW1  908   2.577   5.467   0.202
    3SOL    HW2  909   2.516   5.525   0.062
    4SOL     OW  910   6.659   6.892   2.280
    4SOL    HW1  911   6.580   6.837   2.253
    4SOL    HW2  912   6.633   6.989   2.277
    5SOL     OW  913   4.390   2.015   2.716
    5SOL    HW1  914   4.402   1.937   2.778
    5SOL    HW2  915   4.351   1.982   2.630
    6SOL     OW  916   4.115   1.057   2.135
    6SOL    HW1  917   4.063   1.143   2.140
    6SOL    HW2  918   4.156   1.048   2.045
    7SOL     OW  919   0.205   3.701   2.796
    7SOL    HW1  920   0.161   3.615   2.819
    7SOL    HW2  921   0.142   3.777   2.815
    8SOL     OW  922   3.327   0.863   0.155
    8SOL    HW1  923   3.278   0.833   0.073
    8SOL    HW2  924   3.418   0.822   0.156
    9SOL     OW  925   5.002   0.927   6.227
    9SOL    HW1  926   4.913   0.934   6.181
    9SOL    HW2  927   5.060   0.862   6.178
   10SOL     OW  928   1.747   4.850   5.961
   10SOL    HW1  929   1.653   4.819   5.952
   10SOL    HW2  930   1.801   4.818   5.884
   11SOL     OW  931   2.788   0.465   5.848
   11SOL    HW1  932   2.849   0.398   5.890
   11SOL    HW2  933   2.840   0.546   5.822
   12SOL     OW  934   3.636   5.651   3.531
   12SOL    HW1  935   3.704   5.583   3.506
   12SOL    HW2  936   3.649   5.733   3.476
   13SOL     OW  937   3.998   6.267   4.028
   13SOL    HW1  938   4.089   6.280   3.988
   13SOL    HW2  939   4.005   6.273   4.128
   14SOL     OW  940   3.627   5.609   5.822
   14SOL    HW1  941   3.643   5.585   5.727
   14SOL    HW2  942   3.543   5.664   5.829
   15SOL     OW  943   0.347   6.706   2.192
   15SOL    HW1  944   0.333   6.740   2.285
   15SOL    HW2  945   0.372   6.783   2.132
   16SOL     OW  946   5.337   2.746   5.895
   16SOL    HW1  947   5.281   2.783   5.969
   16SOL    HW2  948   5.431   2.735   5.926
   17SOL     OW  949   5.536   6.429   6.469
   17SOL    HW1  950   5.442   6.456   6.490
   17SOL    HW2  951   5.566   6.358   6.532
   18SOL     OW  952   3.237   0.887   5.505
   18SOL    HW1  953   3.139   0.904   5.494
   18SOL    HW2  954   3.255   0.789   5.496
   19SOL     OW  955   0.343   1.851   2.976
   19SOL    HW1  956   0.324   1.763   3.020
   19SOL    HW2  957   0.432   1.885   3.008
   20SOL     OW  958   5.510   1.485   3.957
   20SOL    HW1  959   5.416   1.518   3.950
   20SOL    HW2  960   5.573   1.562   3.946
   21SOL     OW  961   3.489   1.454   2.826
   21SOL    HW1  962   3.480   1.549   2.795
   21SOL    HW2  963   3.579   1.419   2.801
   22SOL     OW  964   2.155   6.677   6.687
   22SOL    HW1  965   2.104   6.594   6.665
   22SOL    HW2  966   2.098   6.737   6.743
   23SOL     OW  967   5.457   5.713   3.313
   23SOL    HW1  968   5.383   5.666   3.265
   23SOL    HW2  969   5.419   5.775   3.382
   24SOL     OW  970   4.362   0.157   3.614
   24SOL    HW1  971   4.360   0.134   3.711
   24SOL    HW2  972   4.326   0.080   3.561
   25SOL     OW  973   3.430   0.792   4.792
   25SOL    HW1  974   3.478   0.720   4.841
   25SOL    HW2  975   3.337   0.800   4.826
   26SOL     OW  976   0.143   0.612   0.680
   26SOL    HW1  977   0.082   0.567   0.746
   26SOL    HW2  978   0.215   0.549   0.653
   27SOL     OW  979   1.368   2.330   2.514
   27SOL    HW1  980   1.454   2.307   2.467
   27SOL    HW2  981   1.360   2.430   2.521
   28SOL     OW  982   2.943   1.619   6.204
   28SOL    HW1  983   2.954   1.681   6.127
   28SOL    HW2  984   2.889   1.540   6.176
   29SOL     OW  985   6.178   1.787   1.935
   29SOL    HW1  986   6.086   1.825   1.927
   29SOL    HW2  987   6.245   1.861   1.939
   30SOL     OW  988   4.475   0.905   3.782
   30SOL    HW1  989   4.426   0.989   3.758
   30SOL    HW2  990   4.566   0.906   3.740
   31SOL     OW  991   0.845   2.901   6.366
   31SOL    HW1  992   0.938   2.881   6.399
   31SOL    HW2  993   0.817   2.830   6.301
   32SOL     OW  994   0.573   1.835   2.639
   32SOL    HW1  995   0.637   1.775   2.687
   32SOL    HW2  996   0.481   1.820   2.674
   33SOL     OW  997   1.283   4.818   5.791
   33SOL    HW1  998   1.245   4.726   5.804
   33SOL    HW2  999   1.261   4.850   5.699
   34SOL     OW 1000   3.070   0.333   4.399
   34SOL    HW1 1001   3.072   0.233   4.401
   34SOL    HW2 1002   2.977   0.363   4.376
   35SOL     OW 1003   3.927   3.611   6.871
   35SOL    HW1 1004   4.022   3.640   6.882
   35SOL    HW2 1005   3.909   3.594   6.774
   36SOL     OW 1006   5.893   1.291   4.704
   36SOL    HW1 1007   5.844   1.351   4.641
   36SOL    HW2 1008   5.976   1.256   4.660
   37SOL     OW 1009   1.139   2.067   0.274
   37SOL    HW1 1010   1.158   1.974   0.243
   37SOL    HW2 1011   1.211   2.128   0.241
   38SOL     OW 1012   0.761   5.231   1.945
   38SOL    HW1 1013   0.821   5.153   1.964
   38SOL    HW2 1014   0.668   5.211   1.976
   39SOL     OW 1015   6.782   4.389   6.822
   39SOL    HW1 1016   6.779   4.472   6.767
   39SOL    HW2 1017   6.723   4.399   6.902
   40SOL     OW 1018   4.808   1.406   0.226
   40SOL    HW1 1019   4.757   1.428   0.143
   40SOL    HW2 1020   4.801   1.482   0.290
   41SOL     OW 1021   6.710   5.041   3.359
   41SOL    HW1 1022   6.637   4.972   3.355
   41SOL    HW2 1023   6.743   5.047   3.453
   42SOL     OW 1024   2.872   4.919   4.712
   42SOL    HW1 1025   2.846   4.917   4.809
   42SOL    HW2 1026   2.856   4.829   4.671
   43SOL     OW 1027   5.349   6.868   5.399
   43SOL    HW1 1028   5.329   6.920   5.316
   43SOL    HW2 1029   5.417   6.917   5.453
   44SOL     OW 1030   4.133   1.299   5.947
   44SOL    HW1 1031   4.196   1.298   5.870
   44SOL    HW2 1032   4.039   1.291   5.914
   45SOL     OW 1033   4.602   6.106   1.938
   45SOL    HW1 1034   4.690   6.101   1.985
   45SOL    HW2 1035   4.560   6.015   1.936
   46SOL     OW 1036   0.497   3.314   2.943
   46SOL    HW1 1037   0.484   3.325   3.042
   46SOL    HW2 1038   0.476   3.400   2.897
   47SOL     OW 1039   4.811   3.910   0.758
   47SOL    HW1 1040   4.778   3.912   0.852
   47SOL    HW2 1041   4.893   3.967   0.750
   48SOL     OW 1042   6.711   3.168   5.839
   48SOL    HW1 1043   6.739   3.261   5.816
   48SOL    HW2 1044   6.723   3.109   5.760
   49SOL     OW 1045   5.006   3.833   1.599
   49SOL    HW1 1046   5.064   3.751   1.599
   49SOL    HW2 1047   4.947   3.832   1.519
   50SOL     OW 1048   5.593   1.301   5.203
   50SOL    HW1 1049   5.515   1.352   5.166
   50SOL    HW2 1050   5.639   1.252   5.130
   51SOL     OW 1051   2.506   6.587   3.389
   51SOL    HW1 1052   2.549   6.497   3.398
   51SOL    HW2 1053   2.430   6.581   3.324
   52SOL     OW 1054   6.200   3.522   2.940
   52SOL    HW1 1055   6.219   3.615   2.973
   52SOL    HW2 1056   6.253   3.506   2.856
   53SOL     OW 1057   4.005   6.092   3.752
   53SOL    HW1 1058   4.018   6.151   3.832
   53SOL    HW2 1059   3.943   6.138   3.687
   54SOL     OW 1060   4.222   5.048   1.011
   54SOL    HW1 1061   4.134   5.093   0.997
   54SOL    HW2 1062   4.213   4.950   0.992
   55SOL     OW 1063   2.102   2.889   6.285
   55SOL    HW1 1064   2.162   2.962   6.252
   55SOL    HW2 1065   2.122   2.871   6.381
   56SOL     OW 1066   0.039   0.860   1.278
   56SOL    HW1 1067   0.092   0.864   1.363
   56SOL    HW2 1068   0.084   0.799   1.213
   57SOL     OW 1069   4.640   1.088   1.731
   57SOL    HW1 1070   4.592   1.123   1.650
   57SOL    HW2 1071   4.582   1.023   1.779
   58SOL     OW 1072   0.669   6.303   5.838
   58SOL    HW1 1073   0.703   6.230   5.897
   58SOL    HW2 1074   0.675   6.390   5.887
   59SOL     OW 1075   1.309   2.212   5.621
   59SOL    HW1 1076   1.214   2.240   5.612
   59SOL    HW2 1077   1.315   2.127   5.674
   60SOL     OW 1078   5.429   2.807   4.755
   60SOL    HW1 1079   5.411   2.760   4.842
   60SOL    HW2 1080   5.366   2.884   4.745
   61SOL     OW 1081   6.751   2.322   4.787
   61SOL    HW1 1082   6.790   2.338   4.697
   61SOL    HW2 1083   6.807   2.367   4.856
   62SOL     OW 1084   0.924   1.195   1.761
   62SOL    HW1 1085   0.898   1.169   1.854
   62SOL    HW2 1086   0.944   1.293   1.758
   63SOL     OW 1087   5.512   1.254   3.308
   63SOL    HW1 1088   5.442   1.205   3.256
   63SOL    HW2 1089   5.468   1.323   3.366
   64SOL     OW 1090   0.507   3.408   5.697
   64SOL    HW1 1091   0.538   3.356   5.776
   64SOL    HW2 1092   0.410   3.431   5.707
   65SOL     OW 1093   0.893   5.075   0.075
   65SOL    HW1 1094   0.794   5.091   0.080
   65SOL    HW2 1095   0.921   5.072   7.001
   66SOL     OW 1096   4.455   0.948   5.414
   66SOL    HW1 1097   4.429   0.980   5.505
   66SOL    HW2 1098   4.481   1.027   5.358
   67SOL     OW 1099   6.275   3.615   6.042
   67SOL    HW1 1100   6.201   3.645   6.101
   67SOL    HW2 1101   6.237   3.572   5.960
   68SOL     OW 1102   6.305   0.786   6.452
   68SOL    HW1 1103   6.245   0.824   6.382
   68SOL    HW2 1104   6.255   0.781   6.539
   69SOL     OW 1105   0.743   3.782   6.463
   69SOL    HW1 1106   0.804   3.836   6.405
   69SOL    HW2 1107   0.734   3.825   6.552
   70SOL     OW 1108   5.511   4.233   5.184
   70SOL    HW1 1109   5.433   4.256   5.243
   70SOL    HW2 1110   5.594   4.275   5.221
   71SOL     OW 1111   4.215   1.814   3.994
   71SOL    HW1 1112   4.159   1.731   3.992
   71SOL    HW2 1113   4.305   1.794   3.954
   72SOL     OW 1114   1.772   0.417   4.167
   72SOL    HW1 1115   1.685   0.456   4.196
   72SOL    HW2 1116   1.756   0.330   4.119
   73SOL     OW 1117   3.572   0.648   1.570
   73SOL    HW1 1118   3.642   0.580   1.592
   73SOL    HW2 1119   3.605   0.739   1.592
   74SOL     OW 1120   3.960   0.732   0.439
   74SOL    HW1 1121   4.053   0.740   0.473
   74SOL    HW2 1122   3.925   0.640   0.458
   75SOL     OW 1123   4.389   0.622   1.139
   75SOL    HW1 1124   4.382   0.718   1.110
   75SOL    HW2 1125   4.304   0.575   1.119
   76SOL     OW 1126   2.930   3.300   1.517
   76SOL    HW1 1127   2.968   3.208   1.522
   76SOL    HW2 1128   2.908   3.332   1.609
   77SOL     OW 1129   0.866   6.980   3.767
   77SOL    HW1 1130   0.915   0.039   3.735
   77SOL    HW2 1131   0.770   6.986   3.738
   78SOL     OW 1132   5.417   1.443   7.007
   78SOL    HW1 1133   5.486   1.515   7.011
   78SOL    HW2 1134   5.358   1.448   0.065
   79SOL     OW 1135   2.859   5.711   1.055
   79SOL    HW1 1136   2.894   5.792   1.101
   79SOL    HW2 1137   2.855   5.729   0.956
   80SOL     OW 1138   4.808   1.301   4.297
   80SOL    HW1 1139   4.746   1.379   4.298
   80SOL    HW2 1140   4.897   1.329   4.260
   81SOL     OW 1141   2.398   0.025   2.375
   81SOL    HW1 1142   2.489   7.008   2.381
   81SOL    HW2 1143   2.360   0.005   2.284
   82SOL     OW 1144   5.651   4.863   0.517
   82SOL    HW1 1145   5.719   4.912   0.463
   82SOL    HW2 1146   5.694   4.786   0.564
   83SOL     OW 1147   0.603   0.337   6.788
   83SOL    HW1 1148   0.601   0.243   6.820
   83SOL    HW2 1149   0.665   0.390   6.845
   84SOL     OW 1150   6.607   3.019   3.420
   84SOL    HW1 1151   6.643   2.955   3.488
   84SOL    HW2 1152   6.510   3.000   3.403
   85SOL     OW 1153   1.864   1.272   3.892
   85SOL    HW1 1154   1.851   1.367   3.863
   85SOL    HW2 1155   1.897   1.217   3.814
   86SOL     OW 1156   0.792   1.547   6.182
   86SOL    HW1 1157   0.740   1.464   6.161
   86SOL    HW2 1158   0.747   1.626   6.140
   87SOL     OW 1159   4.793   4.767   0.996
   87SOL    HW1 1160   4.888   4.771   1.026
   87SOL    HW2 1161   4.739   4.835   1.046
   88SOL     OW 1162   3.613   1.943   5.914
   88SOL    HW1 1163   3.588   1.856   5.958
   88SOL    HW2 1164   3.551   2.015   5.944
   89SOL     OW 1165   2.407   2.556   6.380
   89SOL    HW1 1166   2.416   2.640   6.326
   89SOL    HW2 1167   2.455   2.482   6.333
   90SOL     OW 1168   4.280   5.043   2.358
   90SOL    HW1 1169   4.259   4.991   2.275
   90SOL    HW2 1170   4.374   5.076   2.354
   91SOL     OW 1171   6.342   3.896   5.961
   91SOL    HW1 1172   6.318   3.803   5.990
   91SOL    HW2 1173   6.281   3.925   5.888
   92SOL     OW 1174   4.529   4.664   0.753
   92SOL    HW1 1175   4.561   4.676   0.659
   92SOL    HW2 1176   4.468   4.585   0.757
   93SOL     OW 1177   3.442   3.324   0.523
   93SOL    HW1 1178   3.502   3.365   0.454
   93SOL    HW2 1179   3.496   3.295   0.602
   94SOL     OW 1180   2.211   6.156   6.233
   94SOL    HW1 1181   2.217   6.061   6.202
   94SOL    HW2 1182   2.255   6.215   6.165
   95SOL     OW 1183   0.716   6.770   2.690
   95SOL    HW1 1184   0.779   6.842   2.660
   95SOL    HW2 1185   0.760   6.681   2.682
   96SOL     OW 1186   3.589   0.058   4.920
   96SOL    HW1 1187   3.523   0.046   4.993
   96SOL    HW2 1188   3.565   7.022   4.843
   97SOL     OW 1189   2.542   3.506   6.169
   97SOL    HW1 1190   2.469   3.566   6.137
   97SOL    HW2 1191   2.602   3.483   6.092
   98SOL     OW 1192   0.700   3.077   0.687
   98SOL    HW1 1193   0.745   3.134   0.756
   98SOL    HW2 1194   0.699   2.982   0.718
   99SOL     OW 1195   3.896   2.449   1.428
   99SOL    HW1 1196   3.866   2.529   1.376
   99SOL    HW2 1197   3.816   2.406   1.472
  100SOL     OW 1198   0.884   6.364   4.812
  100SOL    HW1 1199   0.884   6.271   4.849
  100SOL    HW2 1200   0.944   6.422   4.867
  101SOL     OW 1201   1.832   4.868   2.469
  101SOL    HW1 1202   1.875   4.927   2.400
  101SOL    HW2 1203   1.739   4.900   2.487
  102SOL     OW 1204   3.602   5.406   1.768
  102SOL    HW1 1205   3.511   5.399   1.810
  102SOL    HW2 1206   3.602   5.361   1.679
  103SOL     OW 1207   2.079   2.137   1.325
  103SOL    HW1 1208   2.070   2.082   1.408
  103SOL    HW2 1209   2.154   2.100   1.270
  104SOL     OW 1210   1.312   5.905   2.919
  104SOL    HW1 1211   1.319   5.993   2.968
  104SOL    HW2 1212   1.326   5.920   2.822
  105SOL     OW 1213   6.921   1.302   5.905
  105SOL    HW1 1214   6.991   1.232   5.919
  105SOL    HW2 1215   6.880   1.291   5.815
  106SOL     OW 1216   3.879   6.586   4.478
  106SOL    HW1 1217   3.819   6.637   4.540
  106SOL    HW2 1218   3.839   6.495   4.462
  107SOL     OW 1219   1.128   1.225   0.910
  107SOL    HW1 1220   1.119   1.152   0.843
  107SOL    HW2 1221   1.167   1.189   0.995
  108SOL     OW 1222   2.991   6.679   5.745
  108SOL    HW1 1223   3.084   6.714   5.732
  108SOL    HW2 1224   2.985   6.587   5.707
  109SOL     OW 1225   1.084   0.949   2.434
  109SOL    HW1 1226   1.101   0.894   2.352
  109SOL    HW2 1227   1.161   1.010   2.450
  110SOL     OW 1228   3.131   5.644   4.082
  110SOL    HW1 1229   3.046   5.669   4.130
  110SOL    HW2 1230   3.189   5.591   4.144
  111SOL     OW 1231   1.696   1.345   4.112
  111SOL    HW1 1232   1.660   1.266   4.160
  111SOL    HW2 1233   1.742   1.316   4.028
  112SOL     OW 1234   3.197   5.888   6.647
  112SOL    HW1 1235   3.252   5.811   6.614
  112SOL    HW2 1236   3.223   5.971   6.598
  113SOL     OW 1237   0.864   5.245   2.630
  113SOL    HW1 1238   0.897   5.331   2.591
  113SOL    HW2 1239   0.804   5.264   2.708
  114SOL     OW 1240   1.317   6.910   2.457
  114SOL    HW1 1241   1.391   6.843   2.464
  114SOL    HW2 1242   1.295   6.946   2.547
  115SOL     OW 1243   4.944   1.056   3.227
  115SOL    HW1 1244   4.848   1.029   3.221
  115SOL    HW2 1245   4.991   0.996   3.292
  116SOL     OW 1246   6.323   5.862   1.633
  116SOL    HW1 1247   6.362   5.857   1.724
  116SOL    HW2 1248   6.311   5.958   1.607
  117SOL     OW 1249   1.583   1.705   0.969
  117SOL    HW1 1250   1.506   1.768   0.959
  117SOL    HW2 1251   1.651   1.725   0.899
  118SOL     OW 1252   1.624   0.746   2.496
  118SOL    HW1 1253   1.665   0.829   2.533
  118SOL    HW2 1254   1.636   0.745   2.396
  119SOL     OW 1255   0.756   0.558   7.001
  119SOL    HW1 1256   0.691   0.607   0.037
  119SOL    HW2 1257   0.787   0.475   0.025
  120SOL     OW 1258   5.776   0.327   6.372
  120SOL    HW1 1259   5.679   0.328   6.392
  120SOL    HW2 1260   5.790   0.325   6.272
  121SOL     OW 1261   1.970   3.117   6.526
  121SOL    HW1 1262   2.036   3.044   6.547
  121SOL    HW2 1263   1.899   3.081   6.467
  122SOL     OW 1264   1.419   3.492   6.733
  122SOL    HW1 1265   1.322   3.472   6.745
  122SOL    HW2 1266   1.432   3.590   6.726
  123SOL     OW 1267   0.659   1.245   2.746
  123SOL    HW1 1268   0.661   1.154   2.704
  123SOL    HW2 1269   0.564   1.274   2.759
  124SOL     OW 1270   3.413   2.627   0.931
  124SOL    HW1 1271   3.481   2.667   0.992
  124SOL    HW2 1272   3.458   2.561   0.870
  125SOL     OW 1273   3.472   2.022   0.244
  125SOL    HW1 1274   3.567   2.013   0.276
  125SOL    HW2 1275   3.468   2.000   0.147
  126SOL     OW 1276   2.197   4.176   0.898
  126SOL    HW1 1277   2.208   4.136   0.807
  126SOL    HW2 1278   2.113   4.230   0.900
  127SOL     OW 1279   0.805   4.624   6.970
  127SOL    HW1 1280   0.822   4.564   0.026
  127SOL    HW2 1281   0.724   4.680   6.988
  128SOL     OW 1282   5.166   2.160   1.359
  128SOL    HW1 1283   5.078   2.183   1.317
  128SOL    HW2 1284   5.235   2.227   1.330
  129SOL     OW 1285   3.132   3.596   6.400
  129SOL    HW1 1286   3.080   3.610   6.316
  129SOL    HW2 1287   3.119   3.674   6.461
  130SOL     OW 1288   1.276   2.028   4.085
  130SOL    HW1 1289   1.227   2.105   4.044
  130SOL    HW2 1290   1.229   1.999   4.169
  131SOL     OW 1291   4.910   6.991   3.227
  131SOL    HW1 1292   4.964   7.010   3.309
  131SOL    HW2 1293   4.843   0.041   3.213
  132SOL     OW 1294   3.084   3.128   1.938
  132SOL    HW1 1295   3.052   3.074   1.860
  132SOL    HW2 1296   3.144   3.071   1.995
  133SOL     OW 1297   5.391   1.174   4.474
  133SOL    HW1 1298   5.419   1.094   4.422
  133SOL    HW2 1299   5.341   1.237   4.415
  134SOL     OW 1300   6.788   1.052   2.463
  134SOL    HW1 1301   6.772   1.018   2.370
  134SOL    HW2 1302   6.798   1.151   2.462
  135SOL     OW 1303   5.524   3.982   3.819
  135SOL    HW1 1304   5.441   3.928   3.815
  135SOL    HW2 1305   5.565   3.974   3.910
  136SOL     OW 1306   2.127   5.360   5.288
  136SOL    HW1 1307   2.103   5.426   5.216
  136SOL    HW2 1308   2.043   5.320   5.326
  137SOL     OW 1309   5.462   1.415   2.838
  137SOL    HW1 1310   5.559   1.398   2.858
  137SOL    HW2 1311   5.418   1.455   2.918
  138SOL     OW 1312   1.175   3.819   2.739
  138SOL    HW1 1313   1.201   3.770   2.656
  138SOL    HW2 1314   1.257   3.843   2.790
  139SOL     OW 1315   1.456   0.104   5.284
  139SOL    HW1 1316   1.550   0.071   5.290
  139SOL    HW2 1317   1.457   0.201   5.260
  140SOL     OW 1318   1.274   6.680   4.004
  140SOL    HW1 1319   1.186   6.661   3.960
  140SOL    HW2 1320   1.265   6.667   4.103
  141SOL     OW 1321   0.018   2.615   5.081
  141SOL    HW1 1322   0.104   2.565   5.076
  141SOL    HW2 1323   0.026   2.689   5.147
  142SOL     OW 1324   1.150   4.304   1.322
  142SOL    HW1 1325   1.105   4.386   1.355
  142SOL    HW2 1326   1.238   4.292   1.369
  143SOL     OW 1327   5.743   4.038   0.549
  143SOL    HW1 1328   5.702   4.052   0.638
  143SOL    HW2 1329   5.674   4.052   0.477
  144SOL     OW 1330   0.950   4.607   5.824
  144SOL    HW1 1331   1.042   4.590   5.789
  144SOL    HW2 1332   0.954   4.673   5.899
  145SOL     OW 1333   0.811   5.367   1.198
  145SOL    HW1 1334   0.765   5.289   1.154
  145SOL    HW2 1335   0.851   5.425   1.128
  146SOL     OW 1336   4.750   0.948   6.123
  146SOL    HW1 1337   4.686   0.961   6.199
  146SOL    HW2 1338   4.714   0.879   6.060
  147SOL     OW 1339   5.210   2.769   6.125
  147SOL    HW1 1340   5.230   2.867   6.130
  147SOL    HW2 1341   5.147   2.744   6.198
  148SOL     OW 1342   0.093   5.354   0.925
  148SOL    HW1 1343   0.115   5.445   0.888
  148SOL    HW2 1344   7.016   5.345   0.933
  149SOL     OW 1345   3.805   2.034   3.820
  149SOL    HW1 1346   3.709   2.022   3.792
  149SOL    HW2 1347   3.830   2.130   3.810
  150SOL     OW 1348   5.760   0.196   0.668
  150SOL    HW1 1349   5.705   0.145   0.602
  150SOL    HW2 1350   5.735   0.169   0.761
  151SOL     OW 1351   3.335   1.663   1.375
  151SOL    HW1 1352   3.426   1.621   1.371
  151SOL    HW2 1353   3.295   1.665   1.284
  152SOL     OW 1354   0.121   0.800   1.704
  152SOL    HW1 1355   0.124   0.797   1.804
  152SOL    HW2 1356   0.055   0.869   1.675
  153SOL     OW 1357   3.106   0.700   3.513
  153SOL    HW1 1358   3.194   0.739   3.485
  153SOL    HW2 1359   3.080   0.628   3.449
  154SOL     OW 1360   0.730   3.012   1.596
  154SOL    HW1 1361   0.797   3.011   1.522
  154SOL    HW2 1362   0.763   2.957   1.672
  155SOL     OW 1363   0.663   1.655   4.967
  155SOL    HW1 1364   0.585   1.659   5.029
  155SOL    HW2 1365   0.724   1.733   4.986
  156SOL     OW 1366   0.099   0.690   1.061
  156SOL    HW1 1367   0.063   0.606   1.021
  156SOL    HW2 1368   0.197   0.696   1.044
  157SOL     OW 1369   5.356   2.775   1.349
  157SOL    HW1 1370   5.445   2.789   1.392
  157SOL    HW2 1371   5.324   2.861   1.310
  158SOL     OW 1372   1.756   3.531   1.910
  158SOL    HW1 1373   1.717   3.491   1.828
  158SOL    HW2 1374   1.726   3.480   1.990
  159SOL     OW 1375   4.583   4.749   2.488
  159SOL    HW1 1376   4.552   4.662   2.449
  159SOL    HW2 1377   4.682   4.751   2.492
  160SOL     OW 1378   5.610   6.154   0.542
  160SOL    HW1 1379   5.622   6.185   0.636
  160SOL    HW2 1380   5.560   6.224   0.490
  161SOL     OW 1381   1.725   6.528   3.267
  161SOL    HW1 1382   1.678   6.588   3.203
  161SOL    HW2 1383   1.723   6.434   3.233
  162SOL     OW 1384   3.570   6.514   0.226
  162SOL    HW1 1385   3.600   6.604   0.195
  162SOL    HW2 1386   3.608   6.443   0.166
  163SOL     OW 1387   6.323   5.360   1.631
  163SOL    HW1 1388   6.334   5.441   1.688
  163SOL    HW2 1389   6.272   5.385   1.548
  164SOL     OW 1390   0.639   4.748   2.156
  164SOL    HW1 1391   0.647   4.663   2.209
  164SOL    HW2 1392   0.642   4.826   2.218
  165SOL     OW 1393   4.774   3.604   1.200
  165SOL    HW1 1394   4.719   3.579   1.121
  165SOL    HW2 1395   4.817   3.521   1.238
  166SOL     OW 1396   1.410   3.550   2.053
  166SOL    HW1 1397   1.338   3.528   2.120
  166SOL    HW2 1398   1.426   3.648   2.053
  167SOL     OW 1399   4.682   3.571   6.765
  167SOL    HW1 1400   4.616   3.644   6.780
  167SOL    HW2 1401   4.774   3.604   6.786
  168SOL     OW 1402   3.313   2.826   0.755
  168SOL    HW1 1403   3.227   2.853   0.798
  168SOL    HW2 1404   3.356   2.753   0.809
  169SOL     OW 1405   5.567   1.894   1.840
  169SOL    HW1 1406   5.593   1.977   1.791
  169SOL    HW2 1407   5.591   1.902   1.936
  170SOL     OW 1408   0.268   6.965   2.899
  170SOL    HW1 1409   0.241   6.880   2.946
  170SOL    HW2 1410   0.348   6.947   2.842
  171SOL     OW 1411   2.074   4.184   6.482
  171SOL    HW1 1412   2.072   4.196   6.581
  171SOL    HW2 1413   2.155   4.230   6.444
  172SOL     OW 1414   6.436   1.176   2.739
  172SOL    HW1 1415   6.428   1.269   2.704
  172SOL    HW2 1416   6.520   1.167   2.793
  173SOL     OW 1417   6.588   1.078   4.165
  173SOL    HW1 1418   6.601   1.078   4.066
  173SOL    HW2 1419   6.662   1.130   4.209
  174SOL     OW 1420   4.059   5.528   3.848
  174SOL    HW1 1421   4.070   5.472   3.765
  174SOL    HW2 1422   4.009   5.475   3.916
  175SOL     OW 1423   2.968   6.964   1.720
  175SOL    HW1 1424   2.936   0.010   1.655
  175SOL    HW2 1425   3.061   6.987   1.750
  176SOL     OW 1426   6.619   4.245   0.877
  176SOL    HW1 1427   6.605   4.258   0.779
  176SOL    HW2 1428   6.674   4.163   0.892
  177SOL     OW 1429   6.117   2.992   3.495
  177SOL    HW1 1430   6.051   3.045   3.443
  177SOL    HW2 1431   6.142   3.042   3.578
  178SOL     OW 1432   3.187   3.938   6.312
  178SOL    HW1 1433   3.171   3.895   6.401
  178SOL    HW2 1434   3.103   3.934   6.257
  179SOL     OW 1435   4.317   1.363   5.709
  179SOL    HW1 1436   4.266   1.423   5.648
  179SOL    HW2 1437   4.336   1.277   5.663
  180SOL     OW 1438   2.377   6.585   0.294
  180SOL    HW1 1439   2.464   6.633   0.294
  180SOL    HW2 1440   2.303   6.650   0.278
  181SOL     OW 1441   3.565   3.434   5.803
  181SOL    HW1 1442   3.631   3.407   5.733
  181SOL    HW2 1443   3.498   3.361   5.816
  182SOL     OW 1444   3.249   1.936   5.258
  182SOL    HW1 1445   3.258   1.987   5.172
  182SOL    HW2 1446   3.248   2.000   5.335
  183SOL     OW 1447   3.718   2.126   2.942
  183SOL    HW1 1448   3.707   2.138   3.040
  183SOL    HW2 1449   3.642   2.070   2.907
  184SOL     OW 1450   0.912   6.750   4.632
  184SOL    HW1 1451   0.839   6.682   4.638
  184SOL    HW2 1452   0.894   6.812   4.556
  185SOL     OW 1453   0.745   0.879   6.046
  185SOL    HW1 1454   0.675   0.950   6.037
  185SOL    HW2 1455   0.767   0.865   6.142
  186SOL     OW 1456   5.832   0.892   4.013
  186SOL    HW1 1457   5.863   0.846   4.097
  186SOL    HW2 1458   5.772   0.968   4.038
  187SOL     OW 1459   5.283   0.006   2.399
  187SOL    HW1 1460   5.286   6.979   2.312
  187SOL    HW2 1461   5.264   6.965   2.474
  188SOL     OW 1462   0.971   3.137   3.018
  188SOL    HW1 1463   1.009   3.228   3.033
  188SOL    HW2 1464   0.913   3.138   2.936
  189SOL     OW 1465   2.870   5.295   1.276
  189SOL    HW1 1466   2.931   5.250   1.341
  189SOL    HW2 1467   2.810   5.358   1.326
  190SOL     OW 1468   5.363   3.077   5.503
  190SOL    HW1 1469   5.457   3.072   5.536
  190SOL    HW2 1470   5.300   3.073   5.581
  191SOL     OW 1471   5.991   0.235   6.549
  191SOL    HW1 1472   5.925   0.265   6.481
  191SOL    HW2 1473   6.035   0.151   6.519
  192SOL     OW 1474   0.932   5.309   1.756
  192SOL    HW1 1475   0.865   5.274   1.821
  192SOL    HW2 1476   0.992   5.375   1.802
  193SOL     OW 1477   4.502   3.622   5.314
  193SOL    HW1 1478   4.462   3.531   5.311
  193SOL    HW2 1479   4.580   3.627   5.251
  194SOL     OW 1480   3.934   0.955   2.794
  194SOL    HW1 1481   3.905   0.915   2.707
  194SOL    HW2 1482   4.033   0.949   2.802
  195SOL     OW 1483   1.615   0.094   4.094
  195SOL    HW1 1484   1.598   0.017   4.155
  195SOL    HW2 1485   1.542   0.162   4.105
  196SOL     OW 1486   3.145   0.633   0.721
  196SOL    HW1 1487   3.130   0.642   0.623
  196SOL    HW2 1488   3.078   0.689   0.771
  197SOL     OW 1489   2.274   0.015   1.191
  197SOL    HW1 1490   2.357   6.982   1.187
  197SOL    HW2 1491   2.279   0.086   1.121
  198SOL     OW 1492   5.448   6.979   1.571
  198SOL    HW1 1493   5.466   0.046   1.530
  198SOL    HW2 1494   5.377   6.932   1.519
  199SOL     OW 1495   6.986   1.433   3.163
  199SOL    HW1 1496   0.012   1.353   3.197
  199SOL    HW2 1497   6.891   1.432   3.195
  200SOL     OW 1498   1.377   4.608   1.888
  200SOL    HW1 1499   1.307   4.543   1.919
  200SOL    HW2 1500   1.332   4.687   1.847
  201SOL     OW 1501   6.448   6.696   6.395
  201SOL    HW1 1502   6.416   6.714   6.302
  201SOL    HW2 1503   6.544   6.722   6.403
  202SOL     OW 1504   4.702   0.500   6.165
  202SOL    HW1 1505   4.684   0.575   6.101
  202SOL    HW2 1506   4.702   0.413   6.116
  203SOL     OW 1507   4.363   2.380   4.359
  203SOL    HW1 1508   4.306   2.408   4.435
  203SOL    HW2 1509   4.445   2.333   4.394
  204SOL     OW 1510   0.744   0.984   6.562
  204SOL    HW1 1511   0.746   0.901   6.618
  204SOL    HW2 1512   0.656   0.991   6.516
  205SOL     OW 1513   0.543   1.405   3.120
  205SOL    HW1 1514   0.556   1.494   3.163
  205SOL    HW2 1515   0.608   1.339   3.160
  206SOL     OW 1516   6.784   4.837   1.404
  206SOL    HW1 1517   6.871   4.794   1.378
  206SOL    HW2 1518   6.724   4.839   1.324
  207SOL     OW 1519   5.235   1.078   3.622
  207SOL    HW1 1520   5.280   1.167   3.628
  207SOL    HW2 1521   5.285   1.011   3.678
  208SOL     OW 1522   5.649   2.619   5.029
  208SOL    HW1 1523   5.645   2.532   5.078
  208SOL    HW2 1524   5.719   2.613   4.957
  209SOL     OW 1525   0.203   4.702   3.994
  209SOL    HW1 1526   0.245   4.793   3.994
  209SOL    HW2 1527   0.213   4.661   4.085
  210SOL     OW 1528   3.746   1.443   0.676
  210SOL    HW1 1529   3.782   1.477   0.589
  210SOL    HW2 1530   3.822   1.431   0.740
  211SOL     OW 1531   2.673   5.878   3.428
  211SOL    HW1 1532   2.583   5.915   3.452
  211SOL    HW2 1533   2.672   5.851   3.332
  212SOL     OW 1534   1.360   4.137   1.798
  212SOL    HW1 1535   1.409   4.224   1.800
  212SOL    HW2 1536   1.267   4.152   1.763
  213SOL     OW 1537   3.308   0.337   6.713
  213SOL    HW1 1538   3.333   0.433   6.706
  213SOL    HW2 1539   3.245   0.314   6.638
  214SOL     OW 1540   4.307   5.090   1.457
  214SOL    HW1 1541   4.359   5.090   1.372
  214SOL    HW2 1542   4.243   5.167   1.456
  215SOL     OW 1543   2.026   3.815   0.890
  215SOL    HW1 1544   2.096   3.788   0.956
  215SOL    HW2 1545   1.990   3.734   0.844
  216SOL     OW 1546   2.328   6.009   4.110
  216SOL    HW1 1547   2.326   5.973   4.016
  216SOL    HW2 1548   2.414   5.984   4.153
  217SOL     OW 1549   1.947   2.354   4.014
  217SOL    HW1 1550   2.027   2.294   4.011
  217SOL    HW2 1551   1.883   2.319   4.083
  218SOL     OW 1552   0.850   3.184   4.180
  218SOL    HW1 1553   0.871   3.263   4.237
  218SOL    HW2 1554   0.752   3.166   4.182
  219SOL     OW 1555   4.663   6.281   5.960
  219SOL    HW1 1556   4.599   6.337   6.013
  219SOL    HW2 1557   4.611   6.213   5.907
  220SOL     OW 1558   3.735   0.036   0.800
  220SOL    HW1 1559   3.683   6.980   0.768
  220SOL    HW2 1560   3.832   0.019   0.788
  221SOL     OW 1561   6.259   2.968   1.280
  221SOL    HW1 1562   6.237   3.002   1.371
  221SOL    HW2 1563   6.249   2.869   1.278
  222SOL     OW 1564   2.678   4.905   5.210
  222SOL    HW1 1565   2.629   4.946   5.286
  222SOL    HW2 1566   2.621   4.834   5.168
  223SOL     OW 1567   5.530   2.394   0.562
  223SOL    HW1 1568   5.500   2.347   0.645
  223SOL    HW2 1569   5.608   2.346   0.523
  224SOL     OW 1570   2.253   2.488   4.707
  224SOL    HW1 1571   2.236   2.457   4.613
  224SOL    HW2 1572   2.179   2.458   4.766
  225SOL     OW 1573   4.547   2.638   6.223
  225SOL    HW1 1574   4.571   2.542   6.207
  225SOL    HW2 1575   4.550   2.688   6.137
  226SOL     OW 1576   1.133   0.733   6.385
  226SOL    HW1 1577   1.115   0.658   6.448
  226SOL    HW2 1578   1.090   0.817   6.419
  227SOL     OW 1579   1.524   3.167   3.238
  227SOL    HW1 1580   1.590   3.197   3.307
  227SOL    HW2 1581   1.432   3.171   3.276
  228SOL     OW 1582   3.424   5.878   3.670
  228SOL    HW1 1583   3.358   5.892   3.596
  228SOL    HW2 1584   3.506   5.932   3.652
  229SOL     OW 1585   4.907   5.878   6.954
  229SOL    HW1 1586   4.990   5.929   6.931
  229SOL    HW2 1587   4.828   5.939   6.944
  230SOL     OW 1588   3.164   5.019   3.641
  230SOL    HW1 1589   3.144   4.956   3.566
  230SOL    HW2 1590   3.227   5.091   3.608
  231SOL     OW 1591   5.927   2.064   6.975
  231SOL    HW1 1592   5.949   2.032   6.883
  231SOL    HW2 1593   5.986   2.017   0.018
  232SOL     OW 1594   1.096   3.806   6.679
  232SOL    HW1 1595   1.098   3.707   6.690
  232SOL    HW2 1596   1.158   3.834   6.607
  233SOL     OW 1597   2.143   2.079   3.749
  233SOL    HW1 1598   2.053   2.088   3.707
  233SOL    HW2 1599   2.142   2.122   3.839
  234SOL     OW 1600   4.592   0.072   4.976
  234SOL    HW1 1601   4.641   0.039   5.056
  234SOL    HW2 1602   4.569   0.169   4.988
  235SOL     OW 1603   3.554   3.039   1.795
  235SOL    HW1 1604   3.646   3.075   1.813
  235SOL    HW2 1605   3.561   2.954   1.744
  236SOL     OW 1606   4.517   3.187   6.873
  236SOL    HW1 1607   4.455   3.249   6.922
  236SOL    HW2 1608   4.599   3.237   6.847
  237SOL     OW 1609   5.991   4.982   1.882
  237SOL    HW1 1610   5.958   5.030   1.800
  237SOL    HW2 1611   5.941   4.896   1.893
  238SOL     OW 1612   4.999   1.853   0.404
  238SOL    HW1 1613   4.965   1.929   0.348
  238SOL    HW2 1614   5.062   1.889   0.473
  239SOL     OW 1615   0.470   5.454   5.963
  239SOL    HW1 1616   0.565   5.428   5.945
  239SOL    HW2 1617   0.425   5.383   6.017
  240SOL     OW 1618   0.524   2.829   3.718
  240SOL    HW1 1619   0.491   2.825   3.813
  240SOL    HW2 1620   0.445   2.828   3.656
  241SOL     OW 1621   1.748   0.401   4.884
  241SOL    HW1 1622   1.736   0.312   4.928
  241SOL    HW2 1623   1.758   0.389   4.785
  242SOL     OW 1624   3.468   3.295   5.408
  242SOL    HW1 1625   3.476   3.276   5.506
  242SOL    HW2 1626   3.401   3.367   5.393
  243SOL     OW 1627   4.117   0.287   5.754
  243SOL    HW1 1628   4.133   0.378   5.715
  243SOL    HW2 1629   4.084   0.296   5.848
  244SOL     OW 1630   5.894   2.267   4.438
  244SOL    HW1 1631   5.847   2.186   4.401
  244SOL    HW2 1632   5.844   2.349   4.412
  245SOL     OW 1633   6.354   3.441   4.438
  245SOL    HW1 1634   6.335   3.536   4.412
  245SOL    HW2 1635   6.340   3.381   4.359
  246SOL     OW 1636   5.055   2.423   3.186
  246SOL    HW1 1637   5.051   2.445   3.089
  246SOL    HW2 1638   5.094   2.332   3.199
  247SOL     OW 1639   2.903   1.920   1.735
  247SOL    HW1 1640   2.987   1.879   1.700
  247SOL    HW2 1641   2.926   1.999   1.791
  248SOL     OW 1642   3.993   2.148   2.569
  248SOL    HW1 1643   4.058   2.210   2.525
  248SOL    HW2 1644   3.996   2.162   2.668
  249SOL     OW 1645   3.861   0.113   5.348
  249SOL    HW1 1646   3.775   0.162   5.353
  249SOL    HW2 1647   3.868   0.066   5.259
  250SOL     OW 1648   5.258   2.569   0.965
  250SOL    HW1 1649   5.211   2.515   1.035
  250SOL    HW2 1650   5.203   2.650   0.943
  251SOL     OW 1651   4.496   3.891   5.490
  251SOL    HW1 1652   4.491   3.807   5.435
  251SOL    HW2 1653   4.575   3.886   5.550
  252SOL     OW 1654   6.405   6.787   6.650
  252SOL    HW1 1655   6.434   6.725   6.723
  252SOL    HW2 1656   6.440   6.753   6.562
  253SOL     OW 1657   2.678   4.829   7.011
  253SOL    HW1 1658   2.709   4.736   6.992
  253SOL    HW2 1659   2.698   4.887   6.932
  254SOL     OW 1660   4.854   3.103   3.343
  254SOL    HW1 1661   4.921   3.051   3.290
  254SOL    HW2 1662   4.874   3.095   3.440
  255SOL     OW 1663   1.815   3.176   4.729
  255SOL    HW1 1664   1.900   3.208   4.770
  255SOL    HW2 1665   1.799   3.081   4.754
  256SOL     OW 1666   6.790   4.214   6.599
  256SOL    HW1 1667   6.773   4.125   6.641
  256SOL    HW2 1668   6.779   4.286   6.668
  257SOL     OW 1669   4.904   6.613   3.866
  257SOL    HW1 1670   4.999   6.621   3.835
  257SOL    HW2 1671   4.897   6.650   3.959
  258SOL     OW 1672   0.740   4.773   4.808
  258SOL    HW1 1673   0.827   4.799   4.766
  258SOL    HW2 1674   0.664   4.811   4.756
  259SOL     OW 1675   1.243   1.754   2.641
  259SOL    HW1 1676   1.149   1.764   2.673
  259SOL    HW2 1677   1.301   1.820   2.690
  260SOL     OW 1678   4.513   0.822   0.867
  260SOL    HW1 1679   4.467   0.882   0.802
  260SOL    HW2 1680   4.518   0.867   0.956
  261SOL     OW 1681   6.222   3.792   6.967
  261SOL    HW1 1682   6.309   3.747   6.948
  261SOL    HW2 1683   6.212   3.805   0.043
  262SOL     OW 1684   6.603   4.255   0.569
  262SOL    HW1 1685   6.614   4.157   0.552
  262SOL    HW2 1686   6.537   4.293   0.503
  263SOL     OW 1687   0.515   1.267   3.715
  263SOL    HW1 1688   0.446   1.330   3.752
  263SOL    HW2 1689   0.472   1.179   3.693
  264SOL     OW 1690   4.699   3.308   6.320
  264SOL    HW1 1691   4.684   3.407   6.309
  264SOL    HW2 1692   4.629   3.271   6.381
  265SOL     OW 1693   4.512   5.379   2.830
  265SOL    HW1 1694   4.595   5.327   2.852
  265SOL    HW2 1695   4.538   5.467   2.791
  266SOL     OW 1696   3.536   3.017   5.723
  266SOL    HW1 1697   3.502   3.078   5.795
  266SOL    HW2 1698   3.632   2.993   5.742
  267SOL     OW 1699   0.020   2.021   6.317
  267SOL    HW1 1700   0.052   1.930   6.288
  267SOL    HW2 1701   7.009   2.071   6.238
  268SOL     OW 1702   4.333   0.537   4.908
  268SOL    HW1 1703   4.357   0.628   4.942
  268SOL    HW2 1704   4.263   0.497   4.967
  269SOL     OW 1705   1.393   3.230   1.026
  269SOL    HW1 1706   1.326   3.171   1.071
  269SOL    HW2 1707   1.427   3.298   1.091
  270SOL     OW 1708   0.033   0.598   0.132
  270SOL    HW1 1709   0.018   0.661   0.209
  270SOL    HW2 1710   0.028   0.649   0.046
  271SOL     OW 1711   1.774   1.763   0.794
  271SOL    HW1 1712   1.779   1.695   0.721
  271SOL    HW2 1713   1.866   1.786   0.824
  272SOL     OW 1714   3.126   4.930   4.357
  272SOL    HW1 1715   3.199   4.868   4.328
  272SOL    HW2 1716   3.109   4.998   4.286
  273SOL     OW 1717   1.998   4.234   5.074
  273SOL    HW1 1718   2.004   4.307   5.006
  273SOL    HW2 1719   1.903   4.203   5.081
  274SOL     OW 1720   4.754   2.059   3.374
  274SOL    HW1 1721   4.732   2.130   3.441
  274SOL    HW2 1722   4.790   1.979   3.421
  275SOL     OW 1723   6.287   4.605   5.632
  275SOL    HW1 1724   6.215   4.562   5.577
  275SOL    HW2 1725   6.373   4.602   5.581
  276SOL     OW 1726   6.939   5.389   2.488
  276SOL    HW1 1727   7.008   5.444   2.536
  276SOL    HW2 1728   6.852   5.395   2.537
  277SOL     OW 1729   1.767   3.948   0.919
  277SOL    HW1 1730   1.703   3.872   0.905
  277SOL    HW2 1731   1.860   3.915   0.904
  278SOL     OW 1732   6.876   5.071   1.521
  278SOL    HW1 1733   6.839   4.987   1.483
  278SOL    HW2 1734   6.855   5.075   1.619
  279SOL     OW 1735   6.215   2.925   4.804
  279SOL    HW1 1736   6.218   2.914   4.903
  279SOL    HW2 1737   6.159   3.005   4.781
  280SOL     OW 1738   2.375   6.525   2.898
  280SOL    HW1 1739   2.318   6.552   2.820
  280SOL    HW2 1740   2.434   6.601   2.925
  281SOL     OW 1741   3.353   4.891   2.058
  281SOL    HW1 1742   3.431   4.832   2.077
  281SOL    HW2 1743   3.346   4.907   1.960
  282SOL     OW 1744   3.555   1.522   5.292
  282SOL    HW1 1745   3.524   1.617   5.293
  282SOL    HW2 1746   3.646   1.517   5.253
  283SOL     OW 1747   6.851   1.217   5.641
  283SOL    HW1 1748   6.806   1.293   5.593
  283SOL    HW2 1749   6.812   1.131   5.609
  284SOL     OW 1750   0.917   4.575   4.654
  284SOL    HW1 1751   0.906   4.516   4.734
  284SOL    HW2 1752   0.974   4.529   4.586
  285SOL     OW 1753   5.853   5.252   5.958
  285SOL    HW1 1754   5.829   5.309   5.879
  285SOL    HW2 1755   5.858   5.309   6.040
  286SOL     OW 1756   3.386   5.703   4.999
  286SOL    HW1 1757   3.300   5.751   5.014
  286SOL    HW2 1758   3.378   5.609   5.034
  287SOL     OW 1759   0.497   4.680   0.175
  287SOL    HW1 1760   0.511   4.587   0.140
  287SOL    HW2 1761   0.539   4.746   0.112
  288SOL     OW 1762   3.835   2.060   6.049
  288SOL    HW1 1763   3.773   2.022   5.981
  288SOL    HW2 1764   3.783   2.106   6.121
  289SOL     OW 1765   0.204   5.234   5.165
  289SOL    HW1 1766   0.149   5.184   5.232
  289SOL    HW2 1767   0.244   5.315   5.208
  290SOL     OW 1768   5.616   1.521   4.355
  290SOL    HW1 1769   5.659   1.470   4.280
  290SOL    HW2 1770   5.577   1.606   4.319
  291SOL     OW 1771   2.321   2.039   4.588
  291SOL    HW1 1772   2.229   2.029   4.549
  291SOL    HW2 1773   2.323   2.000   4.680
  292SOL     OW 1774   1.798   1.872   2.974
  292SOL    HW1 1775   1.763   1.910   2.889
  292SOL    HW2 1776   1.818   1.946   3.039
  293SOL     OW 1777   4.754   4.856   1.917
  293SOL    HW1 1778   4.829   4.836   1.854
  293SOL    HW2 1779   4.667   4.829   1.876
  294SOL     OW 1780   6.539   5.501   6.283
  294SOL    HW1 1781   6.482   5.484   6.202
  294SOL    HW2 1782   6.531   5.597   6.310
  295SOL     OW 1783   3.429   1.659   4.331
  295SOL    HW1 1784   3.508   1.650   4.392
  295SOL    HW2 1785   3.460   1.696   4.243
  296SOL     OW 1786   5.652   1.932   2.104
  296SOL    HW1 1787   5.714   1.856   2.119
  296SOL    HW2 1788   5.589   1.940   2.181
  297SOL     OW 1789   2.802   5.124   2.959
  297SOL    HW1 1790   2.810   5.173   2.872
  297SOL    HW2 1791   2.705   5.109   2.979
  298SOL     OW 1792   3.300   5.647   0.572
  298SOL    HW1 1793   3.339   5.567   0.617
  298SOL    HW2 1794   3.202   5.632   0.558
  299SOL     OW 1795   3.536   3.585   6.194
  299SOL    HW1 1796   3.476   3.657   6.161
  299SOL    HW2 1797   3.621   3.587   6.141
  300SOL     OW 1798   5.450   0.728   1.956
  300SOL    HW1 1799   5.486   0.709   2.047
  300SOL    HW2 1800   5.404   0.817   1.957
  301SOL     OW 1801   5.563   3.217   0.666
  301SOL    HW1 1802   5.483   3.185   0.717
  301SOL    HW2 1803   5.536   3.235   0.571
  302SOL     OW 1804   0.386   1.032   3.622
  302SOL    HW1 1805   0.304   1.075   3.660
  302SOL    HW2 1806   0.404   1.070   3.532
  303SOL     OW 1807   6.607   6.686   1.672
  303SOL    HW1 1808   6.682   6.672   1.607
  303SOL    HW2 1809   6.581   6.782   1.673
  304SOL     OW 1810   1.922   0.284   5.482
  304SOL    HW1 1811   1.896   0.209   5.420
  304SOL    HW2 1812   1.968   0.247   5.562
  305SOL     OW 1813   0.758   3.179   0.343
  305SOL    HW1 1814   0.669   3.206   0.304
  305SOL    HW2 1815   0.744   3.108   0.412
  306SOL     OW 1816   2.117   0.340   3.615
  306SOL    HW1 1817   2.200   0.300   3.576
  306SOL    HW2 1818   2.133   0.363   3.711
  307SOL     OW 1819   4.864   6.182   0.214
  307SOL    HW1 1820   4.879   6.085   0.234
  307SOL    HW2 1821   4.769   6.205   0.236
  308SOL     OW 1822   6.355   3.247   4.622
  308SOL    HW1 1823   6.257   3.236   4.642
  308SOL    HW2 1824   6.369   3.332   4.571
  309SOL     OW 1825   2.940   5.919   6.711
  309SOL    HW1 1826   2.884   5.871   6.644
  309SOL    HW2 1827   3.036   5.907   6.689
  310SOL     OW 1828   6.019   6.709   5.388
  310SOL    HW1 1829   5.941   6.650   5.367
  310SOL    HW2 1830   6.033   6.774   5.314
  311SOL     OW 1831   4.611   4.956   2.735
  311SOL    HW1 1832   4.672   4.940   2.657
  311SOL    HW2 1833   4.517   4.967   2.702
  312SOL     OW 1834   4.338   1.306   4.724
  312SOL    HW1 1835   4.347   1.273   4.630
  312SOL    HW2 1836   4.267   1.254   4.771
  313SOL     OW 1837   2.989   3.784   2.353
  313SOL    HW1 1838   3.035   3.705   2.394
  313SOL    HW2 1839   2.939   3.754   2.272
  314SOL     OW 1840   3.170   5.747   6.920
  314SOL    HW1 1841   3.103   5.687   6.964
  314SOL    HW2 1842   3.249   5.693   6.892
  315SOL     OW 1843   1.342   2.550   3.842
  315SOL    HW1 1844   1.415   2.558   3.773
  315SOL    HW2 1845   1.271   2.618   3.823
  316SOL     OW 1846   3.272   1.507   4.151
  316SOL    HW1 1847   3.343   1.545   4.210
  316SOL    HW2 1848   3.291   1.411   4.131
  317SOL     OW 1849   0.311   1.109   1.049
  317SOL    HW1 1850   0.390   1.170   1.051
  317SOL    HW2 1851   0.237   1.148   1.105
  318SOL     OW 1852   0.948   5.608   6.736
  318SOL    HW1 1853   0.993   5.696   6.752
  318SOL    HW2 1854   0.916   5.571   6.823
  319SOL     OW 1855   6.767   0.527   3.509
  319SOL    HW1 1856   6.746   0.475   3.592
  319SOL    HW2 1857   6.743   0.472   3.429
  320SOL     OW 1858   6.349   2.452   0.984
  320SOL    HW1 1859   6.448   2.451   0.971
  320SOL    HW2 1860   6.312   2.539   0.951
  321SOL     OW 1861   3.916   1.740   0.067
  321SOL    HW1 1862   3.997   1.798   0.059
  321SOL    HW2 1863   3.942   1.645   0.052
  322SOL     OW 1864   3.945   3.139   4.381
  322SOL    HW1 1865   3.963   3.120   4.478
  322SOL    HW2 1866   3.879   3.073   4.346
  323SOL     OW 1867   1.115   3.210   6.226
  323SOL    HW1 1868   1.023   3.228   6.259
  323SOL    HW2 1869   1.174   3.186   6.303
  324SOL     OW 1870   2.508   1.485   5.105
  324SOL    HW1 1871   2.602   1.494   5.138
  324SOL    HW2 1872   2.446   1.535   5.166
  325SOL     OW 1873   0.998   3.136   2.284
  325SOL    HW1 1874   1.003   3.186   2.197
  325SOL    HW2 1875   0.913   3.158   2.331
  326SOL     OW 1876   1.367   5.115   6.926
  326SOL    HW1 1877   1.382   5.214   6.919
  326SOL    HW2 1878   1.436   5.075   6.987
  327SOL     OW 1879   1.594   5.082   3.560
  327SOL    HW1 1880   1.653   5.010   3.595
  327SOL    HW2 1881   1.562   5.058   3.468
  328SOL     OW 1882   1.533   5.379   2.202
  328SOL    HW1 1883   1.491   5.295   2.166
  328SOL    HW2 1884   1.462   5.446   2.223
  329SOL     OW 1885   3.989   3.962   4.659
  329SOL    HW1 1886   4.036   3.873   4.654
  329SOL    HW2 1887   3.995   3.998   4.752
  330SOL     OW 1888   3.616   0.095   1.787
  330SOL    HW1 1889   3.531   0.149   1.786
  330SOL    HW2 1890   3.594   7.021   1.799
  331SOL     OW 1891   3.603   4.802   0.673
  331SOL    HW1 1892   3.671   4.874   0.662
  331SOL    HW2 1893   3.558   4.786   0.585
  332SOL     OW 1894   4.344   1.884   4.975
  332SOL    HW1 1895   4.260   1.874   4.923
  332SOL    HW2 1896   4.416   1.829   4.932
  333SOL     OW 1897   2.979   0.360   6.033
  333SOL    HW1 1898   3.054   0.301   6.061
  333SOL    HW2 1899   3.011   0.425   5.964
  334SOL     OW 1900   2.943   0.396   1.826
  334SOL    HW1 1901   2.883   0.440   1.893
  334SOL    HW2 1902   3.035   0.433   1.833
  335SOL     OW 1903   3.798   6.909   5.192
  335SOL    HW1 1904   3.821   6.822   5.235
  335SOL    HW2 1905   3.850   6.919   5.107
  336SOL     OW 1906   1.608   0.671   3.261
  336SOL    HW1 1907   1.663   0.611   3.203
  336SOL    HW2 1908   1.615   0.765   3.228
  337SOL     OW 1909   0.562   2.868   0.104
  337SOL    HW1 1910   0.581   2.825   0.192
  337SOL    HW2 1911   0.466   2.856   0.080
  338SOL     OW 1912   2.598   2.231   1.438
  338SOL    HW1 1913   2.667   2.235   1.510
  338SOL    HW2 1914   2.631   2.175   1.362
  339SOL     OW 1915   3.143   6.375   3.919
  339SOL    HW1 1916   3.174   6.415   3.833
  339SOL    HW2 1917   3.043   6.376   3.922
  340SOL     OW 1918   4.891   4.570   5.363
  340SOL    HW1 1919   4.945   4.647   5.398
  340SOL    HW2 1920   4.796   4.579   5.393
  341SOL     OW 1921   6.706   0.765   4.758
  341SOL    HW1 1922   6.756   0.731   4.837
  341SOL    HW2 1923   6.756   0.743   4.674
  342SOL     OW 1924   5.857   3.425   6.956
  342SOL    HW1 1925   5.835   3.332   6.987
  342SOL    HW2 1926   5.944   3.424   6.907
  343SOL     OW 1927   2.253   5.459   0.634
  343SOL    HW1 1928   2.332   5.511   0.667
  343SOL    HW2 1929   2.231   5.490   0.541
  344SOL     OW 1930   1.270   4.824   2.110
  344SOL    HW1 1931   1.332   4.746   2.124
  344SOL    HW2 1932   1.318   4.895   2.059
  345SOL     OW 1933   5.246   1.508   3.816
  345SOL    HW1 1934   5.222   1.481   3.723
  345SOL    HW2 1935   5.221   1.603   3.831
  346SOL     OW 1936   2.230   0.624   2.828
  346SOL    HW1 1937   2.297   0.679   2.878
  346SOL    HW2 1938   2.212   0.540   2.878
  347SOL     OW 1939   3.305   5.374   6.499
  347SOL    HW1 1940   3.361   5.300   6.461
  347SOL    HW2 1941   3.210   5.344   6.506
  348SOL     OW 1942   5.302   3.776   2.466
  348SOL    HW1 1943   5.375   3.748   2.529
  348SOL    HW2 1944   5.214   3.772   2.513
  349SOL     OW 1945   6.980   5.106   0.739
  349SOL    HW1 1946   6.996   5.048   0.659
  349SOL    HW2 1947   0.041   5.157   0.760
  350SOL     OW 1948   3.453   3.633   1.028
  350SOL    HW1 1949   3.364   3.635   0.982
  350SOL    HW2 1950   3.439   3.629   1.127
  351SOL     OW 1951   1.956   3.022   0.743
  351SOL    HW1 1952   1.861   3.000   0.722
  351SOL    HW2 1953   2.017   2.964   0.689
  352SOL     OW 1954   2.845   1.323   4.587
  352SOL    HW1 1955   2.936   1.359   4.610
  352SOL    HW2 1956   2.777   1.361   4.650
  353SOL     OW 1957   2.360   6.592   0.740
  353SOL    HW1 1958   2.394   6.616   0.831
  353SOL    HW2 1959   2.408   6.511   0.706
  354SOL     OW 1960   3.455   2.737   0.349
  354SOL    HW1 1961   3.480   2.659   0.291
  354SOL    HW2 1962   3.528   2.805   0.348
  355SOL     OW 1963   0.900   3.622   2.540
  355SOL    HW1 1964   0.826   3.564   2.506
  355SOL    HW2 1965   0.928   3.590   2.630
  356SOL     OW 1966   3.049   0.115   5.786
  356SOL    HW1 1967   3.104   0.127   5.869
  356SOL    HW2 1968   3.006   0.202   5.761
  357SOL     OW 1969   0.407   6.615   5.387
  357SOL    HW1 1970   0.349   6.596   5.307
  357SOL    HW2 1971   0.489   6.558   5.384
  358SOL     OW 1972   4.432   0.336   1.140
  358SOL    HW1 1973   4.419   0.435   1.153
  358SOL    HW2 1974   4.377   0.286   1.207
  359SOL     OW 1975   1.618   2.718   1.908
  359SOL    HW1 1976   1.712   2.683   1.914
  359SOL    HW2 1977   1.613   2.787   1.836
  360SOL     OW 1978   0.808   5.223   6.715
  360SOL    HW1 1979   0.843   5.131   6.733
  360SOL    HW2 1980   0.861   5.265   6.641
  361SOL     OW 1981   5.792   5.764   2.968
  361SOL    HW1 1982   5.886   5.797   2.967
  361SOL    HW2 1983   5.743   5.808   3.044
  362SOL     OW 1984   3.976   4.024   1.775
  362SOL    HW1 1985   4.063   4.067   1.750
  362SOL    HW2 1986   3.994   3.941   1.829
  363SOL     OW 1987   5.536   4.705   3.799
  363SOL    HW1 1988   5.576   4.794   3.823
  363SOL    HW2 1989   5.595   4.659   3.732
  364SOL     OW 1990   5.991   5.510   6.008
  364SOL    HW1 1991   5.947   5.453   6.078
  364SOL    HW2 1992   5.992   5.605   6.038
  365SOL     OW 1993   5.698   5.899   2.418
  365SOL    HW1 1994   5.644   5.839   2.476
  365SOL    HW2 1995   5.637   5.954   2.361
  366SOL     OW 1996   6.573   0.864   6.225
  366SOL    HW1 1997   6.662   0.824   6.247
  366SOL    HW2 1998   6.531   0.900   6.307
  367SOL     OW 1999   4.337   3.063   1.222
  367SOL    HW1 2000   4.303   3.152   1.190
  367SOL    HW2 2001   4.311   3.051   1.318
  368SOL     OW 2002   0.115   3.874   5.154
  368SOL    HW1 2003   0.144   3.959   5.198
  368SOL    HW2 2004   0.120   3.885   5.055
  369SOL     OW 2005   6.508   5.693   1.262
  369SOL    HW1 2006   6.516   5.594   1.271
  369SOL    HW2 2007   6.577   5.737   1.320
  370SOL     OW 2008   2.570   1.362   5.991
  370SOL    HW1 2009   2.651   1.416   6.017
  370SOL    HW2 2010   2.555   1.370   5.893
  371SOL     OW 2011   2.462   3.951   6.393
  371SOL    HW1 2012   2.530   3.886   6.359
  371SOL    HW2 2013   2.372   3.908   6.391
  372SOL     OW 2014   1.242   6.385   5.992
  372SOL    HW1 2015   1.295   6.353   5.913
  372SOL    HW2 2016   1.281   6.470   6.026
  373SOL     OW 2017   6.807   6.472   4.568
  373SOL    HW1 2018   6.787   6.498   4.473
  373SOL    HW2 2019   6.868   6.540   4.608
  374SOL     OW 2020   2.565   1.741   3.088
  374SOL    HW1 2021   2.518   1.760   3.002
  374SOL    HW2 2022   2.622   1.820   3.113
  375SOL     OW 2023   0.847   5.047   3.828
  375SOL    HW1 2024   0.875   5.134   3.788
  375SOL    HW2 2025   0.752   5.054   3.860
  376SOL     OW 2026   2.189   1.693   4.740
  376SOL    HW1 2027   2.185   1.597   4.769
  376SOL    HW2 2028   2.207   1.697   4.641
  377SOL     OW 2029   0.963   1.946   1.405
  377SOL    HW1 2030   1.031   1.983   1.342
  377SOL    HW2 2031   0.927   1.860   1.368
  378SOL     OW 2032   3.446   2.307   5.679
  378SOL    HW1 2033   3.489   2.288   5.767
  378SOL    HW2 2034   3.516   2.336   5.613
  379SOL     OW 2035   5.954   4.331   0.761
  379SOL    HW1 2036   5.969   4.236   0.736
  379SOL    HW2 2037   5.973   4.390   0.682
  380SOL     OW 2038   2.763   1.044   1.065
  380SOL    HW1 2039   2.851   1.089   1.080
  380SOL    HW2 2040   2.764   0.996   0.977
  381SOL     OW 2041   1.412   4.236   2.525
  381SOL    HW1 2042   1.499   4.284   2.514
  381SOL    HW2 2043   1.363   4.273   2.604
  382SOL     OW 2044   5.172   6.396   5.847
  382SOL    HW1 2045   5.135   6.484   5.817
  382SOL    HW2 2046   5.132   6.323   5.793
  383SOL     OW 2047   4.724   3.184   5.601
  383SOL    HW1 2048   4.701   3.088   5.585
  383SOL    HW2 2049   4.672   3.241   5.537
  384SOL     OW 2050   6.461   5.572   4.426
  384SOL    HW1 2051   6.368   5.605   4.410
  384SOL    HW2 2052   6.524   5.649   4.425
  385SOL     OW 2053   4.280   5.985   5.558
  385SOL    HW1 2054   4.207   6.055   5.553
  385SOL    HW2 2055   4.363   6.021   5.515
  386SOL     OW 2056   2.595   6.477   5.364
  386SOL    HW1 2057   2.588   6.547   5.436
  386SOL    HW2 2058   2.553   6.392   5.396
  387SOL     OW 2059   1.088   6.491   3.582
  387SOL    HW1 2060   1.049   6.582   3.572
  387SOL    HW2 2061   1.099   6.449   3.492
  388SOL     OW 2062   1.383   1.900   3.859
  388SOL    HW1 2063   1.381   1.967   3.934
  388SOL    HW2 2064   1.345   1.942   3.776
  389SOL     OW 2065   4.390   4.654   1.409
  389SOL    HW1 2066   4.309   4.615   1.365
  389SOL    HW2 2067   4.466   4.589   1.402
  390SOL     OW 2068   3.058   1.073   7.007
  390SOL    HW1 2069   3.103   1.082   0.073
  390SOL    HW2 2070   3.125   1.044   6.939
  391SOL     OW 2071   1.942   3.623   5.480
  391SOL    HW1 2072   1.872   3.593   5.416
  391SOL    HW2 2073   2.032   3.614   5.438
  392SOL     OW 2074   1.879   4.439   1.577
  392SOL    HW1 2075   1.927   4.449   1.664
  392SOL    HW2 2076   1.861   4.343   1.560
  393SOL     OW 2077   1.066   4.739   6.913
  393SOL    HW1 2078   0.991   4.674   6.925
  393SOL    HW2 2079   1.147   4.691   6.878
  394SOL     OW 2080   7.000   2.516   0.390
  394SOL    HW1 2081   0.062   2.466   0.411
  394SOL    HW2 2082   7.003   2.549   0.296
  395SOL     OW 2083   4.898   4.651   3.558
  395SOL    HW1 2084   4.942   4.562   3.546
  395SOL    HW2 2085   4.806   4.649   3.518
  396SOL     OW 2086   3.168   3.223   2.316
  396SOL    HW1 2087   3.225   3.146   2.286
  396SOL    HW2 2088   3.119   3.261   2.238
  397SOL     OW 2089   5.754   1.353   5.966
  397SOL    HW1 2090   5.675   1.325   5.912
  397SOL    HW2 2091   5.775   1.448   5.948
  398SOL     OW 2092   1.377   7.006   3.451
  398SOL    HW1 2093   1.444   0.048   3.488
  398SOL    HW2 2094   1.291   7.015   3.501
  399SOL     OW 2095   5.523   6.381   4.125
  399SOL    HW1 2096   5.551   6.295   4.168
  399SOL    HW2 2097   5.583   6.455   4.156
  400SOL     OW 2098   6.558   6.575   5.670
  400SOL    HW1 2099   6.605   6.489   5.686
  400SOL    HW2 2100   6.624   6.649   5.663
  401SOL     OW 2101   4.998   0.290   6.310
  401SOL    HW1 2102   4.923   0.248   6.361
  401SOL    HW2 2103   5.070   0.222   6.293
  402SOL     OW 2104   6.769   0.984   3.758
  402SOL    HW1 2105   6.865   0.969   3.783
  402SOL    HW2 2106   6.733   0.902   3.714
  403SOL     OW 2107   4.244   1.100   5.134
  403SOL    HW1 2108   4.170   1.074   5.196
  403SOL    HW2 2109   4.332   1.071   5.172
  404SOL     OW 2110   1.428   4.813   4.087
  404SOL    HW1 2111   1.513   4.847   4.047
  404SOL    HW2 2112   1.351   4.869   4.054
  405SOL     OW 2113   2.190   3.070   3.161
  405SOL    HW1 2114   2.193   3.011   3.081
  405SOL    HW2 2115   2.210   3.164   3.134
  406SOL     OW 2116   0.373   4.011   4.894
  406SOL    HW1 2117   0.420   4.053   4.971
  406SOL    HW2 2118   0.437   3.995   4.819
  407SOL     OW 2119   1.313   2.466   5.092
  407SOL    HW1 2120   1.395   2.419   5.060
  407SOL    HW2 2121   1.309   2.558   5.052
  408SOL     OW 2122   3.471   2.028   2.867
  408SOL    HW1 2123   3.444   2.047   2.773
  408SOL    HW2 2124   3.473   2.113   2.920
  409SOL     OW 2125   6.189   3.057   1.547
  409SOL    HW1 2126   6.260   3.108   1.596
  409SOL    HW2 2127   6.119   3.121   1.513
  410SOL     OW 2128   0.941   1.625   1.438
  410SOL    HW1 2129   0.845   1.610   1.460
  410SOL    HW2 2130   0.964   1.575   1.355
  411SOL     OW 2131   6.562   1.139   1.482
  411SOL    HW1 2132   6.558   1.151   1.383
  411SOL    HW2 2133   6.508   1.059   1.508
  412SOL     OW 2134   3.652   4.909   2.576
  412SOL    HW1 2135   3.683   4.974   2.645
  412SOL    HW2 2136   3.553   4.896   2.584
  413SOL     OW 2137   5.581   4.119   1.798
  413SOL    HW1 2138   5.494   4.081   1.767
  413SOL    HW2 2139   5.637   4.145   1.720
  414SOL     OW 2140   3.411   6.322   4.030
  414SOL    HW1 2141   3.354   6.357   3.955
  414SOL    HW2 2142   3.381   6.230   4.054
  415SOL     OW 2143   0.327   0.410   6.747
  415SOL    HW1 2144   0.289   0.444   6.832
  415SOL    HW2 2145   0.418   0.372   6.764
  416SOL     OW 2146   4.830   5.220   5.494
  416SOL    HW1 2147   4.816   5.190   5.588
  416SOL    HW2 2148   4.837   5.320   5.491
  417SOL     OW 2149   2.244   6.967   5.681
  417SOL    HW1 2150   2.325   6.944   5.629
  417SOL    HW2 2151   2.221   6.892   5.742
  418SOL     OW 2152   3.144   6.800   6.700
  418SOL    HW1 2153   3.083   6.790   6.622
  418SOL    HW2 2154   3.229   6.750   6.683
  419SOL     OW 2155   0.993   6.772   2.839
  419SOL    HW1 2156   0.963   6.804   2.749
  419SOL    HW2 2157   0.965   6.839   2.908
  420SOL     OW 2158   5.612   1.608   6.641
  420SOL    HW1 2159   5.546   1.536   6.659
  420SOL    HW2 2160   5.610   1.631   6.543
  421SOL     OW 2161   5.766   3.759   4.530
  421SOL    HW1 2162   5.728   3.811   4.453
  421SOL    HW2 2163   5.866   3.767   4.529
  422SOL     OW 2164   4.769   3.418   0.872
  422SOL    HW1 2165   4.724   3.354   0.810
  422SOL    HW2 2166   4.747   3.512   0.845
  423SOL     OW 2167   1.747   2.118   0.119
  423SOL    HW1 2168   1.828   2.149   0.169
  423SOL    HW2 2169   1.744   2.018   0.119
  424SOL     OW 2170   1.928   4.632   2.343
  424SOL    HW1 2171   1.921   4.721   2.387
  424SOL    HW2 2172   1.905   4.641   2.245
  425SOL     OW 2173   5.323   1.757   3.998
  425SOL    HW1 2174   5.369   1.814   4.066
  425SOL    HW2 2175   5.374   1.759   3.912
  426SOL     OW 2176   2.563   2.395   4.678
  426SOL    HW1 2177   2.565   2.494   4.665
  426SOL    HW2 2178   2.548   2.374   4.775
  427SOL     OW 2179   6.366   6.808   3.859
  427SOL    HW1 2180   6.372   6.772   3.952
  427SOL    HW2 2181   6.381   6.907   3.860
  428SOL     OW 2182   4.033   0.326   3.332
  428SOL    HW1 2183   4.121   0.368   3.352
  428SOL    HW2 2184   3.992   0.368   3.251
  429SOL     OW 2185   0.568   4.765   3.767
  429SOL    HW1 2186   0.545   4.760   3.865
  429SOL    HW2 2187   0.550   4.677   3.724
  430SOL     OW 2188   1.185   6.626   4.618
  430SOL    HW1 2189   1.091   6.662   4.620
  430SOL    HW2 2190   1.221   6.623   4.711
  431SOL     OW 2191   2.655   0.877   0.841
  431SOL    HW1 2192   2.615   0.798   0.795
  431SOL    HW2 2193   2.628   0.960   0.793
  432SOL     OW 2194   6.233   2.256   0.791
  432SOL    HW1 2195   6.268   2.309   0.868
  432SOL    HW2 2196   6.151   2.300   0.755
  433SOL     OW 2197   2.465   6.709   5.850
  433SOL    HW1 2198   2.513   6.754   5.774
  433SOL    HW2 2199   2.400   6.772   5.891
  434SOL     OW 2200   4.306   6.081   3.664
  434SOL    HW1 2201   4.318   6.106   3.760
  434SOL    HW2 2202   4.331   5.985   3.651
  435SOL     OW 2203   3.579   2.003   5.318
  435SOL    HW1 2204   3.577   1.903   5.325
  435SOL    HW2 2205   3.498   2.041   5.362
  436SOL     OW 2206   2.824   5.731   2.025
  436SOL    HW1 2207   2.802   5.688   2.113
  436SOL    HW2 2208   2.903   5.792   2.037
  437SOL     OW 2209   0.682   1.239   6.122
  437SOL    HW1 2210   0.619   1.186   6.179
  437SOL    HW2 2211   0.772   1.240   6.164
  438SOL     OW 2212   1.122   3.762   3.923
  438SOL    HW1 2213   1.182   3.808   3.989
  438SOL    HW2 2214   1.089   3.677   3.962
  439SOL     OW 2215   5.853   6.435   2.291
  439SOL    HW1 2216   5.757   6.459   2.275
  439SOL    HW2 2217   5.879   6.358   2.233
  440SOL     OW 2218   2.862   1.379   5.967
  440SOL    HW1 2219   2.805   1.319   5.911
  440SOL    HW2 2220   2.841   1.474   5.946
  441SOL     OW 2221   6.457   3.177   3.869
  441SOL    HW1 2222   6.461   3.114   3.946
  441SOL    HW2 2223   6.526   3.249   3.881
  442SOL     OW 2224   4.960   5.429   5.754
  442SOL    HW1 2225   4.880   5.448   5.697
  442SOL    HW2 2226   4.972   5.330   5.762
  443SOL     OW 2227   5.563   3.988   4.097
  443SOL    HW1 2228   5.478   4.039   4.115
  443SOL    HW2 2229   5.640   4.052   4.098
  444SOL     OW 2230   4.652   0.225   5.915
  444SOL    HW1 2231   4.602   0.307   5.887
  444SOL    HW2 2232   4.735   0.216   5.861
  445SOL     OW 2233   2.662   5.985   2.892
  445SOL    HW1 2234   2.715   5.975   2.808
  445SOL    HW2 2235   2.588   6.050   2.877
  446SOL     OW 2236   4.089   6.053   2.584
  446SOL    HW1 2237   4.180   6.050   2.628
  446SOL    HW2 2238   4.090   5.996   2.502
  447SOL     OW 2239   6.411   3.964   5.054
  447SOL    HW1 2240   6.429   3.901   5.130
  447SOL    HW2 2241   6.315   3.993   5.056
  448SOL     OW 2242   2.689   0.950   2.774
  448SOL    HW1 2243   2.621   0.899   2.721
  448SOL    HW2 2244   2.781   0.927   2.740
  449SOL     OW 2245   3.367   1.258   4.165
  449SOL    HW1 2246   3.339   1.184   4.104
  449SOL    HW2 2247   3.379   1.223   4.258
  450SOL     OW 2248   1.707   4.825   3.576
  450SOL    HW1 2249   1.703   4.804   3.479
  450SOL    HW2 2250   1.702   4.741   3.629
  451SOL     OW 2251   2.117   2.505   4.187
  451SOL    HW1 2252   2.186   2.563   4.145
  451SOL    HW2 2253   2.034   2.504   4.131
  452SOL     OW 2254   4.304   6.461   1.970
  452SOL    HW1 2255   4.222   6.509   1.938
  452SOL    HW2 2256   4.385   6.510   1.939
  453SOL     OW 2257   3.341   6.478   6.226
  453SOL    HW1 2258   3.382   6.570   6.226
  453SOL    HW2 2259   3.251   6.482   6.269
  454SOL     OW 2260   0.321   3.616   6.671
  454SOL    HW1 2261   0.388   3.666   6.725
  454SOL    HW2 2262   0.238   3.603   6.725
  455SOL     OW 2263   5.772   2.784   5.226
  455SOL    HW1 2264   5.742   2.694   5.196
  455SOL    HW2 2265   5.817   2.832   5.149
  456SOL     OW 2266   1.328   0.640   4.471
  456SOL    HW1 2267   1.276   0.635   4.557
  456SOL    HW2 2268   1.298   0.719   4.419
  457SOL     OW 2269   2.096   4.064   4.437
  457SOL    HW1 2270   2.080   4.068   4.536
  457SOL    HW2 2271   2.102   4.157   4.400
  458SOL     OW 2272   3.159   0.257   3.064
  458SOL    HW1 2273   3.220   0.187   3.027
  458SOL    HW2 2274   3.209   0.342   3.077
  459SOL     OW 2275   1.670   0.419   5.494
  459SOL    HW1 2276   1.754   0.365   5.493
  459SOL    HW2 2277   1.679   0.497   5.432
  460SOL     OW 2278   1.401   0.289   4.980
  460SOL    HW1 2279   1.442   0.324   5.064
  460SOL    HW2 2280   1.418   0.191   4.973
  461SOL     OW 2281   6.332   4.506   6.110
  461SOL    HW1 2282   6.274   4.524   6.031
  461SOL    HW2 2283   6.428   4.516   6.085
  462SOL     OW 2284   3.892   3.607   5.525
  462SOL    HW1 2285   3.826   3.681   5.519
  462SOL    HW2 2286   3.848   3.521   5.499
  463SOL     OW 2287   0.666   0.441   3.831
  463SOL    HW1 2288   0.666   0.513   3.900
  463SOL    HW2 2289   0.591   0.457   3.766
  464SOL     OW 2290   2.936   0.686   5.780
  464SOL    HW1 2291   2.935   0.733   5.692
  464SOL    HW2 2292   3.030   0.678   5.813
  465SOL     OW 2293   0.308   2.594   6.959
  465SOL    HW1 2294   0.377   2.658   6.923
  465SOL    HW2 2295   0.312   2.509   6.907
  466SOL     OW 2296   2.805   6.524   4.284
  466SOL    HW1 2297   2.736   6.463   4.245
  466SOL    HW2 2298   2.896   6.486   4.269
  467SOL     OW 2299   1.354   1.513   2.688
  467SOL    HW1 2300   1.301   1.596   2.667
  467SOL    HW2 2301   1.432   1.507   2.626
  468SOL     OW 2302   4.332   5.538   5.198
  468SOL    HW1 2303   4.368   5.591   5.120
  468SOL    HW2 2304   4.343   5.591   5.282
  469SOL     OW 2305   3.033   3.762   5.909
  469SOL    HW1 2306   3.089   3.842   5.934
  469SOL    HW2 2307   3.043   3.744   5.811
  470SOL     OW 2308   3.910   5.969   1.446
  470SOL    HW1 2309   3.870   5.879   1.429
  470SOL    HW2 2310   3.857   6.017   1.516
  471SOL     OW 2311   2.967   2.294   4.131
  471SOL    HW1 2312   2.966   2.294   4.031
  471SOL    HW2 2313   2.887   2.345   4.165
  472SOL     OW 2314   5.801   4.432   0.052
  472SOL    HW1 2315   5.705   4.456   0.036
  472SOL    HW2 2316   5.844   4.504   0.107
  473SOL     OW 2317   0.941   2.039   2.098
  473SOL    HW1 2318   0.844   2.021   2.080
  473SOL    HW2 2319   0.996   1.964   2.060
  474SOL     OW 2320   5.496   5.785   5.521
  474SOL    HW1 2321   5.584   5.830   5.532
  474SOL    HW2 2322   5.502   5.691   5.554
  475SOL     OW 2323   6.110   3.211   0.428
  475SOL    HW1 2324   6.163   3.142   0.377
  475SOL    HW2 2325   6.016   3.180   0.437
  476SOL     OW 2326   0.036   3.660   1.860
  476SOL    HW1 2327   0.105   3.592   1.886
  476SOL    HW2 2328   0.051   3.744   1.912
  477SOL     OW 2329   2.818   5.647   3.478
  477SOL    HW1 2330   2.748   5.587   3.517
  477SOL    HW2 2331   2.775   5.733   3.450
  478SOL     OW 2332   3.805   6.233   3.408
  478SOL    HW1 2333   3.768   6.302   3.346
  478SOL    HW2 2334   3.858   6.277   3.480
  479SOL     OW 2335   3.910   3.074   5.150
  479SOL    HW1 2336   3.901   3.152   5.088
  479SOL    HW2 2337   3.820   3.047   5.183
  480SOL     OW 2338   2.856   0.227   1.257
  480SOL    HW1 2339   2.832   0.293   1.328
  480SOL    HW2 2340   2.942   0.254   1.214
  481SOL     OW 2341   0.622   6.433   1.540
  481SOL    HW1 2342   0.700   6.376   1.514
  481SOL    HW2 2343   0.639   6.528   1.513
  482SOL     OW 2344   4.697   5.195   2.876
  482SOL    HW1 2345   4.794   5.201   2.902
  482SOL    HW2 2346   4.681   5.109   2.827
  483SOL     OW 2347   6.952   2.291   2.641
  483SOL    HW1 2348   0.024   2.319   2.633
  483SOL    HW2 2349   6.947   2.191   2.647
  484SOL     OW 2350   1.528   4.090   4.644
  484SOL    HW1 2351   1.485   4.180   4.637
  484SOL    HW2 2352   1.462   4.025   4.683
  485SOL     OW 2353   4.805   4.914   2.505
  485SOL    HW1 2354   4.790   4.951   2.413
  485SOL    HW2 2355   4.897   4.875   2.510
  486SOL     OW 2356   5.812   1.431   6.970
  486SOL    HW1 2357   5.822   1.333   6.984
  486SOL    HW2 2358   5.814   1.451   6.872
  487SOL     OW 2359   0.831   0.680   3.096
  487SOL    HW1 2360   0.899   0.626   3.145
  487SOL    HW2 2361   0.877   0.733   3.024
  488SOL     OW 2362   0.644   6.629   2.273
  488SOL    HW1 2363   0.626   6.589   2.363
  488SOL    HW2 2364   0.621   6.563   2.201
  489SOL     OW 2365   5.964   5.811   5.217
  489SOL    HW1 2366   5.964   5.733   5.155
  489SOL    HW2 2367   6.044   5.868   5.198
  490SOL     OW 2368   1.711   5.963   3.857
  490SOL    HW1 2369   1.678   5.976   3.763
  490SOL    HW2 2370   1.655   5.893   3.902
  491SOL     OW 2371   1.306   3.458   1.180
  491SOL    HW1 2372   1.276   3.450   1.275
  491SOL    HW2 2373   1.360   3.541   1.169
  492SOL     OW 2374   1.466   0.966   5.657
  492SOL    HW1 2375   1.541   1.031   5.647
  492SOL    HW2 2376   1.469   0.901   5.581
  493SOL     OW 2377   2.567   0.106   5.660
  493SOL    HW1 2378   2.610   0.178   5.605
  493SOL    HW2 2379   2.469   0.120   5.664
  494SOL     OW 2380   1.655   1.211   6.483
  494SOL    HW1 2381   1.736   1.161   6.514
  494SOL    HW2 2382   1.590   1.219   6.558
  495SOL     OW 2383   3.717   6.617   4.141
  495SOL    HW1 2384   3.780   6.656   4.074
  495SOL    HW2 2385   3.697   6.522   4.118
  496SOL     OW 2386   6.416   1.955   1.913
  496SOL    HW1 2387   6.414   1.992   2.006
  496SOL    HW2 2388   6.381   2.023   1.849
  497SOL     OW 2389   3.324   1.306   4.739
  497SOL    HW1 2390   3.420   1.335   4.745
  497SOL    HW2 2391   3.265   1.387   4.736
  498SOL     OW 2392   0.857   4.526   2.478
  498SOL    HW1 2393   0.888   4.612   2.437
  498SOL    HW2 2394   0.797   4.546   2.555
  499SOL     OW 2395   1.918   5.271   5.062
  499SOL    HW1 2396   1.897   5.358   5.107
  499SOL    HW2 2397   1.906   5.281   4.963
  500SOL     OW 2398   5.449   2.707   6.895
  500SOL    HW1 2399   5.503   2.627   6.865
  500SOL    HW2 2400   5.510   2.775   6.935
  501SOL     OW 2401   4.263   6.984   1.271
  501SOL    HW1 2402   4.198   0.007   1.209
  501SOL    HW2 2403   4.313   6.914   1.221
  502SOL     OW 2404   0.440   4.698   6.685
  502SOL    HW1 2405   0.363   4.720   6.624
  502SOL    HW2 2406   0.439   4.600   6.705
  503SOL     OW 2407   1.956   4.930   6.130
  503SOL    HW1 2408   2.025   4.961   6.065
  503SOL    HW2 2409   1.873   4.904   6.081
  504SOL     OW 2410   1.190   5.475   1.818
  504SOL    HW1 2411   1.193   5.545   1.746
  504SOL    HW2 2412   1.151   5.515   1.901
  505SOL     OW 2413   4.373   6.633   4.661
  505SOL    HW1 2414   4.444   6.591   4.718
  505SOL    HW2 2415   4.306   6.679   4.720
  506SOL     OW 2416   2.943   6.132   2.048
  506SOL    HW1 2417   2.935   6.042   2.004
  506SOL    HW2 2418   3.031   6.139   2.093
  507SOL     OW 2419   3.874   6.488   2.640
  507SOL    HW1 2420   3.866   6.502   2.739
  507SOL    HW2 2421   3.935   6.558   2.602
  508SOL     OW 2422   0.115   2.607   2.711
  508SOL    HW1 2423   0.153   2.651   2.629
  508SOL    HW2 2424   0.119   2.508   2.700
  509SOL     OW 2425   3.514   1.353   0.427
  509SOL    HW1 2426   3.560   1.268   0.450
  509SOL    HW2 2427   3.557   1.393   0.345
  510SOL     OW 2428   6.728   4.377   6.212
  510SOL    HW1 2429   6.682   4.297   6.250
  510SOL    HW2 2430   6.826   4.358   6.203
  511SOL     OW 2431   0.701   2.212   6.842
  511SOL    HW1 2432   0.768   2.269   6.889
  511SOL    HW2 2433   0.621   2.200   6.900
  512SOL     OW 2434   6.227   2.606   0.106
  512SOL    HW1 2435   6.242   2.570   0.014
  512SOL    HW2 2436   6.316   2.622   0.150
  513SOL     OW 2437   5.213   6.798   3.153
  513SOL    HW1 2438   5.178   6.796   3.246
  513SOL    HW2 2439   5.235   6.892   3.127
  514SOL     OW 2440   6.561   0.356   4.062
  514SOL    HW1 2441   6.610   0.423   4.118
  514SOL    HW2 2442   6.463   0.376   4.065
  515SOL     OW 2443   1.908   0.505   0.113
  515SOL    HW1 2444   1.919   0.509   0.213
  515SOL    HW2 2445   1.870   0.416   0.087
  516SOL     OW 2446   2.817   4.679   2.406
  516SOL    HW1 2447   2.842   4.583   2.389
  516SOL    HW2 2448   2.865   4.738   2.341
  517SOL     OW 2449   3.374   4.657   1.630
  517SOL    HW1 2450   3.439   4.671   1.705
  517SOL    HW2 2451   3.282   4.676   1.662
  518SOL     OW 2452   2.564   2.091   3.745
  518SOL    HW1 2453   2.617   2.073   3.828
  518SOL    HW2 2454   2.505   2.013   3.726
  519SOL     OW 2455   0.179   6.431   3.759
  519SOL    HW1 2456   0.094   6.450   3.809
  519SOL    HW2 2457   0.164   6.353   3.698
  520SOL     OW 2458   0.097   3.496   6.789
  520SOL    HW1 2459   0.106   3.396   6.790
  520SOL    HW2 2460   0.013   3.521   6.838
  521SOL     OW 2461   5.489   5.439   4.815
  521SOL    HW1 2462   5.438   5.508   4.865
  521SOL    HW2 2463   5.508   5.471   4.722
  522SOL     OW 2464   4.113   3.665   3.005
  522SOL    HW1 2465   4.204   3.705   3.015
  522SOL    HW2 2466   4.068   3.661   3.094
  523SOL     OW 2467   6.982   5.585   1.686
  523SOL    HW1 2468   6.928   5.590   1.602
  523SOL    HW2 2469   0.026   5.511   1.679
  524SOL     OW 2470   1.939   2.795   2.526
  524SOL    HW1 2471   1.927   2.729   2.452
  524SOL    HW2 2472   1.862   2.789   2.589
  525SOL     OW 2473   1.663   3.905   6.132
  525SOL    HW1 2474   1.632   3.905   6.227
  525SOL    HW2 2475   1.761   3.925   6.129
  526SOL     OW 2476   3.222   6.762   4.049
  526SOL    HW1 2477   3.215   6.786   3.952
  526SOL    HW2 2478   3.290   6.689   4.060
  527SOL     OW 2479   0.438   2.333   0.903
  527SOL    HW1 2480   0.372   2.314   0.830
  527SOL    HW2 2481   0.521   2.373   0.864
  528SOL     OW 2482   1.700   2.902   4.047
  528SOL    HW1 2483   1.646   2.821   4.067
  528SOL    HW2 2484   1.689   2.969   4.121
  529SOL     OW 2485   1.735   6.562   5.051
  529SOL    HW1 2486   1.770   6.629   4.984
  529SOL    HW2 2487   1.812   6.510   5.088
  530SOL     OW 2488   4.093   3.565   2.740
  530SOL    HW1 2489   4.032   3.486   2.726
  530SOL    HW2 2490   4.081   3.600   2.833
  531SOL     OW 2491   1.175   0.954   3.019
  531SOL    HW1 2492   1.224   1.039   3.000
  531SOL    HW2 2493   1.239   0.877   3.018
  532SOL     OW 2494   1.299   3.304   0.448
  532SOL    HW1 2495   1.209   3.285   0.486
  532SOL    HW2 2496   1.332   3.392   0.482
  533SOL     OW 2497   4.685   6.851   3.292
  533SOL    HW1 2498   4.688   6.837   3.391
  533SOL    HW2 2499   4.772   6.891   3.261
  534SOL     OW 2500   6.161   5.964   2.576
  534SOL    HW1 2501   6.244   5.933   2.532
  534SOL    HW2 2502   6.105   5.885   2.602
  535SOL     OW 2503   6.975   4.210   2.696
  535SOL    HW1 2504   6.926   4.140   2.748
  535SOL    HW2 2505   6.981   4.183   2.600
  536SOL     OW 2506   5.951   4.796   2.510
  536SOL    HW1 2507   5.926   4.893   2.515
  536SOL    HW2 2508   6.045   4.784   2.541
  537SOL     OW 2509   3.795   0.633   4.464
  537SOL    HW1 2510   3.811   0.627   4.563
  537SOL    HW2 2511   3.698   0.618   4.446
  538SOL     OW 2512   0.655   4.595   4.372
  538SOL    HW1 2513   0.583   4.576   4.439
  538SOL    HW2 2514   0.663   4.694   4.359
  539SOL     OW 2515   1.962   5.146   2.043
  539SOL    HW1 2516   1.923   5.235   2.068
  539SOL    HW2 2517   2.050   5.160   1.998
  540SOL     OW 2518   1.617   1.194   3.429
  540SOL    HW1 2519   1.603   1.096   3.443
  540SOL    HW2 2520   1.545   1.230   3.369
  541SOL     OW 2521   5.003   5.634   3.815
  541SOL    HW1 2522   4.999   5.625   3.914
  541SOL    HW2 2523   4.995   5.544   3.773
  542SOL     OW 2524   4.307   6.277   0.137
  542SOL    HW1 2525   4.272   6.371   0.146
  542SOL    HW2 2526   4.385   6.277   0.074
  543SOL     OW 2527   6.247   3.760   3.618
  543SOL    HW1 2528   6.330   3.763   3.563
  543SOL    HW2 2529   6.180   3.700   3.574
  544SOL     OW 2530   0.623   5.159   0.114
  544SOL    HW1 2531   0.683   5.233   0.145
  544SOL    HW2 2532   0.584   5.112   0.193
  545SOL     OW 2533   3.700   0.892   1.618
  545SOL    HW1 2534   3.684   0.969   1.556
  545SOL    HW2 2535   3.628   0.889   1.688
  546SOL     OW 2536   1.557   4.066   1.610
  546SOL    HW1 2537   1.516   3.991   1.559
  546SOL    HW2 2538   1.492   4.100   1.678
  547SOL     OW 2539   3.215   2.490   1.301
  547SOL    HW1 2540   3.141   2.488   1.368
  547SOL    HW2 2541   3.253   2.398   1.291
  548SOL     OW 2542   3.231   3.540   1.624
  548SOL    HW1 2543   3.228   3.474   1.700
  548SOL    HW2 2544   3.200   3.629   1.657
  549SOL     OW 2545   5.241   2.197   1.682
  549SOL    HW1 2546   5.171   2.266   1.698
  549SOL    HW2 2547   5.245   2.175   1.585
  550SOL     OW 2548   1.029   5.388   3.457
  550SOL    HW1 2549   1.023   5.310   3.394
  550SOL    HW2 2550   1.121   5.429   3.451
  551SOL     OW 2551   0.545   6.941   1.658
  551SOL    HW1 2552   0.641   6.963   1.677
  551SOL    HW2 2553   0.486   7.014   1.694
  552SOL     OW 2554   5.954   4.404   6.393
  552SOL    HW1 2555   5.855   4.399   6.406
  552SOL    HW2 2556   5.975   4.468   6.319
  553SOL     OW 2557   2.796   6.798   4.113
  553SOL    HW1 2558   2.811   6.718   4.171
  553SOL    HW2 2559   2.699   6.805   4.090
  554SOL     OW 2560   5.985   6.920   0.291
  554SOL    HW1 2561   5.981   7.017   0.314
  554SOL    HW2 2562   5.966   6.908   0.194
  555SOL     OW 2563   3.073   4.960   5.039
  555SOL    HW1 2564   2.990   4.920   5.001
  555SOL    HW2 2565   3.077   4.943   5.137
  556SOL     OW 2566   4.987   1.849   4.071
  556SOL    HW1 2567   4.961   1.924   4.131
  556SOL    HW2 2568   4.992   1.881   3.977
  557SOL     OW 2569   6.306   5.321   0.126
  557SOL    HW1 2570   6.346   5.409   0.152
  557SOL    HW2 2571   6.344   5.291   0.039
  558SOL     OW 2572   3.620   3.072   3.614
  558SOL    HW1 2573   3.690   3.019   3.662
  558SOL    HW2 2574   3.530   3.042   3.646
  559SOL     OW 2575   0.131   5.582   5.558
  559SOL    HW1 2576   0.057   5.517   5.540
  559SOL    HW2 2577   0.105   5.642   5.633
  560SOL     OW 2578   6.457   3.786   3.883
  560SOL    HW1 2579   6.422   3.704   3.837
  560SOL    HW2 2580   6.381   3.837   3.923
  561SOL     OW 2581   0.476   1.902   0.969
  561SOL    HW1 2582   0.500   1.911   0.873
  561SOL    HW2 2583   0.451   1.992   1.005
  562SOL     OW 2584   4.222   0.193   6.231
  562SOL    HW1 2585   4.177   0.283   6.229
  562SOL    HW2 2586   4.314   0.203   6.269
  563SOL     OW 2587   2.938   1.280   3.964
  563SOL    HW1 2588   2.976   1.213   4.028
  563SOL    HW2 2589   2.842   1.296   3.985
  564SOL     OW 2590   0.906   3.565   6.958
  564SOL    HW1 2591   0.980   3.498   6.950
  564SOL    HW2 2592   0.944   3.657   6.966
  565SOL     OW 2593   3.522   3.671   4.493
  565SOL    HW1 2594   3.542   3.639   4.400
  565SOL    HW2 2595   3.472   3.757   4.489
  566SOL     OW 2596   0.780   3.418   3.258
  566SOL    HW1 2597   0.692   3.381   3.228
  566SOL    HW2 2598   0.772   3.517   3.269
  567SOL     OW 2599   3.090   2.843   1.222
  567SOL    HW1 2600   3.168   2.851   1.159
  567SOL    HW2 2601   3.124   2.823   1.314
  568SOL     OW 2602   4.276   0.248   0.410
  568SOL    HW1 2603   4.335   0.186   0.358
  568SOL    HW2 2604   4.278   0.339   0.368
  569SOL     OW 2605   1.073   3.515   0.533
  569SOL    HW1 2606   1.008   3.520   0.609
  569SOL    HW2 2607   1.040   3.452   0.464
  570SOL     OW 2608   3.660   0.455   6.431
  570SOL    HW1 2609   3.579   0.512   6.417
  570SOL    HW2 2610   3.649   0.401   6.515
  571SOL     OW 2611   3.170   4.844   3.185
  571SOL    HW1 2612   3.126   4.834   3.274
  571SOL    HW2 2613   3.232   4.766   3.170
  572SOL     OW 2614   2.358   5.232   4.994
  572SOL    HW1 2615   2.282   5.268   4.939
  572SOL    HW2 2616   2.430   5.199   4.933
  573SOL     OW 2617   5.712   0.963   5.831
  573SOL    HW1 2618   5.640   0.941   5.766
  573SOL    HW2 2619   5.706   1.060   5.856
  574SOL     OW 2620   3.627   1.319   4.368
  574SOL    HW1 2621   3.678   1.384   4.312
  574SOL    HW2 2622   3.639   1.227   4.330
  575SOL     OW 2623   4.563   3.509   1.719
  575SOL    HW1 2624   4.595   3.570   1.646
  575SOL    HW2 2625   4.615   3.424   1.716
  576SOL     OW 2626   1.538   2.865   2.861
  576SOL    HW1 2627   1.573   2.850   2.953
  576SOL    HW2 2628   1.442   2.837   2.857
  577SOL     OW 2629   1.644   1.008   2.346
  577SOL    HW1 2630   1.603   1.079   2.403
  577SOL    HW2 2631   1.574   0.970   2.285
  578SOL     OW 2632   6.920   5.166   4.516
  578SOL    HW1 2633   6.848   5.126   4.460
  578SOL    HW2 2634   6.943   5.104   4.591
  579SOL     OW 2635   1.787   3.142   3.670
  579SOL    HW1 2636   1.857   3.213   3.674
  579SOL    HW2 2637   1.698   3.181   3.696
  580SOL     OW 2638   4.260   4.969   5.326
  580SOL    HW1 2639   4.264   4.956   5.227
  580SOL    HW2 2640   4.188   5.034   5.348
  581SOL     OW 2641   1.340   2.813   1.718
  581SOL    HW1 2642   1.284   2.778   1.793
  581SOL    HW2 2643   1.365   2.908   1.737
  582SOL     OW 2644   5.005   5.848   2.546
  582SOL    HW1 2645   4.970   5.836   2.453
  582SOL    HW2 2646   4.960   5.927   2.588
  583SOL     OW 2647   2.656   6.545   4.866
  583SOL    HW1 2648   2.605   6.587   4.791
  583SOL    HW2 2649   2.754   6.553   4.849
  584SOL     OW 2650   2.971   6.194   6.825
  584SOL    HW1 2651   2.962   6.097   6.800
  584SOL    HW2 2652   3.054   6.207   6.879
  585SOL     OW 2653   4.356   1.484   6.693
  585SOL    HW1 2654   4.398   1.573   6.674
  585SOL    HW2 2655   4.278   1.470   6.633
  586SOL     OW 2656   3.343   0.251   6.289
  586SOL    HW1 2657   3.347   0.322   6.219
  586SOL    HW2 2658   3.343   0.293   6.380
  587SOL     OW 2659   4.674   2.403   4.217
  587SOL    HW1 2660   4.633   2.323   4.173
  587SOL    HW2 2661   4.653   2.484   4.163
  588SOL     OW 2662   2.597   5.041   1.602
  588SOL    HW1 2663   2.550   4.960   1.637
  588SOL    HW2 2664   2.683   5.014   1.559
  589SOL     OW 2665   3.624   4.990   1.580
  589SOL    HW1 2666   3.660   5.054   1.647
  589SOL    HW2 2667   3.624   4.898   1.619
  590SOL     OW 2668   5.302   2.571   1.631
  590SOL    HW1 2669   5.207   2.579   1.662
  590SOL    HW2 2670   5.303   2.558   1.532
  591SOL     OW 2671   3.688   5.868   3.377
  591SOL    HW1 2672   3.682   5.931   3.454
  591SOL    HW2 2673   3.658   5.914   3.294
  592SOL     OW 2674   4.461   0.870   1.400
  592SOL    HW1 2675   4.502   0.780   1.383
  592SOL    HW2 2676   4.362   0.863   1.395
  593SOL     OW 2677   4.493   2.451   3.878
  593SOL    HW1 2678   4.555   2.509   3.930
  593SOL    HW2 2679   4.404   2.449   3.922
  594SOL     OW 2680   5.391   0.792   0.538
  594SOL    HW1 2681   5.446   0.773   0.620
  594SOL    HW2 2682   5.379   0.891   0.528
  595SOL     OW 2683   5.839   0.431   3.467
  595SOL    HW1 2684   5.877   0.453   3.377
  595SOL    HW2 2685   5.866   0.338   3.492
  596SOL     OW 2686   0.349   5.027   3.426
  596SOL    HW1 2687   0.258   5.068   3.434
  596SOL    HW2 2688   0.364   4.965   3.503
  597SOL     OW 2689   2.004   0.425   6.886
  597SOL    HW1 2690   2.016   0.326   6.874
  597SOL    HW2 2691   2.003   0.447   6.983
  598SOL     OW 2692   3.966   4.002   4.913
  598SOL    HW1 2693   3.881   3.952   4.926
  598SOL    HW2 2694   4.016   4.005   5.000
  599SOL     OW 2695   3.061   5.935   2.838
  599SOL    HW1 2696   3.088   5.945   2.934
  599SOL    HW2 2697   3.022   6.021   2.805
  600SOL     OW 2698   6.005   2.056   6.718
  600SOL    HW1 2699   5.992   1.967   6.675
  600SOL    HW2 2700   5.959   2.127   6.664
  601SOL     OW 2701   1.503   1.001   3.920
  601SOL    HW1 2702   1.590   1.004   3.968
  601SOL    HW2 2703   1.429   0.983   3.985
  602SOL     OW 2704   1.125   1.192   6.616
  602SOL    HW1 2705   1.057   1.121   6.601
  602SOL    HW2 2706   1.112   1.233   6.707
  603SOL     OW 2707   3.026   3.004   5.414
  603SOL    HW1 2708   3.097   2.938   5.439
  603SOL    HW2 2709   2.939   2.957   5.399
  604SOL     OW 2710   0.681   1.680   1.541
  604SOL    HW1 2711   0.609   1.711   1.478
  604SOL    HW2 2712   0.658   1.589   1.576
  605SOL     OW 2713   6.808   5.031   0.026
  605SOL    HW1 2714   6.793   5.128   0.009
  605SOL    HW2 2715   6.792   5.011   0.122
  606SOL     OW 2716   4.859   6.325   5.592
  606SOL    HW1 2717   4.833   6.253   5.529
  606SOL    HW2 2718   4.958   6.320   5.610
  607SOL     OW 2719   6.322   4.821   5.277
  607SOL    HW1 2720   6.279   4.902   5.318
  607SOL    HW2 2721   6.307   4.742   5.337
  608SOL     OW 2722   4.120   6.494   6.682
  608SOL    HW1 2723   4.216   6.473   6.662
  608SOL    HW2 2724   4.077   6.534   6.602
  609SOL     OW 2725   3.965   3.224   2.514
  609SOL    HW1 2726   3.987   3.237   2.611
  609SOL    HW2 2727   3.908   3.143   2.502
  610SOL     OW 2728   5.903   3.404   0.967
  610SOL    HW1 2729   5.851   3.487   0.946
  610SOL    HW2 2730   5.994   3.429   0.998
  611SOL     OW 2731   4.895   6.983   1.778
  611SOL    HW1 2732   4.970   7.002   1.841
  611SOL    HW2 2733   4.811   6.966   1.830
  612SOL     OW 2734   3.893   5.689   4.575
  612SOL    HW1 2735   3.828   5.646   4.512
  612SOL    HW2 2736   3.982   5.643   4.567
  613SOL     OW 2737   5.172   5.362   5.092
  613SOL    HW1 2738   5.137   5.440   5.041
  613SOL    HW2 2739   5.098   5.324   5.149
  614SOL     OW 2740   5.066   5.465   6.556
  614SOL    HW1 2741   5.057   5.522   6.638
  614SOL    HW2 2742   5.068   5.524   6.475
  615SOL     OW 2743   6.765   2.038   1.636
  615SOL    HW1 2744   6.717   1.955   1.664
  615SOL    HW2 2745   6.854   2.042   1.681
  616SOL     OW 2746   0.517   3.134   2.572
  616SOL    HW1 2747   0.419   3.122   2.590
  616SOL    HW2 2748   0.541   3.230   2.581
  617SOL     OW 2749   0.145   4.481   6.325
  617SOL    HW1 2750   0.178   4.393   6.291
  617SOL    HW2 2751   0.062   4.506   6.275
  618SOL     OW 2752   0.087   2.693   0.781
  618SOL    HW1 2753   0.016   2.703   0.712
  618SOL    HW2 2754   0.177   2.692   0.736
  619SOL     OW 2755   3.765   1.381   0.259
  619SOL    HW1 2756   3.761   1.450   0.331
  619SOL    HW2 2757   3.750   1.424   0.170
  620SOL     OW 2758   4.082   2.654   1.673
  620SOL    HW1 2759   4.124   2.590   1.609
  620SOL    HW2 2760   4.106   2.629   1.766
  621SOL     OW 2761   2.545   6.760   6.766
  621SOL    HW1 2762   2.471   6.706   6.805
  621SOL    HW2 2763   2.529   6.774   6.668
  622SOL     OW 2764   1.330   0.887   6.246
  622SOL    HW1 2765   1.300   0.975   6.284
  622SOL    HW2 2766   1.261   0.817   6.265
  623SOL     OW 2767   0.722   5.390   5.856
  623SOL    HW1 2768   0.709   5.459   5.785
  623SOL    HW2 2769   0.813   5.349   5.846
  624SOL     OW 2770   0.090   2.447   0.897
  624SOL    HW1 2771   0.083   2.534   0.847
  624SOL    HW2 2772   0.159   2.389   0.853
  625SOL     OW 2773   2.205   1.085   1.425
  625SOL    HW1 2774   2.223   1.148   1.501
  625SOL    HW2 2775   2.159   1.135   1.351
  626SOL     OW 2776   2.335   5.743   3.483
  626SOL    HW1 2777   2.330   5.832   3.438
  626SOL    HW2 2778   2.400   5.685   3.434
  627SOL     OW 2779   4.925   6.655   0.251
  627SOL    HW1 2780   4.855   6.715   0.210
  627SOL    HW2 2781   5.002   6.710   0.282
  628SOL     OW 2782   5.982   5.602   5.536
  628SOL    HW1 2783   6.070   5.572   5.574
  628SOL    HW2 2784   5.912   5.597   5.608
  629SOL     OW 2785   6.930   0.101   0.263
  629SOL    HW1 2786   7.009   0.081   0.205
  629SOL    HW2 2787   6.951   0.179   0.322
  630SOL     OW 2788   6.662   1.636   2.111
  630SOL    HW1 2789   6.575   1.613   2.069
  630SOL    HW2 2790   6.676   1.735   2.108
  631SOL     OW 2791   3.284   6.673   5.096
  631SOL    HW1 2792   3.221   6.627   5.035
  631SOL    HW2 2793   3.356   6.719   5.042
  632SOL     OW 2794   2.470   1.503   0.437
  632SOL    HW1 2795   2.498   1.583   0.385
  632SOL    HW2 2796   2.371   1.500   0.443
  633SOL     OW 2797   4.966   4.341   0.013
  633SOL    HW1 2798   4.983   4.439   0.021
  633SOL    HW2 2799   5.043   4.290   0.052
  634SOL     OW 2800   4.697   4.463   1.885
  634SOL    HW1 2801   4.622   4.423   1.938
  634SOL    HW2 2802   4.663   4.493   1.796
  635SOL     OW 2803   4.482   5.131   0.758
  635SOL    HW1 2804   4.540   5.212   0.770
  635SOL    HW2 2805   4.457   5.096   0.848
  636SOL     OW 2806   4.433   5.447   6.297
  636SOL    HW1 2807   4.508   5.447   6.232
  636SOL    HW2 2808   4.416   5.541   6.328
  637SOL     OW 2809   6.441   3.644   2.259
  637SOL    HW1 2810   6.465   3.618   2.165
  637SOL    HW2 2811   6.449   3.563   2.318
  638SOL     OW 2812   5.667   2.201   2.330
  638SOL    HW1 2813   5.736   2.245   2.274
  638SOL    HW2 2814   5.604   2.270   2.366
  639SOL     OW 2815   5.360   4.132   2.784
  639SOL    HW1 2816   5.321   4.059   2.840
  639SOL    HW2 2817   5.287   4.188   2.746
  640SOL     OW 2818   0.637   4.869   4.181
  640SOL    HW1 2819   0.603   4.786   4.137
  640SOL    HW2 2820   0.596   4.879   4.271
  641SOL     OW 2821   0.322   5.991   4.421
  641SOL    HW1 2822   0.227   6.007   4.448
  641SOL    HW2 2823   0.371   5.945   4.494
  642SOL     OW 2824   0.235   3.593   4.828
  642SOL    HW1 2825   0.267   3.576   4.921
  642SOL    HW2 2826   0.163   3.663   4.830
  643SOL     OW 2827   4.853   5.199   5.063
  643SOL    HW1 2828   4.758   5.220   5.087
  643SOL    HW2 2829   4.912   5.213   5.143
  644SOL     OW 2830   1.545   6.176   4.416
  644SOL    HW1 2831   1.615   6.132   4.472
  644SOL    HW2 2832   1.470   6.206   4.474
  645SOL     OW 2833   5.373   1.563   4.556
  645SOL    HW1 2834   5.462   1.521   4.538
  645SOL    HW2 2835   5.339   1.605   4.471
  646SOL     OW 2836   3.053   1.450   3.401
  646SOL    HW1 2837   3.129   1.493   3.450
  646SOL    HW2 2838   3.077   1.440   3.305
  647SOL     OW 2839   5.206   2.125   5.268
  647SOL    HW1 2840   5.184   2.124   5.170
  647SOL    HW2 2841   5.240   2.215   5.293
  648SOL     OW 2842   6.931   4.188   3.498
  648SOL    HW1 2843   6.963   4.224   3.585
  648SOL    HW2 2844   6.955   4.251   3.424
  649SOL     OW 2845   3.673   3.846   0.260
  649SOL    HW1 2846   3.752   3.862   0.320
  649SOL    HW2 2847   3.593   3.892   0.297
  650SOL     OW 2848   5.826   4.797   0.849
  650SOL    HW1 2849   5.897   4.766   0.913
  650SOL    HW2 2850   5.810   4.726   0.781
  651SOL     OW 2851   6.419   6.505   6.715
  651SOL    HW1 2852   6.481   6.508   6.794
  651SOL    HW2 2853   6.466   6.463   6.638
  652SOL     OW 2854   5.608   6.413   3.789
  652SOL    HW1 2855   5.589   6.322   3.752
  652SOL    HW2 2856   5.695   6.446   3.752
  653SOL     OW 2857   3.283   6.573   4.649
  653SOL    HW1 2858   3.318   6.500   4.707
  653SOL    HW2 2859   3.308   6.556   4.554
  654SOL     OW 2860   0.246   4.097   5.369
  654SOL    HW1 2861   0.154   4.121   5.401
  654SOL    HW2 2862   0.290   4.036   5.435
  655SOL     OW 2863   1.016   6.793   1.812
  655SOL    HW1 2864   0.975   6.725   1.873
  655SOL    HW2 2865   1.095   6.835   1.858
  656SOL     OW 2866   1.765   5.938   1.842
  656SOL    HW1 2867   1.861   5.958   1.819
  656SOL    HW2 2868   1.748   5.840   1.832
  657SOL     OW 2869   1.404   2.283   1.939
  657SOL    HW1 2870   1.307   2.305   1.953
  657SOL    HW2 2871   1.411   2.204   1.879
  658SOL     OW 2872   2.720   3.741   6.579
  658SOL    HW1 2873   2.779   3.665   6.607
  658SOL    HW2 2874   2.638   3.742   6.636
  659SOL     OW 2875   2.402   6.017   5.987
  659SOL    HW1 2876   2.356   5.942   5.938
  659SOL    HW2 2877   2.497   6.023   5.957
  660SOL     OW 2878   4.914   4.529   2.038
  660SOL    HW1 2879   4.826   4.519   1.991
  660SOL    HW2 2880   4.947   4.622   2.026
  661SOL     OW 2881   4.025   5.888   3.558
  661SOL    HW1 2882   3.991   5.820   3.623
  661SOL    HW2 2883   4.067   5.964   3.609
  662SOL     OW 2884   4.090   0.480   5.470
  662SOL    HW1 2885   4.080   0.530   5.384
  662SOL    HW2 2886   4.000   0.458   5.507
  663SOL     OW 2887   2.108   4.295   6.167
  663SOL    HW1 2888   2.175   4.293   6.241
  663SOL    HW2 2889   2.151   4.328   6.083
  664SOL     OW 2890   0.150   5.883   6.124
  664SOL    HW1 2891   0.194   5.972   6.128
  664SOL    HW2 2892   0.099   5.867   6.209
  665SOL     OW 2893   4.840   5.355   1.890
  665SOL    HW1 2894   4.822   5.430   1.828
  665SOL    HW2 2895   4.764   5.290   1.888
  666SOL     OW 2896   5.594   2.027   2.548
  666SOL    HW1 2897   5.681   2.056   2.587
  666SOL    HW2 2898   5.582   2.069   2.458
  667SOL     OW 2899   1.401   4.751   3.214
  667SOL    HW1 2900   1.356   4.761   3.125
  667SOL    HW2 2901   1.417   4.654   3.232
  668SOL     OW 2902   4.837   6.604   5.531
  668SOL    HW1 2903   4.839   6.612   5.431
  668SOL    HW2 2904   4.830   6.507   5.556
  669SOL     OW 2905   4.534   0.512   2.898
  669SOL    HW1 2906   4.498   0.428   2.858
  669SOL    HW2 2907   4.498   0.522   2.991
  670SOL     OW 2908   3.361   2.603   1.674
  670SOL    HW1 2909   3.367   2.647   1.764
  670SOL    HW2 2910   3.401   2.512   1.679
  671SOL     OW 2911   2.161   6.621   0.551
  671SOL    HW1 2912   2.239   6.617   0.613
  671SOL    HW2 2913   2.190   6.657   0.462
  672SOL     OW 2914   0.228   5.647   1.976
  672SOL    HW1 2915   0.217   5.556   1.935
  672SOL    HW2 2916   0.324   5.660   2.002
  673SOL     OW 2917   6.935   6.918   1.437
  673SOL    HW1 2918   6.890   7.005   1.454
  673SOL    HW2 2919   6.973   6.917   1.345
  674SOL     OW 2920   1.153   1.321   5.118
  674SOL    HW1 2921   1.071   1.352   5.071
  674SOL    HW2 2922   1.234   1.356   5.072
  675SOL     OW 2923   0.211   0.976   2.706
  675SOL    HW1 2924   0.270   0.963   2.626
  675SOL    HW2 2925   0.224   0.898   2.769
  676SOL     OW 2926   3.443   5.687   2.374
  676SOL    HW1 2927   3.382   5.610   2.392
  676SOL    HW2 2928   3.493   5.710   2.458
  677SOL     OW 2929   5.344   1.641   0.603
  677SOL    HW1 2930   5.377   1.735   0.619
  677SOL    HW2 2931   5.252   1.645   0.564
  678SOL     OW 2932   2.496   0.182   5.235
  678SOL    HW1 2933   2.567   0.132   5.283
  678SOL    HW2 2934   2.423   0.119   5.208
  679SOL     OW 2935   4.813   2.376   3.328
  679SOL    HW1 2936   4.897   2.355   3.277
  679SOL    HW2 2937   4.782   2.294   3.375
  680SOL     OW 2938   5.541   5.447   5.190
  680SOL    HW1 2939   5.625   5.487   5.225
  680SOL    HW2 2940   5.501   5.507   5.121
  681SOL     OW 2941   4.950   4.824   1.732
  681SOL    HW1 2942   5.005   4.763   1.676
  681SOL    HW2 2943   4.957   4.917   1.696
  682SOL     OW 2944   6.215   1.124   1.387
  682SOL    HW1 2945   6.175   1.157   1.302
  682SOL    HW2 2946   6.284   1.054   1.367
  683SOL     OW 2947   4.928   3.125   0.402
  683SOL    HW1 2948   4.958   3.038   0.362
  683SOL    HW2 2949   4.828   3.126   0.408
  684SOL     OW 2950   6.602   1.020   0.323
  684SOL    HW1 2951   6.515   1.018   0.372
  684SOL    HW2 2952   6.662   0.948   0.359
  685SOL     OW 2953   4.567   1.581   3.680
  685SOL    HW1 2954   4.631   1.504   3.680
  685SOL    HW2 2955   4.617   1.666   3.700
  686SOL     OW 2956   5.068   2.623   3.837
  686SOL    HW1 2957   4.981   2.630   3.887
  686SOL    HW2 2958   5.123   2.550   3.877
  687SOL     OW 2959   0.314   2.437   4.717
  687SOL    HW1 2960   0.364   2.503   4.772
  687SOL    HW2 2961   0.253   2.485   4.654
  688SOL     OW 2962   0.074   1.587   0.139
  688SOL    HW1 2963   0.128   1.543   0.067
  688SOL    HW2 2964   0.002   1.643   0.098
  689SOL     OW 2965   0.888   4.971   6.449
  689SOL    HW1 2966   0.823   4.947   6.522
  689SOL    HW2 2967   0.846   4.950   6.360
  690SOL     OW 2968   0.437   3.592   2.870
  690SOL    HW1 2969   0.497   3.625   2.942
  690SOL    HW2 2970   0.372   3.664   2.845
  691SOL     OW 2971   2.709   0.592   0.679
  691SOL    HW1 2972   2.656   0.535   0.616
  691SOL    HW2 2973   2.793   0.622   0.633
  692SOL     OW 2974   3.856   0.719   3.524
  692SOL    HW1 2975   3.808   0.662   3.591
  692SOL    HW2 2976   3.898   0.797   3.570
  693SOL     OW 2977   5.678   0.614   4.181
  693SOL    HW1 2978   5.777   0.629   4.182
  693SOL    HW2 2979   5.646   0.612   4.086
  694SOL     OW 2980   4.500   6.495   3.969
  694SOL    HW1 2981   4.494   6.570   4.035
  694SOL    HW2 2982   4.596   6.474   3.950
  695SOL     OW 2983   5.096   6.555   4.284
  695SOL    HW1 2984   5.178   6.506   4.258
  695SOL    HW2 2985   5.016   6.510   4.244
  696SOL     OW 2986   4.626   4.887   3.057
  696SOL    HW1 2987   4.690   4.811   3.066
  696SOL    HW2 2988   4.637   4.929   2.967
  697SOL     OW 2989   1.068   3.962   3.449
  697SOL    HW1 2990   1.107   3.997   3.363
  697SOL    HW2 2991   1.128   3.988   3.525
  698SOL     OW 2992   4.717   6.407   1.157
  698SOL    HW1 2993   4.753   6.462   1.233
  698SOL    HW2 2994   4.653   6.339   1.192
  699SOL     OW 2995   2.068   4.040   6.741
  699SOL    HW1 2996   2.111   4.082   6.820
  699SOL    HW2 2997   1.977   4.006   6.766
  700SOL     OW 2998   2.500   0.805   2.010
  700SOL    HW1 2999   2.405   0.812   2.041
  700SOL    HW2 3000   2.539   0.896   2.001
  701SOL     OW 3001   6.534   3.761   6.665
  701SOL    HW1 3002   6.527   3.860   6.662
  701SOL    HW2 3003   6.526   3.723   6.573
  702SOL     OW 3004   1.581   6.386   4.907
  702SOL    HW1 3005   1.637   6.456   4.951
  702SOL    HW2 3006   1.496   6.375   4.958
  703SOL     OW 3007   3.494   3.235   6.524
  703SOL    HW1 3008   3.502   3.296   6.445
  703SOL    HW2 3009   3.479   3.290   6.606
  704SOL     OW 3010   1.467   2.640   0.161
  704SOL    HW1 3011   1.430   2.646   0.068
  704SOL    HW2 3012   1.407   2.690   0.223
  705SOL     OW 3013   5.997   5.063   3.031
  705SOL    HW1 3014   6.017   5.139   2.969
  705SOL    HW2 3015   5.920   5.088   3.090
  706SOL     OW 3016   4.492   2.290   5.259
  706SOL    HW1 3017   4.568   2.225   5.265
  706SOL    HW2 3018   4.526   2.378   5.228
  707SOL     OW 3019   4.198   4.675   3.191
  707SOL    HW1 3020   4.256   4.696   3.112
  707SOL    HW2 3021   4.255   4.665   3.272
  708SOL     OW 3022   3.435   0.572   2.386
  708SOL    HW1 3023   3.503   0.515   2.431
  708SOL    HW2 3024   3.348   0.567   2.436
  709SOL     OW 3025   0.360   5.775   0.664
  709SOL    HW1 3026   0.346   5.829   0.747
  709SOL    HW2 3027   0.440   5.810   0.615
  710SOL     OW 3028   3.564   2.626   1.404
  710SOL    HW1 3029   3.590   2.529   1.406
  710SOL    HW2 3030   3.473   2.636   1.444
  711SOL     OW 3031   0.195   3.090   5.888
  711SOL    HW1 3032   0.283   3.050   5.913
  711SOL    HW2 3033   0.124   3.020   5.892
  712SOL     OW 3034   4.062   2.043   1.136
  712SOL    HW1 3035   4.120   1.969   1.170
  712SOL    HW2 3036   4.041   2.106   1.210
  713SOL     OW 3037   3.921   2.860   6.178
  713SOL    HW1 3038   3.828   2.897   6.170
  713SOL    HW2 3039   3.917   2.769   6.218
  714SOL     OW 3040   0.520   4.589   3.320
  714SOL    HW1 3041   0.458   4.617   3.394
  714SOL    HW2 3042   0.469   4.537   3.252
  715SOL     OW 3043   4.959   6.231   6.974
  715SOL    HW1 3044   4.925   6.234   0.046
  715SOL    HW2 3045   5.022   6.154   6.964
  716SOL     OW 3046   0.336   0.932   2.248
  716SOL    HW1 3047   0.424   0.923   2.200
  716SOL    HW2 3048   0.279   0.998   2.200
  717SOL     OW 3049   6.588   4.294   3.580
  717SOL    HW1 3050   6.583   4.217   3.643
  717SOL    HW2 3051   6.608   4.378   3.630
  718SOL     OW 3052   4.339   3.342   6.155
  718SOL    HW1 3053   4.352   3.247   6.126
  718SOL    HW2 3054   4.414   3.398   6.119
  719SOL     OW 3055   6.833   0.479   2.884
  719SOL    HW1 3056   6.831   0.397   2.827
  719SOL    HW2 3057   6.922   0.487   2.929
  720SOL     OW 3058   2.256   0.283   6.094
  720SOL    HW1 3059   2.295   0.236   6.015
  720SOL    HW2 3060   2.159   0.259   6.103
  721SOL     OW 3061   2.865   1.894   2.673
  721SOL    HW1 3062   2.880   1.822   2.740
  721SOL    HW2 3063   2.874   1.856   2.581
  722SOL     OW 3064   2.693   0.479   5.249
  722SOL    HW1 3065   2.652   0.430   5.171
  722SOL    HW2 3066   2.691   0.577   5.231
  723SOL     OW 3067   1.383   4.577   3.597
  723SOL    HW1 3068   1.353   4.518   3.523
  723SOL    HW2 3069   1.481   4.565   3.613
  724SOL     OW 3070   1.014   1.682   4.316
  724SOL    HW1 3071   1.038   1.779   4.302
  724SOL    HW2 3072   0.963   1.672   4.401
  725SOL     OW 3073   1.952   5.411   2.141
  725SOL    HW1 3074   1.869   5.450   2.100
  725SOL    HW2 3075   1.958   5.440   2.237
  726SOL     OW 3076   3.599   4.306   1.461
  726SOL    HW1 3077   3.654   4.246   1.403
  726SOL    HW2 3078   3.611   4.401   1.432
  727SOL     OW 3079   6.475   4.531   5.450
  727SOL    HW1 3080   6.517   4.516   5.540
  727SOL    HW2 3081   6.545   4.555   5.384
  728SOL     OW 3082   6.362   2.912   3.389
  728SOL    HW1 3083   6.364   2.813   3.404
  728SOL    HW2 3084   6.272   2.948   3.411
  729SOL     OW 3085   0.438   1.767   1.380
  729SOL    HW1 3086   0.504   1.842   1.393
  729SOL    HW2 3087   0.366   1.774   1.449
  730SOL     OW 3088   6.546   0.092   4.454
  730SOL    HW1 3089   6.475   0.022   4.451
  730SOL    HW2 3090   6.562   0.129   4.363
  731SOL     OW 3091   4.829   5.371   6.713
  731SOL    HW1 3092   4.887   5.317   6.774
  731SOL    HW2 3093   4.868   5.371   6.621
  732SOL     OW 3094   5.121   2.657   1.358
  732SOL    HW1 3095   5.210   2.701   1.354
  732SOL    HW2 3096   5.054   2.712   1.308
  733SOL     OW 3097   5.178   0.447   4.086
  733SOL    HW1 3098   5.133   0.373   4.137
  733SOL    HW2 3099   5.187   0.527   4.144
  734SOL     OW 3100   5.916   4.632   2.940
  734SOL    HW1 3101   5.968   4.714   2.916
  734SOL    HW2 3102   5.949   4.596   3.027
  735SOL     OW 3103   3.768   1.595   0.458
  735SOL    HW1 3104   3.806   1.673   0.508
  735SOL    HW2 3105   3.697   1.627   0.394
  736SOL     OW 3106   0.296   2.102   3.671
  736SOL    HW1 3107   0.381   2.138   3.709
  736SOL    HW2 3108   0.257   2.169   3.608
  737SOL     OW 3109   5.421   1.967   5.415
  737SOL    HW1 3110   5.336   1.997   5.372
  737SOL    HW2 3111   5.460   2.043   5.469
  738SOL     OW 3112   2.327   3.863   1.346
  738SOL    HW1 3113   2.291   3.925   1.277
  738SOL    HW2 3114   2.398   3.805   1.306
  739SOL     OW 3115   5.275   0.825   4.693
  739SOL    HW1 3116   5.224   0.802   4.776
  739SOL    HW2 3117   5.224   0.892   4.640
  740SOL     OW 3118   5.931   1.288   1.526
  740SOL    HW1 3119   5.935   1.315   1.430
  740SOL    HW2 3120   6.024   1.284   1.563
  741SOL     OW 3121   2.000   0.097   3.073
  741SOL    HW1 3122   1.979   0.104   3.171
  741SOL    HW2 3123   2.093   0.128   3.056
  742SOL     OW 3124   2.255   6.677   2.150
  742SOL    HW1 3125   2.297   6.645   2.235
  742SOL    HW2 3126   2.169   6.628   2.135
  743SOL     OW 3127   0.903   5.286   3.706
  743SOL    HW1 3128   0.807   5.303   3.684
  743SOL    HW2 3129   0.959   5.309   3.626
  744SOL     OW 3130   5.766   0.573   1.076
  744SOL    HW1 3131   5.726   0.598   0.988
  744SOL    HW2 3132   5.793   0.657   1.125
  745SOL     OW 3133   1.796   5.482   5.189
  745SOL    HW1 3134   1.866   5.551   5.208
  745SOL    HW2 3135   1.712   5.527   5.158
  746SOL     OW 3136   6.236   4.231   6.135
  746SOL    HW1 3137   6.269   4.325   6.130
  746SOL    HW2 3138   6.259   4.192   6.224
  747SOL     OW 3139   3.896   6.822   4.339
  747SOL    HW1 3140   3.975   6.818   4.278
  747SOL    HW2 3141   3.864   6.729   4.358
  748SOL     OW 3142   4.089   5.052   2.540
  748SOL    HW1 3143   4.006   5.007   2.507
  748SOL    HW2 3144   4.161   5.045   2.472
  749SOL     OW 3145   5.928   3.594   3.846
  749SOL    HW1 3146   5.859   3.655   3.885
  749SOL    HW2 3147   6.015   3.607   3.893
  750SOL     OW 3148   2.502   1.251   1.351
  750SOL    HW1 3149   2.406   1.235   1.371
  750SOL    HW2 3150   2.551   1.164   1.344
  751SOL     OW 3151   4.504   1.711   6.633
  751SOL    HW1 3152   4.546   1.776   6.570
  751SOL    HW2 3153   4.550   1.715   6.721
  752SOL     OW 3154   2.727   1.793   1.137
  752SOL    HW1 3155   2.747   1.890   1.154
  752SOL    HW2 3156   2.788   1.759   1.066
  753SOL     OW 3157   1.070   3.729   6.248
  753SOL    HW1 3158   1.008   3.807   6.252
  753SOL    HW2 3159   1.164   3.761   6.234
  754SOL     OW 3160   4.791   2.125   5.865
  754SOL    HW1 3161   4.840   2.041   5.890
  754SOL    HW2 3162   4.857   2.195   5.840
  755SOL     OW 3163   1.632   4.369   4.897
  755SOL    HW1 3164   1.619   4.275   4.868
  755SOL    HW2 3165   1.688   4.418   4.830
  756SOL     OW 3166   2.703   6.293   6.784
  756SOL    HW1 3167   2.649   6.242   6.850
  756SOL    HW2 3168   2.799   6.265   6.791
  757SOL     OW 3169   0.519   6.938   4.059
  757SOL    HW1 3170   0.581   7.017   4.056
  757SOL    HW2 3171   0.500   6.915   4.155
  758SOL     OW 3172   3.821   0.704   3.248
  758SOL    HW1 3173   3.723   0.710   3.224
  758SOL    HW2 3174   3.831   0.709   3.347
  759SOL     OW 3175   0.643   2.749   2.021
  759SOL    HW1 3176   0.636   2.651   2.000
  759SOL    HW2 3177   0.551   2.787   2.031
  760SOL     OW 3178   6.394   6.767   4.134
  760SOL    HW1 3179   6.364   6.678   4.099
  760SOL    HW2 3180   6.494   6.770   4.137
  761SOL     OW 3181   5.661   3.761   6.198
  761SOL    HW1 3182   5.693   3.723   6.285
  761SOL    HW2 3183   5.562   3.772   6.200
  762SOL     OW 3184   2.639   0.307   5.023
  762SOL    HW1 3185   2.581   0.256   5.087
  762SOL    HW2 3186   2.603   0.296   4.930
  763SOL     OW 3187   3.769   5.741   6.434
  763SOL    HW1 3188   3.824   5.703   6.359
  763SOL    HW2 3189   3.680   5.770   6.399
  764SOL     OW 3190   5.564   0.858   5.634
  764SOL    HW1 3191   5.533   0.845   5.540
  764SOL    HW2 3192   5.614   0.777   5.664
  765SOL     OW 3193   1.405   5.728   1.807
  765SOL    HW1 3194   1.330   5.679   1.763
  765SOL    HW2 3195   1.435   5.803   1.748
  766SOL     OW 3196   2.516   1.957   6.048
  766SOL    HW1 3197   2.610   1.989   6.062
  766SOL    HW2 3198   2.514   1.857   6.047
  767SOL     OW 3199   6.540   5.837   3.507
  767SOL    HW1 3200   6.563   5.868   3.599
  767SOL    HW2 3201   6.510   5.914   3.451
  768SOL     OW 3202   2.317   5.003   2.778
  768SOL    HW1 3203   2.336   4.967   2.869
  768SOL    HW2 3204   2.260   5.084   2.785
  769SOL     OW 3205   2.534   0.990   5.453
  769SOL    HW1 3206   2.604   0.969   5.521
  769SOL    HW2 3207   2.484   0.906   5.430
  770SOL     OW 3208   1.747   5.309   3.402
  770SOL    HW1 3209   1.702   5.241   3.459
  770SOL    HW2 3210   1.844   5.285   3.392
  771SOL     OW 3211   1.269   5.121   2.716
  771SOL    HW1 3212   1.178   5.085   2.735
  771SOL    HW2 3213   1.315   5.143   2.803
  772SOL     OW 3214   5.699   4.808   6.072
  772SOL    HW1 3215   5.601   4.790   6.066
  772SOL    HW2 3216   5.724   4.883   6.011
  773SOL     OW 3217   0.433   4.515   3.631
  773SOL    HW1 3218   0.435   4.495   3.533
  773SOL    HW2 3219   0.470   4.437   3.682
  774SOL     OW 3220   1.748   1.018   1.415
  774SOL    HW1 3221   1.793   0.982   1.497
  774SOL    HW2 3222   1.701   0.944   1.368
  775SOL     OW 3223   2.426   2.148   4.211
  775SOL    HW1 3224   2.419   2.187   4.303
  775SOL    HW2 3225   2.520   2.156   4.178
  776SOL     OW 3226   0.066   0.344   5.380
  776SOL    HW1 3227   0.149   0.305   5.340
  776SOL    HW2 3228   7.014   0.340   5.313
  777SOL     OW 3229   1.536   4.952   1.094
  777SOL    HW1 3230   1.483   4.962   1.178
  777SOL    HW2 3231   1.621   4.904   1.114
  778SOL     OW 3232   2.308   0.397   1.646
  778SOL    HW1 3233   2.277   0.406   1.552
  778SOL    HW2 3234   2.399   0.437   1.655
  779SOL     OW 3235   6.946   2.662   2.320
  779SOL    HW1 3236   6.895   2.676   2.236
  779SOL    HW2 3237   0.018   2.637   2.298
  780SOL     OW 3238   0.878   2.726   4.441
  780SOL    HW1 3239   0.930   2.685   4.366
  780SOL    HW2 3240   0.819   2.798   4.404
  781SOL     OW 3241   6.065   6.725   0.484
  781SOL    HW1 3242   6.029   6.798   0.426
  781SOL    HW2 3243   6.064   6.638   0.434
  782SOL     OW 3244   1.120   3.376   6.015
  782SOL    HW1 3245   1.138   3.301   6.079
  782SOL    HW2 3246   1.162   3.460   6.050
  783SOL     OW 3247   5.060   4.784   2.007
  783SOL    HW1 3248   5.037   4.791   1.909
  783SOL    HW2 3249   5.154   4.753   2.017
  784SOL     OW 3250   4.240   4.815   0.584
  784SOL    HW1 3251   4.234   4.733   0.528
  784SOL    HW2 3252   4.315   4.873   0.552
  785SOL     OW 3253   0.099   2.040   3.287
  785SOL    HW1 3254   0.060   1.961   3.240
  785SOL    HW2 3255   0.052   2.123   3.258
  786SOL     OW 3256   0.545   6.977   3.056
  786SOL    HW1 3257   0.624   0.004   3.094
  786SOL    HW2 3258   0.466   6.990   3.116
  787SOL     OW 3259   1.253   0.640   0.113
  787SOL    HW1 3260   1.311   0.678   0.184
  787SOL    HW2 3261   1.308   0.618   0.033
  788SOL     OW 3262   3.611   1.186   0.763
  788SOL    HW1 3263   3.655   1.275   0.750
  788SOL    HW2 3264   3.610   1.137   0.676
  789SOL     OW 3265   4.275   4.411   1.721
  789SOL    HW1 3266   4.305   4.494   1.674
  789SOL    HW2 3267   4.352   4.371   1.770
  790SOL     OW 3268   1.564   1.705   2.786
  790SOL    HW1 3269   1.653   1.670   2.757
  790SOL    HW2 3270   1.494   1.637   2.766
  791SOL     OW 3271   1.538   6.083   4.906
  791SOL    HW1 3272   1.617   6.142   4.921
  791SOL    HW2 3273   1.469   6.131   4.852
  792SOL     OW 3274   0.855   0.717   1.693
  792SOL    HW1 3275   0.884   0.622   1.692
  792SOL    HW2 3276   0.756   0.722   1.678
  793SOL     OW 3277   5.157   5.532   4.384
  793SOL    HW1 3278   5.059   5.538   4.406
  793SOL    HW2 3279   5.210   5.524   4.469
  794SOL     OW 3280   2.832   3.951   5.957
  794SOL    HW1 3281   2.763   3.913   6.019
  794SOL    HW2 3282   2.909   3.888   5.950
  795SOL     OW 3283   4.138   0.194   4.644
  795SOL    HW1 3284   4.219   0.136   4.644
  795SOL    HW2 3285   4.162   0.286   4.613
  796SOL     OW 3286   1.221   2.221   6.588
  796SOL    HW1 3287   1.261   2.197   6.499
  796SOL    HW2 3288   1.274   2.295   6.629
  797SOL     OW 3289   5.165   0.732   0.986
  797SOL    HW1 3290   5.091   0.742   1.052
  797SOL    HW2 3291   5.170   0.814   0.928
  798SOL     OW 3292   3.547   6.436   1.875
  798SOL    HW1 3293   3.563   6.517   1.819
  798SOL    HW2 3294   3.464   6.448   1.928
  799SOL     OW 3295   0.206   6.921   6.039
  799SOL    HW1 3296   0.209   7.012   5.998
  799SOL    HW2 3297   0.203   6.930   6.139
  800SOL     OW 3298   5.729   1.195   2.252
  800SOL    HW1 3299   5.747   1.252   2.172
  800SOL    HW2 3300   5.729   1.099   2.225
  801SOL     OW 3301   2.535   4.522   4.448
  801SOL    HW1 3302   2.473   4.598   4.429
  801SOL    HW2 3303   2.521   4.450   4.381
  802SOL     OW 3304   2.871   1.760   0.919
  802SOL    HW1 3305   2.814   1.716   0.850
  802SOL    HW2 3306   2.959   1.785   0.879
  803SOL     OW 3307   1.636   0.320   5.999
  803SOL    HW1 3308   1.599   0.238   5.955
  803SOL    HW2 3309   1.560   0.375   6.035
  804SOL     OW 3310   5.979   6.624   0.723
  804SOL    HW1 3311   6.016   6.663   0.639
  804SOL    HW2 3312   5.997   6.686   0.800
  805SOL     OW 3313   2.721   1.102   4.451
  805SOL    HW1 3314   2.712   1.160   4.532
  805SOL    HW2 3315   2.642   1.115   4.392
  806SOL     OW 3316   5.297   1.083   4.917
  806SOL    HW1 3317   5.321   1.179   4.903
  806SOL    HW2 3318   5.229   1.055   4.850
  807SOL     OW 3319   0.157   0.567   5.245
  807SOL    HW1 3320   0.156   0.550   5.344
  807SOL    HW2 3321   0.122   0.487   5.197
  808SOL     OW 3322   3.801   4.165   6.680
  808SOL    HW1 3323   3.739   4.163   6.601
  808SOL    HW2 3324   3.827   4.072   6.705
  809SOL     OW 3325   0.796   5.012   0.812
  809SOL    HW1 3326   0.861   5.003   0.736
  809SOL    HW2 3327   0.784   5.109   0.835
  810SOL     OW 3328   3.612   4.068   0.529
  810SOL    HW1 3329   3.623   4.113   0.441
  810SOL    HW2 3330   3.533   4.006   0.525
  811SOL     OW 3331   5.493   6.050   5.147
  811SOL    HW1 3332   5.432   6.117   5.190
  811SOL    HW2 3333   5.579   6.046   5.198
  812SOL     OW 3334   6.971   0.709   3.012
  812SOL    HW1 3335   7.015   0.684   3.098
  812SOL    HW2 3336   0.010   0.766   2.957
  813SOL     OW 3337   3.950   6.731   3.958
  813SOL    HW1 3338   3.918   6.809   4.012
  813SOL    HW2 3339   4.035   6.696   3.998
  814SOL     OW 3340   6.396   6.111   2.822
  814SOL    HW1 3341   6.417   6.113   2.724
  814SOL    HW2 3342   6.298   6.097   2.834
  815SOL     OW 3343   6.827   3.193   3.475
  815SOL    HW1 3344   6.753   3.132   3.448
  815SOL    HW2 3345   6.859   3.244   3.396
  816SOL     OW 3346   5.762   5.581   0.760
  816SOL    HW1 3347   5.823   5.520   0.810
  816SOL    HW2 3348   5.712   5.529   0.691
  817SOL     OW 3349   1.234   5.632   1.591
  817SOL    HW1 3350   1.225   5.720   1.545
  817SOL    HW2 3351   1.249   5.560   1.523
  818SOL     OW 3352   6.111   2.536   3.608
  818SOL    HW1 3353   6.013   2.535   3.624
  818SOL    HW2 3354   6.147   2.443   3.611
  819SOL     OW 3355   5.853   3.185   1.658
  819SOL    HW1 3356   5.863   3.120   1.733
  819SOL    HW2 3357   5.790   3.149   1.590
  820SOL     OW 3358   3.083   2.111   4.762
  820SOL    HW1 3359   3.108   2.184   4.826
  820SOL    HW2 3360   3.012   2.054   4.803
  821SOL     OW 3361   6.648   4.047   6.856
  821SOL    HW1 3362   6.619   4.112   6.925
  821SOL    HW2 3363   6.580   4.043   6.783
  822SOL     OW 3364   0.499   3.408   3.212
  822SOL    HW1 3365   0.414   3.360   3.189
  822SOL    HW2 3366   0.493   3.445   3.304
  823SOL     OW 3367   6.148   4.137   5.879
  823SOL    HW1 3368   6.184   4.187   5.958
  823SOL    HW2 3369   6.071   4.080   5.909
  824SOL     OW 3370   4.077   0.693   5.801
  824SOL    HW1 3371   4.085   0.714   5.898
  824SOL    HW2 3372   4.163   0.653   5.768
  825SOL     OW 3373   6.892   5.579   1.427
  825SOL    HW1 3374   6.887   5.575   1.328
  825SOL    HW2 3375   6.869   5.671   1.458
  826SOL     OW 3376   4.010   1.952   5.849
  826SOL    HW1 3377   3.943   1.993   5.910
  826SOL    HW2 3378   4.068   2.024   5.810
  827SOL     OW 3379   2.460   4.526   5.291
  827SOL    HW1 3380   2.458   4.575   5.203
  827SOL    HW2 3381   2.384   4.461   5.295
  828SOL     OW 3382   5.037   6.403   6.267
  828SOL    HW1 3383   5.011   6.325   6.210
  828SOL    HW2 3384   5.078   6.473   6.209
  829SOL     OW 3385   4.109   3.530   2.350
  829SOL    HW1 3386   4.066   3.612   2.388
  829SOL    HW2 3387   4.194   3.511   2.399
  830SOL     OW 3388   5.202   5.117   6.734
  830SOL    HW1 3389   5.260   5.198   6.730
  830SOL    HW2 3390   5.258   5.035   6.731
  831SOL     OW 3391   5.965   6.786   0.050
  831SOL    HW1 3392   6.026   6.707   0.059
  831SOL    HW2 3393   5.990   6.838   6.991
  832SOL     OW 3394   4.176   1.288   2.960
  832SOL    HW1 3395   4.100   1.343   2.926
  832SOL    HW2 3396   4.142   1.220   3.025
  833SOL     OW 3397   1.380   3.254   6.444
  833SOL    HW1 3398   1.455   3.303   6.399
  833SOL    HW2 3399   1.412   3.163   6.471
  834SOL     OW 3400   4.704   3.892   1.032
  834SOL    HW1 3401   4.684   3.906   1.129
  834SOL    HW2 3402   4.671   3.802   1.004
  835SOL     OW 3403   3.521   0.544   5.582
  835SOL    HW1 3404   3.590   0.578   5.519
  835SOL    HW2 3405   3.551   0.457   5.621
  836SOL     OW 3406   3.863   0.139   4.592
  836SOL    HW1 3407   3.837   0.227   4.551
  836SOL    HW2 3408   3.949   0.150   4.641
  837SOL     OW 3409   6.719   0.372   1.029
  837SOL    HW1 3410   6.729   0.469   1.008
  837SOL    HW2 3411   6.773   0.318   0.965
  838SOL     OW 3412   2.341   0.317   4.567
  838SOL    HW1 3413   2.266   0.259   4.598
  838SOL    HW2 3414   2.363   0.295   4.472
  839SOL     OW 3415   2.032   1.306   1.943
  839SOL    HW1 3416   1.993   1.226   1.897
  839SOL    HW2 3417   2.094   1.275   2.015
  840SOL     OW 3418   6.280   5.911   6.814
  840SOL    HW1 3419   6.181   5.923   6.813
  840SOL    HW2 3420   6.305   5.836   6.875
  841SOL     OW 3421   3.218   5.161   6.268
  841SOL    HW1 3422   3.290   5.100   6.234
  841SOL    HW2 3423   3.232   5.253   6.231
  842SOL     OW 3424   3.643   0.276   5.362
  842SOL    HW1 3425   3.631   0.341   5.287
  842SOL    HW2 3426   3.555   0.230   5.380
  843SOL     OW 3427   0.986   1.483   1.701
  843SOL    HW1 3428   0.981   1.570   1.652
  843SOL    HW2 3429   1.081   1.464   1.726
  844SOL     OW 3430   6.319   0.010   0.147
  844SOL    HW1 3431   6.414   0.002   0.178
  844SOL    HW2 3432   6.264   0.053   0.218
  845SOL     OW 3433   4.828   3.860   3.832
  845SOL    HW1 3434   4.795   3.836   3.923
  845SOL    HW2 3435   4.927   3.855   3.829
  846SOL     OW 3436   2.153   1.120   5.956
  846SOL    HW1 3437   2.248   1.118   5.926
  846SOL    HW2 3438   2.108   1.034   5.930
  847SOL     OW 3439   1.521   3.659   1.131
  847SOL    HW1 3440   1.546   3.656   1.035
  847SOL    HW2 3441   1.533   3.751   1.167
  848SOL     OW 3442   6.917   6.770   6.002
  848SOL    HW1 3443   6.960   6.688   6.039
  848SOL    HW2 3444   6.966   6.799   5.920
  849SOL     OW 3445   6.449   4.011   6.646
  849SOL    HW1 3446   6.377   4.065   6.691
  849SOL    HW2 3447   6.432   4.008   6.548
  850SOL     OW 3448   4.955   1.242   4.784
  850SOL    HW1 3449   4.931   1.267   4.878
  850SOL    HW2 3450   4.904   1.299   4.720
  851SOL     OW 3451   0.055   2.658   1.118
  851SOL    HW1 3452   0.019   2.581   1.171
  851SOL    HW2 3453   0.068   2.630   1.023
  852SOL     OW 3454   1.049   3.951   0.879
  852SOL    HW1 3455   1.027   3.877   0.942
  852SOL    HW2 3456   1.055   3.915   0.786
  853SOL     OW 3457   0.865   4.801   1.024
  853SOL    HW1 3458   0.941   4.821   1.085
  853SOL    HW2 3459   0.819   4.887   0.999
  854SOL     OW 3460   4.887   5.477   0.478
  854SOL    HW1 3461   4.841   5.448   0.394
  854SOL    HW2 3462   4.897   5.399   0.540
  855SOL     OW 3463   6.792   0.127   1.471
  855SOL    HW1 3464   6.820   0.214   1.431
  855SOL    HW2 3465   6.700   0.104   1.440
  856SOL     OW 3466   1.182   2.055   6.962
  856SOL    HW1 3467   1.205   2.001   0.020
  856SOL    HW2 3468   1.088   2.087   6.969
  857SOL     OW 3469   6.253   4.752   1.866
  857SOL    HW1 3470   6.179   4.746   1.933
  857SOL    HW2 3471   6.339   4.721   1.907
  858SOL     OW 3472   2.863   3.884   1.279
  858SOL    HW1 3473   2.826   3.900   1.188
  858SOL    HW2 3474   2.823   3.801   1.317
  859SOL     OW 3475   5.734   0.009   5.036
  859SOL    HW1 3476   5.728   7.015   4.938
  859SOL    HW2 3477   5.645   0.035   5.072
  860SOL     OW 3478   6.520   2.725   0.533
  860SOL    HW1 3479   6.562   2.763   0.615
  860SOL    HW2 3480   6.475   2.638   0.555
  861SOL     OW 3481   2.550   5.194   4.082
  861SOL    HW1 3482   2.635   5.142   4.078
  861SOL    HW2 3483   2.500   5.171   4.165
  862SOL     OW 3484   1.273   4.300   3.477
  862SOL    HW1 3485   1.321   4.276   3.561
  862SOL    HW2 3486   1.179   4.328   3.499
  863SOL     OW 3487   6.100   0.789   6.691
  863SOL    HW1 3488   6.025   0.851   6.667
  863SOL    HW2 3489   6.080   0.698   6.655
  864SOL     OW 3490   3.848   5.566   4.214
  864SOL    HW1 3491   3.912   5.643   4.216
  864SOL    HW2 3492   3.810   5.558   4.122
  865SOL     OW 3493   1.587   6.915   6.102
  865SOL    HW1 3494   1.622   6.911   6.196
  865SOL    HW2 3495   1.541   6.829   6.080
  866SOL     OW 3496   2.118   1.159   1.134
  866SOL    HW1 3497   2.180   1.209   1.074
  866SOL    HW2 3498   2.090   1.074   1.091
  867SOL     OW 3499   5.304   3.738   0.179
  867SOL    HW1 3500   5.337   3.686   0.258
  867SOL    HW2 3501   5.365   3.816   0.163
  868SOL     OW 3502   6.117   1.354   0.739
  868SOL    HW1 3503   6.182   1.278   0.741
  868SOL    HW2 3504   6.058   1.349   0.819
  869SOL     OW 3505   0.442   4.659   2.911
  869SOL    HW1 3506   0.452   4.637   2.814
  869SOL    HW2 3507   0.497   4.740   2.932
  870SOL     OW 3508   3.749   3.586   0.178
  870SOL    HW1 3509   3.706   3.668   0.216
  870SOL    HW2 3510   3.844   3.582   0.207
  871SOL     OW 3511   4.883   2.427   2.508
  871SOL    HW1 3512   4.940   2.451   2.587
  871SOL    HW2 3513   4.851   2.333   2.518
  872SOL     OW 3514   5.656   3.303   4.003
  872SOL    HW1 3515   5.592   3.238   4.043
  872SOL    HW2 3516   5.705   3.260   3.927
  873SOL     OW 3517   5.687   6.135   5.615
  873SOL    HW1 3518   5.653   6.143   5.708
  873SOL    HW2 3519   5.646   6.206   5.558
  874SOL     OW 3520   0.268   3.790   6.239
  874SOL    HW1 3521   0.225   3.717   6.292
  874SOL    HW2 3522   0.336   3.836   6.296
  875SOL     OW 3523   5.264   4.695   0.695
  875SOL    HW1 3524   5.310   4.661   0.777
  875SOL    HW2 3525   5.171   4.659   0.691
  876SOL     OW 3526   0.858   4.790   2.433
  876SOL    HW1 3527   0.824   4.860   2.496
  876SOL    HW2 3528   0.915   4.833   2.363
  877SOL     OW 3529   3.777   4.625   5.751
  877SOL    HW1 3530   3.747   4.651   5.843
  877SOL    HW2 3531   3.756   4.528   5.736
  878SOL     OW 3532   4.041   5.897   4.736
  878SOL    HW1 3533   3.984   5.857   4.665
  878SOL    HW2 3534   4.125   5.932   4.695
  879SOL     OW 3535   4.403   1.496   1.045
  879SOL    HW1 3536   4.449   1.511   1.132
  879SOL    HW2 3537   4.323   1.556   1.039
  880SOL     OW 3538   2.998   3.849   4.741
  880SOL    HW1 3539   2.965   3.809   4.827
  880SOL    HW2 3540   2.955   3.802   4.664
  881SOL     OW 3541   5.889   3.628   5.813
  881SOL    HW1 3542   5.984   3.599   5.826
  881SOL    HW2 3543   5.863   3.614   5.717
  882SOL     OW 3544   1.277   2.533   4.303
  882SOL    HW1 3545   1.227   2.581   4.376
  882SOL    HW2 3546   1.234   2.552   4.215
  883SOL     OW 3547   3.568   0.745   0.461
  883SOL    HW1 3548   3.527   0.658   0.430
  883SOL    HW2 3549   3.648   0.764   0.405
  884SOL     OW 3550   6.807   4.656   0.207
  884SOL    HW1 3551   6.904   4.652   0.183
  884SOL    HW2 3552   6.754   4.690   0.130
  885SOL     OW 3553   4.579   6.747   5.199
  885SOL    HW1 3554   4.666   6.700   5.214
  885SOL    HW2 3555   4.523   6.694   5.136
  886SOL     OW 3556   4.176   0.650   0.848
  886SOL    HW1 3557   4.234   0.720   0.889
  886SOL    HW2 3558   4.222   0.562   0.852
  887SOL     OW 3559   3.892   5.737   3.758
  887SOL    HW1 3560   3.935   5.648   3.771
  887SOL    HW2 3561   3.795   5.732   3.783
  888SOL     OW 3562   6.886   6.310   3.509
  888SOL    HW1 3563   6.977   6.287   3.545
  888SOL    HW2 3564   6.847   6.229   3.464
  889SOL     OW 3565   6.511   1.043   6.389
  889SOL    HW1 3566   6.468   1.085   6.469
  889SOL    HW2 3567   6.596   1.091   6.368
  890SOL     OW 3568   3.155   5.117   3.128
  890SOL    HW1 3569   3.096   5.174   3.185
  890SOL    HW2 3570   3.134   5.021   3.143
  891SOL     OW 3571   6.754   3.459   0.706
  891SOL    HW1 3572   6.713   3.429   0.792
  891SOL    HW2 3573   6.750   3.558   0.700
  892SOL     OW 3574   3.647   3.021   5.164
  892SOL    HW1 3575   3.576   3.035   5.233
  892SOL    HW2 3576   3.605   2.984   5.081
  893SOL     OW 3577   2.189   6.413   2.666
  893SOL    HW1 3578   2.133   6.384   2.744
  893SOL    HW2 3579   2.213   6.510   2.676
  894SOL     OW 3580   1.286   2.763   2.806
  894SOL    HW1 3581   1.224   2.842   2.808
  894SOL    HW2 3582   1.237   2.681   2.835
  895SOL     OW 3583   1.497   5.221   4.226
  895SOL    HW1 3584   1.448   5.157   4.168
  895SOL    HW2 3585   1.474   5.315   4.201
  896SOL     OW 3586   5.989   5.141   1.379
  896SOL    HW1 3587   5.924   5.210   1.346
  896SOL    HW2 3588   5.991   5.064   1.315
  897SOL     OW 3589   3.995   0.463   6.652
  897SOL    HW1 3590   3.944   0.504   6.728
  897SOL    HW2 3591   3.972   0.511   6.567
  898SOL     OW 3592   4.073   6.438   2.412
  898SOL    HW1 3593   4.022   6.352   2.405
  898SOL    HW2 3594   4.021   6.512   2.370
  899SOL     OW 3595   0.374   6.049   0.297
  899SOL    HW1 3596   0.425   6.069   0.381
  899SOL    HW2 3597   0.410   5.966   0.255
  900SOL     OW 3598   4.713   6.552   6.610
  900SOL    HW1 3599   4.754   6.490   6.677
  900SOL    HW2 3600   4.725   6.514   6.518
  901SOL     OW 3601   0.985   0.836   4.180
  901SOL    HW1 3602   0.937   0.919   4.209
  901SOL    HW2 3603   1.084   0.850   4.185
  902SOL     OW 3604   1.243   3.083   1.185
  902SOL    HW1 3605   1.249   2.983   1.178
  902SOL    HW2 3606   1.191   3.108   1.267
  903SOL     OW 3607   0.443   3.602   0.199
  903SOL    HW1 3608   0.543   3.606   0.197
  903SOL    HW2 3609   0.407   3.608   0.106
  904SOL     OW 3610   2.203   3.053   2.658
  904SOL    HW1 3611   2.251   2.965   2.648
  904SOL    HW2 3612   2.132   3.061   2.588
  905SOL     OW 3613   4.881   4.309   6.368
  905SOL    HW1 3614   4.837   4.285   6.282
  905SOL    HW2 3615   4.953   4.376   6.350
  906SOL     OW 3616   0.657   2.261   6.568
  906SOL    HW1 3617   0.645   2.253   6.667
  906SOL    HW2 3618   0.568   2.254   6.523
  907SOL     OW 3619   4.884   2.313   1.195
  907SOL    HW1 3620   4.892   2.216   1.169
  907SOL    HW2 3621   4.789   2.334   1.216
  908SOL     OW 3622   2.512   4.637   3.177
  908SOL    HW1 3623   2.461   4.654   3.262
  908SOL    HW2 3624   2.590   4.698   3.172
  909SOL     OW 3625   4.134   6.006   1.843
  909SOL    HW1 3626   4.214   6.062   1.864
  909SOL    HW2 3627   4.054   6.044   1.889
  910SOL     OW 3628   3.219   1.298   1.175
  910SOL    HW1 3629   3.302   1.305   1.121
  910SOL    HW2 3630   3.172   1.386   1.177
  911SOL     OW 3631   0.905   5.929   6.618
  911SOL    HW1 3632   0.954   5.929   6.706
  911SOL    HW2 3633   0.918   6.017   6.572
  912SOL     OW 3634   5.138   0.930   3.408
  912SOL    HW1 3635   5.142   0.838   3.446
  912SOL    HW2 3636   5.192   0.992   3.464
  913SOL     OW 3637   2.517   0.886   3.858
  913SOL    HW1 3638   2.439   0.825   3.873
  913SOL    HW2 3639   2.601   0.837   3.879
  914SOL     OW 3640   2.754   6.538   5.113
  914SOL    HW1 3641   2.722   6.474   5.183
  914SOL    HW2 3642   2.694   6.535   5.034
  915SOL     OW 3643   6.727   3.074   0.901
  915SOL    HW1 3644   6.767   3.159   0.866
  915SOL    HW2 3645   6.667   3.096   0.978
  916SOL     OW 3646   2.144   3.349   2.717
  916SOL    HW1 3647   2.195   3.263   2.711
  916SOL    HW2 3648   2.055   3.338   2.672
  917SOL     OW 3649   6.962   6.649   1.787
  917SOL    HW1 3650   7.012   6.608   1.711
  917SOL    HW2 3651   6.980   6.747   1.789
  918SOL     OW 3652   3.299   0.667   1.550
  918SOL    HW1 3653   3.399   0.665   1.549
  918SOL    HW2 3654   3.266   0.653   1.643
  919SOL     OW 3655   6.715   6.977   3.341
  919SOL    HW1 3656   6.734   6.880   3.353
  919SOL    HW2 3657   6.794   0.008   3.370
  920SOL     OW 3658   2.550   4.603   2.715
  920SOL    HW1 3659   2.546   4.666   2.637
  920SOL    HW2 3660   2.621   4.633   2.778
  921SOL     OW 3661   3.816   5.476   3.472
  921SOL    HW1 3662   3.833   5.402   3.407
  921SOL    HW2 3663   3.904   5.510   3.506
  922SOL     OW 3664   2.969   3.572   4.648
  922SOL    HW1 3665   3.041   3.616   4.701
  922SOL    HW2 3666   2.967   3.611   4.556
  923SOL     OW 3667   2.465   4.089   6.026
  923SOL    HW1 3668   2.485   4.017   6.093
  923SOL    HW2 3669   2.490   4.058   5.935
  924SOL     OW 3670   6.569   3.369   2.794
  924SOL    HW1 3671   6.494   3.417   2.748
  924SOL    HW2 3672   6.532   3.297   2.853
  925SOL     OW 3673   6.908   2.432   7.013
  925SOL    HW1 3674   6.943   2.339   7.019
  925SOL    HW2 3675   6.821   2.439   0.040
  926SOL     OW 3676   6.255   0.917   0.940
  926SOL    HW1 3677   6.181   0.875   0.993
  926SOL    HW2 3678   6.257   0.875   0.849
  927SOL     OW 3679   5.694   4.015   3.145
  927SOL    HW1 3680   5.687   4.109   3.178
  927SOL    HW2 3681   5.779   4.004   3.094
  928SOL     OW 3682   1.376   6.372   0.122
  928SOL    HW1 3683   1.300   6.313   0.150
  928SOL    HW2 3684   1.462   6.322   0.131
  929SOL     OW 3685   0.803   0.065   0.016
  929SOL    HW1 3686   0.843   7.009   6.993
  929SOL    HW2 3687   0.712   0.082   7.002
  930SOL     OW 3688   5.086   6.198   4.763
  930SOL    HW1 3689   5.117   6.157   4.848
  930SOL    HW2 3690   5.145   6.167   4.688
  931SOL     OW 3691   6.023   1.482   4.869
  931SOL    HW1 3692   6.122   1.485   4.883
  931SOL    HW2 3693   6.000   1.408   4.806
  932SOL     OW 3694   3.121   0.276   3.796
  932SOL    HW1 3695   3.052   0.274   3.868
  932SOL    HW2 3696   3.210   0.299   3.836
  933SOL     OW 3697   1.911   5.960   3.582
  933SOL    HW1 3698   1.923   5.884   3.518
  933SOL    HW2 3699   1.896   5.923   3.675
  934SOL     OW 3700   1.784   6.728   6.859
  934SOL    HW1 3701   1.881   6.743   6.879
  934SOL    HW2 3702   1.730   6.804   6.896
  935SOL     OW 3703   5.034   4.318   4.055
  935SOL    HW1 3704   4.975   4.251   4.100
  935SOL    HW2 3705   5.007   4.410   4.083
  936SOL     OW 3706   0.351   0.706   6.383
  936SOL    HW1 3707   0.274   0.750   6.429
  936SOL    HW2 3708   0.343   0.607   6.392
  937SOL     OW 3709   5.141   1.620   5.618
  937SOL    HW1 3710   5.094   1.708   5.614
  937SOL    HW2 3711   5.159   1.596   5.713
  938SOL     OW 3712   6.086   5.179   6.066
  938SOL    HW1 3713   6.057   5.115   6.138
  938SOL    HW2 3714   6.014   5.189   5.998
  939SOL     OW 3715   6.875   6.827   4.719
  939SOL    HW1 3716   6.827   6.909   4.689
  939SOL    HW2 3717   6.963   6.822   4.672
  940SOL     OW 3718   1.457   3.591   1.518
  940SOL    HW1 3719   1.464   3.567   1.421
  940SOL    HW2 3720   1.505   3.677   1.534
  941SOL     OW 3721   5.673   1.268   6.255
  941SOL    HW1 3722   5.651   1.278   6.352
  941SOL    HW2 3723   5.772   1.272   6.243
  942SOL     OW 3724   5.628   0.456   3.008
  942SOL    HW1 3725   5.619   0.427   3.103
  942SOL    HW2 3726   5.713   0.422   2.970
  943SOL     OW 3727   1.866   3.401   3.632
  943SOL    HW1 3728   1.823   3.451   3.707
  943SOL    HW2 3729   1.940   3.456   3.594
  944SOL     OW 3730   0.183   4.785   6.215
  944SOL    HW1 3731   0.140   4.875   6.209
  944SOL    HW2 3732   0.156   4.729   6.137
  945SOL     OW 3733   6.603   3.346   6.150
  945SOL    HW1 3734   6.567   3.299   6.069
  945SOL    HW2 3735   6.674   3.410   6.123
  946SOL     OW 3736   5.113   3.891   5.718
  946SOL    HW1 3737   5.081   3.910   5.625
  946SOL    HW2 3738   5.079   3.802   5.747
  947SOL     OW 3739   3.916   3.002   3.412
  947SOL    HW1 3740   3.937   3.034   3.504
  947SOL    HW2 3741   3.939   3.074   3.346
  948SOL     OW 3742   4.775   0.668   2.839
  948SOL    HW1 3743   4.696   0.628   2.886
  948SOL    HW2 3744   4.838   0.595   2.813
  949SOL     OW 3745   1.733   5.644   0.474
  949SOL    HW1 3746   1.738   5.580   0.551
  949SOL    HW2 3747   1.659   5.709   0.490
  950SOL     OW 3748   5.003   5.788   2.251
  950SOL    HW1 3749   5.061   5.749   2.180
  950SOL    HW2 3750   4.953   5.866   2.215
  951SOL     OW 3751   1.520   0.514   4.270
  951SOL    HW1 3752   1.425   0.541   4.285
  951SOL    HW2 3753   1.579   0.556   4.339
  952SOL     OW 3754   4.540   2.197   3.056
  952SOL    HW1 3755   4.551   2.210   3.155
  952SOL    HW2 3756   4.472   2.261   3.021
  953SOL     OW 3757   5.535   5.237   4.380
  953SOL    HW1 3758   5.462   5.194   4.433
  953SOL    HW2 3759   5.576   5.170   4.318
  954SOL     OW 3760   3.996   5.632   1.382
  954SOL    HW1 3761   3.967   5.644   1.477
  954SOL    HW2 3762   3.933   5.680   1.321
  955SOL     OW 3763   0.093   3.931   1.934
  955SOL    HW1 3764   0.185   3.897   1.914
  955SOL    HW2 3765   0.051   3.963   1.849
  956SOL     OW 3766   6.399   0.179   2.109
  956SOL    HW1 3767   6.423   0.256   2.051
  956SOL    HW2 3768   6.426   0.199   2.203
  957SOL     OW 3769   5.817   3.164   3.842
  957SOL    HW1 3770   5.846   3.072   3.868
  957SOL    HW2 3771   5.793   3.166   3.745
  958SOL     OW 3772   4.055   1.395   1.862
  958SOL    HW1 3773   4.052   1.297   1.844
  958SOL    HW2 3774   4.150   1.423   1.878
  959SOL     OW 3775   3.807   6.055   4.003
  959SOL    HW1 3776   3.762   6.013   3.924
  959SOL    HW2 3777   3.885   6.109   3.972
  960SOL     OW 3778   0.551   6.509   2.523
  960SOL    HW1 3779   0.484   6.571   2.562
  960SOL    HW2 3780   0.512   6.417   2.518
  961SOL     OW 3781   4.192   6.152   3.417
  961SOL    HW1 3782   4.223   6.112   3.503
  961SOL    HW2 3783   4.104   6.114   3.391
  962SOL     OW 3784   0.407   1.359   5.522
  962SOL    HW1 3785   0.337   1.318   5.464
  962SOL    HW2 3786   0.394   1.329   5.617
  963SOL     OW 3787   5.175   1.323   6.635
  963SOL    HW1 3788   5.091   1.319   6.688
  963SOL    HW2 3789   5.153   1.342   6.539
  964SOL     OW 3790   5.527   4.989   0.235
  964SOL    HW1 3791   5.618   5.005   0.272
  964SOL    HW2 3792   5.476   4.929   0.296
  965SOL     OW 3793   5.484   2.219   1.825
  965SOL    HW1 3794   5.478   2.215   1.925
  965SOL    HW2 3795   5.395   2.195   1.785
  966SOL     OW 3796   5.818   3.322   2.014
  966SOL    HW1 3797   5.757   3.330   2.093
  966SOL    HW2 3798   5.905   3.368   2.034
  967SOL     OW 3799   2.614   4.191   1.397
  967SOL    HW1 3800   2.551   4.245   1.341
  967SOL    HW2 3801   2.563   4.128   1.455
  968SOL     OW 3802   3.835   0.211   2.152
  968SOL    HW1 3803   3.897   0.139   2.184
  968SOL    HW2 3804   3.753   0.212   2.210
  969SOL     OW 3805   2.168   5.128   5.621
  969SOL    HW1 3806   2.120   5.209   5.588
  969SOL    HW2 3807   2.189   5.068   5.544
  970SOL     OW 3808   5.857   0.899   6.565
  970SOL    HW1 3809   5.794   0.963   6.609
  970SOL    HW2 3810   5.806   0.822   6.528
  971SOL     OW 3811   0.266   2.733   2.500
  971SOL    HW1 3812   0.355   2.758   2.540
  971SOL    HW2 3813   0.222   2.815   2.465
  972SOL     OW 3814   5.729   2.397   1.426
  972SOL    HW1 3815   5.827   2.389   1.410
  972SOL    HW2 3816   5.708   2.375   1.521
  973SOL     OW 3817   0.511   4.961   6.484
  973SOL    HW1 3818   0.460   4.917   6.411
  973SOL    HW2 3819   0.462   5.042   6.516
  974SOL     OW 3820   5.172   6.741   2.817
  974SOL    HW1 3821   5.229   6.822   2.805
  974SOL    HW2 3822   5.227   6.659   2.803
  975SOL     OW 3823   1.918   0.866   6.469
  975SOL    HW1 3824   1.921   0.917   6.384
  975SOL    HW2 3825   1.942   0.771   6.452
  976SOL     OW 3826   6.926   3.674   2.388
  976SOL    HW1 3827   0.004   3.674   2.385
  976SOL    HW2 3828   6.892   3.751   2.333
  977SOL     OW 3829   0.796   7.004   1.820
  977SOL    HW1 3830   0.891   6.972   1.813
  977SOL    HW2 3831   0.743   6.941   1.876
  978SOL     OW 3832   5.641   3.079   5.552
  978SOL    HW1 3833   5.612   3.001   5.607
  978SOL    HW2 3834   5.622   3.060   5.455
  979SOL     OW 3835   0.096   2.550   0.128
  979SOL    HW1 3836   0.019   2.520   0.072
  979SOL    HW2 3837   0.178   2.557   0.071
  980SOL     OW 3838   4.672   1.943   3.660
  980SOL    HW1 3839   4.653   1.998   3.579
  980SOL    HW2 3840   4.748   1.881   3.642
  981SOL     OW 3841   0.376   1.776   5.057
  981SOL    HW1 3842   0.337   1.710   4.993
  981SOL    HW2 3843   0.428   1.845   5.008
  982SOL     OW 3844   1.560   1.893   4.916
  982SOL    HW1 3845   1.533   1.987   4.935
  982SOL    HW2 3846   1.493   1.851   4.855
  983SOL     OW 3847   5.919   2.820   3.587
  983SOL    HW1 3848   5.842   2.842   3.527
  983SOL    HW2 3849   6.004   2.847   3.542
  984SOL     OW 3850   2.773   2.284   4.467
  984SOL    HW1 3851   2.738   2.355   4.529
  984SOL    HW2 3852   2.708   2.208   4.463
  985SOL     OW 3853   6.162   3.004   5.425
  985SOL    HW1 3854   6.097   2.937   5.390
  985SOL    HW2 3855   6.220   2.961   5.495
  986SOL     OW 3856   4.529   4.886   1.368
  986SOL    HW1 3857   4.458   4.818   1.386
  986SOL    HW2 3858   4.489   4.968   1.328
  987SOL     OW 3859   4.763   6.585   2.799
  987SOL    HW1 3860   4.689   6.646   2.773
  987SOL    HW2 3861   4.804   6.617   2.885
  988SOL     OW 3862   3.682   4.113   2.230
  988SOL    HW1 3863   3.746   4.091   2.303
  988SOL    HW2 3864   3.591   4.130   2.269
  989SOL     OW 3865   6.592   2.100   6.497
  989SOL    HW1 3866   6.541   2.145   6.424
  989SOL    HW2 3867   6.690   2.116   6.485
  990SOL     OW 3868   4.058   1.492   2.419
  990SOL    HW1 3869   4.060   1.396   2.446
  990SOL    HW2 3870   4.127   1.543   2.470
  991SOL     OW 3871   1.026   3.888   4.512
  991SOL    HW1 3872   1.060   3.825   4.443
  991SOL    HW2 3873   0.930   3.868   4.532
  992SOL     OW 3874   0.245   3.243   1.275
  992SOL    HW1 3875   0.310   3.240   1.350
  992SOL    HW2 3876   0.254   3.330   1.227
  993SOL     OW 3877   6.730   4.696   0.486
  993SOL    HW1 3878   6.761   4.613   0.532
  993SOL    HW2 3879   6.753   4.691   0.389
  994SOL     OW 3880   3.997   5.050   1.875
  994SOL    HW1 3881   4.015   5.092   1.786
  994SOL    HW2 3882   3.965   4.956   1.861
  995SOL     OW 3883   4.198   2.796   5.916
  995SOL    HW1 3884   4.239   2.853   5.987
  995SOL    HW2 3885   4.211   2.699   5.940
  996SOL     OW 3886   3.111   5.271   4.801
  996SOL    HW1 3887   3.124   5.237   4.894
  996SOL    HW2 3888   3.126   5.196   4.736
  997SOL     OW 3889   1.087   0.198   3.428
  997SOL    HW1 3890   1.107   0.141   3.507
  997SOL    HW2 3891   0.993   0.180   3.397
  998SOL     OW 3892   5.520   0.796   5.372
  998SOL    HW1 3893   5.459   0.863   5.329
  998SOL    HW2 3894   5.497   0.705   5.339
  999SOL     OW 3895   5.233   4.292   2.574
  999SOL    HW1 3896   5.231   4.252   2.482
  999SOL    HW2 3897   5.293   4.372   2.574
 1000SOL     OW 3898   3.634   1.565   1.409
 1000SOL    HW1 3899   3.622   1.561   1.310
 1000SOL    HW2 3900   3.704   1.634   1.431
 1001SOL     OW 3901   5.127   5.952   1.180
 1001SOL    HW1 3902   5.028   5.958   1.189
 1001SOL    HW2 3903   5.170   6.016   1.244
 1002SOL     OW 3904   5.712   1.777   1.198
 1002SOL    HW1 3905   5.634   1.838   1.212
 1002SOL    HW2 3906   5.742   1.740   1.286
 1003SOL     OW 3907   2.221   6.679   2.715
 1003SOL    HW1 3908   2.257   6.758   2.665
 1003SOL    HW2 3909   2.127   6.697   2.743
 1004SOL     OW 3910   0.528   0.921   2.048
 1004SOL    HW1 3911   0.517   0.996   1.982
 1004SOL    HW2 3912   0.531   0.834   2.000
 1005SOL     OW 3913   2.166   2.178   4.037
 1005SOL    HW1 3914   2.249   2.206   4.086
 1005SOL    HW2 3915   2.130   2.095   4.080
 1006SOL     OW 3916   1.273   4.666   0.214
 1006SOL    HW1 3917   1.328   4.735   0.168
 1006SOL    HW2 3918   1.332   4.607   0.269
 1007SOL     OW 3919   4.686   0.668   5.150
 1007SOL    HW1 3920   4.680   0.588   5.090
 1007SOL    HW2 3921   4.597   0.712   5.156
 1008SOL     OW 3922   0.703   2.920   6.035
 1008SOL    HW1 3923   0.713   2.829   6.074
 1008SOL    HW2 3924   0.609   2.932   6.002
 1009SOL     OW 3925   0.528   4.973   5.140
 1009SOL    HW1 3926   0.551   4.878   5.120
 1009SOL    HW2 3927   0.604   5.016   5.189
 1010SOL     OW 3928   2.713   1.690   0.031
 1010SOL    HW1 3929   2.812   1.696   0.021
 1010SOL    HW2 3930   2.686   1.732   0.118
 1011SOL     OW 3931   1.621   5.427   2.899
 1011SOL    HW1 3932   1.610   5.469   2.809
 1011SOL    HW2 3933   1.704   5.462   2.943
 1012SOL     OW 3934   0.014   6.952   3.151
 1012SOL    HW1 3935   6.985   6.866   3.145
 1012SOL    HW2 3936   7.006   7.014   3.079
 1013SOL     OW 3937   0.831   1.957   6.787
 1013SOL    HW1 3938   0.895   2.017   6.741
 1013SOL    HW2 3939   0.762   2.012   6.835
 1014SOL     OW 3940   6.840   4.576   5.865
 1014SOL    HW1 3941   6.884   4.665   5.874
 1014SOL    HW2 3942   6.904   4.511   5.823
 1015SOL     OW 3943   2.963   0.035   6.332
 1015SOL    HW1 3944   2.887   0.048   6.395
 1015SOL    HW2 3945   2.931   0.040   6.237
 1016SOL     OW 3946   4.215   3.915   7.004
 1016SOL    HW1 3947   4.245   3.985   0.046
 1016SOL    HW2 3948   4.116   3.905   7.009
 1017SOL     OW 3949   4.571   2.865   1.228
 1017SOL    HW1 3950   4.528   2.953   1.248
 1017SOL    HW2 3951   4.583   2.856   1.129
 1018SOL     OW 3952   0.826   4.776   4.507
 1018SOL    HW1 3953   0.828   4.676   4.515
 1018SOL    HW2 3954   0.896   4.816   4.567
 1019SOL     OW 3955   6.840   6.464   0.914
 1019SOL    HW1 3956   6.801   6.524   0.845
 1019SOL    HW2 3957   6.850   6.513   1.000
 1020SOL     OW 3958   6.418   0.887   1.150
 1020SOL    HW1 3959   6.501   0.832   1.135
 1020SOL    HW2 3960   6.371   0.900   1.062
 1021SOL     OW 3961   5.696   6.677   1.396
 1021SOL    HW1 3962   5.703   6.751   1.464
 1021SOL    HW2 3963   5.710   6.714   1.305
 1022SOL     OW 3964   2.726   4.571   5.370
 1022SOL    HW1 3965   2.635   4.560   5.330
 1022SOL    HW2 3966   2.795   4.568   5.298
 1023SOL     OW 3967   6.969   0.947   2.662
 1023SOL    HW1 3968   6.923   1.001   2.591
 1023SOL    HW2 3969   0.039   0.981   2.675
 1024SOL     OW 3970   0.663   2.940   4.376
 1024SOL    HW1 3971   0.640   2.995   4.456
 1024SOL    HW2 3972   0.627   2.983   4.294
 1025SOL     OW 3973   3.688   3.757   1.518
 1025SOL    HW1 3974   3.632   3.696   1.462
 1025SOL    HW2 3975   3.783   3.723   1.518
 1026SOL     OW 3976   2.440   2.524   1.713
 1026SOL    HW1 3977   2.534   2.490   1.716
 1026SOL    HW2 3978   2.440   2.622   1.692
 1027SOL     OW 3979   3.356   6.898   2.126
 1027SOL    HW1 3980   3.292   6.939   2.191
 1027SOL    HW2 3981   3.400   6.819   2.168
 1028SOL     OW 3982   1.648   0.109   2.585
 1028SOL    HW1 3983   1.619   0.091   2.491
 1028SOL    HW2 3984   1.735   0.063   2.602
 1029SOL     OW 3985   1.351   1.122   6.395
 1029SOL    HW1 3986   1.362   1.062   6.475
 1029SOL    HW2 3987   1.439   1.160   6.370
 1030SOL     OW 3988   3.443   3.398   1.956
 1030SOL    HW1 3989   3.463   3.321   2.018
 1030SOL    HW2 3990   3.493   3.479   1.987
 1031SOL     OW 3991   4.577   4.153   1.379
 1031SOL    HW1 3992   4.580   4.054   1.367
 1031SOL    HW2 3993   4.586   4.176   1.476
 1032SOL     OW 3994   1.322   1.675   5.740
 1032SOL    HW1 3995   1.369   1.753   5.781
 1032SOL    HW2 3996   1.302   1.607   5.809
 1033SOL     OW 3997   1.157   5.831   1.408
 1033SOL    HW1 3998   1.124   5.796   1.320
 1033SOL    HW2 3999   1.159   5.931   1.406
 1034SOL     OW 4000   0.933   5.177   4.300
 1034SOL    HW1 4001   1.020   5.131   4.319
 1034SOL    HW2 4002   0.951   5.273   4.278
 1035SOL     OW 4003   0.169   1.023   4.954
 1035SOL    HW1 4004   0.226   0.957   4.906
 1035SOL    HW2 4005   0.226   1.094   4.995
 1036SOL     OW 4006   3.715   0.549   2.153
 1036SOL    HW1 4007   3.669   0.463   2.173
 1036SOL    HW2 4008   3.812   0.532   2.138
 1037SOL     OW 4009   1.161   1.287   2.691
 1037SOL    HW1 4010   1.071   1.324   2.668
 1037SOL    HW2 4011   1.230   1.358   2.678
 1038SOL     OW 4012   2.195   1.050   5.671
 1038SOL    HW1 4013   2.195   1.143   5.708
 1038SOL    HW2 4014   2.284   1.007   5.689
 1039SOL     OW 4015   3.594   3.515   4.695
 1039SOL    HW1 4016   3.583   3.587   4.626
 1039SOL    HW2 4017   3.623   3.430   4.650
 1040SOL     OW 4018   5.106   1.550   2.246
 1040SOL    HW1 4019   5.043   1.560   2.322
 1040SOL    HW2 4020   5.104   1.456   2.213
 1041SOL     OW 4021   0.274   6.677   3.757
 1041SOL    HW1 4022   0.242   6.736   3.831
 1041SOL    HW2 4023   0.225   6.590   3.761
 1042SOL     OW 4024   4.196   5.323   2.443
 1042SOL    HW1 4025   4.237   5.259   2.378
 1042SOL    HW2 4026   4.228   5.302   2.535
 1043SOL     OW 4027   3.473   2.130   3.593
 1043SOL    HW1 4028   3.434   2.206   3.542
 1043SOL    HW2 4029   3.541   2.084   3.537
 1044SOL     OW 4030   5.895   4.772   2.238
 1044SOL    HW1 4031   5.933   4.779   2.330
 1044SOL    HW2 4032   5.928   4.689   2.195
 1045SOL     OW 4033   3.829   0.241   2.523
 1045SOL    HW1 4034   3.898   0.283   2.582
 1045SOL    HW2 4035   3.863   0.154   2.488
 1046SOL     OW 4036   1.579   1.319   0.586
 1046SOL    HW1 4037   1.499   1.380   0.586
 1046SOL    HW2 4038   1.567   1.250   0.515
 1047SOL     OW 4039   1.979   0.325   4.300
 1047SOL    HW1 4040   2.038   0.406   4.301
 1047SOL    HW2 4041   1.895   0.344   4.251
 1048SOL     OW 4042   4.269   6.132   3.121
 1048SOL    HW1 4043   4.280   6.203   3.051
 1048SOL    HW2 4044   4.277   6.173   3.212
 1049SOL     OW 4045   6.591   6.476   4.003
 1049SOL    HW1 4046   6.496   6.459   4.029
 1049SOL    HW2 4047   6.597   6.494   3.905
 1050SOL     OW 4048   3.332   5.213   1.886
 1050SOL    HW1 4049   3.388   5.139   1.850
 1050SOL    HW2 4050   3.249   5.175   1.928
 1051SOL     OW 4051   0.630   5.350   0.510
 1051SOL    HW1 4052   0.557   5.401   0.556
 1051SOL    HW2 4053   0.706   5.411   0.491
 1052SOL     OW 4054   4.430   0.767   5.172
 1052SOL    HW1 4055   4.376   0.684   5.182
 1052SOL    HW2 4056   4.425   0.819   5.258
 1053SOL     OW 4057   5.797   4.616   3.344
 1053SOL    HW1 4058   5.808   4.715   3.340
 1053SOL    HW2 4059   5.867   4.572   3.287
 1054SOL     OW 4060   3.261   3.586   0.527
 1054SOL    HW1 4061   3.172   3.576   0.571
 1054SOL    HW2 4062   3.317   3.506   0.546
 1055SOL     OW 4063   4.355   6.535   5.054
 1055SOL    HW1 4064   4.431   6.537   4.989
 1055SOL    HW2 4065   4.290   6.606   5.030
 1056SOL     OW 4066   2.223   3.767   0.156
 1056SOL    HW1 4067   2.282   3.713   0.217
 1056SOL    HW2 4068   2.210   3.858   0.195
 1057SOL     OW 4069   3.529   3.437   1.697
 1057SOL    HW1 4070   3.491   3.405   1.784
 1057SOL    HW2 4071   3.488   3.525   1.673
 1058SOL     OW 4072   5.103   2.303   3.496
 1058SOL    HW1 4073   5.062   2.216   3.470
 1058SOL    HW2 4074   5.195   2.310   3.456
 1059SOL     OW 4075   2.811   0.825   1.887
 1059SOL    HW1 4076   2.723   0.824   1.838
 1059SOL    HW2 4077   2.803   0.883   1.968
 1060SOL     OW 4078   0.153   5.016   4.488
 1060SOL    HW1 4079   0.149   5.113   4.513
 1060SOL    HW2 4080   0.069   4.991   4.441
 1061SOL     OW 4081   6.598   3.058   0.202
 1061SOL    HW1 4082   6.530   3.017   0.263
 1061SOL    HW2 4083   6.680   3.001   0.200
 1062SOL     OW 4084   5.485   5.274   5.747
 1062SOL    HW1 4085   5.391   5.307   5.733
 1062SOL    HW2 4086   5.523   5.247   5.659
 1063SOL     OW 4087   0.733   5.651   0.801
 1063SOL    HW1 4088   0.718   5.719   0.872
 1063SOL    HW2 4089   0.787   5.691   0.727
 1064SOL     OW 4090   1.670   4.583   3.092
 1064SOL    HW1 4091   1.695   4.584   2.995
 1064SOL    HW2 4092   1.620   4.499   3.112
 1065SOL     OW 4093   4.677   0.596   3.833
 1065SOL    HW1 4094   4.587   0.623   3.799
 1065SOL    HW2 4095   4.747   0.655   3.792
 1066SOL     OW 4096   4.966   6.546   2.616
 1066SOL    HW1 4097   4.888   6.551   2.679
 1066SOL    HW2 4098   4.970   6.630   2.561
 1067SOL     OW 4099   0.718   2.828   0.791
 1067SOL    HW1 4100   0.817   2.820   0.792
 1067SOL    HW2 4101   0.684   2.841   0.885
 1068SOL     OW 4102   6.122   5.001   2.217
 1068SOL    HW1 4103   6.160   4.909   2.227
 1068SOL    HW2 4104   6.039   4.995   2.162
 1069SOL     OW 4105   4.540   5.773   0.866
 1069SOL    HW1 4106   4.512   5.716   0.789
 1069SOL    HW2 4107   4.530   5.869   0.841
 1070SOL     OW 4108   0.514   0.340   1.591
 1070SOL    HW1 4109   0.585   0.347   1.661
 1070SOL    HW2 4110   0.445   0.274   1.621
 1071SOL     OW 4111   1.261   0.947   4.096
 1071SOL    HW1 4112   1.247   0.933   4.194
 1071SOL    HW2 4113   1.219   1.033   4.068
 1072SOL     OW 4114   1.727   0.611   1.086
 1072SOL    HW1 4115   1.737   0.538   1.154
 1072SOL    HW2 4116   1.695   0.694   1.131
 1073SOL     OW 4117   5.014   0.319   3.147
 1073SOL    HW1 4118   5.112   0.336   3.155
 1073SOL    HW2 4119   4.996   0.221   3.148
 1074SOL     OW 4120   2.508   5.530   1.744
 1074SOL    HW1 4121   2.483   5.565   1.654
 1074SOL    HW2 4122   2.538   5.435   1.737
 1075SOL     OW 4123   5.500   6.973   3.548
 1075SOL    HW1 4124   5.521   6.993   3.643
 1075SOL    HW2 4125   5.558   6.898   3.515
 1076SOL     OW 4126   0.675   2.551   5.536
 1076SOL    HW1 4127   0.620   2.480   5.580
 1076SOL    HW2 4128   0.744   2.508   5.478
 1077SOL     OW 4129   6.029   0.193   0.591
 1077SOL    HW1 4130   6.098   0.192   0.663
 1077SOL    HW2 4131   5.940   0.170   0.629
 1078SOL     OW 4132   0.343   0.430   2.343
 1078SOL    HW1 4133   0.433   0.413   2.303
 1078SOL    HW2 4134   0.292   0.494   2.286
 1079SOL     OW 4135   1.267   6.300   2.176
 1079SOL    HW1 4136   1.290   6.237   2.102
 1079SOL    HW2 4137   1.180   6.345   2.155
 1080SOL     OW 4138   2.208   5.521   3.288
 1080SOL    HW1 4139   2.176   5.473   3.370
 1080SOL    HW2 4140   2.141   5.510   3.215
 1081SOL     OW 4141   6.638   4.885   5.590
 1081SOL    HW1 4142   6.683   4.903   5.677
 1081SOL    HW2 4143   6.540   4.895   5.601
 1082SOL     OW 4144   5.486   2.440   5.205
 1082SOL    HW1 4145   5.508   2.525   5.253
 1082SOL    HW2 4146   5.525   2.363   5.255
 1083SOL     OW 4147   4.614   4.245   0.453
 1083SOL    HW1 4148   4.524   4.283   0.430
 1083SOL    HW2 4149   4.685   4.298   0.406
 1084SOL     OW 4150   5.998   5.903   6.467
 1084SOL    HW1 4151   5.980   5.831   6.400
 1084SOL    HW2 4152   6.068   5.871   6.532
 1085SOL     OW 4153   1.857   3.528   4.722
 1085SOL    HW1 4154   1.947   3.499   4.753
 1085SOL    HW2 4155   1.831   3.475   4.641
 1086SOL     OW 4156   7.017   4.876   0.547
 1086SOL    HW1 4157   6.971   4.824   0.620
 1086SOL    HW2 4158   0.077   4.827   0.519
 1087SOL     OW 4159   6.684   2.367   5.410
 1087SOL    HW1 4160   6.697   2.431   5.334
 1087SOL    HW2 4161   6.607   2.306   5.389
 1088SOL     OW 4162   0.300   3.616   2.469
 1088SOL    HW1 4163   0.245   3.696   2.448
 1088SOL    HW2 4164   0.302   3.602   2.568
 1089SOL     OW 4165   0.493   5.918   4.642
 1089SOL    HW1 4166   0.502   6.012   4.676
 1089SOL    HW2 4167   0.488   5.855   4.719
 1090SOL     OW 4168   2.860   2.057   3.270
 1090SOL    HW1 4169   2.936   2.008   3.228
 1090SOL    HW2 4170   2.886   2.086   3.362
 1091SOL     OW 4171   2.914   1.866   4.615
 1091SOL    HW1 4172   2.865   1.821   4.541
 1091SOL    HW2 4173   2.996   1.910   4.579
 1092SOL     OW 4174   0.579   4.472   0.845
 1092SOL    HW1 4175   0.628   4.503   0.927
 1092SOL    HW2 4176   0.502   4.534   0.826
 1093SOL     OW 4177   2.430   0.429   1.365
 1093SOL    HW1 4178   2.406   0.365   1.292
 1093SOL    HW2 4179   2.419   0.523   1.332
 1094SOL     OW 4180   0.928   6.916   2.608
 1094SOL    HW1 4181   0.981   6.893   2.526
 1094SOL    HW2 4182   0.923   7.015   2.619
 1095SOL     OW 4183   1.114   3.080   5.927
 1095SOL    HW1 4184   1.146   3.044   6.014
 1095SOL    HW2 4185   1.019   3.109   5.935
 1096SOL     OW 4186   3.303   4.187   1.779
 1096SOL    HW1 4187   3.205   4.208   1.788
 1096SOL    HW2 4188   3.354   4.272   1.764
 1097SOL     OW 4189   2.576   4.568   3.511
 1097SOL    HW1 4190   2.548   4.571   3.607
 1097SOL    HW2 4191   2.581   4.472   3.482
 1098SOL     OW 4192   4.515   3.404   6.596
 1098SOL    HW1 4193   4.429   3.430   6.639
 1098SOL    HW2 4194   4.590   3.420   6.659
 1099SOL     OW 4195   3.307   1.000   5.813
 1099SOL    HW1 4196   3.404   1.020   5.801
 1099SOL    HW2 4197   3.291   0.969   5.906
 1100SOL     OW 4198   4.450   1.703   4.591
 1100SOL    HW1 4199   4.353   1.726   4.597
 1100SOL    HW2 4200   4.462   1.622   4.532
 1101SOL     OW 4201   5.662   2.980   5.888
 1101SOL    HW1 4202   5.618   2.959   5.975
 1101SOL    HW2 4203   5.637   3.073   5.860
 1102SOL     OW 4204   0.770   0.312   4.762
 1102SOL    HW1 4205   0.856   0.265   4.742
 1102SOL    HW2 4206   0.693   0.250   4.746
 1103SOL     OW 4207   4.031   1.422   0.191
 1103SOL    HW1 4208   3.936   1.398   0.207
 1103SOL    HW2 4209   4.051   1.512   0.231
 1104SOL     OW 4210   1.705   2.920   5.579
 1104SOL    HW1 4211   1.721   2.896   5.675
 1104SOL    HW2 4212   1.681   2.838   5.527
 1105SOL     OW 4213   5.806   3.457   4.871
 1105SOL    HW1 4214   5.896   3.441   4.912
 1105SOL    HW2 4215   5.741   3.485   4.942
 1106SOL     OW 4216   7.012   2.413   1.203
 1106SOL    HW1 4217   0.040   2.381   1.283
 1106SOL    HW2 4218   0.009   2.354   1.125
 1107SOL     OW 4219   0.990   0.775   6.929
 1107SOL    HW1 4220   1.023   0.713   6.858
 1107SOL    HW2 4221   0.996   0.730   7.018
 1108SOL     OW 4222   3.235   6.882   5.451
 1108SOL    HW1 4223   3.333   6.891   5.435
 1108SOL    HW2 4224   3.219   6.812   5.522
 1109SOL     OW 4225   5.684   0.939   3.468
 1109SOL    HW1 4226   5.629   1.000   3.411
 1109SOL    HW2 4227   5.631   0.857   3.490
 1110SOL     OW 4228   4.086   2.027   3.017
 1110SOL    HW1 4229   4.045   1.940   2.988
 1110SOL    HW2 4230   4.185   2.018   3.020
 1111SOL     OW 4231   4.236   5.344   6.702
 1111SOL    HW1 4232   4.181   5.284   6.761
 1111SOL    HW2 4233   4.328   5.306   6.692
 1112SOL     OW 4234   5.945   0.974   2.451
 1112SOL    HW1 4235   6.016   1.044   2.441
 1112SOL    HW2 4236   5.947   0.913   2.371
 1113SOL     OW 4237   5.686   4.102   1.508
 1113SOL    HW1 4238   5.694   4.014   1.462
 1113SOL    HW2 4239   5.774   4.149   1.507
 1114SOL     OW 4240   3.373   1.622   5.806
 1114SOL    HW1 4241   3.404   1.704   5.758
 1114SOL    HW2 4242   3.273   1.620   5.806
 1115SOL     OW 4243   3.866   3.444   5.862
 1115SOL    HW1 4244   3.822   3.408   5.780
 1115SOL    HW2 4245   3.961   3.413   5.864
 1116SOL     OW 4246   4.600   6.393   5.723
 1116SOL    HW1 4247   4.668   6.384   5.650
 1116SOL    HW2 4248   4.634   6.347   5.806
 1117SOL     OW 4249   1.964   2.569   1.942
 1117SOL    HW1 4250   1.993   2.664   1.955
 1117SOL    HW2 4251   2.042   2.509   1.956
 1118SOL     OW 4252   3.332   4.697   0.707
 1118SOL    HW1 4253   3.306   4.793   0.709
 1118SOL    HW2 4254   3.328   4.659   0.799
 1119SOL     OW 4255   4.385   4.577   1.956
 1119SOL    HW1 4256   4.440   4.503   1.996
 1119SOL    HW2 4257   4.293   4.543   1.937
 1120SOL     OW 4258   5.809   6.427   0.612
 1120SOL    HW1 4259   5.884   6.493   0.604
 1120SOL    HW2 4260   5.789   6.388   0.523
 1121SOL     OW 4261   6.289   4.638   4.935
 1121SOL    HW1 4262   6.260   4.715   4.991
 1121SOL    HW2 4263   6.362   4.667   4.873
 1122SOL     OW 4264   4.973   2.511   1.533
 1122SOL    HW1 4265   5.030   2.552   1.461
 1122SOL    HW2 4266   4.919   2.582   1.578
 1123SOL     OW 4267   4.913   1.505   2.866
 1123SOL    HW1 4268   4.848   1.430   2.854
 1123SOL    HW2 4269   4.871   1.590   2.836
 1124SOL     OW 4270   6.874   3.266   5.469
 1124SOL    HW1 4271   6.923   3.273   5.382
 1124SOL    HW2 4272   6.837   3.174   5.479
 1125SOL     OW 4273   2.850   1.997   3.886
 1125SOL    HW1 4274   2.875   1.953   3.973
 1125SOL    HW2 4275   2.894   2.086   3.881
 1126SOL     OW 4276   5.505   5.625   0.032
 1126SOL    HW1 4277   5.481   5.660   0.123
 1126SOL    HW2 4278   5.453   5.542   0.014
 1127SOL     OW 4279   5.219   5.907   4.260
 1127SOL    HW1 4280   5.222   5.818   4.215
 1127SOL    HW2 4281   5.182   5.975   4.196
 1128SOL     OW 4282   6.158   1.225   4.615
 1128SOL    HW1 4283   6.181   1.310   4.566
 1128SOL    HW2 4284   6.233   1.202   4.678
 1129SOL     OW 4285   1.507   0.258   0.882
 1129SOL    HW1 4286   1.579   0.263   0.951
 1129SOL    HW2 4287   1.446   0.181   0.904
 1130SOL     OW 4288   2.414   4.815   0.467
 1130SOL    HW1 4289   2.320   4.789   0.488
 1130SOL    HW2 4290   2.415   4.907   0.428
 1131SOL     OW 4291   1.226   6.022   5.908
 1131SOL    HW1 4292   1.154   6.091   5.901
 1131SOL    HW2 4293   1.314   6.068   5.925
 1132SOL     OW 4294   5.361   0.239   2.664
 1132SOL    HW1 4295   5.292   0.273   2.601
 1132SOL    HW2 4296   5.349   0.282   2.754
 1133SOL     OW 4297   0.530   1.126   0.454
 1133SOL    HW1 4298   0.602   1.060   0.432
 1133SOL    HW2 4299   0.473   1.091   0.528
 1134SOL     OW 4300   5.443   6.811   2.639
 1134SOL    HW1 4301   5.400   6.878   2.699
 1134SOL    HW2 4302   5.379   6.786   2.566
 1135SOL     OW 4303   2.831   6.511   3.368
 1135SOL    HW1 4304   2.801   6.605   3.381
 1135SOL    HW2 4305   2.753   6.449   3.382
 1136SOL     OW 4306   4.292   4.879   3.450
 1136SOL    HW1 4307   4.361   4.815   3.483
 1136SOL    HW2 4308   4.323   4.922   3.366
 1137SOL     OW 4309   1.340   6.016   6.938
 1137SOL    HW1 4310   1.287   6.082   6.885
 1137SOL    HW2 4311   1.277   5.955   6.987
 1138SOL     OW 4312   0.400   0.985   5.962
 1138SOL    HW1 4313   0.431   1.019   5.874
 1138SOL    HW2 4314   0.340   0.906   5.949
 1139SOL     OW 4315   3.148   4.852   2.818
 1139SOL    HW1 4316   3.079   4.809   2.759
 1139SOL    HW2 4317   3.109   4.934   2.859
 1140SOL     OW 4318   3.053   1.165   2.308
 1140SOL    HW1 4319   3.091   1.079   2.275
 1140SOL    HW2 4320   3.055   1.233   2.235
 1141SOL     OW 4321   0.931   6.213   6.804
 1141SOL    HW1 4322   0.985   6.129   6.799
 1141SOL    HW2 4323   0.837   6.192   6.828
 1142SOL     OW 4324   3.302   0.364   4.001
 1142SOL    HW1 4325   3.313   0.280   4.054
 1142SOL    HW2 4326   3.359   0.436   4.041
 1143SOL     OW 4327   2.429   2.695   3.449
 1143SOL    HW1 4328   2.426   2.698   3.549
 1143SOL    HW2 4329   2.401   2.784   3.412
 1144SOL     OW 4330   6.150   4.518   3.769
 1144SOL    HW1 4331   6.204   4.532   3.852
 1144SOL    HW2 4332   6.160   4.598   3.710
 1145SOL     OW 4333   6.476   3.791   1.517
 1145SOL    HW1 4334   6.453   3.695   1.504
 1145SOL    HW2 4335   6.511   3.804   1.610
 1146SOL     OW 4336   6.827   0.729   2.570
 1146SOL    HW1 4337   6.787   0.796   2.508
 1146SOL    HW2 4338   6.876   0.776   2.644
 1147SOL     OW 4339   2.972   5.588   1.429
 1147SOL    HW1 4340   3.039   5.661   1.418
 1147SOL    HW2 4341   2.981   5.549   1.521
 1148SOL     OW 4342   4.540   5.926   0.113
 1148SOL    HW1 4343   4.459   5.894   0.064
 1148SOL    HW2 4344   4.598   5.978   0.050
 1149SOL     OW 4345   6.470   3.128   2.943
 1149SOL    HW1 4346   6.514   3.052   2.989
 1149SOL    HW2 4347   6.374   3.104   2.924
 1150SOL     OW 4348   0.796   4.069   0.355
 1150SOL    HW1 4349   0.808   4.038   0.261
 1150SOL    HW2 4350   0.766   3.993   0.412
 1151SOL     OW 4351   5.962   4.237   6.158
 1151SOL    HW1 4352   5.912   4.205   6.239
 1151SOL    HW2 4353   6.059   4.217   6.170
 1152SOL     OW 4354   4.788   5.203   0.268
 1152SOL    HW1 4355   4.781   5.175   0.173
 1152SOL    HW2 4356   4.727   5.280   0.286
 1153SOL     OW 4357   0.383   0.116   2.153
 1153SOL    HW1 4358   0.428   0.178   2.216
 1153SOL    HW2 4359   0.291   0.094   2.187
 1154SOL     OW 4360   6.913   4.445   1.406
 1154SOL    HW1 4361   6.958   4.381   1.344
 1154SOL    HW2 4362   6.815   4.446   1.387
 1155SOL     OW 4363   2.387   4.707   6.217
 1155SOL    HW1 4364   2.296   4.696   6.256
 1155SOL    HW2 4365   2.389   4.672   6.124
 1156SOL     OW 4366   4.453   2.144   4.919
 1156SOL    HW1 4367   4.409   2.143   4.830
 1156SOL    HW2 4368   4.402   2.087   4.983
 1157SOL     OW 4369   5.393   1.164   6.270
 1157SOL    HW1 4370   5.492   1.177   6.276
 1157SOL    HW2 4371   5.364   1.101   6.342
 1158SOL     OW 4372   7.019   5.105   5.289
 1158SOL    HW1 4373   6.943   5.069   5.343
 1158SOL    HW2 4374   0.070   5.037   5.286
 1159SOL     OW 4375   6.486   7.008   3.613
 1159SOL    HW1 4376   6.497   7.007   3.513
 1159SOL    HW2 4377   6.545   6.938   3.653
 1160SOL     OW 4378   5.331   4.537   0.905
 1160SOL    HW1 4379   5.397   4.610   0.922
 1160SOL    HW2 4380   5.307   4.492   0.991
 1161SOL     OW 4381   6.217   5.358   5.548
 1161SOL    HW1 4382   6.166   5.342   5.464
 1161SOL    HW2 4383   6.276   5.279   5.566
 1162SOL     OW 4384   2.295   2.487   6.918
 1162SOL    HW1 4385   2.371   2.517   6.861
 1162SOL    HW2 4386   2.236   2.425   6.866
 1163SOL     OW 4387   6.683   3.668   1.918
 1163SOL    HW1 4388   6.728   3.724   1.848
 1163SOL    HW2 4389   6.702   3.572   1.902
 1164SOL     OW 4390   5.356   2.572   3.700
 1164SOL    HW1 4391   5.267   2.608   3.728
 1164SOL    HW2 4392   5.427   2.607   3.762
 1165SOL     OW 4393   4.130   5.151   3.834
 1165SOL    HW1 4394   4.114   5.091   3.755
 1165SOL    HW2 4395   4.206   5.213   3.814
 1166SOL     OW 4396   3.546   0.044   0.509
 1166SOL    HW1 4397   3.622   0.108   0.505
 1166SOL    HW2 4398   3.536   7.020   0.421
 1167SOL     OW 4399   4.146   6.811   0.565
 1167SOL    HW1 4400   4.139   6.713   0.548
 1167SOL    HW2 4401   4.239   6.834   0.592
 1168SOL     OW 4402   5.471   2.805   2.017
 1168SOL    HW1 4403   5.550   2.845   2.063
 1168SOL    HW2 4404   5.461   2.709   2.045
 1169SOL     OW 4405   4.889   2.633   6.042
 1169SOL    HW1 4406   4.850   2.639   6.134
 1169SOL    HW2 4407   4.927   2.722   6.016
 1170SOL     OW 4408   5.331   6.988   2.793
 1170SOL    HW1 4409   5.324   0.046   2.734
 1170SOL    HW2 4410   5.338   7.016   2.888
 1171SOL     OW 4411   2.400   6.550   7.015
 1171SOL    HW1 4412   2.363   6.643   7.009
 1171SOL    HW2 4413   2.423   6.529   0.087
 1172SOL     OW 4414   3.156   3.812   1.649
 1172SOL    HW1 4415   3.058   3.800   1.667
 1172SOL    HW2 4416   3.200   3.850   1.730
 1173SOL     OW 4417   3.288   1.767   0.631
 1173SOL    HW1 4418   3.332   1.825   0.563
 1173SOL    HW2 4419   3.354   1.700   0.666
 1174SOL     OW 4420   2.565   4.924   2.124
 1174SOL    HW1 4421   2.496   4.852   2.126
 1174SOL    HW2 4422   2.593   4.946   2.217
 1175SOL     OW 4423   4.295   4.570   6.532
 1175SOL    HW1 4424   4.224   4.525   6.478
 1175SOL    HW2 4425   4.385   4.548   6.494
 1176SOL     OW 4426   5.576   3.439   6.514
 1176SOL    HW1 4427   5.642   3.497   6.465
 1176SOL    HW2 4428   5.592   3.446   6.612
 1177SOL     OW 4429   0.238   3.489   4.576
 1177SOL    HW1 4430   0.263   3.556   4.507
 1177SOL    HW2 4431   0.240   3.532   4.666
 1178SOL     OW 4432   3.943   4.305   0.719
 1178SOL    HW1 4433   3.911   4.214   0.748
 1178SOL    HW2 4434   3.865   4.366   0.710
 1179SOL     OW 4435   2.092   6.130   1.117
 1179SOL    HW1 4436   2.036   6.117   1.199
 1179SOL    HW2 4437   2.129   6.223   1.116
 1180SOL     OW 4438   3.002   5.667   4.405
 1180SOL    HW1 4439   3.036   5.575   4.421
 1180SOL    HW2 4440   2.907   5.662   4.374
 1181SOL     OW 4441   0.143   4.862   5.513
 1181SOL    HW1 4442   0.211   4.887   5.445
 1181SOL    HW2 4443   0.087   4.786   5.478
 1182SOL     OW 4444   4.440   5.011   3.777
 1182SOL    HW1 4445   4.516   4.990   3.839
 1182SOL    HW2 4446   4.379   5.077   3.821
 1183SOL     OW 4447   2.709   4.270   1.658
 1183SOL    HW1 4448   2.807   4.264   1.674
 1183SOL    HW2 4449   2.691   4.273   1.560
 1184SOL     OW 4450   7.005   1.456   5.475
 1184SOL    HW1 4451   6.907   1.441   5.480
 1184SOL    HW2 4452   0.001   1.555   5.471
 1185SOL     OW 4453   0.974   0.813   0.438
 1185SOL    HW1 4454   0.890   0.811   0.492
 1185SOL    HW2 4455   0.990   0.905   0.403
 1186SOL     OW 4456   4.897   6.164   5.327
 1186SOL    HW1 4457   4.815   6.133   5.278
 1186SOL    HW2 4458   4.935   6.244   5.280
 1187SOL     OW 4459   5.082   0.458   5.012
 1187SOL    HW1 4460   5.015   0.515   5.058
 1187SOL    HW2 4461   5.048   0.432   4.922
 1188SOL     OW 4462   3.059   5.491   6.069
 1188SOL    HW1 4463   3.015   5.402   6.058
 1188SOL    HW2 4464   3.121   5.508   5.992
 1189SOL     OW 4465   6.182   2.477   1.476
 1189SOL    HW1 4466   6.256   2.426   1.520
 1189SOL    HW2 4467   6.161   2.436   1.388
 1190SOL     OW 4468   3.330   6.032   2.879
 1190SOL    HW1 4469   3.320   6.118   2.829
 1190SOL    HW2 4470   3.293   5.957   2.825
 1191SOL     OW 4471   4.559   4.772   4.407
 1191SOL    HW1 4472   4.501   4.853   4.391
 1191SOL    HW2 4473   4.538   4.703   4.337
 1192SOL     OW 4474   5.047   4.859   3.184
 1192SOL    HW1 4475   5.040   4.762   3.162
 1192SOL    HW2 4476   5.023   4.914   3.104
 1193SOL     OW 4477   0.535   2.370   5.666
 1193SOL    HW1 4478   0.513   2.371   5.763
 1193SOL    HW2 4479   0.595   2.292   5.646
 1194SOL     OW 4480   5.951   1.008   1.349
 1194SOL    HW1 4481   6.041   1.032   1.384
 1194SOL    HW2 4482   5.881   1.035   1.415
 1195SOL     OW 4483   0.030   3.677   0.691
 1195SOL    HW1 4484   0.116   3.711   0.654
 1195SOL    HW2 4485   0.048   3.624   0.774
 1196SOL     OW 4486   6.520   4.851   3.710
 1196SOL    HW1 4487   6.540   4.815   3.620
 1196SOL    HW2 4488   6.584   4.812   3.777
 1197SOL     OW 4489   4.585   6.932   4.550
 1197SOL    HW1 4490   4.545   6.917   4.460
 1197SOL    HW2 4491   4.654   6.861   4.567
 1198SOL     OW 4492   1.799   3.620   2.837
 1198SOL    HW1 4493   1.818   3.598   2.741
 1198SOL    HW2 4494   1.820   3.541   2.894
 1199SOL     OW 4495   3.762   3.731   2.415
 1199SOL    HW1 4496   3.767   3.767   2.322
 1199SOL    HW2 4497   3.690   3.779   2.466
 1200SOL     OW 4498   3.148   4.060   4.781
 1200SOL    HW1 4499   3.097   4.138   4.817
 1200SOL    HW2 4500   3.085   3.983   4.767
 1201SOL     OW 4501   1.349   1.343   4.328
 1201SOL    HW1 4502   1.419   1.414   4.333
 1201SOL    HW2 4503   1.260   1.382   4.351
 1202SOL     OW 4504   0.327   5.414   5.337
 1202SOL    HW1 4505   0.335   5.393   5.434
 1202SOL    HW2 4506   0.263   5.490   5.324
 1203SOL     OW 4507   0.118   5.548   0.258
 1203SOL    HW1 4508   0.152   5.481   0.324
 1203SOL    HW2 4509   0.145   5.639   0.287
 1204SOL     OW 4510   4.531   1.139   1.481
 1204SOL    HW1 4511   4.503   1.059   1.428
 1204SOL    HW2 4512   4.452   1.179   1.526
 1205SOL     OW 4513   3.941   3.418   0.548
 1205SOL    HW1 4514   3.911   3.330   0.512
 1205SOL    HW2 4515   4.040   3.419   0.558
 1206SOL     OW 4516   2.531   2.559   5.443
 1206SOL    HW1 4517   2.449   2.613   5.461
 1206SOL    HW2 4518   2.588   2.607   5.376
 1207SOL     OW 4519   1.386   0.007   1.059
 1207SOL    HW1 4520   1.297   6.984   1.056
 1207SOL    HW2 4521   1.458   6.963   1.074
 1208SOL     OW 4522   3.418   3.597   1.306
 1208SOL    HW1 4523   3.464   3.514   1.339
 1208SOL    HW2 4524   3.381   3.647   1.384
 1209SOL     OW 4525   5.412   0.469   3.533
 1209SOL    HW1 4526   5.355   0.426   3.463
 1209SOL    HW2 4527   5.372   0.454   3.623
 1210SOL     OW 4528   4.579   6.687   3.713
 1210SOL    HW1 4529   4.526   6.701   3.630
 1210SOL    HW2 4530   4.561   6.761   3.777
 1211SOL     OW 4531   1.198   3.003   3.047
 1211SOL    HW1 4532   1.104   3.039   3.048
 1211SOL    HW2 4533   1.251   3.053   2.978
 1212SOL     OW 4534   6.558   0.418   6.111
 1212SOL    HW1 4535   6.554   0.449   6.206
 1212SOL    HW2 4536   6.599   0.490   6.054
 1213SOL     OW 4537   6.136   2.998   0.763
 1213SOL    HW1 4538   6.115   2.916   0.816
 1213SOL    HW2 4539   6.051   3.042   0.734
 1214SOL     OW 4540   0.817   3.961   0.114
 1214SOL    HW1 4541   0.856   3.969   0.022
 1214SOL    HW2 4542   0.840   3.872   0.153
 1215SOL     OW 4543   0.997   4.414   3.410
 1215SOL    HW1 4544   0.915   4.469   3.423
 1215SOL    HW2 4545   0.993   4.333   3.468
 1216SOL     OW 4546   5.084   0.416   0.689
 1216SOL    HW1 4547   4.994   0.457   0.707
 1216SOL    HW2 4548   5.138   0.477   0.631
 1217SOL     OW 4549   2.573   4.408   0.762
 1217SOL    HW1 4550   2.580   4.452   0.673
 1217SOL    HW2 4551   2.618   4.465   0.831
 1218SOL     OW 4552   1.270   3.160   4.773
 1218SOL    HW1 4553   1.239   3.198   4.861
 1218SOL    HW2 4554   1.353   3.207   4.744
 1219SOL     OW 4555   5.614   6.125   1.878
 1219SOL    HW1 4556   5.539   6.061   1.863
 1219SOL    HW2 4557   5.700   6.083   1.848
 1220SOL     OW 4558   0.965   4.872   3.080
 1220SOL    HW1 4559   1.015   4.940   3.134
 1220SOL    HW2 4560   0.884   4.843   3.131
 1221SOL     OW 4561   4.088   4.457   6.394
 1221SOL    HW1 4562   4.024   4.465   6.471
 1221SOL    HW2 4563   4.043   4.410   6.318
 1222SOL     OW 4564   6.743   1.211   6.916
 1222SOL    HW1 4565   6.699   1.225   6.828
 1222SOL    HW2 4566   6.764   1.300   6.957
 1223SOL     OW 4567   3.822   2.015   0.492
 1223SOL    HW1 4568   3.810   2.114   0.485
 1223SOL    HW2 4569   3.890   1.984   0.425
 1224SOL     OW 4570   3.718   5.762   0.547
 1224SOL    HW1 4571   3.741   5.719   0.634
 1224SOL    HW2 4572   3.762   5.712   0.473
 1225SOL     OW 4573   3.005   3.085   6.727
 1225SOL    HW1 4574   2.957   3.060   6.644
 1225SOL    HW2 4575   2.940   3.116   6.796
 1226SOL     OW 4576   2.267   6.694   1.293
 1226SOL    HW1 4577   2.222   6.733   1.373
 1226SOL    HW2 4578   2.333   6.759   1.257
 1227SOL     OW 4579   5.945   4.404   5.924
 1227SOL    HW1 4580   5.993   4.358   5.998
 1227SOL    HW2 4581   5.927   4.340   5.850
 1228SOL     OW 4582   2.955   1.762   5.987
 1228SOL    HW1 4583   2.974   1.853   6.024
 1228SOL    HW2 4584   3.011   1.746   5.906
 1229SOL     OW 4585   3.484   5.187   6.402
 1229SOL    HW1 4586   3.468   5.116   6.334
 1229SOL    HW2 4587   3.578   5.220   6.394
 1230SOL     OW 4588   4.962   6.747   2.416
 1230SOL    HW1 4589   4.934   6.843   2.404
 1230SOL    HW2 4590   4.917   6.691   2.346
 1231SOL     OW 4591   1.748   2.347   4.712
 1231SOL    HW1 4592   1.651   2.337   4.734
 1231SOL    HW2 4593   1.783   2.431   4.752
 1232SOL     OW 4594   0.286   2.332   5.565
 1232SOL    HW1 4595   0.378   2.338   5.603
 1232SOL    HW2 4596   0.219   2.339   5.638
 1233SOL     OW 4597   1.213   5.181   5.137
 1233SOL    HW1 4598   1.206   5.276   5.166
 1233SOL    HW2 4599   1.309   5.155   5.129
 1234SOL     OW 4600   6.398   2.920   6.041
 1234SOL    HW1 4601   6.437   2.828   6.042
 1234SOL    HW2 4602   6.318   2.921   5.980
 1235SOL     OW 4603   6.319   5.566   2.947
 1235SOL    HW1 4604   6.406   5.568   2.896
 1235SOL    HW2 4605   6.243   5.565   2.882
 1236SOL     OW 4606   4.936   0.982   6.887
 1236SOL    HW1 4607   4.867   1.009   6.953
 1236SOL    HW2 4608   5.021   1.032   6.905
 1237SOL     OW 4609   2.113   4.703   6.230
 1237SOL    HW1 4610   2.122   4.623   6.172
 1237SOL    HW2 4611   2.052   4.770   6.187
 1238SOL     OW 4612   1.282   1.427   1.065
 1238SOL    HW1 4613   1.193   1.422   1.018
 1238SOL    HW2 4614   1.354   1.443   0.998
 1239SOL     OW 4615   6.817   6.401   6.289
 1239SOL    HW1 4616   6.868   6.344   6.353
 1239SOL    HW2 4617   6.722   6.407   6.318
 1240SOL     OW 4618   5.420   6.268   1.399
 1240SOL    HW1 4619   5.481   6.205   1.448
 1240SOL    HW2 4620   5.433   6.361   1.434
 1241SOL     OW 4621   5.263   2.921   4.459
 1241SOL    HW1 4622   5.265   2.983   4.537
 1241SOL    HW2 4623   5.348   2.929   4.408
 1242SOL     OW 4624   0.815   3.597   1.413
 1242SOL    HW1 4625   0.757   3.678   1.424
 1242SOL    HW2 4626   0.836   3.584   1.316
 1243SOL     OW 4627   0.209   6.515   5.161
 1243SOL    HW1 4628   0.115   6.549   5.163
 1243SOL    HW2 4629   0.269   6.584   5.121
 1244SOL     OW 4630   5.757   6.972   4.778
 1244SOL    HW1 4631   5.684   7.002   4.716
 1244SOL    HW2 4632   5.830   6.929   4.725
 1245SOL     OW 4633   5.321   4.774   0.313
 1245SOL    HW1 4634   5.388   4.705   0.339
 1245SOL    HW2 4635   5.297   4.829   0.394
 1246SOL     OW 4636   2.822   6.962   0.843
 1246SOL    HW1 4637   2.730   6.956   0.880
 1246SOL    HW2 4638   2.842   6.881   0.788
 1247SOL     OW 4639   1.151   6.652   6.454
 1247SOL    HW1 4640   1.167   6.750   6.446
 1247SOL    HW2 4641   1.236   6.606   6.476
 1248SOL     OW 4642   1.942   0.012   5.164
 1248SOL    HW1 4643   2.023   0.070   5.170
 1248SOL    HW2 4644   1.969   6.940   5.151
 1249SOL     OW 4645   6.378   1.807   2.378
 1249SOL    HW1 4646   6.376   1.873   2.303
 1249SOL    HW2 4647   6.285   1.775   2.397
 1250SOL     OW 4648   5.651   5.250   3.953
 1250SOL    HW1 4649   5.703   5.166   3.969
 1250SOL    HW2 4650   5.553   5.231   3.962
 1251SOL     OW 4651   2.843   0.837   3.454
 1251SOL    HW1 4652   2.918   0.790   3.500
 1251SOL    HW2 4653   2.768   0.852   3.518
 1252SOL     OW 4654   4.459   3.510   6.345
 1252SOL    HW1 4655   4.486   3.471   6.433
 1252SOL    HW2 4656   4.414   3.439   6.289
 1253SOL     OW 4657   3.039   5.659   2.719
 1253SOL    HW1 4658   3.047   5.748   2.764
 1253SOL    HW2 4659   2.998   5.671   2.629
 1254SOL     OW 4660   0.980   2.852   2.511
 1254SOL    HW1 4661   0.935   2.883   2.427
 1254SOL    HW2 4662   0.912   2.826   2.578
 1255SOL     OW 4663   6.034   1.968   5.520
 1255SOL    HW1 4664   6.130   1.947   5.538
 1255SOL    HW2 4665   6.011   1.941   5.426
 1256SOL     OW 4666   6.952   6.568   3.495
 1256SOL    HW1 4667   0.026   6.548   3.505
 1256SOL    HW2 4668   6.900   6.483   3.486
 1257SOL     OW 4669   0.071   6.101   5.271
 1257SOL    HW1 4670   0.074   6.102   5.371
 1257SOL    HW2 4671   7.001   6.080   5.241
 1258SOL     OW 4672   1.920   5.030   2.667
 1258SOL    HW1 4673   1.849   5.039   2.736
 1258SOL    HW2 4674   1.898   4.955   2.605
 1259SOL     OW 4675   4.538   0.606   4.075
 1259SOL    HW1 4676   4.452   0.631   4.030
 1259SOL    HW2 4677   4.615   0.622   4.014
 1260SOL     OW 4678   1.783   1.564   0.610
 1260SOL    HW1 4679   1.821   1.584   0.520
 1260SOL    HW2 4680   1.776   1.465   0.622
 1261SOL     OW 4681   0.227   5.928   6.682
 1261SOL    HW1 4682   0.267   6.018   6.697
 1261SOL    HW2 4683   0.274   5.883   6.606
 1262SOL     OW 4684   5.271   5.043   1.163
 1262SOL    HW1 4685   5.352   5.036   1.105
 1262SOL    HW2 4686   5.285   4.993   1.248
 1263SOL     OW 4687   6.918   2.365   1.991
 1263SOL    HW1 4688   7.009   2.405   1.998
 1263SOL    HW2 4689   6.863   2.394   2.070
 1264SOL     OW 4690   6.467   4.478   0.784
 1264SOL    HW1 4691   6.480   4.534   0.702
 1264SOL    HW2 4692   6.449   4.537   0.862
 1265SOL     OW 4693   5.795   5.565   4.614
 1265SOL    HW1 4694   5.714   5.621   4.631
 1265SOL    HW2 4695   5.767   5.476   4.579
 1266SOL     OW 4696   0.664   1.395   3.981
 1266SOL    HW1 4697   0.691   1.442   3.898
 1266SOL    HW2 4698   0.652   1.297   3.962
 1267SOL     OW 4699   4.996   0.764   1.205
 1267SOL    HW1 4700   4.940   0.681   1.198
 1267SOL    HW2 4701   4.940   0.839   1.241
 1268SOL     OW 4702   2.566   2.554   0.131
 1268SOL    HW1 4703   2.503   2.478   0.146
 1268SOL    HW2 4704   2.648   2.541   0.186
 1269SOL     OW 4705   6.121   3.811   4.241
 1269SOL    HW1 4706   6.059   3.884   4.213
 1269SOL    HW2 4707   6.082   3.762   4.319
 1270SOL     OW 4708   1.479   3.913   3.303
 1270SOL    HW1 4709   1.491   3.901   3.401
 1270SOL    HW2 4710   1.506   3.829   3.255
 1271SOL     OW 4711   2.680   2.080   2.807
 1271SOL    HW1 4712   2.751   2.012   2.789
 1271SOL    HW2 4713   2.719   2.172   2.796
 1272SOL     OW 4714   5.908   4.179   0.099
 1272SOL    HW1 4715   5.866   4.267   0.078
 1272SOL    HW2 4716   5.860   4.106   0.050
 1273SOL     OW 4717   0.604   3.218   6.854
 1273SOL    HW1 4718   0.572   3.246   6.944
 1273SOL    HW2 4719   0.540   3.250   6.784
 1274SOL     OW 4720   6.891   4.551   1.677
 1274SOL    HW1 4721   6.955   4.508   1.741
 1274SOL    HW2 4722   6.886   4.497   1.594
 1275SOL     OW 4723   4.175   1.113   4.233
 1275SOL    HW1 4724   4.263   1.080   4.197
 1275SOL    HW2 4725   4.157   1.205   4.196
 1276SOL     OW 4726   6.811   4.979   5.383
 1276SOL    HW1 4727   6.845   4.892   5.349
 1276SOL    HW2 4728   6.736   4.963   5.447
 1277SOL     OW 4729   1.884   5.710   5.785
 1277SOL    HW1 4730   1.858   5.731   5.691
 1277SOL    HW2 4731   1.936   5.787   5.823
 1278SOL     OW 4732   1.161   0.136   5.062
 1278SOL    HW1 4733   1.131   0.108   4.971
 1278SOL    HW2 4734   1.212   0.221   5.056
 1279SOL     OW 4735   1.845   4.961   0.368
 1279SOL    HW1 4736   1.753   4.930   0.347
 1279SOL    HW2 4737   1.904   4.949   0.288
 1280SOL     OW 4738   4.881   6.355   4.191
 1280SOL    HW1 4739   4.942   6.281   4.218
 1280SOL    HW2 4740   4.788   6.336   4.222
 1281SOL     OW 4741   2.691   6.373   3.064
 1281SOL    HW1 4742   2.780   6.328   3.065
 1281SOL    HW2 4743   2.703   6.472   3.066
 1282SOL     OW 4744   6.444   2.697   0.255
 1282SOL    HW1 4745   6.499   2.772   0.217
 1282SOL    HW2 4746   6.476   2.675   0.347
 1283SOL     OW 4747   6.961   3.684   5.156
 1283SOL    HW1 4748   6.974   3.627   5.075
 1283SOL    HW2 4749   0.011   3.752   5.161
 1284SOL     OW 4750   4.574   1.877   1.853
 1284SOL    HW1 4751   4.671   1.871   1.875
 1284SOL    HW2 4752   4.534   1.958   1.895
 1285SOL     OW 4753   4.464   1.673   6.106
 1285SOL    HW1 4754   4.508   1.763   6.096
 1285SOL    HW2 4755   4.420   1.648   6.020
 1286SOL     OW 4756   4.263   3.865   1.346
 1286SOL    HW1 4757   4.348   3.812   1.345
 1286SOL    HW2 4758   4.244   3.896   1.439
 1287SOL     OW 4759   5.352   4.773   5.165
 1287SOL    HW1 4760   5.442   4.808   5.138
 1287SOL    HW2 4761   5.360   4.677   5.190
 1288SOL     OW 4762   3.738   3.415   6.565
 1288SOL    HW1 4763   3.648   3.444   6.597
 1288SOL    HW2 4764   3.769   3.335   6.617
 1289SOL     OW 4765   6.989   6.755   0.756
 1289SOL    HW1 4766   6.969   6.853   0.767
 1289SOL    HW2 4767   6.903   6.703   0.760
 1290SOL     OW 4768   1.074   6.225   0.045
 1290SOL    HW1 4769   1.001   6.243   7.002
 1290SOL    HW2 4770   1.159   6.209   7.018
 1291SOL     OW 4771   0.740   4.253   3.964
 1291SOL    HW1 4772   0.712   4.309   4.042
 1291SOL    HW2 4773   0.836   4.269   3.944
 1292SOL     OW 4774   0.429   5.929   2.345
 1292SOL    HW1 4775   0.524   5.939   2.376
 1292SOL    HW2 4776   0.427   5.919   2.245
 1293SOL     OW 4777   1.967   2.421   0.071
 1293SOL    HW1 4778   1.973   2.368   0.156
 1293SOL    HW2 4779   2.019   2.374   7.023
 1294SOL     OW 4780   0.383   3.680   6.009
 1294SOL    HW1 4781   0.347   3.588   6.022
 1294SOL    HW2 4782   0.369   3.733   6.092
 1295SOL     OW 4783   0.005   3.364   1.536
 1295SOL    HW1 4784   0.018   3.342   1.633
 1295SOL    HW2 4785   0.021   3.282   1.481
 1296SOL     OW 4786   3.702   6.685   4.983
 1296SOL    HW1 4787   3.635   6.759   4.993
 1296SOL    HW2 4788   3.671   6.606   5.035
 1297SOL     OW 4789   0.477   0.193   1.362
 1297SOL    HW1 4790   0.505   0.241   1.445
 1297SOL    HW2 4791   0.537   0.114   1.347
 1298SOL     OW 4792   5.095   5.707   3.460
 1298SOL    HW1 4793   5.033   5.754   3.397
 1298SOL    HW2 4794   5.050   5.697   3.549
 1299SOL     OW 4795   2.434   2.646   3.745
 1299SOL    HW1 4796   2.381   2.728   3.770
 1299SOL    HW2 4797   2.444   2.588   3.826
 1300SOL     OW 4798   1.727   3.337   0.745
 1300SOL    HW1 4799   1.641   3.342   0.796
 1300SOL    HW2 4800   1.717   3.271   0.670
 1301SOL     OW 4801   0.846   6.262   1.428
 1301SOL    HW1 4802   0.787   6.181   1.432
 1301SOL    HW2 4803   0.891   6.274   1.517
 1302SOL     OW 4804   4.841   6.586   5.237
 1302SOL    HW1 4805   4.935   6.621   5.239
 1302SOL    HW2 4806   4.840   6.495   5.196
 1303SOL     OW 4807   3.851   1.889   1.824
 1303SOL    HW1 4808   3.912   1.919   1.898
 1303SOL    HW2 4809   3.789   1.963   1.801
 1304SOL     OW 4810   1.385   0.821   0.438
 1304SOL    HW1 4811   1.380   0.918   0.459
 1304SOL    HW2 4812   1.437   0.774   0.509
 1305SOL     OW 4813   5.617   3.507   0.307
 1305SOL    HW1 4814   5.699   3.461   0.340
 1305SOL    HW2 4815   5.632   3.539   0.213
 1306SOL     OW 4816   1.100   5.455   3.912
 1306SOL    HW1 4817   1.012   5.409   3.925
 1306SOL    HW2 4818   1.090   5.526   3.843
 1307SOL     OW 4819   1.613   4.052   3.819
 1307SOL    HW1 4820   1.610   3.956   3.847
 1307SOL    HW2 4821   1.707   4.083   3.815
 1308SOL     OW 4822   6.598   0.012   5.595
 1308SOL    HW1 4823   6.601   6.988   5.507
 1308SOL    HW2 4824   6.510   0.060   5.604
 1309SOL     OW 4825   5.655   4.865   5.117
 1309SOL    HW1 4826   5.621   4.949   5.160
 1309SOL    HW2 4827   5.704   4.889   5.033
 1310SOL     OW 4828   6.725   3.672   3.774
 1310SOL    HW1 4829   6.627   3.687   3.782
 1310SOL    HW2 4830   6.741   3.590   3.719
 1311SOL     OW 4831   6.822   5.580   5.600
 1311SOL    HW1 4832   6.778   5.561   5.688
 1311SOL    HW2 4833   6.755   5.572   5.527
 1312SOL     OW 4834   1.335   6.688   6.686
 1312SOL    HW1 4835   1.320   6.787   6.695
 1312SOL    HW2 4836   1.271   6.640   6.746
 1313SOL     OW 4837   0.229   4.818   2.680
 1313SOL    HW1 4838   0.284   4.735   2.678
 1313SOL    HW2 4839   0.289   4.898   2.683
 1314SOL     OW 4840   4.129   1.642   4.601
 1314SOL    HW1 4841   4.139   1.551   4.560
 1314SOL    HW2 4842   4.084   1.633   4.690
 1315SOL     OW 4843   0.651   1.894   2.380
 1315SOL    HW1 4844   0.655   1.813   2.321
 1315SOL    HW2 4845   0.590   1.876   2.457
 1316SOL     OW 4846   3.278   6.812   6.110
 1316SOL    HW1 4847   3.183   6.806   6.079
 1316SOL    HW2 4848   3.280   6.829   6.208
 1317SOL     OW 4849   1.813   4.319   5.608
 1317SOL    HW1 4850   1.865   4.242   5.571
 1317SOL    HW2 4851   1.847   4.343   5.698
 1318SOL     OW 4852   0.758   2.700   1.219
 1318SOL    HW1 4853   0.839   2.660   1.177
 1318SOL    HW2 4854   0.740   2.790   1.179
 1319SOL     OW 4855   6.625   6.163   0.673
 1319SOL    HW1 4856   6.642   6.238   0.610
 1319SOL    HW2 4857   6.565   6.193   0.747
 1320SOL     OW 4858   3.767   4.798   6.975
 1320SOL    HW1 4859   3.677   4.834   6.949
 1320SOL    HW2 4860   3.755   4.720   0.013
 1321SOL     OW 4861   5.181   2.750   6.648
 1321SOL    HW1 4862   5.263   2.709   6.609
 1321SOL    HW2 4863   5.189   2.753   6.748
 1322SOL     OW 4864   4.305   1.786   4.260
 1322SOL    HW1 4865   4.236   1.844   4.303
 1322SOL    HW2 4866   4.305   1.801   4.161
 1323SOL     OW 4867   4.318   6.824   6.092
 1323SOL    HW1 4868   4.371   6.898   6.051
 1323SOL    HW2 4869   4.313   6.747   6.028
 1324SOL     OW 4870   0.272   4.004   0.130
 1324SOL    HW1 4871   0.239   4.041   0.043
 1324SOL    HW2 4872   0.353   3.948   0.113
 1325SOL     OW 4873   2.677   6.472   4.516
 1325SOL    HW1 4874   2.717   6.500   4.429
 1325SOL    HW2 4875   2.623   6.547   4.553
 1326SOL     OW 4876   5.125   3.504   5.666
 1326SOL    HW1 4877   5.202   3.528   5.606
 1326SOL    HW2 4878   5.059   3.450   5.615
 1327SOL     OW 4879   1.119   6.609   1.027
 1327SOL    HW1 4880   1.080   6.517   1.035
 1327SOL    HW2 4881   1.219   6.603   1.032
 1328SOL     OW 4882   2.708   2.998   1.285
 1328SOL    HW1 4883   2.636   3.046   1.334
 1328SOL    HW2 4884   2.795   3.045   1.298
 1329SOL     OW 4885   0.744   2.248   1.963
 1329SOL    HW1 4886   0.801   2.204   1.895
 1329SOL    HW2 4887   0.650   2.214   1.956
 1330SOL     OW 4888   1.236   1.176   2.059
 1330SOL    HW1 4889   1.159   1.236   2.039
 1330SOL    HW2 4890   1.257   1.121   1.978
 1331SOL     OW 4891   4.902   3.275   2.980
 1331SOL    HW1 4892   4.910   3.254   2.882
 1331SOL    HW2 4893   4.931   3.369   2.996
 1332SOL     OW 4894   2.778   7.001   6.790
 1332SOL    HW1 4895   2.875   6.984   6.771
 1332SOL    HW2 4896   2.769   0.063   6.842
 1333SOL     OW 4897   3.209   3.462   3.845
 1333SOL    HW1 4898   3.278   3.431   3.780
 1333SOL    HW2 4899   3.253   3.497   3.927
 1334SOL     OW 4900   6.316   1.399   3.781
 1334SOL    HW1 4901   6.315   1.340   3.861
 1334SOL    HW2 4902   6.410   1.411   3.749
 1335SOL     OW 4903   2.229   2.191   1.722
 1335SOL    HW1 4904   2.301   2.128   1.751
 1335SOL    HW2 4905   2.243   2.217   1.627
 1336SOL     OW 4906   2.432   2.171   5.008
 1336SOL    HW1 4907   2.530   2.157   5.022
 1336SOL    HW2 4908   2.382   2.137   5.088
 1337SOL     OW 4909   1.408   1.022   3.215
 1337SOL    HW1 4910   1.449   1.003   3.304
 1337SOL    HW2 4911   1.311   0.998   3.217
 1338SOL     OW 4912   6.487   2.341   4.838
 1338SOL    HW1 4913   6.427   2.384   4.770
 1338SOL    HW2 4914   6.580   2.336   4.803
 1339SOL     OW 4915   6.230   2.180   6.777
 1339SOL    HW1 4916   6.296   2.196   6.704
 1339SOL    HW2 4917   6.150   2.132   6.739
 1340SOL     OW 4918   5.840   2.133   2.573
 1340SOL    HW1 4919   5.824   2.151   2.476
 1340SOL    HW2 4920   5.893   2.207   2.613
 1341SOL     OW 4921   4.474   6.256   6.625
 1341SOL    HW1 4922   4.533   6.269   6.546
 1341SOL    HW2 4923   4.457   6.158   6.638
 1342SOL     OW 4924   2.756   5.741   5.985
 1342SOL    HW1 4925   2.769   5.730   5.887
 1342SOL    HW2 4926   2.714   5.659   6.023
 1343SOL     OW 4927   5.275   5.500   2.784
 1343SOL    HW1 4928   5.261   5.405   2.810
 1343SOL    HW2 4929   5.193   5.553   2.805
 1344SOL     OW 4930   0.704   5.800   4.551
 1344SOL    HW1 4931   0.627   5.844   4.598
 1344SOL    HW2 4932   0.693   5.810   4.452
 1345SOL     OW 4933   0.820   6.076   2.951
 1345SOL    HW1 4934   0.775   6.086   3.039
 1345SOL    HW2 4935   0.860   5.985   2.944
 1346SOL     OW 4936   1.063   5.495   4.381
 1346SOL    HW1 4937   0.982   5.533   4.425
 1346SOL    HW2 4938   1.115   5.441   4.447
 1347SOL     OW 4939   0.282   6.663   6.062
 1347SOL    HW1 4940   0.253   6.758   6.049
 1347SOL    HW2 4941   0.202   6.604   6.070
 1348SOL     OW 4942   6.146   6.497   4.317
 1348SOL    HW1 4943   6.074   6.430   4.335
 1348SOL    HW2 4944   6.155   6.558   4.395
 1349SOL     OW 4945   5.172   3.035   5.675
 1349SOL    HW1 4946   5.148   2.941   5.648
 1349SOL    HW2 4947   5.098   3.073   5.729
 1350SOL     OW 4948   5.416   4.991   5.805
 1350SOL    HW1 4949   5.409   5.086   5.837
 1350SOL    HW2 4950   5.506   4.977   5.764
 1351SOL     OW 4951   5.912   1.559   3.027
 1351SOL    HW1 4952   5.831   1.614   3.013
 1351SOL    HW2 4953   5.989   1.598   2.976
 1352SOL     OW 4954   6.833   5.750   3.903
 1352SOL    HW1 4955   6.781   5.667   3.922
 1352SOL    HW2 4956   6.887   5.737   3.819
 1353SOL     OW 4957   0.669   2.802   0.366
 1353SOL    HW1 4958   0.661   2.711   0.407
 1353SOL    HW2 4959   0.765   2.830   0.365
 1354SOL     OW 4960   0.779   3.371   1.560
 1354SOL    HW1 4961   0.812   3.451   1.509
 1354SOL    HW2 4962   0.849   3.342   1.625
 1355SOL     OW 4963   5.675   2.790   4.406
 1355SOL    HW1 4964   5.729   2.833   4.478
 1355SOL    HW2 4965   5.722   2.802   4.318
 1356SOL     OW 4966   3.602   3.576   2.124
 1356SOL    HW1 4967   3.619   3.671   2.152
 1356SOL    HW2 4968   3.670   3.550   2.055
 1357SOL     OW 4969   0.158   3.971   6.669
 1357SOL    HW1 4970   0.133   3.891   6.615
 1357SOL    HW2 4971   0.143   4.054   6.614
 1358SOL     OW 4972   4.341   6.606   5.926
 1358SOL    HW1 4973   4.422   6.555   5.956
 1358SOL    HW2 4974   4.326   6.590   5.829
 1359SOL     OW 4975   5.701   4.856   2.682
 1359SOL    HW1 4976   5.781   4.909   2.655
 1359SOL    HW2 4977   5.686   4.783   2.616
 1360SOL     OW 4978   2.733   3.182   0.356
 1360SOL    HW1 4979   2.771   3.259   0.408
 1360SOL    HW2 4980   2.667   3.133   0.413
 1361SOL     OW 4981   6.168   4.161   5.544
 1361SOL    HW1 4982   6.227   4.238   5.519
 1361SOL    HW2 4983   6.157   4.100   5.465
 1362SOL     OW 4984   3.544   3.903   3.992
 1362SOL    HW1 4985   3.627   3.914   3.938
 1362SOL    HW2 4986   3.568   3.878   4.085
 1363SOL     OW 4987   6.437   5.231   3.284
 1363SOL    HW1 4988   6.340   5.206   3.285
 1363SOL    HW2 4989   6.492   5.150   3.305
 1364SOL     OW 4990   5.564   4.463   1.216
 1364SOL    HW1 4991   5.500   4.512   1.276
 1364SOL    HW2 4992   5.622   4.530   1.169
 1365SOL     OW 4993   0.408   4.560   6.249
 1365SOL    HW1 4994   0.318   4.560   6.293
 1365SOL    HW2 4995   0.473   4.512   6.308
 1366SOL     OW 4996   1.527   5.547   0.100
 1366SOL    HW1 4997   1.505   5.612   0.028
 1366SOL    HW2 4998   1.612   5.574   0.145
 1367SOL     OW 4999   2.066   0.102   3.379
 1367SOL    HW1 5000   2.036   0.173   3.442
 1367SOL    HW2 5001   1.999   0.027   3.380
 1368SOL     OW 5002   5.931   0.448   4.059
 1368SOL    HW1 5003   5.924   0.440   3.959
 1368SOL    HW2 5004   5.919   0.358   4.100
 1369SOL     OW 5005   2.397   6.538   1.927
 1369SOL    HW1 5006   2.345   6.564   2.008
 1369SOL    HW2 5007   2.334   6.518   1.852
 1370SOL     OW 5008   3.539   0.689   1.316
 1370SOL    HW1 5009   3.562   0.679   1.413
 1370SOL    HW2 5010   3.598   0.630   1.261
 1371SOL     OW 5011   6.120   1.668   4.208
 1371SOL    HW1 5012   6.146   1.720   4.289
 1371SOL    HW2 5013   6.096   1.731   4.134
 1372SOL     OW 5014   1.336   3.138   0.117
 1372SOL    HW1 5015   1.359   3.099   0.028
 1372SOL    HW2 5016   1.419   3.173   0.161
 1373SOL     OW 5017   5.542   3.917   6.879
 1373SOL    HW1 5018   5.494   3.975   6.813
 1373SOL    HW2 5019   5.538   3.822   6.848
 1374SOL     OW 5020   4.518   2.491   0.179
 1374SOL    HW1 5021   4.446   2.425   0.200
 1374SOL    HW2 5022   4.603   2.463   0.223
 1375SOL     OW 5023   0.054   4.184   6.509
 1375SOL    HW1 5024   6.982   4.211   6.525
 1375SOL    HW2 5025   0.116   4.254   6.546
 1376SOL     OW 5026   4.934   3.898   4.180
 1376SOL    HW1 5027   4.886   3.811   4.185
 1376SOL    HW2 5028   5.033   3.882   4.183
 1377SOL     OW 5029   6.660   4.269   5.522
 1377SOL    HW1 5030   6.645   4.273   5.621
 1377SOL    HW2 5031   6.603   4.197   5.483
 1378SOL     OW 5032   6.613   1.098   4.889
 1378SOL    HW1 5033   6.621   1.027   4.819
 1378SOL    HW2 5034   6.607   1.056   4.979
 1379SOL     OW 5035   2.943   0.093   2.284
 1379SOL    HW1 5036   2.959   0.140   2.371
 1379SOL    HW2 5037   2.916   0.159   2.215
 1380SOL     OW 5038   0.380   0.181   2.444
 1380SOL    HW1 5039   0.357   0.278   2.433
 1380SOL    HW2 5040   0.472   0.172   2.481
 1381SOL     OW 5041   5.346   2.545   6.534
 1381SOL    HW1 5042   5.364   2.465   6.477
 1381SOL    HW2 5043   5.396   2.624   6.498
 1382SOL     OW 5044   4.808   4.630   0.615
 1382SOL    HW1 5045   4.749   4.703   0.581
 1382SOL    HW2 5046   4.838   4.573   0.539
 1383SOL     OW 5047   0.475   0.078   0.685
 1383SOL    HW1 5048   0.554   0.017   0.681
 1383SOL    HW2 5049   0.486   0.141   0.762
 1384SOL     OW 5050   3.823   1.144   2.335
 1384SOL    HW1 5051   3.917   1.144   2.369
 1384SOL    HW2 5052   3.770   1.212   2.385
 1385SOL     OW 5053   0.942   3.224   2.724
 1385SOL    HW1 5054   0.852   3.194   2.753
 1385SOL    HW2 5055   0.972   3.169   2.645
 1386SOL     OW 5056   2.267   1.218   4.491
 1386SOL    HW1 5057   2.261   1.179   4.399
 1386SOL    HW2 5058   2.288   1.146   4.557
 1387SOL     OW 5059   4.106   6.437   3.408
 1387SOL    HW1 5060   4.126   6.342   3.429
 1387SOL    HW2 5061   4.149   6.462   3.321
 1388SOL     OW 5062   0.533   6.430   3.537
 1388SOL    HW1 5063   0.447   6.417   3.490
 1388SOL    HW2 5064   0.516   6.457   3.632
 1389SOL     OW 5065   0.373   1.398   4.003
 1389SOL    HW1 5066   0.343   1.481   3.955
 1389SOL    HW2 5067   0.471   1.387   3.992
 1390SOL     OW 5068   4.547   1.965   6.283
 1390SOL    HW1 5069   4.623   1.965   6.348
 1390SOL    HW2 5070   4.477   2.029   6.314
 1391SOL     OW 5071   6.642   0.718   5.624
 1391SOL    HW1 5072   6.737   0.696   5.648
 1391SOL    HW2 5073   6.640   0.763   5.535
 1392SOL     OW 5074   5.567   5.359   6.023
 1392SOL    HW1 5075   5.559   5.299   5.943
 1392SOL    HW2 5076   5.531   5.311   6.104
 1393SOL     OW 5077   5.731   3.044   6.779
 1393SOL    HW1 5078   5.760   3.111   6.847
 1393SOL    HW2 5079   5.698   3.091   6.697
 1394SOL     OW 5080   3.602   0.273   3.647
 1394SOL    HW1 5081   3.697   0.253   3.621
 1394SOL    HW2 5082   3.591   0.261   3.746
 1395SOL     OW 5083   1.407   3.950   2.884
 1395SOL    HW1 5084   1.457   3.888   2.944
 1395SOL    HW2 5085   1.471   4.012   2.838
 1396SOL     OW 5086   1.750   6.876   3.920
 1396SOL    HW1 5087   1.712   6.961   3.956
 1396SOL    HW2 5088   1.680   6.805   3.923
 1397SOL     OW 5089   0.727   6.548   4.677
 1397SOL    HW1 5090   0.780   6.468   4.705
 1397SOL    HW2 5091   0.657   6.567   4.746
 1398SOL     OW 5092   0.611   1.710   0.317
 1398SOL    HW1 5093   0.566   1.625   0.347
 1398SOL    HW2 5094   0.651   1.756   0.396
 1399SOL     OW 5095   4.532   0.408   0.686
 1399SOL    HW1 5096   4.443   0.373   0.717
 1399SOL    HW2 5097   4.601   0.336   0.696
 1400SOL     OW 5098   6.185   0.962   4.191
 1400SOL    HW1 5099   6.095   0.972   4.234
 1400SOL    HW2 5100   6.242   1.041   4.215
 1401SOL     OW 5101   6.190   6.675   4.559
 1401SOL    HW1 5102   6.157   6.594   4.607
 1401SOL    HW2 5103   6.289   6.680   4.566
 1402SOL     OW 5104   5.457   4.239   0.108
 1402SOL    HW1 5105   5.438   4.275   0.199
 1402SOL    HW2 5106   5.492   4.312   0.049
 1403SOL     OW 5107   2.270   2.764   0.475
 1403SOL    HW1 5108   2.356   2.731   0.437
 1403SOL    HW2 5109   2.272   2.753   0.575
 1404SOL     OW 5110   4.715   0.197   0.705
 1404SOL    HW1 5111   4.698   0.161   0.613
 1404SOL    HW2 5112   4.731   0.121   0.768
 1405SOL     OW 5113   2.426   3.701   0.343
 1405SOL    HW1 5114   2.496   3.632   0.362
 1405SOL    HW2 5115   2.341   3.677   0.391
 1406SOL     OW 5116   2.301   4.804   1.127
 1406SOL    HW1 5117   2.367   4.749   1.177
 1406SOL    HW2 5118   2.246   4.858   1.191
 1407SOL     OW 5119   1.588   3.684   3.188
 1407SOL    HW1 5120   1.654   3.665   3.260
 1407SOL    HW2 5121   1.574   3.601   3.134
 1408SOL     OW 5122   5.121   6.343   6.527
 1408SOL    HW1 5123   5.179   6.423   6.542
 1408SOL    HW2 5124   5.101   6.335   6.429
 1409SOL     OW 5125   0.003   0.810   5.429
 1409SOL    HW1 5126   6.964   0.801   5.351
 1409SOL    HW2 5127   0.064   0.730   5.432
 1410SOL     OW 5128   3.225   4.002   6.854
 1410SOL    HW1 5129   3.197   4.095   6.833
 1410SOL    HW2 5130   3.324   4.000   6.871
 1411SOL     OW 5131   3.697   6.106   6.165
 1411SOL    HW1 5132   3.612   6.158   6.175
 1411SOL    HW2 5133   3.748   6.111   6.250
 1412SOL     OW 5134   0.777   4.563   1.525
 1412SOL    HW1 5135   0.833   4.636   1.565
 1412SOL    HW2 5136   0.770   4.487   1.590
 1413SOL     OW 5137   1.718   2.070   4.421
 1413SOL    HW1 5138   1.760   2.154   4.456
 1413SOL    HW2 5139   1.754   1.992   4.472
 1414SOL     OW 5140   1.590   2.790   1.443
 1414SOL    HW1 5141   1.515   2.838   1.489
 1414SOL    HW2 5142   1.603   2.700   1.485
 1415SOL     OW 5143   3.011   2.123   4.498
 1415SOL    HW1 5144   3.036   2.120   4.595
 1415SOL    HW2 5145   2.932   2.182   4.487
 1416SOL     OW 5146   4.384   0.083   4.657
 1416SOL    HW1 5147   4.437   0.166   4.678
 1416SOL    HW2 5148   4.446   0.011   4.625
 1417SOL     OW 5149   3.297   2.740   6.342
 1417SOL    HW1 5150   3.365   2.812   6.357
 1417SOL    HW2 5151   3.208   2.769   6.376
 1418SOL     OW 5152   3.055   3.715   0.310
 1418SOL    HW1 5153   3.071   3.620   0.286
 1418SOL    HW2 5154   3.126   3.745   0.374
 1419SOL     OW 5155   1.827   5.288   3.979
 1419SOL    HW1 5156   1.823   5.342   4.063
 1419SOL    HW2 5157   1.734   5.270   3.946
 1420SOL     OW 5158   4.185   5.736   2.953
 1420SOL    HW1 5159   4.222   5.648   2.925
 1420SOL    HW2 5160   4.248   5.780   3.017
 1421SOL     OW 5161   1.169   4.603   4.225
 1421SOL    HW1 5162   1.264   4.586   4.199
 1421SOL    HW2 5163   1.149   4.701   4.217
 1422SOL     OW 5164   2.795   4.339   5.621
 1422SOL    HW1 5165   2.842   4.353   5.533
 1422SOL    HW2 5166   2.697   4.332   5.605
 1423SOL     OW 5167   4.128   1.862   4.829
 1423SOL    HW1 5168   4.108   1.934   4.896
 1423SOL    HW2 5169   4.056   1.793   4.833
 1424SOL     OW 5170   6.080   3.532   6.830
 1424SOL    HW1 5171   6.087   3.609   6.765
 1424SOL    HW2 5172   6.099   3.565   6.922
 1425SOL     OW 5173   2.491   6.228   4.704
 1425SOL    HW1 5174   2.517   6.266   4.793
 1425SOL    HW2 5175   2.571   6.221   4.646
 1426SOL     OW 5176   1.707   2.087   6.007
 1426SOL    HW1 5177   1.804   2.112   6.016
 1426SOL    HW2 5178   1.686   2.070   5.910
 1427SOL     OW 5179   0.484   0.793   3.745
 1427SOL    HW1 5180   0.577   0.762   3.728
 1427SOL    HW2 5181   0.456   0.857   3.673
 1428SOL     OW 5182   6.963   2.300   1.583
 1428SOL    HW1 5183   6.894   2.255   1.526
 1428SOL    HW2 5184   6.937   2.395   1.598
 1429SOL     OW 5185   5.621   1.816   0.116
 1429SOL    HW1 5186   5.630   1.904   0.071
 1429SOL    HW2 5187   5.643   1.743   0.052
 1430SOL     OW 5188   2.112   3.762   4.500
 1430SOL    HW1 5189   2.125   3.686   4.436
 1430SOL    HW2 5190   2.133   3.848   4.454
 1431SOL     OW 5191   2.708   2.487   6.017
 1431SOL    HW1 5192   2.690   2.576   5.975
 1431SOL    HW2 5193   2.758   2.499   6.103
 1432SOL     OW 5194   1.952   1.279   1.609
 1432SOL    HW1 5195   1.983   1.273   1.514
 1432SOL    HW2 5196   1.859   1.243   1.616
 1433SOL     OW 5197   3.222   6.845   3.786
 1433SOL    HW1 5198   3.138   6.882   3.745
 1433SOL    HW2 5199   3.301   6.885   3.741
 1434SOL     OW 5200   6.484   1.846   6.536
 1434SOL    HW1 5201   6.559   1.796   6.492
 1434SOL    HW2 5202   6.503   1.944   6.534
 1435SOL     OW 5203   0.169   0.677   4.043
 1435SOL    HW1 5204   0.075   0.642   4.042
 1435SOL    HW2 5205   0.168   0.771   4.077
 1436SOL     OW 5206   5.790   3.157   0.300
 1436SOL    HW1 5207   5.695   3.134   0.322
 1436SOL    HW2 5208   5.816   3.241   0.348
 1437SOL     OW 5209   3.605   1.206   5.034
 1437SOL    HW1 5210   3.665   1.278   4.999
 1437SOL    HW2 5211   3.532   1.189   4.967
 1438SOL     OW 5212   2.949   1.087   1.455
 1438SOL    HW1 5213   2.892   1.007   1.470
 1438SOL    HW2 5214   3.020   1.092   1.526
 1439SOL     OW 5215   0.831   5.388   0.832
 1439SOL    HW1 5216   0.920   5.386   0.787
 1439SOL    HW2 5217   0.792   5.480   0.825
 1440SOL     OW 5218   3.586   3.218   4.866
 1440SOL    HW1 5219   3.523   3.276   4.917
 1440SOL    HW2 5220   3.583   3.125   4.903
 1441SOL     OW 5221   6.148   3.063   3.765
 1441SOL    HW1 5222   6.127   2.971   3.798
 1441SOL    HW2 5223   6.207   3.110   3.830
 1442SOL     OW 5224   5.978   4.511   0.556
 1442SOL    HW1 5225   5.996   4.475   0.464
 1442SOL    HW2 5226   6.055   4.568   0.585
 1443SOL     OW 5227   1.114   1.544   4.114
 1443SOL    HW1 5228   1.066   1.593   4.187
 1443SOL    HW2 5229   1.199   1.591   4.092
 1444SOL     OW 5230   4.724   6.163   1.691
 1444SOL    HW1 5231   4.670   6.152   1.775
 1444SOL    HW2 5232   4.675   6.223   1.628
 1445SOL     OW 5233   0.350   2.860   2.007
 1445SOL    HW1 5234   0.260   2.853   2.050
 1445SOL    HW2 5235   0.389   2.950   2.024
 1446SOL     OW 5236   5.317   2.998   0.168
 1446SOL    HW1 5237   5.322   2.932   0.244
 1446SOL    HW2 5238   5.402   2.993   0.115
 1447SOL     OW 5239   6.394   0.159   4.968
 1447SOL    HW1 5240   6.347   0.213   4.898
 1447SOL    HW2 5241   6.469   0.107   4.927
 1448SOL     OW 5242   5.583   1.456   0.319
 1448SOL    HW1 5243   5.577   1.449   0.419
 1448SOL    HW2 5244   5.491   1.461   0.280
 1449SOL     OW 5245   6.285   6.722   0.077
 1449SOL    HW1 5246   6.384   6.724   0.070
 1449SOL    HW2 5247   6.250   6.815   0.093
 1450SOL     OW 5248   0.048   2.217   2.363
 1450SOL    HW1 5249   0.131   2.271   2.358
 1450SOL    HW2 5250   7.002   2.265   2.417
 1451SOL     OW 5251   2.991   0.943   2.655
 1451SOL    HW1 5252   3.089   0.962   2.648
 1451SOL    HW2 5253   2.943   0.987   2.579
 1452SOL     OW 5254   5.408   1.951   4.501
 1452SOL    HW1 5255   5.482   1.902   4.547
 1452SOL    HW2 5256   5.330   1.959   4.563
 1453SOL     OW 5257   6.235   3.689   5.186
 1453SOL    HW1 5258   6.165   3.746   5.143
 1453SOL    HW2 5259   6.192   3.612   5.232
 1454SOL     OW 5260   6.231   3.135   2.313
 1454SOL    HW1 5261   6.242   3.224   2.269
 1454SOL    HW2 5262   6.137   3.103   2.301
 1455SOL     OW 5263   1.631   0.216   1.912
 1455SOL    HW1 5264   1.645   0.203   2.010
 1455SOL    HW2 5265   1.540   0.183   1.886
 1456SOL     OW 5266   6.969   6.483   5.560
 1456SOL    HW1 5267   0.012   6.492   5.634
 1456SOL    HW2 5268   6.898   6.417   5.587
 1457SOL     OW 5269   1.861   0.354   1.491
 1457SOL    HW1 5270   1.958   0.376   1.479
 1457SOL    HW2 5271   1.850   0.291   1.568
 1458SOL     OW 5272   5.191   6.277   4.244
 1458SOL    HW1 5273   5.276   6.255   4.290
 1458SOL    HW2 5274   5.203   6.263   4.145
 1459SOL     OW 5275   2.732   4.398   6.702
 1459SOL    HW1 5276   2.654   4.427   6.647
 1459SOL    HW2 5277   2.736   4.298   6.703
 1460SOL     OW 5278   0.027   5.475   5.836
 1460SOL    HW1 5279   0.027   5.481   5.935
 1460SOL    HW2 5280   7.006   5.389   5.808
 1461SOL     OW 5281   0.249   4.505   3.268
 1461SOL    HW1 5282   0.256   4.596   3.309
 1461SOL    HW2 5283   0.221   4.514   3.172
 1462SOL     OW 5284   5.954   1.772   6.627
 1462SOL    HW1 5285   6.021   1.737   6.693
 1462SOL    HW2 5286   5.934   1.701   6.560
 1463SOL     OW 5287   6.872   6.207   6.122
 1463SOL    HW1 5288   6.863   6.287   6.181
 1463SOL    HW2 5289   6.852   6.125   6.174
 1464SOL     OW 5290   6.815   6.965   1.002
 1464SOL    HW1 5291   6.832   7.019   0.920
 1464SOL    HW2 5292   6.868   7.001   1.078
 1465SOL     OW 5293   1.307   1.149   2.885
 1465SOL    HW1 5294   1.232   1.179   2.826
 1465SOL    HW2 5295   1.394   1.177   2.845
 1466SOL     OW 5296   0.950   0.157   2.689
 1466SOL    HW1 5297   0.915   0.251   2.698
 1466SOL    HW2 5298   0.924   0.104   2.769
 1467SOL     OW 5299   2.163   0.294   2.133
 1467SOL    HW1 5300   2.160   0.267   2.037
 1467SOL    HW2 5301   2.252   0.335   2.153
 1468SOL     OW 5302   5.795   6.026   2.754
 1468SOL    HW1 5303   5.709   5.991   2.790
 1468SOL    HW2 5304   5.796   6.126   2.759
 1469SOL     OW 5305   0.591   0.555   3.108
 1469SOL    HW1 5306   0.530   0.631   3.129
 1469SOL    HW2 5307   0.685   0.588   3.099
 1470SOL     OW 5308   1.084   0.744   2.624
 1470SOL    HW1 5309   1.114   0.670   2.563
 1470SOL    HW2 5310   1.055   0.822   2.569
 1471SOL     OW 5311   0.750   0.887   7.000
 1471SOL    HW1 5312   0.835   0.839   6.977
 1471SOL    HW2 5313   0.691   0.890   6.920
 1472SOL     OW 5314   4.191   5.228   4.809
 1472SOL    HW1 5315   4.143   5.140   4.804
 1472SOL    HW2 5316   4.290   5.212   4.811
 1473SOL     OW 5317   5.825   6.549   3.715
 1473SOL    HW1 5318   5.865   6.632   3.753
 1473SOL    HW2 5319   5.896   6.480   3.704
 1474SOL     OW 5320   6.638   6.198   3.852
 1474SOL    HW1 5321   6.671   6.275   3.796
 1474SOL    HW2 5322   6.546   6.218   3.885
 1475SOL     OW 5323   6.996   0.489   1.270
 1475SOL    HW1 5324   0.002   0.414   1.330
 1475SOL    HW2 5325   0.004   0.470   1.176
 1476SOL     OW 5326   1.391   1.247   1.447
 1476SOL    HW1 5327   1.474   1.223   1.397
 1476SOL    HW2 5328   1.345   1.164   1.478
 1477SOL     OW 5329   2.491   0.493   6.356
 1477SOL    HW1 5330   2.524   0.474   6.449
 1477SOL    HW2 5331   2.554   0.453   6.290
 1478SOL     OW 5332   5.545   4.008   0.792
 1478SOL    HW1 5333   5.478   3.986   0.721
 1478SOL    HW2 5334   5.497   4.039   0.874
 1479SOL     OW 5335   1.414   3.780   6.764
 1479SOL    HW1 5336   1.374   3.853   6.709
 1479SOL    HW2 5337   1.421   3.810   6.859
 1480SOL     OW 5338   2.420   0.302   0.102
 1480SOL    HW1 5339   2.322   0.301   0.124
 1480SOL    HW2 5340   2.439   0.378   0.040
 1481SOL     OW 5341   6.511   1.621   4.541
 1481SOL    HW1 5342   6.523   1.680   4.462
 1481SOL    HW2 5343   6.600   1.600   4.581
 1482SOL     OW 5344   5.309   1.835   0.923
 1482SOL    HW1 5345   5.233   1.797   0.870
 1482SOL    HW2 5346   5.395   1.817   0.876
 1483SOL     OW 5347   0.269   2.948   6.189
 1483SOL    HW1 5348   0.303   2.924   6.098
 1483SOL    HW2 5349   0.173   2.919   6.197
 1484SOL     OW 5350   6.426   4.245   4.028
 1484SOL    HW1 5351   6.438   4.174   3.959
 1484SOL    HW2 5352   6.475   4.327   4.000
 1485SOL     OW 5353   4.761   1.909   3.139
 1485SOL    HW1 5354   4.754   1.974   3.215
 1485SOL    HW2 5355   4.782   1.958   3.054
 1486SOL     OW 5356   4.737   2.616   3.156
 1486SOL    HW1 5357   4.732   2.701   3.208
 1486SOL    HW2 5358   4.784   2.546   3.211
 1487SOL     OW 5359   5.617   2.297   6.899
 1487SOL    HW1 5360   5.557   2.350   6.839
 1487SOL    HW2 5361   5.709   2.292   6.858
 1488SOL     OW 5362   6.253   2.012   2.674
 1488SOL    HW1 5363   6.317   1.946   2.713
 1488SOL    HW2 5364   6.185   1.964   2.619
 1489SOL     OW 5365   3.753   5.042   4.739
 1489SOL    HW1 5366   3.720   5.030   4.645
 1489SOL    HW2 5367   3.703   4.980   4.800
 1490SOL     OW 5368   1.433   2.868   1.039
 1490SOL    HW1 5369   1.481   2.936   1.093
 1490SOL    HW2 5370   1.371   2.815   1.098
 1491SOL     OW 5371   6.752   3.739   3.468
 1491SOL    HW1 5372   6.825   3.671   3.473
 1491SOL    HW2 5373   6.791   3.831   3.472
 1492SOL     OW 5374   5.767   1.723   1.684
 1492SOL    HW1 5375   5.719   1.635   1.683
 1492SOL    HW2 5376   5.706   1.794   1.720
 1493SOL     OW 5377   5.107   0.809   4.971
 1493SOL    HW1 5378   5.196   0.821   5.015
 1493SOL    HW2 5379   5.049   0.753   5.030
 1494SOL     OW 5380   4.584   2.354   6.156
 1494SOL    HW1 5381   4.485   2.363   6.148
 1494SOL    HW2 5382   4.626   2.366   6.065
 1495SOL     OW 5383   0.951   3.264   3.431
 1495SOL    HW1 5384   0.895   3.336   3.390
 1495SOL    HW2 5385   0.942   3.180   3.377
 1496SOL     OW 5386   0.998   0.829   2.007
 1496SOL    HW1 5387   0.919   0.869   2.054
 1496SOL    HW2 5388   1.005   0.866   1.915
 1497SOL     OW 5389   0.357   4.286   2.831
 1497SOL    HW1 5390   0.294   4.210   2.846
 1497SOL    HW2 5391   0.321   4.345   2.759
 1498SOL     OW 5392   1.329   4.818   6.343
 1498SOL    HW1 5393   1.284   4.795   6.429
 1498SOL    HW2 5394   1.415   4.767   6.335
 1499SOL     OW 5395   1.069   3.624   5.259
 1499SOL    HW1 5396   1.020   3.553   5.208
 1499SOL    HW2 5397   1.049   3.614   5.357
 1500SOL     OW 5398   5.482   6.708   6.965
 1500SOL    HW1 5399   5.436   6.622   6.943
 1500SOL    HW2 5400   5.569   6.713   6.916
 1501SOL     OW 5401   4.148   0.946   6.336
 1501SOL    HW1 5402   4.059   0.983   6.364
 1501SOL    HW2 5403   4.162   0.964   6.239
 1502SOL     OW 5404   6.008   6.637   1.189
 1502SOL    HW1 5405   6.045   6.664   1.278
 1502SOL    HW2 5406   6.004   6.537   1.184
 1503SOL     OW 5407   2.862   1.958   1.441
 1503SOL    HW1 5408   2.772   1.922   1.468
 1503SOL    HW2 5409   2.859   2.058   1.442
 1504SOL     OW 5410   1.897   0.664   5.101
 1504SOL    HW1 5411   1.904   0.703   5.009
 1504SOL    HW2 5412   1.982   0.681   5.151
 1505SOL     OW 5413   5.590   0.604   6.598
 1505SOL    HW1 5414   5.509   0.648   6.637
 1505SOL    HW2 5415   5.664   0.604   6.666
 1506SOL     OW 5416   1.938   5.558   2.478
 1506SOL    HW1 5417   1.939   5.599   2.569
 1506SOL    HW2 5418   1.845   5.561   2.442
 1507SOL     OW 5419   1.824   2.114   5.206
 1507SOL    HW1 5420   1.909   2.127   5.155
 1507SOL    HW2 5421   1.747   2.123   5.144
 1508SOL     OW 5422   5.715   0.512   0.780
 1508SOL    HW1 5423   5.625   0.471   0.763
 1508SOL    HW2 5424   5.774   0.496   0.701
 1509SOL     OW 5425   4.080   2.254   6.028
 1509SOL    HW1 5426   3.993   2.214   5.998
 1509SOL    HW2 5427   4.064   2.348   6.060
 1510SOL     OW 5428   6.052   2.151   3.460
 1510SOL    HW1 5429   6.017   2.063   3.493
 1510SOL    HW2 5430   6.144   2.138   3.423
 1511SOL     OW 5431   2.508   2.740   0.317
 1511SOL    HW1 5432   2.527   2.659   0.262
 1511SOL    HW2 5433   2.506   2.821   0.258
 1512SOL     OW 5434   0.302   6.778   1.873
 1512SOL    HW1 5435   0.373   6.832   1.919
 1512SOL    HW2 5436   0.286   6.815   1.781
 1513SOL     OW 5437   4.573   0.296   3.930
 1513SOL    HW1 5438   4.659   0.277   3.882
 1513SOL    HW2 5439   4.548   0.392   3.916
 1514SOL     OW 5440   5.554   2.359   4.585
 1514SOL    HW1 5441   5.514   2.450   4.575
 1514SOL    HW2 5442   5.585   2.326   4.496
 1515SOL     OW 5443   6.878   3.478   6.090
 1515SOL    HW1 5444   6.934   3.534   6.150
 1515SOL    HW2 5445   6.935   3.409   6.045
 1516SOL     OW 5446   0.356   0.436   0.644
 1516SOL    HW1 5447   0.447   0.459   0.678
 1516SOL    HW2 5448   0.321   0.355   0.692
 1517SOL     OW 5449   4.676   5.778   3.477
 1517SOL    HW1 5450   4.581   5.808   3.484
 1517SOL    HW2 5451   4.724   5.794   3.564
 1518SOL     OW 5452   0.039   2.972   0.042
 1518SOL    HW1 5453   6.974   2.973   7.018
 1518SOL    HW2 5454   0.047   3.054   0.099
 1519SOL     OW 5455   7.014   4.687   2.170
 1519SOL    HW1 5456   7.016   4.756   2.242
 1519SOL    HW2 5457   6.982   4.600   2.208
 1520SOL     OW 5458   1.552   3.468   2.379
 1520SOL    HW1 5459   1.452   3.461   2.383
 1520SOL    HW2 5460   1.594   3.388   2.422
 1521SOL     OW 5461   2.015   3.308   6.734
 1521SOL    HW1 5462   2.005   3.233   6.669
 1521SOL    HW2 5463   1.953   3.293   6.812
 1522SOL     OW 5464   6.570   1.847   5.425
 1522SOL    HW1 5465   6.605   1.913   5.493
 1522SOL    HW2 5466   6.647   1.813   5.371
 1523SOL     OW 5467   5.128   4.019   6.568
 1523SOL    HW1 5468   5.151   4.007   6.664
 1523SOL    HW2 5469   5.029   4.033   6.559
 1524SOL     OW 5470   0.834   1.859   1.637
 1524SOL    HW1 5471   0.903   1.870   1.565
 1524SOL    HW2 5472   0.762   1.798   1.605
 1525SOL     OW 5473   5.198   2.836   6.939
 1525SOL    HW1 5474   5.207   2.936   6.936
 1525SOL    HW2 5475   5.288   2.795   6.922
 1526SOL     OW 5476   1.005   1.820   0.739
 1526SOL    HW1 5477   0.911   1.843   0.764
 1526SOL    HW2 5478   1.006   1.774   0.650
 1527SOL     OW 5479   3.975   0.717   5.276
 1527SOL    HW1 5480   3.967   0.726   5.375
 1527SOL    HW2 5481   4.070   0.729   5.249
 1528SOL     OW 5482   5.305   6.085   3.029
 1528SOL    HW1 5483   5.286   6.018   2.957
 1528SOL    HW2 5484   5.402   6.079   3.055
 1529SOL     OW 5485   3.703   1.432   7.001
 1529SOL    HW1 5486   3.610   1.399   7.015
 1529SOL    HW2 5487   3.740   1.393   6.916
 1530SOL     OW 5488   2.990   0.621   1.544
 1530SOL    HW1 5489   2.993   0.678   1.626
 1530SOL    HW2 5490   3.043   0.537   1.560
 1531SOL     OW 5491   6.258   1.225   5.050
 1531SOL    HW1 5492   6.162   1.195   5.054
 1531SOL    HW2 5493   6.287   1.256   5.140
 1532SOL     OW 5494   2.594   2.316   5.357
 1532SOL    HW1 5495   2.561   2.400   5.400
 1532SOL    HW2 5496   2.528   2.284   5.289
 1533SOL     OW 5497   0.036   3.265   6.458
 1533SOL    HW1 5498   6.973   3.307   6.429
 1533SOL    HW2 5499   0.074   3.211   6.383
 1534SOL     OW 5500   1.608   5.060   0.099
 1534SOL    HW1 5501   1.695   5.070   0.051
 1534SOL    HW2 5502   1.595   5.138   0.160
 1535SOL     OW 5503   5.518   5.891   4.216
 1535SOL    HW1 5504   5.429   5.914   4.255
 1535SOL    HW2 5505   5.515   5.798   4.179
 1536SOL     OW 5506   3.360   4.725   5.251
 1536SOL    HW1 5507   3.289   4.776   5.300
 1536SOL    HW2 5508   3.330   4.708   5.157
 1537SOL     OW 5509   4.360   5.876   3.217
 1537SOL    HW1 5510   4.350   5.872   3.317
 1537SOL    HW2 5511   4.307   5.952   3.181
 1538SOL     OW 5512   3.200   5.173   5.371
 1538SOL    HW1 5513   3.200   5.200   5.275
 1538SOL    HW2 5514   3.274   5.220   5.419
 1539SOL     OW 5515   3.951   4.392   1.464
 1539SOL    HW1 5516   3.866   4.407   1.515
 1539SOL    HW2 5517   3.935   4.407   1.367
 1540SOL     OW 5518   0.901   0.191   5.522
 1540SOL    HW1 5519   0.956   0.112   5.495
 1540SOL    HW2 5520   0.811   0.159   5.555
 1541SOL     OW 5521   3.226   2.736   1.443
 1541SOL    HW1 5522   3.189   2.658   1.392
 1541SOL    HW2 5523   3.249   2.707   1.536
 1542SOL     OW 5524   6.688   5.779   1.442
 1542SOL    HW1 5525   6.671   5.876   1.425
 1542SOL    HW2 5526   6.653   5.756   1.533
 1543SOL     OW 5527   3.193   2.967   3.959
 1543SOL    HW1 5528   3.250   2.947   4.038
 1543SOL    HW2 5529   3.120   3.030   3.986
 1544SOL     OW 5530   3.129   3.907   2.596
 1544SOL    HW1 5531   3.175   3.992   2.570
 1544SOL    HW2 5532   3.073   3.874   2.520
 1545SOL     OW 5533   5.772   0.967   5.406
 1545SOL    HW1 5534   5.782   0.946   5.309
 1545SOL    HW2 5535   5.695   0.916   5.444
 1546SOL     OW 5536   4.929   6.917   5.947
 1546SOL    HW1 5537   5.026   6.910   5.925
 1546SOL    HW2 5538   4.878   6.846   5.900
 1547SOL     OW 5539   2.218   4.112   2.499
 1547SOL    HW1 5540   2.274   4.043   2.452
 1547SOL    HW2 5541   2.213   4.089   2.596
 1548SOL     OW 5542   4.718   3.831   5.649
 1548SOL    HW1 5543   4.776   3.788   5.718
 1548SOL    HW2 5544   4.738   3.792   5.560
 1549SOL     OW 5545   5.425   1.173   2.052
 1549SOL    HW1 5546   5.417   1.166   1.952
 1549SOL    HW2 5547   5.392   1.088   2.094
 1550SOL     OW 5548   3.014   6.778   6.034
 1550SOL    HW1 5549   2.992   6.731   5.948
 1550SOL    HW2 5550   2.957   6.741   6.107
 1551SOL     OW 5551   1.999   3.277   0.778
 1551SOL    HW1 5552   1.994   3.179   0.795
 1551SOL    HW2 5553   1.906   3.314   0.769
 1552SOL     OW 5554   0.944   6.898   1.534
 1552SOL    HW1 5555   0.990   6.820   1.493
 1552SOL    HW2 5556   1.005   6.943   1.599
 1553SOL     OW 5557   6.560   2.117   6.771
 1553SOL    HW1 5558   6.534   2.208   6.803
 1553SOL    HW2 5559   6.569   2.117   6.672
 1554SOL     OW 5560   3.353   2.005   2.617
 1554SOL    HW1 5561   3.388   1.914   2.595
 1554SOL    HW2 5562   3.289   2.035   2.546
 1555SOL     OW 5563   4.225   2.560   6.012
 1555SOL    HW1 5564   4.282   2.522   5.939
 1555SOL    HW2 5565   4.258   2.527   6.101
 1556SOL     OW 5566   4.130   1.025   0.436
 1556SOL    HW1 5567   4.166   0.949   0.382
 1556SOL    HW2 5568   4.051   0.993   0.489
 1557SOL     OW 5569   2.771   1.840   0.488
 1557SOL    HW1 5570   2.793   1.889   0.404
 1557SOL    HW2 5571   2.853   1.834   0.545
 1558SOL     OW 5572   6.065   1.792   4.583
 1558SOL    HW1 5573   6.095   1.698   4.600
 1558SOL    HW2 5574   6.143   1.848   4.557
 1559SOL     OW 5575   0.291   2.612   1.346
 1559SOL    HW1 5576   0.375   2.585   1.391
 1559SOL    HW2 5577   0.301   2.600   1.247
 1560SOL     OW 5578   2.862   1.112   6.795
 1560SOL    HW1 5579   2.780   1.062   6.824
 1560SOL    HW2 5580   2.934   1.101   6.864
 1561SOL     OW 5581   4.967   5.409   3.644
 1561SOL    HW1 5582   4.962   5.391   3.546
 1561SOL    HW2 5583   5.007   5.329   3.690
 1562SOL     OW 5584   4.032   6.537   1.963
 1562SOL    HW1 5585   3.999   6.542   2.058
 1562SOL    HW2 5586   4.044   6.629   1.927
 1563SOL     OW 5587   2.263   1.755   5.563
 1563SOL    HW1 5588   2.335   1.755   5.494
 1563SOL    HW2 5589   2.257   1.845   5.606
 1564SOL     OW 5590   1.633   2.262   2.457
 1564SOL    HW1 5591   1.689   2.278   2.539
 1564SOL    HW2 5592   1.640   2.166   2.430
 1565SOL     OW 5593   4.020   5.025   4.802
 1565SOL    HW1 5594   4.039   4.946   4.861
 1565SOL    HW2 5595   3.922   5.029   4.783
 1566SOL     OW 5596   6.088   5.183   4.652
 1566SOL    HW1 5597   6.088   5.170   4.752
 1566SOL    HW2 5598   6.182   5.191   4.620
 1567SOL     OW 5599   6.257   5.038   6.982
 1567SOL    HW1 5600   6.350   5.020   6.952
 1567SOL    HW2 5601   6.235   4.979   0.036
 1568SOL     OW 5602   2.816   6.376   2.712
 1568SOL    HW1 5603   2.744   6.331   2.660
 1568SOL    HW2 5604   2.834   6.324   2.795
 1569SOL     OW 5605   3.901   6.688   3.163
 1569SOL    HW1 5606   3.952   6.692   3.249
 1569SOL    HW2 5607   3.835   6.764   3.160
 1570SOL     OW 5608   1.603   6.698   6.621
 1570SOL    HW1 5609   1.670   6.695   6.695
 1570SOL    HW2 5610   1.518   6.656   6.651
 1571SOL     OW 5611   0.597   2.648   3.267
 1571SOL    HW1 5612   0.501   2.658   3.294
 1571SOL    HW2 5613   0.619   2.551   3.259
 1572SOL     OW 5614   1.981   5.279   2.646
 1572SOL    HW1 5615   1.904   5.314   2.593
 1572SOL    HW2 5616   1.986   5.180   2.636
 1573SOL     OW 5617   5.577   5.228   2.181
 1573SOL    HW1 5618   5.628   5.267   2.258
 1573SOL    HW2 5619   5.614   5.263   2.095
 1574SOL     OW 5620   6.570   2.782   2.677
 1574SOL    HW1 5621   6.599   2.736   2.761
 1574SOL    HW2 5622   6.617   2.869   2.669
 1575SOL     OW 5623   2.649   0.809   1.636
 1575SOL    HW1 5624   2.614   0.900   1.659
 1575SOL    HW2 5625   2.735   0.818   1.586
 1576SOL     OW 5626   1.077   6.852   3.348
 1576SOL    HW1 5627   1.078   6.841   3.448
 1576SOL    HW2 5628   1.034   6.772   3.307
 1577SOL     OW 5629   2.326   0.672   5.932
 1577SOL    HW1 5630   2.241   0.688   5.982
 1577SOL    HW2 5631   2.365   0.585   5.960
 1578SOL     OW 5632   5.043   1.179   5.907
 1578SOL    HW1 5633   4.962   1.177   5.964
 1578SOL    HW2 5634   5.045   1.098   5.849
 1579SOL     OW 5635   6.445   2.020   1.513
 1579SOL    HW1 5636   6.496   1.998   1.596
 1579SOL    HW2 5637   6.420   1.936   1.466
 1580SOL     OW 5638   3.582   4.138   3.391
 1580SOL    HW1 5639   3.614   4.147   3.486
 1580SOL    HW2 5640   3.642   4.073   3.342
 1581SOL     OW 5641   0.113   4.406   5.647
 1581SOL    HW1 5642   0.076   4.436   5.559
 1581SOL    HW2 5643   0.180   4.334   5.632
 1582SOL     OW 5644   3.684   6.361   4.731
 1582SOL    HW1 5645   3.740   6.419   4.791
 1582SOL    HW2 5646   3.711   6.376   4.636
 1583SOL     OW 5647   1.147   5.806   4.081
 1583SOL    HW1 5648   1.196   5.818   3.995
 1583SOL    HW2 5649   1.163   5.713   4.116
 1584SOL     OW 5650   1.244   5.343   6.352
 1584SOL    HW1 5651   1.176   5.412   6.325
 1584SOL    HW2 5652   1.227   5.259   6.301
 1585SOL     OW 5653   4.435   1.772   2.857
 1585SOL    HW1 5654   4.352   1.720   2.838
 1585SOL    HW2 5655   4.416   1.839   2.929
 1586SOL     OW 5656   3.520   5.199   2.970
 1586SOL    HW1 5657   3.478   5.115   2.937
 1586SOL    HW2 5658   3.619   5.193   2.961
 1587SOL     OW 5659   2.209   4.942   5.448
 1587SOL    HW1 5660   2.135   4.876   5.434
 1587SOL    HW2 5661   2.241   4.976   5.360
 1588SOL     OW 5662   4.488   0.738   2.060
 1588SOL    HW1 5663   4.519   0.793   2.138
 1588SOL    HW2 5664   4.547   0.658   2.050
 1589SOL     OW 5665   0.271   3.444   2.236
 1589SOL    HW1 5666   0.310   3.498   2.311
 1589SOL    HW2 5667   0.198   3.386   2.272
 1590SOL     OW 5668   5.362   0.705   3.953
 1590SOL    HW1 5669   5.332   0.709   4.049
 1590SOL    HW2 5670   5.459   0.678   3.950
 1591SOL     OW 5671   6.863   6.180   0.942
 1591SOL    HW1 5672   6.889   6.132   0.859
 1591SOL    HW2 5673   6.839   6.275   0.920
 1592SOL     OW 5674   1.883   3.579   6.700
 1592SOL    HW1 5675   1.874   3.523   6.618
 1592SOL    HW2 5676   1.942   3.532   6.766
 1593SOL     OW 5677   0.912   0.030   5.952
 1593SOL    HW1 5678   0.849   7.003   5.893
 1593SOL    HW2 5679   0.935   0.118   5.910
 1594SOL     OW 5680   0.261   6.355   2.150
 1594SOL    HW1 5681   0.350   6.391   2.179
 1594SOL    HW2 5682   0.270   6.313   2.060
 1595SOL     OW 5683   1.087   4.533   0.690
 1595SOL    HW1 5684   1.000   4.569   0.724
 1595SOL    HW2 5685   1.102   4.441   0.727
 1596SOL     OW 5686   6.779   2.970   2.682
 1596SOL    HW1 5687   6.857   2.975   2.745
 1596SOL    HW2 5688   6.724   3.053   2.690
 1597SOL     OW 5689   1.527   6.305   0.962
 1597SOL    HW1 5690   1.570   6.293   0.872
 1597SOL    HW2 5691   1.589   6.271   1.033
 1598SOL     OW 5692   1.110   4.967   6.243
 1598SOL    HW1 5693   1.183   4.920   6.293
 1598SOL    HW2 5694   1.033   4.983   6.304
 1599SOL     OW 5695   5.608   4.906   5.469
 1599SOL    HW1 5696   5.529   4.853   5.438
 1599SOL    HW2 5697   5.666   4.849   5.526
 1600SOL     OW 5698   2.940   1.644   2.755
 1600SOL    HW1 5699   3.006   1.634   2.681
 1600SOL    HW2 5700   2.861   1.586   2.738
 1601SOL     OW 5701   0.342   6.820   4.555
 1601SOL    HW1 5702   0.246   6.820   4.527
 1601SOL    HW2 5703   0.399   6.795   4.476
 1602SOL     OW 5704   4.484   5.045   4.356
 1602SOL    HW1 5705   4.418   5.106   4.401
 1602SOL    HW2 5706   4.499   5.076   4.262
 1603SOL     OW 5707   3.345   5.186   3.519
 1603SOL    HW1 5708   3.404   5.261   3.548
 1603SOL    HW2 5709   3.365   5.163   3.424
 1604SOL     OW 5710   4.090   4.915   1.609
 1604SOL    HW1 5711   4.007   4.895   1.558
 1604SOL    HW2 5712   4.099   5.013   1.621
 1605SOL     OW 5713   6.624   5.371   1.726
 1605SOL    HW1 5714   6.547   5.309   1.743
 1605SOL    HW2 5715   6.590   5.465   1.716
 1606SOL     OW 5716   3.691   5.557   5.555
 1606SOL    HW1 5717   3.783   5.594   5.552
 1606SOL    HW2 5718   3.633   5.605   5.489
 1607SOL     OW 5719   4.273   0.403   0.854
 1607SOL    HW1 5720   4.299   0.386   0.950
 1607SOL    HW2 5721   4.228   0.323   0.817
 1608SOL     OW 5722   6.657   0.629   2.769
 1608SOL    HW1 5723   6.690   0.678   2.688
 1608SOL    HW2 5724   6.735   0.592   2.819
 1609SOL     OW 5725   3.265   6.980   0.613
 1609SOL    HW1 5726   3.312   6.947   0.695
 1609SOL    HW2 5727   3.332   7.007   0.545
 1610SOL     OW 5728   4.959   6.018   0.733
 1610SOL    HW1 5729   4.981   6.095   0.673
 1610SOL    HW2 5730   5.022   6.018   0.811
 1611SOL     OW 5731   2.409   3.835   0.803
 1611SOL    HW1 5732   2.373   3.897   0.733
 1611SOL    HW2 5733   2.448   3.755   0.760
 1612SOL     OW 5734   3.822   0.167   1.326
 1612SOL    HW1 5735   3.764   0.161   1.244
 1612SOL    HW2 5736   3.765   0.160   1.408
 1613SOL     OW 5737   1.292   6.124   1.922
 1613SOL    HW1 5738   1.370   6.076   1.962
 1613SOL    HW2 5739   1.321   6.175   1.842
 1614SOL     OW 5740   5.871   1.632   6.425
 1614SOL    HW1 5741   5.772   1.631   6.411
 1614SOL    HW2 5742   5.913   1.700   6.365
 1615SOL     OW 5743   6.491   5.869   0.179
 1615SOL    HW1 5744   6.569   5.818   0.213
 1615SOL    HW2 5745   6.440   5.812   0.113
 1616SOL     OW 5746   4.366   0.109   3.878
 1616SOL    HW1 5747   4.276   0.099   3.919
 1616SOL    HW2 5748   4.402   0.200   3.899
 1617SOL     OW 5749   5.405   6.361   3.226
 1617SOL    HW1 5750   5.460   6.359   3.310
 1617SOL    HW2 5751   5.318   6.407   3.244
 1618SOL     OW 5752   2.085   6.518   3.349
 1618SOL    HW1 5753   2.030   6.537   3.268
 1618SOL    HW2 5754   2.024   6.508   3.428
 1619SOL     OW 5755   0.082   5.003   6.907
 1619SOL    HW1 5756   0.144   5.022   6.983
 1619SOL    HW2 5757   7.010   5.023   6.936
 1620SOL     OW 5758   3.772   4.661   1.623
 1620SOL    HW1 5759   3.711   4.649   1.702
 1620SOL    HW2 5760   3.725   4.631   1.540
 1621SOL     OW 5761   5.778   0.664   1.483
 1621SOL    HW1 5762   5.700   0.721   1.508
 1621SOL    HW2 5763   5.757   0.614   1.399
 1622SOL     OW 5764   0.856   3.663   5.477
 1622SOL    HW1 5765   0.805   3.681   5.561
 1622SOL    HW2 5766   0.911   3.744   5.454
 1623SOL     OW 5767   0.228   2.936   4.772
 1623SOL    HW1 5768   0.134   2.915   4.744
 1623SOL    HW2 5769   0.228   3.013   4.835
 1624SOL     OW 5770   4.210   1.165   5.539
 1624SOL    HW1 5771   4.293   1.203   5.498
 1624SOL    HW2 5772   4.235   1.106   5.616
 1625SOL     OW 5773   1.772   4.985   6.871
 1625SOL    HW1 5774   1.804   4.967   6.778
 1625SOL    HW2 5775   1.774   4.900   6.924
 1626SOL     OW 5776   3.109   1.020   0.916
 1626SOL    HW1 5777   3.099   0.978   1.007
 1626SOL    HW2 5778   3.205   1.044   0.901
 1627SOL     OW 5779   5.374   2.773   3.528
 1627SOL    HW1 5780   5.396   2.703   3.596
 1627SOL    HW2 5781   5.345   2.728   3.443
 1628SOL     OW 5782   4.266   5.445   0.082
 1628SOL    HW1 5783   4.236   5.482   7.016
 1628SOL    HW2 5784   4.195   5.461   0.150
 1629SOL     OW 5785   2.731   1.350   3.766
 1629SOL    HW1 5786   2.689   1.269   3.807
 1629SOL    HW2 5787   2.785   1.322   3.687
 1630SOL     OW 5788   0.275   4.208   5.649
 1630SOL    HW1 5789   0.250   4.113   5.664
 1630SOL    HW2 5790   0.347   4.214   5.580
 1631SOL     OW 5791   0.490   3.275   0.329
 1631SOL    HW1 5792   0.481   3.355   0.387
 1631SOL    HW2 5793   0.458   3.194   0.378
 1632SOL     OW 5794   4.940   3.328   2.705
 1632SOL    HW1 5795   4.853   3.360   2.669
 1632SOL    HW2 5796   5.015   3.378   2.661
 1633SOL     OW 5797   5.016   3.994   4.709
 1633SOL    HW1 5798   4.969   3.976   4.623
 1633SOL    HW2 5799   4.969   3.946   4.783
 1634SOL     OW 5800   4.950   0.001   4.181
 1634SOL    HW1 5801   4.989   6.997   4.269
 1634SOL    HW2 5802   4.946   0.101   4.175
 1635SOL     OW 5803   0.694   4.849   6.657
 1635SOL    HW1 5804   0.669   4.761   6.697
 1635SOL    HW2 5805   0.617   4.886   6.606
 1636SOL     OW 5806   3.127   4.833   1.398
 1636SOL    HW1 5807   3.037   4.802   1.368
 1636SOL    HW2 5808   3.150   4.791   1.486
 1637SOL     OW 5809   0.273   6.853   3.965
 1637SOL    HW1 5810   0.366   6.888   3.974
 1637SOL    HW2 5811   0.220   6.879   4.045
 1638SOL     OW 5812   0.726   3.439   2.441
 1638SOL    HW1 5813   0.685   3.381   2.511
 1638SOL    HW2 5814   0.685   3.418   2.352
 1639SOL     OW 5815   5.346   5.240   1.418
 1639SOL    HW1 5816   5.258   5.211   1.453
 1639SOL    HW2 5817   5.415   5.170   1.438
 1640SOL     OW 5818   6.015   0.779   0.474
 1640SOL    HW1 5819   6.097   0.734   0.510
 1640SOL    HW2 5820   6.025   0.793   0.375
 1641SOL     OW 5821   6.360   1.479   3.375
 1641SOL    HW1 5822   6.334   1.475   3.279
 1641SOL    HW2 5823   6.438   1.542   3.386
 1642SOL     OW 5824   6.432   3.024   7.017
 1642SOL    HW1 5825   6.365   3.088   6.981
 1642SOL    HW2 5826   6.486   3.069   0.066
 1643SOL     OW 5827   3.031   4.851   3.421
 1643SOL    HW1 5828   2.948   4.885   3.377
 1643SOL    HW2 5829   3.006   4.804   3.506
 1644SOL     OW 5830   5.225   3.782   6.472
 1644SOL    HW1 5831   5.205   3.872   6.511
 1644SOL    HW2 5832   5.140   3.731   6.459
 1645SOL     OW 5833   2.708   5.953   6.137
 1645SOL    HW1 5834   2.702   5.890   6.060
 1645SOL    HW2 5835   2.791   6.008   6.130
 1646SOL     OW 5836   2.666   6.698   0.548
 1646SOL    HW1 5837   2.662   6.703   0.448
 1646SOL    HW2 5838   2.614   6.774   0.587
 1647SOL     OW 5839   6.197   2.441   4.127
 1647SOL    HW1 5840   6.256   2.508   4.173
 1647SOL    HW2 5841   6.159   2.378   4.194
 1648SOL     OW 5842   5.457   5.979   6.892
 1648SOL    HW1 5843   5.426   5.913   6.825
 1648SOL    HW2 5844   5.406   6.065   6.881
 1649SOL     OW 5845   3.671   1.647   4.472
 1649SOL    HW1 5846   3.684   1.694   4.559
 1649SOL    HW2 5847   3.724   1.692   4.401
 1650SOL     OW 5848   0.586   5.434   4.414
 1650SOL    HW1 5849   0.601   5.453   4.511
 1650SOL    HW2 5850   0.628   5.345   4.391
 1651SOL     OW 5851   0.363   2.500   1.861
 1651SOL    HW1 5852   0.305   2.508   1.942
 1651SOL    HW2 5853   0.306   2.500   1.779
 1652SOL     OW 5854   1.695   3.303   2.681
 1652SOL    HW1 5855   1.690   3.346   2.771
 1652SOL    HW2 5856   1.608   3.258   2.661
 1653SOL     OW 5857   0.397   6.478   0.702
 1653SOL    HW1 5858   0.496   6.468   0.700
 1653SOL    HW2 5859   0.361   6.433   0.784
 1654SOL     OW 5860   6.563   3.399   1.616
 1654SOL    HW1 5861   6.492   3.461   1.581
 1654SOL    HW2 5862   6.653   3.433   1.590
 1655SOL     OW 5863   0.201   2.030   4.507
 1655SOL    HW1 5864   0.149   1.996   4.585
 1655SOL    HW2 5865   0.186   1.971   4.428
 1656SOL     OW 5866   2.107   5.188   2.901
 1656SOL    HW1 5867   2.045   5.115   2.931
 1656SOL    HW2 5868   2.067   5.235   2.822
 1657SOL     OW 5869   6.059   0.561   4.442
 1657SOL    HW1 5870   5.978   0.510   4.415
 1657SOL    HW2 5871   6.064   0.565   4.542
 1658SOL     OW 5872   5.947   1.012   0.737
 1658SOL    HW1 5873   5.965   0.922   0.776
 1658SOL    HW2 5874   5.873   1.005   0.669
 1659SOL     OW 5875   3.466   0.426   0.099
 1659SOL    HW1 5876   3.518   0.345   0.073
 1659SOL    HW2 5877   3.373   0.419   0.062
 1660SOL     OW 5878   1.640   6.279   2.438
 1660SOL    HW1 5879   1.630   6.224   2.521
 1660SOL    HW2 5880   1.712   6.347   2.452
 1661SOL     OW 5881   1.851   6.336   1.601
 1661SOL    HW1 5882   1.872   6.342   1.503
 1661SOL    HW2 5883   1.855   6.428   1.641
 1662SOL     OW 5884   0.131   0.895   4.243
 1662SOL    HW1 5885   0.111   0.993   4.237
 1662SOL    HW2 5886   0.226   0.882   4.271
 1663SOL     OW 5887   4.613   5.366   3.502
 1663SOL    HW1 5888   4.613   5.367   3.402
 1663SOL    HW2 5889   4.594   5.459   3.535
 1664SOL     OW 5890   2.465   6.071   5.064
 1664SOL    HW1 5891   2.514   6.078   4.976
 1664SOL    HW2 5892   2.437   6.163   5.093
 1665SOL     OW 5893   6.444   3.548   1.991
 1665SOL    HW1 5894   6.433   3.485   1.914
 1665SOL    HW2 5895   6.527   3.602   1.979
 1666SOL     OW 5896   5.813   0.621   6.747
 1666SOL    HW1 5897   5.797   0.558   6.823
 1666SOL    HW2 5898   5.844   0.709   6.783
 1667SOL     OW 5899   0.137   6.186   1.257
 1667SOL    HW1 5900   0.114   6.200   1.353
 1667SOL    HW2 5901   0.155   6.275   1.214
 1668SOL     OW 5902   4.738   5.100   3.528
 1668SOL    HW1 5903   4.807   5.099   3.457
 1668SOL    HW2 5904   4.689   5.187   3.527
 1669SOL     OW 5905   6.669   4.086   6.269
 1669SOL    HW1 5906   6.601   4.141   6.318
 1669SOL    HW2 5907   6.648   4.086   6.171
 1670SOL     OW 5908   0.303   4.559   5.258
 1670SOL    HW1 5909   0.395   4.597   5.244
 1670SOL    HW2 5910   0.289   4.540   5.355
 1671SOL     OW 5911   5.840   1.591   3.640
 1671SOL    HW1 5912   5.769   1.572   3.573
 1671SOL    HW2 5913   5.926   1.549   3.611
 1672SOL     OW 5914   2.616   3.601   1.006
 1672SOL    HW1 5915   2.609   3.501   1.008
 1672SOL    HW2 5916   2.602   3.633   0.913
 1673SOL     OW 5917   1.195   1.647   4.532
 1673SOL    HW1 5918   1.287   1.681   4.513
 1673SOL    HW2 5919   1.170   1.580   4.462
 1674SOL     OW 5920   0.580   3.377   2.194
 1674SOL    HW1 5921   0.608   3.349   2.102
 1674SOL    HW2 5922   0.523   3.305   2.235
 1675SOL     OW 5923   4.502   0.523   0.441
 1675SOL    HW1 5924   4.404   0.538   0.431
 1675SOL    HW2 5925   4.520   0.468   0.522
 1676SOL     OW 5926   2.172   2.663   2.214
 1676SOL    HW1 5927   2.271   2.671   2.204
 1676SOL    HW2 5928   2.127   2.700   2.133
 1677SOL     OW 5929   3.970   3.832   3.856
 1677SOL    HW1 5930   3.978   3.844   3.955
 1677SOL    HW2 5931   4.047   3.776   3.823
 1678SOL     OW 5932   0.106   5.137   2.214
 1678SOL    HW1 5933   0.143   5.229   2.205
 1678SOL    HW2 5934   0.162   5.072   2.164
 1679SOL     OW 5935   2.060   1.365   4.573
 1679SOL    HW1 5936   2.153   1.328   4.565
 1679SOL    HW2 5937   2.043   1.428   4.497
 1680SOL     OW 5938   6.586   3.658   5.752
 1680SOL    HW1 5939   6.581   3.742   5.699
 1680SOL    HW2 5940   6.571   3.678   5.849
 1681SOL     OW 5941   0.614   5.504   6.498
 1681SOL    HW1 5942   0.610   5.594   6.454
 1681SOL    HW2 5943   0.705   5.490   6.536
 1682SOL     OW 5944   1.283   0.597   5.852
 1682SOL    HW1 5945   1.369   0.606   5.903
 1682SOL    HW2 5946   1.285   0.512   5.800
 1683SOL     OW 5947   5.732   5.452   2.990
 1683SOL    HW1 5948   5.794   5.398   3.047
 1683SOL    HW2 5949   5.775   5.541   2.970
 1684SOL     OW 5950   0.289   6.183   1.908
 1684SOL    HW1 5951   0.196   6.166   1.876
 1684SOL    HW2 5952   0.333   6.250   1.849
 1685SOL     OW 5953   1.723   1.329   5.846
 1685SOL    HW1 5954   1.646   1.384   5.812
 1685SOL    HW2 5955   1.802   1.388   5.862
 1686SOL     OW 5956   2.120   6.597   4.236
 1686SOL    HW1 5957   2.170   6.600   4.150
 1686SOL    HW2 5958   2.100   6.502   4.260
 1687SOL     OW 5959   1.430   2.830   2.097
 1687SOL    HW1 5960   1.366   2.775   2.151
 1687SOL    HW2 5961   1.463   2.777   2.020
 1688SOL     OW 5962   2.054   1.702   3.391
 1688SOL    HW1 5963   2.061   1.653   3.478
 1688SOL    HW2 5964   1.991   1.653   3.330
 1689SOL     OW 5965   6.743   1.149   2.810
 1689SOL    HW1 5966   6.743   1.113   2.716
 1689SOL    HW2 5967   6.783   1.082   2.872
 1690SOL     OW 5968   1.246   2.574   4.706
 1690SOL    HW1 5969   1.343   2.586   4.727
 1690SOL    HW2 5970   1.234   2.496   4.645
 1691SOL     OW 5971   5.776   2.921   4.178
 1691SOL    HW1 5972   5.865   2.893   4.215
 1691SOL    HW2 5973   5.789   2.969   4.092
 1692SOL     OW 5974   3.927   6.214   1.355
 1692SOL    HW1 5975   4.023   6.236   1.336
 1692SOL    HW2 5976   3.919   6.118   1.382
 1693SOL     OW 5977   6.752   2.194   3.240
 1693SOL    HW1 5978   6.684   2.224   3.173
 1693SOL    HW2 5979   6.842   2.226   3.213
 1694SOL     OW 5980   6.865   1.787   4.045
 1694SOL    HW1 5981   6.782   1.836   4.073
 1694SOL    HW2 5982   6.845   1.731   3.964
 1695SOL     OW 5983   3.673   0.744   6.116
 1695SOL    HW1 5984   3.605   0.750   6.043
 1695SOL    HW2 5985   3.703   0.649   6.126
 1696SOL     OW 5986   3.469   5.940   1.324
 1696SOL    HW1 5987   3.530   5.866   1.354
 1696SOL    HW2 5988   3.516   6.027   1.337
 1697SOL     OW 5989   6.479   1.603   0.582
 1697SOL    HW1 5990   6.548   1.531   0.583
 1697SOL    HW2 5991   6.400   1.574   0.636
 1698SOL     OW 5992   3.680   0.098   1.070
 1698SOL    HW1 5993   3.614   0.174   1.074
 1698SOL    HW2 5994   3.717   0.091   0.977
 1699SOL     OW 5995   1.942   1.647   6.424
 1699SOL    HW1 5996   2.003   1.722   6.402
 1699SOL    HW2 5997   1.976   1.562   6.383
 1700SOL     OW 5998   6.262   4.417   3.157
 1700SOL    HW1 5999   6.295   4.416   3.062
 1700SOL    HW2 6000   6.328   4.371   3.216
 1701SOL     OW 6001   5.683   5.790   5.844
 1701SOL    HW1 6002   5.610   5.732   5.809
 1701SOL    HW2 6003   5.663   5.815   5.939
 1702SOL     OW 6004   6.354   1.401   0.950
 1702SOL    HW1 6005   6.294   1.468   0.993
 1702SOL    HW2 6006   6.447   1.438   0.946
 1703SOL     OW 6007   3.602   1.646   6.725
 1703SOL    HW1 6008   3.536   1.573   6.745
 1703SOL    HW2 6009   3.637   1.683   6.811
 1704SOL     OW 6010   0.876   2.589   0.309
 1704SOL    HW1 6011   0.964   2.611   0.350
 1704SOL    HW2 6012   0.805   2.590   0.379
 1705SOL     OW 6013   3.236   2.122   1.697
 1705SOL    HW1 6014   3.220   2.098   1.601
 1705SOL    HW2 6015   3.158   2.094   1.752
 1706SOL     OW 6016   4.445   1.479   2.151
 1706SOL    HW1 6017   4.504   1.520   2.081
 1706SOL    HW2 6018   4.426   1.384   2.127
 1707SOL     OW 6019   4.674   2.653   2.681
 1707SOL    HW1 6020   4.707   2.746   2.662
 1707SOL    HW2 6021   4.746   2.587   2.659
 1708SOL     OW 6022   4.458   5.834   1.926
 1708SOL    HW1 6023   4.498   5.744   1.944
 1708SOL    HW2 6024   4.441   5.843   1.827
 1709SOL     OW 6025   3.610   6.462   2.848
 1709SOL    HW1 6026   3.536   6.439   2.912
 1709SOL    HW2 6027   3.696   6.470   2.898
 1710SOL     OW 6028   3.998   4.799   3.380
 1710SOL    HW1 6029   4.012   4.723   3.316
 1710SOL    HW2 6030   4.087   4.833   3.412
 1711SOL     OW 6031   1.708   5.440   4.570
 1711SOL    HW1 6032   1.631   5.452   4.507
 1711SOL    HW2 6033   1.788   5.411   4.518
 1712SOL     OW 6034   6.898   2.055   4.563
 1712SOL    HW1 6035   6.938   2.047   4.654
 1712SOL    HW2 6036   6.911   2.148   4.529
 1713SOL     OW 6037   4.651   1.515   2.361
 1713SOL    HW1 6038   4.629   1.503   2.457
 1713SOL    HW2 6039   4.571   1.495   2.305
 1714SOL     OW 6040   4.099   1.972   5.537
 1714SOL    HW1 6041   4.159   2.051   5.551
 1714SOL    HW2 6042   4.109   1.909   5.614
 1715SOL     OW 6043   2.375   6.199   3.552
 1715SOL    HW1 6044   2.280   6.224   3.530
 1715SOL    HW2 6045   2.377   6.146   3.636
 1716SOL     OW 6046   4.107   0.057   3.950
 1716SOL    HW1 6047   4.034   0.113   3.988
 1716SOL    HW2 6048   4.070   7.018   3.880
 1717SOL     OW 6049   3.419   6.077   4.758
 1717SOL    HW1 6050   3.445   6.009   4.690
 1717SOL    HW2 6051   3.396   6.031   4.844
 1718SOL     OW 6052   2.692   1.600   2.304
 1718SOL    HW1 6053   2.623   1.658   2.348
 1718SOL    HW2 6054   2.648   1.521   2.262
 1719SOL     OW 6055   2.188   3.434   0.636
 1719SOL    HW1 6056   2.128   3.380   0.695
 1719SOL    HW2 6057   2.238   3.500   0.692
 1720SOL     OW 6058   6.881   2.933   6.445
 1720SOL    HW1 6059   6.803   2.975   6.399
 1720SOL    HW2 6060   6.906   2.989   6.525
 1721SOL     OW 6061   2.092   6.696   1.544
 1721SOL    HW1 6062   2.064   6.749   1.623
 1721SOL    HW2 6063   2.170   6.638   1.568
 1722SOL     OW 6064   4.049   1.347   3.867
 1722SOL    HW1 6065   4.003   1.435   3.885
 1722SOL    HW2 6066   4.051   1.331   3.768
 1723SOL     OW 6067   5.296   2.452   0.052
 1723SOL    HW1 6068   5.358   2.440   6.998
 1723SOL    HW2 6069   5.345   2.497   0.127
 1724SOL     OW 6070   0.108   2.806   2.127
 1724SOL    HW1 6071   0.011   2.799   2.105
 1724SOL    HW2 6072   0.118   2.833   2.223
 1725SOL     OW 6073   1.674   4.759   6.585
 1725SOL    HW1 6074   1.652   4.852   6.558
 1725SOL    HW2 6075   1.767   4.737   6.555
 1726SOL     OW 6076   5.291   3.953   4.676
 1726SOL    HW1 6077   5.193   3.954   4.698
 1726SOL    HW2 6078   5.306   3.896   4.595
 1727SOL     OW 6079   4.151   3.582   3.627
 1727SOL    HW1 6080   4.115   3.493   3.598
 1727SOL    HW2 6081   4.104   3.655   3.577
 1728SOL     OW 6082   5.676   4.701   5.653
 1728SOL    HW1 6083   5.608   4.629   5.673
 1728SOL    HW2 6084   5.767   4.668   5.679
 1729SOL     OW 6085   2.001   3.521   3.158
 1729SOL    HW1 6086   2.014   3.591   3.087
 1729SOL    HW2 6087   1.922   3.545   3.214
 1730SOL     OW 6088   2.677   0.421   4.727
 1730SOL    HW1 6089   2.591   0.416   4.779
 1730SOL    HW2 6090   2.658   0.400   4.631
 1731SOL     OW 6091   0.288   4.285   3.465
 1731SOL    HW1 6092   0.270   4.362   3.403
 1731SOL    HW2 6093   0.339   4.215   3.417
 1732SOL     OW 6094   2.023   4.608   5.977
 1732SOL    HW1 6095   1.942   4.558   5.945
 1732SOL    HW2 6096   2.084   4.625   5.900
 1733SOL     OW 6097   1.789   4.166   1.521
 1733SOL    HW1 6098   1.768   4.194   1.427
 1733SOL    HW2 6099   1.708   4.128   1.564
 1734SOL     OW 6100   5.159   3.216   1.329
 1734SOL    HW1 6101   5.232   3.283   1.335
 1734SOL    HW2 6102   5.137   3.182   1.420
 1735SOL     OW 6103   4.948   5.774   6.575
 1735SOL    HW1 6104   4.946   5.723   6.490
 1735SOL    HW2 6105   4.976   5.714   6.650
 1736SOL     OW 6106   4.068   3.979   0.669
 1736SOL    HW1 6107   3.972   4.005   0.680
 1736SOL    HW2 6108   4.106   3.954   0.758
 1737SOL     OW 6109   5.074   6.833   4.855
 1737SOL    HW1 6110   5.170   6.816   4.833
 1737SOL    HW2 6111   5.045   6.919   4.814
 1738SOL     OW 6112   2.529   2.583   4.396
 1738SOL    HW1 6113   2.490   2.645   4.464
 1738SOL    HW2 6114   2.489   2.492   4.407
 1739SOL     OW 6115   0.352   1.343   4.738
 1739SOL    HW1 6116   0.337   1.244   4.737
 1739SOL    HW2 6117   0.355   1.377   4.644
 1740SOL     OW 6118   0.197   2.130   5.373
 1740SOL    HW1 6119   0.099   2.135   5.357
 1740SOL    HW2 6120   0.224   2.202   5.438
 1741SOL     OW 6121   2.569   0.950   4.806
 1741SOL    HW1 6122   2.624   0.866   4.813
 1741SOL    HW2 6123   2.500   0.951   4.878
 1742SOL     OW 6124   5.505   0.506   5.570
 1742SOL    HW1 6125   5.497   0.523   5.668
 1742SOL    HW2 6126   5.597   0.528   5.540
 1743SOL     OW 6127   0.815   1.004   2.408
 1743SOL    HW1 6128   0.756   0.991   2.488
 1743SOL    HW2 6129   0.905   0.967   2.426
 1744SOL     OW 6130   5.958   3.972   3.395
 1744SOL    HW1 6131   5.981   3.964   3.298
 1744SOL    HW2 6132   6.041   3.971   3.450
 1745SOL     OW 6133   5.524   6.260   2.825
 1745SOL    HW1 6134   5.592   6.323   2.863
 1745SOL    HW2 6135   5.547   6.167   2.851
 1746SOL     OW 6136   1.573   4.474   4.344
 1746SOL    HW1 6137   1.522   4.474   4.258
 1746SOL    HW2 6138   1.638   4.550   4.344
 1747SOL     OW 6139   3.911   1.578   2.738
 1747SOL    HW1 6140   3.846   1.654   2.743
 1747SOL    HW2 6141   3.974   1.593   2.662
 1748SOL     OW 6142   6.721   1.906   4.385
 1748SOL    HW1 6143   6.742   1.814   4.351
 1748SOL    HW2 6144   6.801   1.944   4.431
 1749SOL     OW 6145   1.724   6.965   5.737
 1749SOL    HW1 6146   1.791   0.016   5.739
 1749SOL    HW2 6147   1.769   6.878   5.756
 1750SOL     OW 6148   5.597   0.402   3.848
 1750SOL    HW1 6149   5.695   0.396   3.864
 1750SOL    HW2 6150   5.577   0.479   3.787
 1751SOL     OW 6151   5.190   1.575   4.753
 1751SOL    HW1 6152   5.266   1.567   4.689
 1751SOL    HW2 6153   5.174   1.486   4.797
 1752SOL     OW 6154   5.910   0.834   1.704
 1752SOL    HW1 6155   5.996   0.855   1.657
 1752SOL    HW2 6156   5.837   0.823   1.637
 1753SOL     OW 6157   6.827   0.696   1.407
 1753SOL    HW1 6158   6.907   0.661   1.360
 1753SOL    HW2 6159   6.756   0.719   1.341
 1754SOL     OW 6160   2.152   5.240   6.309
 1754SOL    HW1 6161   2.074   5.184   6.336
 1754SOL    HW2 6162   2.154   5.249   6.209
 1755SOL     OW 6163   6.942   5.528   6.493
 1755SOL    HW1 6164   6.978   5.480   6.573
 1755SOL    HW2 6165   6.853   5.490   6.468
 1756SOL     OW 6166   4.152   5.472   6.241
 1756SOL    HW1 6167   4.197   5.434   6.160
 1756SOL    HW2 6168   4.213   5.462   6.320
 1757SOL     OW 6169   3.624   5.754   5.154
 1757SOL    HW1 6170   3.697   5.687   5.163
 1757SOL    HW2 6171   3.567   5.730   5.075
 1758SOL     OW 6172   1.712   1.214   4.356
 1758SOL    HW1 6173   1.655   1.186   4.434
 1758SOL    HW2 6174   1.809   1.212   4.383
 1759SOL     OW 6175   2.834   6.793   5.533
 1759SOL    HW1 6176   2.870   6.769   5.443
 1759SOL    HW2 6177   2.886   6.743   5.603
 1760SOL     OW 6178   6.282   1.057   3.783
 1760SOL    HW1 6179   6.298   1.020   3.691
 1760SOL    HW2 6180   6.370   1.070   3.829
 1761SOL     OW 6181   0.474   1.140   1.812
 1761SOL    HW1 6182   0.385   1.173   1.780
 1761SOL    HW2 6183   0.531   1.116   1.734
 1762SOL     OW 6184   0.315   1.625   4.830
 1762SOL    HW1 6185   0.397   1.647   4.777
 1762SOL    HW2 6186   0.296   1.526   4.824
 1763SOL     OW 6187   1.179   5.054   4.415
 1763SOL    HW1 6188   1.268   5.099   4.417
 1763SOL    HW2 6189   1.183   4.968   4.465
 1764SOL     OW 6190   1.351   3.081   1.772
 1764SOL    HW1 6191   1.265   3.084   1.721
 1764SOL    HW2 6192   1.331   3.086   1.870
 1765SOL     OW 6193   3.275   1.350   1.687
 1765SOL    HW1 6194   3.246   1.440   1.655
 1765SOL    HW2 6195   3.373   1.339   1.673
 1766SOL     OW 6196   5.482   4.370   4.237
 1766SOL    HW1 6197   5.497   4.438   4.165
 1766SOL    HW2 6198   5.569   4.344   4.278
 1767SOL     OW 6199   0.908   4.629   3.754
 1767SOL    HW1 6200   0.876   4.649   3.847
 1767SOL    HW2 6201   0.863   4.547   3.720
 1768SOL     OW 6202   3.676   1.229   6.679
 1768SOL    HW1 6203   3.727   1.189   6.755
 1768SOL    HW2 6204   3.626   1.157   6.631
 1769SOL     OW 6205   6.295   0.919   6.833
 1769SOL    HW1 6206   6.382   0.870   6.824
 1769SOL    HW2 6207   6.222   0.866   6.789
 1770SOL     OW 6208   0.593   4.724   5.052
 1770SOL    HW1 6209   0.609   4.655   5.123
 1770SOL    HW2 6210   0.676   4.737   4.998
 1771SOL     OW 6211   1.405   5.620   0.505
 1771SOL    HW1 6212   1.431   5.569   0.587
 1771SOL    HW2 6213   1.435   5.715   0.515
 1772SOL     OW 6214   3.731   5.508   3.984
 1772SOL    HW1 6215   3.694   5.565   3.911
 1772SOL    HW2 6216   3.697   5.414   3.973
 1773SOL     OW 6217   2.395   2.184   5.879
 1773SOL    HW1 6218   2.458   2.227   5.814
 1773SOL    HW2 6219   2.441   2.108   5.926
 1774SOL     OW 6220   5.445   6.553   1.435
 1774SOL    HW1 6221   5.530   6.599   1.409
 1774SOL    HW2 6222   5.416   6.585   1.525
 1775SOL     OW 6223   2.091   5.551   6.011
 1775SOL    HW1 6224   2.023   5.478   6.016
 1775SOL    HW2 6225   2.129   5.555   5.919
 1776SOL     OW 6226   4.978   0.593   5.980
 1776SOL    HW1 6227   5.022   0.631   6.061
 1776SOL    HW2 6228   5.025   0.509   5.953
 1777SOL     OW 6229   3.375   6.995   6.527
 1777SOL    HW1 6230   3.438   0.012   6.460
 1777SOL    HW2 6231   3.407   6.905   6.554
 1778SOL     OW 6232   4.833   2.282   4.404
 1778SOL    HW1 6233   4.928   2.290   4.372
 1778SOL    HW2 6234   4.773   2.328   4.339
 1779SOL     OW 6235   5.107   0.310   5.994
 1779SOL    HW1 6236   5.115   0.230   6.053
 1779SOL    HW2 6237   5.155   0.293   5.908
 1780SOL     OW 6238   1.854   3.185   5.490
 1780SOL    HW1 6239   1.826   3.103   5.540
 1780SOL    HW2 6240   1.825   3.266   5.540
 1781SOL     OW 6241   5.616   6.678   5.092
 1781SOL    HW1 6242   5.650   6.681   5.186
 1781SOL    HW2 6243   5.569   6.591   5.076
 1782SOL     OW 6244   2.440   0.847   2.601
 1782SOL    HW1 6245   2.422   0.917   2.532
 1782SOL    HW2 6246   2.403   0.759   2.570
 1783SOL     OW 6247   2.919   4.022   6.634
 1783SOL    HW1 6248   2.896   4.018   6.731
 1783SOL    HW2 6249   2.842   3.991   6.580
 1784SOL     OW 6250   2.096   1.519   1.653
 1784SOL    HW1 6251   2.030   1.448   1.628
 1784SOL    HW2 6252   2.062   1.608   1.622
 1785SOL     OW 6253   6.891   6.936   4.313
 1785SOL    HW1 6254   6.904   6.870   4.387
 1785SOL    HW2 6255   6.875   6.888   4.227
 1786SOL     OW 6256   2.159   5.393   0.166
 1786SOL    HW1 6257   2.134   5.367   0.072
 1786SOL    HW2 6258   2.250   5.357   0.188
 1787SOL     OW 6259   2.019   1.731   5.715
 1787SOL    HW1 6260   2.071   1.725   5.630
 1787SOL    HW2 6261   1.931   1.686   5.703
 1788SOL     OW 6262   4.578   3.923   6.349
 1788SOL    HW1 6263   4.670   3.893   6.375
 1788SOL    HW2 6264   4.521   3.932   6.431
 1789SOL     OW 6265   5.532   3.245   1.564
 1789SOL    HW1 6266   5.447   3.274   1.519
 1789SOL    HW2 6267   5.530   3.275   1.660
 1790SOL     OW 6268   2.833   1.359   4.274
 1790SOL    HW1 6269   2.806   1.283   4.215
 1790SOL    HW2 6270   2.788   1.351   4.363
 1791SOL     OW 6271   0.099   1.395   3.501
 1791SOL    HW1 6272   0.146   1.356   3.423
 1791SOL    HW2 6273   0.029   1.459   3.469
 1792SOL     OW 6274   7.010   1.604   4.624
 1792SOL    HW1 6275   0.008   1.679   4.687
 1792SOL    HW2 6276   6.982   1.640   4.536
 1793SOL     OW 6277   6.596   1.676   4.273
 1793SOL    HW1 6278   6.629   1.586   4.300
 1793SOL    HW2 6279   6.521   1.666   4.208
 1794SOL     OW 6280   5.759   6.678   5.317
 1794SOL    HW1 6281   5.760   6.775   5.338
 1794SOL    HW2 6282   5.725   6.627   5.396
 1795SOL     OW 6283   6.518   5.121   1.464
 1795SOL    HW1 6284   6.544   5.029   1.492
 1795SOL    HW2 6285   6.568   5.188   1.520
 1796SOL     OW 6286   2.410   1.668   5.799
 1796SOL    HW1 6287   2.359   1.667   5.713
 1796SOL    HW2 6288   2.499   1.713   5.784
 1797SOL     OW 6289   1.250   6.869   5.688
 1797SOL    HW1 6290   1.277   6.962   5.711
 1797SOL    HW2 6291   1.270   6.852   5.591
 1798SOL     OW 6292   3.209   2.997   4.809
 1798SOL    HW1 6293   3.204   2.930   4.883
 1798SOL    HW2 6294   3.180   3.087   4.843
 1799SOL     OW 6295   4.045   3.082   6.891
 1799SOL    HW1 6296   3.972   3.067   6.958
 1799SOL    HW2 6297   4.132   3.050   6.928
 1800SOL     OW 6298   5.074   4.679   3.763
 1800SOL    HW1 6299   5.067   4.773   3.797
 1800SOL    HW2 6300   5.008   4.665   3.689
 1801SOL     OW 6301   0.671   1.984   2.093
 1801SOL    HW1 6302   0.661   2.012   2.189
 1801SOL    HW2 6303   0.595   2.021   2.040
 1802SOL     OW 6304   6.147   5.890   3.287
 1802SOL    HW1 6305   6.212   5.965   3.274
 1802SOL    HW2 6306   6.092   5.908   3.369
 1803SOL     OW 6307   6.982   6.932   2.478
 1803SOL    HW1 6308   0.038   6.945   2.537
 1803SOL    HW2 6309   7.006   6.954   2.384
 1804SOL     OW 6310   3.843   3.273   4.987
 1804SOL    HW1 6311   3.757   3.227   4.967
 1804SOL    HW2 6312   3.886   3.302   4.901
 1805SOL     OW 6313   0.984   5.304   5.797
 1805SOL    HW1 6314   1.023   5.348   5.878
 1805SOL    HW2 6315   1.057   5.283   5.732
 1806SOL     OW 6316   0.349   2.789   1.752
 1806SOL    HW1 6317   0.351   2.820   1.847
 1806SOL    HW2 6318   0.356   2.689   1.749
 1807SOL     OW 6319   5.635   2.881   6.956
 1807SOL    HW1 6320   5.718   2.832   6.982
 1807SOL    HW2 6321   5.658   2.951   6.889
 1808SOL     OW 6322   6.056   3.659   4.481
 1808SOL    HW1 6323   6.025   3.565   4.496
 1808SOL    HW2 6324   6.129   3.680   4.547
 1809SOL     OW 6325   2.903   1.691   5.152
 1809SOL    HW1 6326   2.997   1.657   5.146
 1809SOL    HW2 6327   2.895   1.754   5.228
 1810SOL     OW 6328   0.772   0.882   5.212
 1810SOL    HW1 6329   0.855   0.831   5.187
 1810SOL    HW2 6330   0.692   0.825   5.194
 1811SOL     OW 6331   5.257   4.709   1.728
 1811SOL    HW1 6332   5.225   4.651   1.803
 1811SOL    HW2 6333   5.194   4.700   1.651
 1812SOL     OW 6334   4.019   6.626   6.459
 1812SOL    HW1 6335   3.968   6.654   6.378
 1812SOL    HW2 6336   4.095   6.690   6.475
 1813SOL     OW 6337   5.002   4.322   2.230
 1813SOL    HW1 6338   4.925   4.354   2.174
 1813SOL    HW2 6339   5.044   4.401   2.276
 1814SOL     OW 6340   6.230   0.138   0.822
 1814SOL    HW1 6341   6.269   0.065   0.766
 1814SOL    HW2 6342   6.303   0.198   0.853
 1815SOL     OW 6343   6.172   6.948   2.594
 1815SOL    HW1 6344   6.114   6.866   2.594
 1815SOL    HW2 6345   6.230   6.947   2.513
 1816SOL     OW 6346   3.710   4.954   6.138
 1816SOL    HW1 6347   3.760   4.987   6.219
 1816SOL    HW2 6348   3.766   4.967   6.057
 1817SOL     OW 6349   3.610   1.292   3.019
 1817SOL    HW1 6350   3.683   1.336   2.968
 1817SOL    HW2 6351   3.531   1.354   3.026
 1818SOL     OW 6352   1.632   6.674   0.153
 1818SOL    HW1 6353   1.596   6.641   0.241
 1818SOL    HW2 6354   1.579   6.633   0.078
 1819SOL     OW 6355   1.645   5.109   2.296
 1819SOL    HW1 6356   1.663   5.126   2.393
 1819SOL    HW2 6357   1.642   5.197   2.247
 1820SOL     OW 6358   3.606   0.432   2.554
 1820SOL    HW1 6359   3.643   0.510   2.604
 1820SOL    HW2 6360   3.681   0.374   2.522
 1821SOL     OW 6361   3.338   1.145   2.181
 1821SOL    HW1 6362   3.363   1.206   2.106
 1821SOL    HW2 6363   3.386   1.171   2.264
 1822SOL     OW 6364   1.007   3.353   1.745
 1822SOL    HW1 6365   1.023   3.258   1.719
 1822SOL    HW2 6366   1.093   3.405   1.735
 1823SOL     OW 6367   3.512   6.032   3.117
 1823SOL    HW1 6368   3.455   6.029   3.035
 1823SOL    HW2 6369   3.572   6.112   3.112
 1824SOL     OW 6370   3.902   3.868   0.409
 1824SOL    HW1 6371   3.855   3.927   0.475
 1824SOL    HW2 6372   3.997   3.898   0.399
 1825SOL     OW 6373   0.250   3.173   4.898
 1825SOL    HW1 6374   0.337   3.182   4.946
 1825SOL    HW2 6375   0.181   3.229   4.942
 1826SOL     OW 6376   3.032   1.290   0.894
 1826SOL    HW1 6377   2.934   1.308   0.890
 1826SOL    HW2 6378   3.048   1.193   0.911
 1827SOL     OW 6379   5.234   5.716   1.108
 1827SOL    HW1 6380   5.200   5.804   1.140
 1827SOL    HW2 6381   5.174   5.643   1.142
 1828SOL     OW 6382   1.910   3.396   6.450
 1828SOL    HW1 6383   1.995   3.443   6.425
 1828SOL    HW2 6384   1.932   3.307   6.491
 1829SOL     OW 6385   3.709   7.014   3.479
 1829SOL    HW1 6386   3.616   0.013   3.511
 1829SOL    HW2 6387   3.709   6.923   3.437
 1830SOL     OW 6388   5.792   6.732   4.889
 1830SOL    HW1 6389   5.776   6.824   4.854
 1830SOL    HW2 6390   5.737   6.718   4.971
 1831SOL     OW 6391   5.315   5.899   2.793
 1831SOL    HW1 6392   5.290   5.960   2.717
 1831SOL    HW2 6393   5.261   5.815   2.786
 1832SOL     OW 6394   3.113   3.293   0.025
 1832SOL    HW1 6395   3.167   3.209   0.024
 1832SOL    HW2 6396   3.019   3.272   7.021
 1833SOL     OW 6397   5.236   0.564   1.323
 1833SOL    HW1 6398   5.332   0.576   1.298
 1833SOL    HW2 6399   5.182   0.639   1.286
 1834SOL     OW 6400   2.461   3.078   1.436
 1834SOL    HW1 6401   2.388   3.140   1.465
 1834SOL    HW2 6402   2.495   3.027   1.514
 1835SOL     OW 6403   1.226   4.772   1.461
 1835SOL    HW1 6404   1.164   4.753   1.385
 1835SOL    HW2 6405   1.172   4.804   1.540
 1836SOL     OW 6406   5.749   2.516   1.905
 1836SOL    HW1 6407   5.679   2.489   1.838
 1836SOL    HW2 6408   5.781   2.609   1.884
 1837SOL     OW 6409   1.977   0.375   5.836
 1837SOL    HW1 6410   1.886   0.416   5.839
 1837SOL    HW2 6411   2.045   0.444   5.810
 1838SOL     OW 6412   6.490   0.568   6.326
 1838SOL    HW1 6413   6.429   0.623   6.270
 1838SOL    HW2 6414   6.522   0.621   6.405
 1839SOL     OW 6415   6.303   1.497   6.455
 1839SOL    HW1 6416   6.214   1.473   6.415
 1839SOL    HW2 6417   6.290   1.570   6.523
 1840SOL     OW 6418   4.011   0.526   2.706
 1840SOL    HW1 6419   4.057   0.570   2.629
 1840SOL    HW2 6420   3.913   0.544   2.700
 1841SOL     OW 6421   2.184   0.605   3.262
 1841SOL    HW1 6422   2.248   0.528   3.261
 1841SOL    HW2 6423   2.231   0.688   3.293
 1842SOL     OW 6424   1.207   5.280   0.611
 1842SOL    HW1 6425   1.184   5.265   0.515
 1842SOL    HW2 6426   1.195   5.195   0.662
 1843SOL     OW 6427   4.940   0.532   3.979
 1843SOL    HW1 6428   5.018   0.489   4.025
 1843SOL    HW2 6429   4.865   0.541   4.043
 1844SOL     OW 6430   4.728   1.724   5.330
 1844SOL    HW1 6431   4.712   1.639   5.278
 1844SOL    HW2 6432   4.756   1.700   5.423
 1845SOL     OW 6433   2.874   0.040   3.797
 1845SOL    HW1 6434   2.874   0.134   3.764
 1845SOL    HW2 6435   2.857   0.039   3.895
 1846SOL     OW 6436   5.311   1.124   3.178
 1846SOL    HW1 6437   5.218   1.094   3.201
 1846SOL    HW2 6438   5.322   1.125   3.079
 1847SOL     OW 6439   1.476   7.013   5.043
 1847SOL    HW1 6440   1.450   0.027   5.132
 1847SOL    HW2 6441   1.486   6.913   5.050
 1848SOL     OW 6442   1.485   6.530   4.301
 1848SOL    HW1 6443   1.572   6.555   4.342
 1848SOL    HW2 6444   1.450   6.447   4.344
 1849SOL     OW 6445   4.735   2.673   1.550
 1849SOL    HW1 6446   4.684   2.590   1.528
 1849SOL    HW2 6447   4.686   2.724   1.620
 1850SOL     OW 6448   5.949   1.872   2.648
 1850SOL    HW1 6449   5.908   1.963   2.655
 1850SOL    HW2 6450   5.876   1.803   2.647
 1851SOL     OW 6451   0.679   3.505   0.082
 1851SOL    HW1 6452   0.614   3.431   0.068
 1851SOL    HW2 6453   0.745   3.505   0.007
 1852SOL     OW 6454   0.512   5.132   1.715
 1852SOL    HW1 6455   0.475   5.149   1.623
 1852SOL    HW2 6456   0.595   5.077   1.708
 1853SOL     OW 6457   6.918   2.443   3.355
 1853SOL    HW1 6458   6.904   2.541   3.347
 1853SOL    HW2 6459   7.012   2.425   3.385
 1854SOL     OW 6460   1.121   5.432   3.182
 1854SOL    HW1 6461   1.198   5.463   3.127
 1854SOL    HW2 6462   1.036   5.442   3.130
 1855SOL     OW 6463   5.112   3.452   5.307
 1855SOL    HW1 6464   5.200   3.419   5.341
 1855SOL    HW2 6465   5.041   3.428   5.373
 1856SOL     OW 6466   4.170   3.611   6.462
 1856SOL    HW1 6467   4.082   3.641   6.499
 1856SOL    HW2 6468   4.155   3.534   6.400
 1857SOL     OW 6469   4.935   1.133   0.564
 1857SOL    HW1 6470   4.992   1.198   0.515
 1857SOL    HW2 6471   4.936   1.154   0.662
 1858SOL     OW 6472   5.562   3.039   3.298
 1858SOL    HW1 6473   5.495   3.065   3.368
 1858SOL    HW2 6474   5.624   2.970   3.335
 1859SOL     OW 6475   4.991   1.974   3.835
 1859SOL    HW1 6476   5.027   2.067   3.827
 1859SOL    HW2 6477   4.893   1.974   3.820
 1860SOL     OW 6478   0.716   2.001   5.245
 1860SOL    HW1 6479   0.619   2.002   5.270
 1860SOL    HW2 6480   0.733   2.070   5.175
 1861SOL     OW 6481   5.390   0.658   2.815
 1861SOL    HW1 6482   5.354   0.702   2.897
 1861SOL    HW2 6483   5.377   0.559   2.821
 1862SOL     OW 6484   1.311   6.910   6.930
 1862SOL    HW1 6485   1.291   6.921   6.833
 1862SOL    HW2 6486   1.409   6.923   6.945
 1863SOL     OW 6487   6.423   3.183   1.624
 1863SOL    HW1 6488   6.459   3.110   1.566
 1863SOL    HW2 6489   6.474   3.267   1.606
 1864SOL     OW 6490   3.513   5.683   4.194
 1864SOL    HW1 6491   3.447   5.612   4.223
 1864SOL    HW2 6492   3.576   5.644   4.128
 1865SOL     OW 6493   3.357   1.081   1.303
 1865SOL    HW1 6494   3.292   1.019   1.347
 1865SOL    HW2 6495   3.306   1.156   1.260
 1866SOL     OW 6496   6.269   4.751   3.664
 1866SOL    HW1 6497   6.364   4.781   3.676
 1866SOL    HW2 6498   6.262   4.701   3.577
 1867SOL     OW 6499   2.124   3.305   1.278
 1867SOL    HW1 6500   2.150   3.402   1.279
 1867SOL    HW2 6501   2.199   3.252   1.239
 1868SOL     OW 6502   4.951   3.183   5.784
 1868SOL    HW1 6503   4.882   3.149   5.848
 1868SOL    HW2 6504   4.912   3.258   5.730
 1869SOL     OW 6505   5.523   2.650   3.897
 1869SOL    HW1 6506   5.623   2.652   3.888
 1869SOL    HW2 6507   5.497   2.571   3.952
 1870SOL     OW 6508   0.710   3.383   4.690
 1870SOL    HW1 6509   0.780   3.311   4.688
 1870SOL    HW2 6510   0.648   3.370   4.612
 1871SOL     OW 6511   0.029   6.406   0.358
 1871SOL    HW1 6512   0.084   6.407   0.275
 1871SOL    HW2 6513   0.079   6.453   0.431
 1872SOL     OW 6514   3.462   2.300   0.320
 1872SOL    HW1 6515   3.445   2.211   0.277
 1872SOL    HW2 6516   3.379   2.333   0.363
 1873SOL     OW 6517   6.327   0.975   5.513
 1873SOL    HW1 6518   6.352   0.942   5.422
 1873SOL    HW2 6519   6.231   1.000   5.515
 1874SOL     OW 6520   0.799   1.167   6.975
 1874SOL    HW1 6521   0.717   1.217   7.003
 1874SOL    HW2 6522   0.795   1.074   7.010
 1875SOL     OW 6523   6.515   6.339   0.455
 1875SOL    HW1 6524   6.602   6.381   0.428
 1875SOL    HW2 6525   6.499   6.257   0.400
 1876SOL     OW 6526   5.066   6.643   6.145
 1876SOL    HW1 6527   5.102   6.707   6.077
 1876SOL    HW2 6528   4.978   6.607   6.113
 1877SOL     OW 6529   0.057   1.791   3.178
 1877SOL    HW1 6530   7.016   1.732   3.128
 1877SOL    HW2 6531   0.150   1.754   3.168
 1878SOL     OW 6532   0.108   4.163   3.104
 1878SOL    HW1 6533   0.041   4.106   3.056
 1878SOL    HW2 6534   0.190   4.108   3.123
 1879SOL     OW 6535   2.460   5.414   3.893
 1879SOL    HW1 6536   2.469   5.361   3.809
 1879SOL    HW2 6537   2.489   5.359   3.971
 1880SOL     OW 6538   1.003   2.544   3.105
 1880SOL    HW1 6539   1.080   2.584   3.155
 1880SOL    HW2 6540   0.983   2.453   3.142
 1881SOL     OW 6541   0.855   1.959   3.541
 1881SOL    HW1 6542   0.894   2.030   3.482
 1881SOL    HW2 6543   0.855   1.990   3.636
 1882SOL     OW 6544   0.636   5.846   6.701
 1882SOL    HW1 6545   0.722   5.842   6.649
 1882SOL    HW2 6546   0.603   5.753   6.717
 1883SOL     OW 6547   1.342   3.593   3.578
 1883SOL    HW1 6548   1.244   3.600   3.599
 1883SOL    HW2 6549   1.369   3.497   3.577
 1884SOL     OW 6550   5.040   1.150   1.743
 1884SOL    HW1 6551   4.999   1.198   1.666
 1884SOL    HW2 6552   5.127   1.110   1.715
 1885SOL     OW 6553   6.780   1.875   0.580
 1885SOL    HW1 6554   6.770   1.975   0.574
 1885SOL    HW2 6555   6.690   1.833   0.574
 1886SOL     OW 6556   1.907   2.179   6.888
 1886SOL    HW1 6557   1.856   2.178   6.974
 1886SOL    HW2 6558   1.961   2.095   6.880
 1887SOL     OW 6559   0.139   4.043   6.016
 1887SOL    HW1 6560   0.063   4.106   5.999
 1887SOL    HW2 6561   0.196   4.080   6.089
 1888SOL     OW 6562   2.345   1.447   6.268
 1888SOL    HW1 6563   2.287   1.488   6.338
 1888SOL    HW2 6564   2.368   1.353   6.293
 1889SOL     OW 6565   4.307   4.039   6.249
 1889SOL    HW1 6566   4.331   3.943   6.255
 1889SOL    HW2 6567   4.391   4.095   6.249
 1890SOL     OW 6568   1.642   5.646   5.929
 1890SOL    HW1 6569   1.658   5.565   5.985
 1890SOL    HW2 6570   1.728   5.676   5.888
 1891SOL     OW 6571   5.066   2.751   4.398
 1891SOL    HW1 6572   5.130   2.817   4.437
 1891SOL    HW2 6573   5.011   2.711   4.471
 1892SOL     OW 6574   3.556   6.695   1.107
 1892SOL    HW1 6575   3.471   6.709   1.056
 1892SOL    HW2 6576   3.540   6.626   1.178
 1893SOL     OW 6577   3.526   2.052   4.812
 1893SOL    HW1 6578   3.451   2.032   4.749
 1893SOL    HW2 6579   3.613   2.025   4.769
 1894SOL     OW 6580   4.108   3.541   1.286
 1894SOL    HW1 6581   4.097   3.450   1.245
 1894SOL    HW2 6582   4.205   3.562   1.295
 1895SOL     OW 6583   6.453   0.108   2.401
 1895SOL    HW1 6584   6.411   0.145   2.484
 1895SOL    HW2 6585   6.399   0.031   2.367
 1896SOL     OW 6586   6.809   1.041   3.121
 1896SOL    HW1 6587   6.892   1.052   3.067
 1896SOL    HW2 6588   6.791   1.125   3.172
 1897SOL     OW 6589   6.361   5.283   3.000
 1897SOL    HW1 6590   6.389   5.261   3.094
 1897SOL    HW2 6591   6.330   5.378   2.996
 1898SOL     OW 6592   3.840   6.590   1.545
 1898SOL    HW1 6593   3.863   6.655   1.472
 1898SOL    HW2 6594   3.919   6.577   1.605
 1899SOL     OW 6595   1.228   2.955   2.605
 1899SOL    HW1 6596   1.145   2.905   2.579
 1899SOL    HW2 6597   1.305   2.921   2.552
 1900SOL     OW 6598   1.292   0.121   5.746
 1900SOL    HW1 6599   1.376   0.108   5.798
 1900SOL    HW2 6600   1.298   0.206   5.693
 1901SOL     OW 6601   2.066   1.572   1.045
 1901SOL    HW1 6602   2.080   1.474   1.060
 1901SOL    HW2 6603   1.968   1.590   1.037
 1902SOL     OW 6604   1.561   2.453   5.008
 1902SOL    HW1 6605   1.602   2.516   5.075
 1902SOL    HW2 6606   1.606   2.364   5.015
 1903SOL     OW 6607   6.917   3.529   3.527
 1903SOL    HW1 6608   6.826   3.500   3.558
 1903SOL    HW2 6609   6.954   3.460   3.465
 1904SOL     OW 6610   6.871   0.043   3.995
 1904SOL    HW1 6611   6.930   0.076   3.921
 1904SOL    HW2 6612   6.916   6.989   4.041
 1905SOL     OW 6613   0.475   2.431   4.170
 1905SOL    HW1 6614   0.469   2.480   4.258
 1905SOL    HW2 6615   0.392   2.448   4.117
 1906SOL     OW 6616   2.646   0.005   5.397
 1906SOL    HW1 6617   2.735   0.014   5.441
 1906SOL    HW2 6618   2.646   6.947   5.337
 1907SOL     OW 6619   3.458   6.984   3.669
 1907SOL    HW1 6620   3.494   0.012   3.747
 1907SOL    HW2 6621   3.385   0.015   3.625
 1908SOL     OW 6622   4.585   1.216   4.983
 1908SOL    HW1 6623   4.644   1.136   4.997
 1908SOL    HW2 6624   4.600   1.253   4.891
 1909SOL     OW 6625   1.900   3.973   3.592
 1909SOL    HW1 6626   1.918   4.048   3.655
 1909SOL    HW2 6627   1.917   4.004   3.498
 1910SOL     OW 6628   5.824   2.522   6.253
 1910SOL    HW1 6629   5.875   2.539   6.338
 1910SOL    HW2 6630   5.768   2.440   6.264
 1911SOL     OW 6631   5.953   1.969   5.897
 1911SOL    HW1 6632   5.864   1.947   5.939
 1911SOL    HW2 6633   6.002   2.032   5.956
 1912SOL     OW 6634   3.907   6.616   2.239
 1912SOL    HW1 6635   3.827   6.673   2.220
 1912SOL    HW2 6636   3.990   6.671   2.234
 1913SOL     OW 6637   2.043   6.309   5.333
 1913SOL    HW1 6638   1.971   6.357   5.382
 1913SOL    HW2 6639   2.052   6.348   5.241
 1914SOL     OW 6640   2.524   2.485   6.767
 1914SOL    HW1 6641   2.507   2.405   6.710
 1914SOL    HW2 6642   2.623   2.497   6.780
 1915SOL     OW 6643   3.319   1.382   5.215
 1915SOL    HW1 6644   3.291   1.348   5.304
 1915SOL    HW2 6645   3.400   1.440   5.226
 1916SOL     OW 6646   3.753   5.527   0.869
 1916SOL    HW1 6647   3.774   5.430   0.856
 1916SOL    HW2 6648   3.690   5.537   0.946
 1917SOL     OW 6649   4.100   3.698   4.597
 1917SOL    HW1 6650   4.163   3.624   4.621
 1917SOL    HW2 6651   4.114   3.724   4.502
 1918SOL     OW 6652   6.388   6.213   6.527
 1918SOL    HW1 6653   6.379   6.201   6.626
 1918SOL    HW2 6654   6.437   6.135   6.489
 1919SOL     OW 6655   1.092   6.717   2.130
 1919SOL    HW1 6656   0.998   6.699   2.100
 1919SOL    HW2 6657   1.151   6.643   2.097
 1920SOL     OW 6658   0.504   5.002   3.206
 1920SOL    HW1 6659   0.464   5.060   3.135
 1920SOL    HW2 6660   0.440   4.994   3.283
 1921SOL     OW 6661   0.418   4.765   0.489
 1921SOL    HW1 6662   0.466   4.819   0.558
 1921SOL    HW2 6663   0.473   4.686   0.464
 1922SOL     OW 6664   3.542   3.854   1.213
 1922SOL    HW1 6665   3.461   3.847   1.272
 1922SOL    HW2 6666   3.513   3.866   1.118
 1923SOL     OW 6667   2.652   0.713   6.875
 1923SOL    HW1 6668   2.660   0.812   6.869
 1923SOL    HW2 6669   2.737   0.674   6.910
 1924SOL     OW 6670   5.580   5.666   2.798
 1924SOL    HW1 6671   5.654   5.720   2.838
 1924SOL    HW2 6672   5.596   5.654   2.700
 1925SOL     OW 6673   2.852   3.513   2.045
 1925SOL    HW1 6674   2.873   3.611   2.036
 1925SOL    HW2 6675   2.768   3.502   2.098
 1926SOL     OW 6676   1.231   7.009   4.015
 1926SOL    HW1 6677   1.301   6.984   4.082
 1926SOL    HW2 6678   1.257   0.071   3.968
 1927SOL     OW 6679   3.158   5.026   6.483
 1927SOL    HW1 6680   3.179   4.933   6.456
 1927SOL    HW2 6681   3.186   5.089   6.410
 1928SOL     OW 6682   6.666   3.779   6.260
 1928SOL    HW1 6683   6.638   3.874   6.277
 1928SOL    HW2 6684   6.763   3.769   6.281
 1929SOL     OW 6685   0.607   5.561   1.238
 1929SOL    HW1 6686   0.673   5.491   1.208
 1929SOL    HW2 6687   0.516   5.539   1.203
 1930SOL     OW 6688   4.760   4.186   6.799
 1930SOL    HW1 6689   4.829   4.229   6.740
 1930SOL    HW2 6690   4.675   4.239   6.794
 1931SOL     OW 6691   0.239   3.337   3.417
 1931SOL    HW1 6692   0.179   3.260   3.400
 1931SOL    HW2 6693   0.333   3.304   3.427
 1932SOL     OW 6694   4.943   4.320   2.558
 1932SOL    HW1 6695   4.921   4.265   2.477
 1932SOL    HW2 6696   5.039   4.305   2.583
 1933SOL     OW 6697   2.988   4.569   0.374
 1933SOL    HW1 6698   2.925   4.513   0.321
 1933SOL    HW2 6699   3.082   4.543   0.352
 1934SOL     OW 6700   0.194   0.622   5.509
 1934SOL    HW1 6701   0.277   0.636   5.564
 1934SOL    HW2 6702   0.129   0.568   5.561
 1935SOL     OW 6703   3.371   0.341   5.138
 1935SOL    HW1 6704   3.346   0.368   5.045
 1935SOL    HW2 6705   3.441   0.403   5.173
 1936SOL     OW 6706   5.861   4.161   3.899
 1936SOL    HW1 6707   5.771   4.204   3.895
 1936SOL    HW2 6708   5.907   4.169   3.811
 1937SOL     OW 6709   4.364   6.254   1.609
 1937SOL    HW1 6710   4.357   6.220   1.703
 1937SOL    HW2 6711   4.289   6.216   1.554
 1938SOL     OW 6712   4.189   0.917   2.867
 1938SOL    HW1 6713   4.279   0.874   2.858
 1938SOL    HW2 6714   4.196   0.994   2.931
 1939SOL     OW 6715   0.286   6.390   4.518
 1939SOL    HW1 6716   0.357   6.355   4.457
 1939SOL    HW2 6717   0.323   6.396   4.611
 1940SOL     OW 6718   4.998   5.070   5.786
 1940SOL    HW1 6719   4.899   5.084   5.786
 1940SOL    HW2 6720   5.021   4.995   5.724
 1941SOL     OW 6721   0.010   3.827   3.249
 1941SOL    HW1 6722   6.953   3.781   3.209
 1941SOL    HW2 6723   0.094   3.784   3.216
 1942SOL     OW 6724   6.469   0.656   3.162
 1942SOL    HW1 6725   6.447   0.640   3.258
 1942SOL    HW2 6726   6.545   0.719   3.155
 1943SOL     OW 6727   3.281   6.353   2.275
 1943SOL    HW1 6728   3.342   6.419   2.319
 1943SOL    HW2 6729   3.193   6.353   2.321
 1944SOL     OW 6730   5.079   2.472   6.480
 1944SOL    HW1 6731   5.168   2.496   6.519
 1944SOL    HW2 6732   5.027   2.419   6.548
 1945SOL     OW 6733   3.778   5.979   2.324
 1945SOL    HW1 6734   3.679   5.987   2.311
 1945SOL    HW2 6735   3.797   5.928   2.408
 1946SOL     OW 6736   6.794   0.763   0.754
 1946SOL    HW1 6737   6.810   0.751   0.656
 1946SOL    HW2 6738   6.774   0.859   0.773
 1947SOL     OW 6739   5.178   6.633   3.810
 1947SOL    HW1 6740   5.259   6.625   3.869
 1947SOL    HW2 6741   5.186   6.568   3.734
 1948SOL     OW 6742   6.015   5.929   3.533
 1948SOL    HW1 6743   5.923   5.962   3.555
 1948SOL    HW2 6744   6.065   5.910   3.617
 1949SOL     OW 6745   4.683   4.720   5.956
 1949SOL    HW1 6746   4.756   4.733   5.889
 1949SOL    HW2 6747   4.616   4.654   5.920
 1950SOL     OW 6748   3.600   3.818   0.870
 1950SOL    HW1 6749   3.555   3.893   0.822
 1950SOL    HW2 6750   3.536   3.742   0.880
 1951SOL     OW 6751   5.950   3.681   0.427
 1951SOL    HW1 6752   5.872   3.702   0.485
 1951SOL    HW2 6753   6.028   3.738   0.454
 1952SOL     OW 6754   3.451   2.639   6.933
 1952SOL    HW1 6755   3.402   2.627   6.847
 1952SOL    HW2 6756   3.507   2.722   6.929
 1953SOL     OW 6757   5.944   2.544   0.259
 1953SOL    HW1 6758   6.026   2.600   0.270
 1953SOL    HW2 6759   5.863   2.598   0.282
 1954SOL     OW 6760   5.914   1.291   4.383
 1954SOL    HW1 6761   5.926   1.317   4.287
 1954SOL    HW2 6762   5.928   1.193   4.393
 1955SOL     OW 6763   1.304   0.495   2.631
 1955SOL    HW1 6764   1.378   0.439   2.669
 1955SOL    HW2 6765   1.292   0.577   2.687
 1956SOL     OW 6766   6.153   0.364   2.388
 1956SOL    HW1 6767   6.163   0.441   2.450
 1956SOL    HW2 6768   6.104   0.393   2.306
 1957SOL     OW 6769   6.558   5.228   4.781
 1957SOL    HW1 6770   6.518   5.283   4.854
 1957SOL    HW2 6771   6.657   5.227   4.791
 1958SOL     OW 6772   5.836   2.426   3.703
 1958SOL    HW1 6773   5.835   2.431   3.803
 1958SOL    HW2 6774   5.754   2.379   3.671
 1959SOL     OW 6775   0.101   1.777   6.213
 1959SOL    HW1 6776   0.136   1.693   6.255
 1959SOL    HW2 6777   0.009   1.760   6.177
 1960SOL     OW 6778   6.653   3.982   0.495
 1960SOL    HW1 6779   6.752   3.970   0.491
 1960SOL    HW2 6780   6.621   3.963   0.588
 1961SOL     OW 6781   6.052   4.390   4.390
 1961SOL    HW1 6782   6.060   4.490   4.389
 1961SOL    HW2 6783   6.122   4.351   4.330
 1962SOL     OW 6784   3.237   6.506   2.840
 1962SOL    HW1 6785   3.173   6.452   2.895
 1962SOL    HW2 6786   3.202   6.599   2.830
 1963SOL     OW 6787   0.668   0.559   1.165
 1963SOL    HW1 6788   0.709   0.649   1.177
 1963SOL    HW2 6789   0.740   0.490   1.162
 1964SOL     OW 6790   4.374   3.006   1.480
 1964SOL    HW1 6791   4.337   2.919   1.514
 1964SOL    HW2 6792   4.329   3.082   1.526
 1965SOL     OW 6793   1.254   3.257   3.308
 1965SOL    HW1 6794   1.173   3.243   3.365
 1965SOL    HW2 6795   1.237   3.332   3.244
 1966SOL     OW 6796   0.156   5.606   5.205
 1966SOL    HW1 6797   0.153   5.683   5.269
 1966SOL    HW2 6798   0.066   5.563   5.202
 1967SOL     OW 6799   4.902   2.307   4.927
 1967SOL    HW1 6800   4.867   2.213   4.924
 1967SOL    HW2 6801   4.825   2.370   4.934
 1968SOL     OW 6802   3.413   5.438   0.698
 1968SOL    HW1 6803   3.435   5.505   0.769
 1968SOL    HW2 6804   3.372   5.357   0.740
 1969SOL     OW 6805   0.513   1.425   1.504
 1969SOL    HW1 6806   0.417   1.450   1.494
 1969SOL    HW2 6807   0.523   1.355   1.574
 1970SOL     OW 6808   2.352   0.025   6.240
 1970SOL    HW1 6809   2.434   7.015   6.193
 1970SOL    HW2 6810   2.274   0.025   6.177
 1971SOL     OW 6811   6.584   0.033   6.325
 1971SOL    HW1 6812   6.488   0.054   6.346
 1971SOL    HW2 6813   6.595   0.024   6.226
 1972SOL     OW 6814   5.886   2.624   2.838
 1972SOL    HW1 6815   5.925   2.640   2.748
 1972SOL    HW2 6816   5.787   2.643   2.835
 1973SOL     OW 6817   2.531   3.611   0.722
 1973SOL    HW1 6818   2.584   3.621   0.637
 1973SOL    HW2 6819   2.520   3.514   0.743
 1974SOL     OW 6820   6.387   6.277   3.901
 1974SOL    HW1 6821   6.319   6.230   3.844
 1974SOL    HW2 6822   6.376   6.248   3.996
 1975SOL     OW 6823   2.485   1.456   2.918
 1975SOL    HW1 6824   2.445   1.548   2.925
 1975SOL    HW2 6825   2.543   1.451   2.837
 1976SOL     OW 6826   0.335   5.583   7.002
 1976SOL    HW1 6827   0.260   5.647   6.986
 1976SOL    HW2 6828   0.394   5.579   6.922
 1977SOL     OW 6829   1.278   2.985   3.369
 1977SOL    HW1 6830   1.288   2.927   3.288
 1977SOL    HW2 6831   1.255   3.078   3.340
 1978SOL     OW 6832   1.008   1.217   3.864
 1978SOL    HW1 6833   1.009   1.301   3.809
 1978SOL    HW2 6834   0.919   1.173   3.857
 1979SOL     OW 6835   6.629   4.238   5.115
 1979SOL    HW1 6836   6.676   4.289   5.187
 1979SOL    HW2 6837   6.577   4.163   5.156
 1980SOL     OW 6838   2.959   0.950   6.424
 1980SOL    HW1 6839   2.956   0.978   6.328
 1980SOL    HW2 6840   2.865   0.934   6.457
 1981SOL     OW 6841   6.357   2.035   2.194
 1981SOL    HW1 6842   6.417   2.112   2.215
 1981SOL    HW2 6843   6.264   2.068   2.179
 1982SOL     OW 6844   0.513   4.133   5.097
 1982SOL    HW1 6845   0.455   4.206   5.134
 1982SOL    HW2 6846   0.592   4.120   5.156
 1983SOL     OW 6847   0.593   1.911   3.198
 1983SOL    HW1 6848   0.637   1.838   3.145
 1983SOL    HW2 6849   0.661   1.958   3.254
 1984SOL     OW 6850   5.903   1.522   4.516
 1984SOL    HW1 6851   5.909   1.435   4.468
 1984SOL    HW2 6852   5.809   1.536   4.550
 1985SOL     OW 6853   0.797   0.381   2.733
 1985SOL    HW1 6854   0.798   0.406   2.637
 1985SOL    HW2 6855   0.710   0.340   2.757
 1986SOL     OW 6856   1.455   0.223   0.013
 1986SOL    HW1 6857   1.365   0.205   6.995
 1986SOL    HW2 6858   1.449   0.215   0.112
 1987SOL     OW 6859   1.125   2.984   0.909
 1987SOL    HW1 6860   1.193   3.053   0.935
 1987SOL    HW2 6861   1.063   2.968   0.986
 1988SOL     OW 6862   5.110   4.753   1.094
 1988SOL    HW1 6863   5.140   4.703   1.012
 1988SOL    HW2 6864   5.173   4.829   1.112
 1989SOL     OW 6865   2.304   6.755   5.038
 1989SOL    HW1 6866   2.375   6.805   4.990
 1989SOL    HW2 6867   2.342   6.713   5.121
 1990SOL     OW 6868   3.045   6.300   0.672
 1990SOL    HW1 6869   3.075   6.338   0.760
 1990SOL    HW2 6870   3.096   6.344   0.598
 1991SOL     OW 6871   4.417   4.812   6.358
 1991SOL    HW1 6872   4.458   4.823   6.449
 1991SOL    HW2 6873   4.373   4.722   6.352
 1992SOL     OW 6874   0.616   6.838   6.875
 1992SOL    HW1 6875   0.714   6.852   6.888
 1992SOL    HW2 6876   0.586   6.758   6.927
 1993SOL     OW 6877   3.904   3.373   4.718
 1993SOL    HW1 6878   3.891   3.471   4.732
 1993SOL    HW2 6879   3.983   3.358   4.659
 1994SOL     OW 6880   1.060   1.755   0.445
 1994SOL    HW1 6881   1.148   1.802   0.448
 1994SOL    HW2 6882   1.075   1.657   0.433
 1995SOL     OW 6883   6.381   2.322   1.616
 1995SOL    HW1 6884   6.414   2.415   1.632
 1995SOL    HW2 6885   6.458   2.258   1.617
 1996SOL     OW 6886   2.865   3.760   0.755
 1996SOL    HW1 6887   2.924   3.679   0.753
 1996SOL    HW2 6888   2.917   3.840   0.725
 1997SOL     OW 6889   4.841   0.282   5.171
 1997SOL    HW1 6890   4.907   0.309   5.240
 1997SOL    HW2 6891   4.764   0.236   5.215
 1998SOL     OW 6892   2.891   3.868   6.351
 1998SOL    HW1 6893   2.811   3.826   6.393
 1998SOL    HW2 6894   2.890   3.967   6.368
 1999SOL     OW 6895   3.274   6.376   1.209
 1999SOL    HW1 6896   3.281   6.361   1.308
 1999SOL    HW2 6897   3.179   6.398   1.185
 2000SOL     OW 6898   3.994   2.019   5.002
 2000SOL    HW1 6899   4.012   2.102   4.950
 2000SOL    HW2 6900   3.898   2.018   5.031
 2001SOL     OW 6901   3.132   1.772   1.662
 2001SOL    HW1 6902   3.215   1.793   1.714
 2001SOL    HW2 6903   3.144   1.685   1.614
 2002SOL     OW 6904   1.207   5.434   5.932
 2002SOL    HW1 6905   1.167   5.490   6.004
 2002SOL    HW2 6906   1.225   5.490   5.852
 2003SOL     OW 6907   6.263   6.799   3.596
 2003SOL    HW1 6908   6.302   6.782   3.686
 2003SOL    HW2 6909   6.332   6.783   3.525
 2004SOL     OW 6910   5.088   1.474   5.218
 2004SOL    HW1 6911   5.048   1.463   5.309
 2004SOL    HW2 6912   5.086   1.570   5.191
 2005SOL     OW 6913   0.890   4.969   6.817
 2005SOL    HW1 6914   0.961   4.916   6.863
 2005SOL    HW2 6915   0.826   4.907   6.771
 2006SOL     OW 6916   5.536   4.819   4.351
 2006SOL    HW1 6917   5.557   4.831   4.448
 2006SOL    HW2 6918   5.437   4.822   4.337
 2007SOL     OW 6919   3.819   4.916   1.191
 2007SOL    HW1 6920   3.832   4.952   1.283
 2007SOL    HW2 6921   3.860   4.978   1.124
 2008SOL     OW 6922   1.389   5.636   3.210
 2008SOL    HW1 6923   1.299   5.647   3.251
 2008SOL    HW2 6924   1.436   5.724   3.206
 2009SOL     OW 6925   6.387   0.142   1.686
 2009SOL    HW1 6926   6.341   0.184   1.608
 2009SOL    HW2 6927   6.457   0.079   1.654
 2010SOL     OW 6928   1.247   1.423   1.727
 2010SOL    HW1 6929   1.315   1.390   1.792
 2010SOL    HW2 6930   1.289   1.433   1.636
 2011SOL     OW 6931   6.350   1.627   5.142
 2011SOL    HW1 6932   6.322   1.566   5.067
 2011SOL    HW2 6933   6.441   1.663   5.123
 2012SOL     OW 6934   1.104   3.080   1.657
 2012SOL    HW1 6935   1.124   3.104   1.562
 2012SOL    HW2 6936   1.067   2.988   1.662
 2013SOL     OW 6937   6.136   0.693   3.350
 2013SOL    HW1 6938   6.079   0.747   3.412
 2013SOL    HW2 6939   6.169   0.752   3.276
 2014SOL     OW 6940   2.047   5.433   3.043
 2014SOL    HW1 6941   2.070   5.336   3.042
 2014SOL    HW2 6942   2.073   5.475   2.956
 2015SOL     OW 6943   2.182   1.971   0.123
 2015SOL    HW1 6944   2.195   1.949   0.219
 2015SOL    HW2 6945   2.174   2.070   0.112
 2016SOL     OW 6946   1.657   5.320   5.361
 2016SOL    HW1 6947   1.693   5.387   5.296
 2016SOL    HW2 6948   1.727   5.251   5.379
 2017SOL     OW 6949   2.516   6.788   4.307
 2017SOL    HW1 6950   2.431   6.773   4.357
 2017SOL    HW2 6951   2.565   6.866   4.348
 2018SOL     OW 6952   6.046   6.960   6.091
 2018SOL    HW1 6953   6.057   6.881   6.151
 2018SOL    HW2 6954   6.123   6.965   6.027
 2019SOL     OW 6955   4.805   2.381   2.241
 2019SOL    HW1 6956   4.859   2.383   2.325
 2019SOL    HW2 6957   4.860   2.345   2.166
 2020SOL     OW 6958   1.292   5.621   5.368
 2020SOL    HW1 6959   1.376   5.647   5.416
 2020SOL    HW2 6960   1.219   5.685   5.393
 2021SOL     OW 6961   2.384   5.348   3.612
 2021SOL    HW1 6962   2.379   5.345   3.513
 2021SOL    HW2 6963   2.307   5.401   3.648
 2022SOL     OW 6964   1.825   3.099   2.985
 2022SOL    HW1 6965   1.874   3.036   2.925
 2022SOL    HW2 6966   1.728   3.098   2.962
 2023SOL     OW 6967   5.852   1.490   6.724
 2023SOL    HW1 6968   5.780   1.515   6.660
 2023SOL    HW2 6969   5.920   1.563   6.729
 2024SOL     OW 6970   6.948   0.064   2.932
 2024SOL    HW1 6971   6.967   6.998   2.889
 2024SOL    HW2 6972   6.872   0.108   2.884
 2025SOL     OW 6973   2.158   3.007   2.211
 2025SOL    HW1 6974   2.227   2.953   2.164
 2025SOL    HW2 6975   2.161   3.102   2.178
 2026SOL     OW 6976   1.015   2.511   6.065
 2026SOL    HW1 6977   1.024   2.450   5.986
 2026SOL    HW2 6978   1.086   2.581   6.061
 2027SOL     OW 6979   1.051   1.535   0.872
 2027SOL    HW1 6980   1.034   1.475   0.794
 2027SOL    HW2 6981   1.047   1.630   0.842
 2028SOL     OW 6982   3.263   1.137   6.132
 2028SOL    HW1 6983   3.247   1.222   6.080
 2028SOL    HW2 6984   3.221   1.061   6.083
 2029SOL     OW 6985   6.769   0.626   0.995
 2029SOL    HW1 6986   6.849   0.639   1.053
 2029SOL    HW2 6987   6.778   0.682   0.913
 2030SOL     OW 6988   2.618   0.717   3.283
 2030SOL    HW1 6989   2.674   0.785   3.330
 2030SOL    HW2 6990   2.521   0.739   3.297
 2031SOL     OW 6991   5.891   6.158   2.112
 2031SOL    HW1 6992   5.795   6.188   2.113
 2031SOL    HW2 6993   5.899   6.074   2.058
 2032SOL     OW 6994   3.757   6.881   2.073
 2032SOL    HW1 6995   3.703   6.905   1.993
 2032SOL    HW2 6996   3.697   6.854   2.148
 2033SOL     OW 6997   3.667   3.822   6.637
 2033SOL    HW1 6998   3.606   3.745   6.651
 2033SOL    HW2 6999   3.614   3.901   6.607
 2034SOL     OW 7000   3.370   6.972   4.378
 2034SOL    HW1 7001   3.335   6.880   4.394
 2034SOL    HW2 7002   3.469   6.974   4.394
 2035SOL     OW 7003   6.815   0.702   1.810
 2035SOL    HW1 7004   6.849   0.782   1.762
 2035SOL    HW2 7005   6.840   0.619   1.759
 2036SOL     OW 7006   1.127   5.693   2.969
 2036SOL    HW1 7007   1.181   5.609   2.960
 2036SOL    HW2 7008   1.188   5.772   2.968
 2037SOL     OW 7009   0.862   3.073   5.716
 2037SOL    HW1 7010   0.845   3.087   5.814
 2037SOL    HW2 7011   0.826   2.985   5.687
 2038SOL     OW 7012   1.671   2.176   6.504
 2038SOL    HW1 7013   1.705   2.229   6.581
 2038SOL    HW2 7014   1.727   2.194   6.423
 2039SOL     OW 7015   0.088   5.283   2.732
 2039SOL    HW1 7016   0.162   5.241   2.679
 2039SOL    HW2 7017   0.103   5.382   2.736
 2040SOL     OW 7018   3.520   3.569   5.123
 2040SOL    HW1 7019   3.523   3.479   5.079
 2040SOL    HW2 7020   3.564   3.636   5.064
 2041SOL     OW 7021   6.784   5.729   5.307
 2041SOL    HW1 7022   6.771   5.806   5.370
 2041SOL    HW2 7023   6.695   5.687   5.288
 2042SOL     OW 7024   5.534   4.949   6.966
 2042SOL    HW1 7025   5.532   4.950   0.043
 2042SOL    HW2 7026   5.535   5.042   6.931
 2043SOL     OW 7027   6.425   4.465   2.610
 2043SOL    HW1 7028   6.390   4.547   2.656
 2043SOL    HW2 7029   6.524   4.472   2.601
 2044SOL     OW 7030   5.072   0.091   1.942
 2044SOL    HW1 7031   5.171   0.087   1.925
 2044SOL    HW2 7032   5.054   0.155   2.016
 2045SOL     OW 7033   2.718   4.694   4.316
 2045SOL    HW1 7034   2.681   4.617   4.368
 2045SOL    HW2 7035   2.660   4.712   4.237
 2046SOL     OW 7036   0.421   1.289   4.305
 2046SOL    HW1 7037   0.443   1.339   4.221
 2046SOL    HW2 7038   0.408   1.192   4.284
 2047SOL     OW 7039   4.842   2.062   0.271
 2047SOL    HW1 7040   4.850   2.147   0.324
 2047SOL    HW2 7041   4.820   2.083   0.176
 2048SOL     OW 7042   1.930   5.723   0.912
 2048SOL    HW1 7043   2.014   5.670   0.916
 2048SOL    HW2 7044   1.918   5.760   0.820
 2049SOL     OW 7045   4.870   1.653   6.397
 2049SOL    HW1 7046   4.817   1.583   6.348
 2049SOL    HW2 7047   4.811   1.732   6.415
 2050SOL     OW 7048   0.713   3.116   2.829
 2050SOL    HW1 7049   0.693   3.018   2.835
 2050SOL    HW2 7050   0.633   3.169   2.859
 2051SOL     OW 7051   0.961   5.994   1.216
 2051SOL    HW1 7052   0.938   6.011   1.312
 2051SOL    HW2 7053   0.985   5.897   1.204
 2052SOL     OW 7054   0.313   4.459   0.700
 2052SOL    HW1 7055   0.305   4.435   0.603
 2052SOL    HW2 7056   0.300   4.378   0.756
 2053SOL     OW 7057   5.454   0.213   5.434
 2053SOL    HW1 7058   5.465   0.309   5.461
 2053SOL    HW2 7059   5.533   0.160   5.467
 2054SOL     OW 7060   3.914   3.015   1.899
 2054SOL    HW1 7061   3.982   2.945   1.880
 2054SOL    HW2 7062   3.864   2.991   1.982
 2055SOL     OW 7063   6.539   3.442   3.415
 2055SOL    HW1 7064   6.490   3.452   3.328
 2055SOL    HW2 7065   6.504   3.361   3.463
 2056SOL     OW 7066   2.400   0.434   3.235
 2056SOL    HW1 7067   2.464   0.467   3.304
 2056SOL    HW2 7068   2.443   0.437   3.145
 2057SOL     OW 7069   5.462   3.106   4.061
 2057SOL    HW1 7070   5.480   3.073   4.153
 2057SOL    HW2 7071   5.442   3.028   4.001
 2058SOL     OW 7072   0.996   1.978   3.038
 2058SOL    HW1 7073   1.027   1.910   3.105
 2058SOL    HW2 7074   0.910   1.948   2.997
 2059SOL     OW 7075   2.629   6.223   5.956
 2059SOL    HW1 7076   2.651   6.143   5.901
 2059SOL    HW2 7077   2.690   6.299   5.930
 2060SOL     OW 7078   5.480   4.661   0.521
 2060SOL    HW1 7079   5.410   4.678   0.590
 2060SOL    HW2 7080   5.541   4.740   0.514
 2061SOL     OW 7081   0.550   2.163   3.039
 2061SOL    HW1 7082   0.563   2.081   3.094
 2061SOL    HW2 7083   0.549   2.138   2.942
 2062SOL     OW 7084   6.021   0.021   3.818
 2062SOL    HW1 7085   6.038   0.031   3.916
 2062SOL    HW2 7086   6.102   0.050   3.766
 2063SOL     OW 7087   1.721   0.472   6.439
 2063SOL    HW1 7088   1.671   0.553   6.411
 2063SOL    HW2 7089   1.791   0.497   6.505
 2064SOL     OW 7090   1.090   2.341   5.887
 2064SOL    HW1 7091   1.183   2.303   5.887
 2064SOL    HW2 7092   1.067   2.369   5.794
 2065SOL     OW 7093   6.824   2.929   4.334
 2065SOL    HW1 7094   6.868   2.842   4.312
 2065SOL    HW2 7095   6.890   2.989   4.380
 2066SOL     OW 7096   0.561   5.605   3.292
 2066SOL    HW1 7097   0.554   5.596   3.193
 2066SOL    HW2 7098   0.610   5.526   3.329
 2067SOL     OW 7099   6.890   5.550   1.117
 2067SOL    HW1 7100   6.830   5.475   1.091
 2067SOL    HW2 7101   6.972   5.513   1.161
 2068SOL     OW 7102   1.562   1.845   5.777
 2068SOL    HW1 7103   1.623   1.766   5.772
 2068SOL    HW2 7104   1.608   1.926   5.740
 2069SOL     OW 7105   0.962   3.012   3.302
 2069SOL    HW1 7106   0.900   2.933   3.297
 2069SOL    HW2 7107   0.990   3.038   3.209
 2070SOL     OW 7108   1.181   0.815   2.217
 2070SOL    HW1 7109   1.221   0.730   2.249
 2070SOL    HW2 7110   1.129   0.798   2.133
 2071SOL     OW 7111   5.750   5.995   5.256
 2071SOL    HW1 7112   5.844   5.963   5.245
 2071SOL    HW2 7113   5.701   5.932   5.316
 2072SOL     OW 7114   4.157   6.984   2.421
 2072SOL    HW1 7115   4.128   0.053   2.448
 2072SOL    HW2 7116   4.244   6.990   2.373
 2073SOL     OW 7117   4.254   6.737   4.407
 2073SOL    HW1 7118   4.303   6.715   4.492
 2073SOL    HW2 7119   4.207   6.655   4.374
 2074SOL     OW 7120   1.615   2.912   0.317
 2074SOL    HW1 7121   1.553   2.838   0.294
 2074SOL    HW2 7122   1.562   2.991   0.348
 2075SOL     OW 7123   5.273   3.013   1.216
 2075SOL    HW1 7124   5.228   3.084   1.271
 2075SOL    HW2 7125   5.275   3.042   1.120
 2076SOL     OW 7126   5.743   6.768   6.148
 2076SOL    HW1 7127   5.711   6.718   6.228
 2076SOL    HW2 7128   5.723   6.865   6.159
 2077SOL     OW 7129   5.624   2.975   2.191
 2077SOL    HW1 7130   5.636   3.041   2.118
 2077SOL    HW2 7131   5.665   3.010   2.276
 2078SOL     OW 7132   1.393   5.736   6.212
 2078SOL    HW1 7133   1.410   5.640   6.233
 2078SOL    HW2 7134   1.469   5.772   6.157
 2079SOL     OW 7135   5.625   1.677   3.415
 2079SOL    HW1 7136   5.611   1.613   3.339
 2079SOL    HW2 7137   5.687   1.750   3.386
 2080SOL     OW 7138   1.743   0.968   4.760
 2080SOL    HW1 7139   1.727   0.869   4.755
 2080SOL    HW2 7140   1.780   0.991   4.850
 2081SOL     OW 7141   1.470   5.608   4.464
 2081SOL    HW1 7142   1.460   5.560   4.377
 2081SOL    HW2 7143   1.382   5.609   4.512
 2082SOL     OW 7144   0.140   0.018   3.372
 2082SOL    HW1 7145   0.095   7.006   3.290
 2082SOL    HW2 7146   0.197   0.097   3.348
 2083SOL     OW 7147   5.688   5.225   6.627
 2083SOL    HW1 7148   5.614   5.170   6.667
 2083SOL    HW2 7149   5.651   5.310   6.591
 2084SOL     OW 7150   1.317   3.713   4.180
 2084SOL    HW1 7151   1.353   3.621   4.194
 2084SOL    HW2 7152   1.225   3.720   4.219
 2085SOL     OW 7153   4.277   0.457   6.682
 2085SOL    HW1 7154   4.299   0.553   6.665
 2085SOL    HW2 7155   4.180   0.441   6.661
 2086SOL     OW 7156   4.389   6.572   5.669
 2086SOL    HW1 7157   4.419   6.608   5.580
 2086SOL    HW2 7158   4.451   6.499   5.698
 2087SOL     OW 7159   5.121   0.163   1.479
 2087SOL    HW1 7160   5.095   0.249   1.435
 2087SOL    HW2 7161   5.038   0.110   1.499
 2088SOL     OW 7162   3.000   6.224   0.394
 2088SOL    HW1 7163   2.980   6.299   0.457
 2088SOL    HW2 7164   2.955   6.241   0.307
 2089SOL     OW 7165   5.386   2.096   6.163
 2089SOL    HW1 7166   5.399   2.032   6.239
 2089SOL    HW2 7167   5.375   2.045   6.078
 2090SOL     OW 7168   3.418   3.217   5.901
 2090SOL    HW1 7169   3.384   3.191   5.810
 2090SOL    HW2 7170   3.343   3.209   5.967
 2091SOL     OW 7171   6.931   5.544   0.654
 2091SOL    HW1 7172   7.021   5.528   0.695
 2091SOL    HW2 7173   6.919   5.642   0.638
 2092SOL     OW 7174   5.529   4.470   6.983
 2092SOL    HW1 7175   5.507   4.448   6.888
 2092SOL    HW2 7176   5.506   4.565   7.002
 2093SOL     OW 7177   2.324   2.295   1.056
 2093SOL    HW1 7178   2.272   2.338   1.130
 2093SOL    HW2 7179   2.402   2.352   1.032
 2094SOL     OW 7180   5.675   1.552   1.068
 2094SOL    HW1 7181   5.753   1.554   1.006
 2094SOL    HW2 7182   5.683   1.626   1.134
 2095SOL     OW 7183   5.636   0.506   5.075
 2095SOL    HW1 7184   5.678   0.587   5.032
 2095SOL    HW2 7185   5.571   0.535   5.144
 2096SOL     OW 7186   5.070   4.015   3.240
 2096SOL    HW1 7187   5.108   4.065   3.162
 2096SOL    HW2 7188   5.134   3.944   3.268
 2097SOL     OW 7189   2.366   2.768   6.758
 2097SOL    HW1 7190   2.379   2.823   6.675
 2097SOL    HW2 7191   2.358   2.829   6.837
 2098SOL     OW 7192   4.331   6.014   2.730
 2098SOL    HW1 7193   4.280   6.003   2.815
 2098SOL    HW2 7194   4.401   5.942   2.723
 2099SOL     OW 7195   2.672   3.379   5.860
 2099SOL    HW1 7196   2.718   3.291   5.851
 2099SOL    HW2 7197   2.638   3.408   5.770
 2100SOL     OW 7198   4.634   2.951   6.056
 2100SOL    HW1 7199   4.630   2.877   5.989
 2100SOL    HW2 7200   4.644   3.039   6.008
 2101SOL     OW 7201   1.391   6.401   2.373
 2101SOL    HW1 7202   1.342   6.370   2.291
 2101SOL    HW2 7203   1.481   6.358   2.376
 2102SOL     OW 7204   6.235   4.905   1.622
 2102SOL    HW1 7205   6.265   4.997   1.648
 2102SOL    HW2 7206   6.216   4.852   1.705
 2103SOL     OW 7207   3.695   4.363   5.800
 2103SOL    HW1 7208   3.755   4.285   5.782
 2103SOL    HW2 7209   3.601   4.340   5.772
 2104SOL     OW 7210   1.898   3.572   1.081
 2104SOL    HW1 7211   1.983   3.548   1.128
 2104SOL    HW2 7212   1.833   3.608   1.148
 2105SOL     OW 7213   5.326   5.825   5.169
 2105SOL    HW1 7214   5.306   5.793   5.262
 2105SOL    HW2 7215   5.387   5.904   5.174
 2106SOL     OW 7216   4.671   4.187   1.063
 2106SOL    HW1 7217   4.655   4.099   1.020
 2106SOL    HW2 7218   4.647   4.182   1.160
 2107SOL     OW 7219   5.007   2.322   5.221
 2107SOL    HW1 7220   5.087   2.351   5.274
 2107SOL    HW2 7221   5.014   2.358   5.128
 2108SOL     OW 7222   6.554   6.120   5.181
 2108SOL    HW1 7223   6.474   6.138   5.238
 2108SOL    HW2 7224   6.543   6.031   5.137
 2109SOL     OW 7225   4.322   6.506   2.341
 2109SOL    HW1 7226   4.250   6.453   2.387
 2109SOL    HW2 7227   4.339   6.467   2.251
 2110SOL     OW 7228   2.594   1.406   0.022
 2110SOL    HW1 7229   2.641   1.491   7.022
 2110SOL    HW2 7230   2.607   1.386   0.119
 2111SOL     OW 7231   1.060   2.671   7.001
 2111SOL    HW1 7232   1.112   2.751   6.971
 2111SOL    HW2 7233   0.980   2.701   0.031
 2112SOL     OW 7234   5.047   3.501   0.085
 2112SOL    HW1 7235   5.014   3.486   0.178
 2112SOL    HW2 7236   5.019   3.426   0.026
 2113SOL     OW 7237   1.812   1.815   4.956
 2113SOL    HW1 7238   1.723   1.858   4.940
 2113SOL    HW2 7239   1.873   1.835   4.880
 2114SOL     OW 7240   1.492   2.378   0.195
 2114SOL    HW1 7241   1.504   2.351   0.099
 2114SOL    HW2 7242   1.498   2.477   0.202
 2115SOL     OW 7243   2.116   3.596   2.609
 2115SOL    HW1 7244   2.128   3.514   2.664
 2115SOL    HW2 7245   2.124   3.573   2.512
 2116SOL     OW 7246   6.852   4.959   3.123
 2116SOL    HW1 7247   6.825   4.983   3.216
 2116SOL    HW2 7248   6.885   5.041   3.076
 2117SOL     OW 7249   6.859   5.224   1.844
 2117SOL    HW1 7250   6.871   5.246   1.940
 2117SOL    HW2 7251   6.799   5.292   1.801
 2118SOL     OW 7252   5.767   3.679   1.794
 2118SOL    HW1 7253   5.753   3.584   1.767
 2118SOL    HW2 7254   5.828   3.724   1.729
 2119SOL     OW 7255   1.662   6.172   1.154
 2119SOL    HW1 7256   1.747   6.183   1.205
 2119SOL    HW2 7257   1.668   6.091   1.095
 2120SOL     OW 7258   6.873   5.311   3.868
 2120SOL    HW1 7259   6.972   5.325   3.863
 2120SOL    HW2 7260   6.849   5.274   3.958
 2121SOL     OW 7261   1.262   3.851   5.815
 2121SOL    HW1 7262   1.314   3.820   5.895
 2121SOL    HW2 7263   1.256   3.776   5.749
 2122SOL     OW 7264   5.541   4.494   6.026
 2122SOL    HW1 7265   5.552   4.529   5.934
 2122SOL    HW2 7266   5.587   4.405   6.034
 2123SOL     OW 7267   6.817   6.023   2.033
 2123SOL    HW1 7268   6.782   6.117   2.025
 2123SOL    HW2 7269   6.858   6.010   2.123
 2124SOL     OW 7270   2.485   2.017   1.763
 2124SOL    HW1 7271   2.556   2.078   1.798
 2124SOL    HW2 7272   2.485   1.932   1.815
 2125SOL     OW 7273   2.225   0.602   1.934
 2125SOL    HW1 7274   2.303   0.603   1.871
 2125SOL    HW2 7275   2.140   0.595   1.882
 2126SOL     OW 7276   3.590   1.550   6.324
 2126SOL    HW1 7277   3.544   1.477   6.273
 2126SOL    HW2 7278   3.625   1.513   6.411
 2127SOL     OW 7279   0.195   3.195   4.589
 2127SOL    HW1 7280   0.185   3.159   4.682
 2127SOL    HW2 7281   0.222   3.291   4.593
 2128SOL     OW 7282   6.792   3.141   3.746
 2128SOL    HW1 7283   6.865   3.111   3.808
 2128SOL    HW2 7284   6.830   3.160   3.656
 2129SOL     OW 7285   4.156   3.598   5.412
 2129SOL    HW1 7286   4.065   3.588   5.450
 2129SOL    HW2 7287   4.193   3.688   5.436
 2130SOL     OW 7288   3.226   0.868   1.922
 2130SOL    HW1 7289   3.278   0.796   1.968
 2130SOL    HW2 7290   3.199   0.937   1.989
 2131SOL     OW 7291   5.928   0.374   0.939
 2131SOL    HW1 7292   5.880   0.287   0.926
 2131SOL    HW2 7293   5.862   0.445   0.963
 2132SOL     OW 7294   3.154   1.108   1.646
 2132SOL    HW1 7295   3.095   1.107   1.727
 2132SOL    HW2 7296   3.217   1.184   1.652
 2133SOL     OW 7297   3.111   3.228   0.456
 2133SOL    HW1 7298   3.190   3.262   0.406
 2133SOL    HW2 7299   3.110   3.128   0.455
 2134SOL     OW 7300   6.923   2.235   6.772
 2134SOL    HW1 7301   6.895   2.189   6.688
 2134SOL    HW2 7302   6.847   2.288   6.808
 2135SOL     OW 7303   1.162   3.170   4.265
 2135SOL    HW1 7304   1.096   3.124   4.206
 2135SOL    HW2 7305   1.152   3.136   4.359
 2136SOL     OW 7306   1.510   3.450   3.053
 2136SOL    HW1 7307   1.536   3.360   3.019
 2136SOL    HW2 7308   1.423   3.445   3.101
 2137SOL     OW 7309   2.093   5.536   5.082
 2137SOL    HW1 7310   2.166   5.604   5.087
 2137SOL    HW2 7311   2.014   5.575   5.034
 2138SOL     OW 7312   6.500   0.187   3.167
 2138SOL    HW1 7313   6.564   0.142   3.229
 2138SOL    HW2 7314   6.548   0.253   3.111
 2139SOL     OW 7315   4.421   0.639   3.737
 2139SOL    HW1 7316   4.423   0.738   3.751
 2139SOL    HW2 7317   4.430   0.619   3.639
 2140SOL     OW 7318   3.705   6.591   3.645
 2140SOL    HW1 7319   3.772   6.552   3.709
 2140SOL    HW2 7320   3.646   6.518   3.611
 2141SOL     OW 7321   6.518   3.387   2.347
 2141SOL    HW1 7322   6.484   3.332   2.424
 2141SOL    HW2 7323   6.532   3.327   2.268
 2142SOL     OW 7324   1.508   1.309   2.828
 2142SOL    HW1 7325   1.445   1.382   2.803
 2142SOL    HW2 7326   1.543   1.325   2.920
 2143SOL     OW 7327   3.279   4.406   1.523
 2143SOL    HW1 7328   3.189   4.404   1.479
 2143SOL    HW2 7329   3.297   4.498   1.557
 2144SOL     OW 7330   1.130   5.637   3.695
 2144SOL    HW1 7331   1.059   5.690   3.649
 2144SOL    HW2 7332   1.179   5.581   3.628
 2145SOL     OW 7333   4.325   6.104   3.945
 2145SOL    HW1 7334   4.419   6.131   3.967
 2145SOL    HW2 7335   4.289   6.047   4.018
 2146SOL     OW 7336   2.123   3.749   1.480
 2146SOL    HW1 7337   2.115   3.792   1.570
 2146SOL    HW2 7338   2.204   3.785   1.433
 2147SOL     OW 7339   6.711   1.444   5.541
 2147SOL    HW1 7340   6.699   1.533   5.585
 2147SOL    HW2 7341   6.640   1.431   5.471
 2148SOL     OW 7342   6.213   3.261   5.790
 2148SOL    HW1 7343   6.117   3.233   5.795
 2148SOL    HW2 7344   6.271   3.185   5.819
 2149SOL     OW 7345   3.154   1.926   1.053
 2149SOL    HW1 7346   3.163   1.911   0.954
 2149SOL    HW2 7347   3.111   2.014   1.069
 2150SOL     OW 7348   2.448   2.618   2.229
 2150SOL    HW1 7349   2.504   2.635   2.147
 2150SOL    HW2 7350   2.500   2.561   2.293
 2151SOL     OW 7351   1.342   6.895   5.415
 2151SOL    HW1 7352   1.416   6.828   5.406
 2151SOL    HW2 7353   1.374   6.985   5.386
 2152SOL     OW 7354   3.042   5.556   2.256
 2152SOL    HW1 7355   3.094   5.640   2.275
 2152SOL    HW2 7356   3.100   5.476   2.273
 2153SOL     OW 7357   4.472   1.542   3.126
 2153SOL    HW1 7358   4.550   1.599   3.151
 2153SOL    HW2 7359   4.477   1.521   3.028
 2154SOL     OW 7360   5.433   1.329   4.899
 2154SOL    HW1 7361   5.486   1.411   4.916
 2154SOL    HW2 7362   5.470   1.281   4.819
 2155SOL     OW 7363   3.294   5.881   0.718
 2155SOL    HW1 7364   3.296   5.792   0.673
 2155SOL    HW2 7365   3.348   5.947   0.665
 2156SOL     OW 7366   1.421   2.135   4.964
 2156SOL    HW1 7367   1.389   2.140   4.869
 2156SOL    HW2 7368   1.345   2.154   5.026
 2157SOL     OW 7369   6.295   0.185   3.336
 2157SOL    HW1 7370   6.390   0.160   3.320
 2157SOL    HW2 7371   6.260   0.236   3.257
 2158SOL     OW 7372   3.607   5.962   0.877
 2158SOL    HW1 7373   3.590   5.973   0.779
 2158SOL    HW2 7374   3.531   6.000   0.929
 2159SOL     OW 7375   1.234   6.639   5.187
 2159SOL    HW1 7376   1.176   6.720   5.184
 2159SOL    HW2 7377   1.183   6.564   5.229
 2160SOL     OW 7378   4.404   3.918   6.768
 2160SOL    HW1 7379   4.336   3.918   6.695
 2160SOL    HW2 7380   4.359   3.922   6.857
 2161SOL     OW 7381   5.367   4.905   2.347
 2161SOL    HW1 7382   5.359   5.005   2.346
 2161SOL    HW2 7383   5.463   4.880   2.331
 2162SOL     OW 7384   2.613   0.025   2.181
 2162SOL    HW1 7385   2.615   0.125   2.182
 2162SOL    HW2 7386   2.623   7.016   2.086
 2163SOL     OW 7387   1.518   4.649   6.336
 2163SOL    HW1 7388   1.527   4.580   6.408
 2163SOL    HW2 7389   1.596   4.643   6.274
 2164SOL     OW 7390   1.704   2.473   6.401
 2164SOL    HW1 7391   1.669   2.424   6.321
 2164SOL    HW2 7392   1.739   2.408   6.468
 2165SOL     OW 7393   6.999   2.564   3.063
 2165SOL    HW1 7394   6.952   2.483   3.027
 2165SOL    HW2 7395   6.982   2.642   3.003
 2166SOL     OW 7396   1.064   2.368   5.057
 2166SOL    HW1 7397   1.073   2.271   5.079
 2166SOL    HW2 7398   1.153   2.413   5.067
 2167SOL     OW 7399   1.343   2.193   3.141
 2167SOL    HW1 7400   1.303   2.162   3.054
 2167SOL    HW2 7401   1.402   2.272   3.125
 2168SOL     OW 7402   0.569   2.387   3.903
 2168SOL    HW1 7403   0.515   2.421   3.981
 2168SOL    HW2 7404   0.595   2.464   3.845
 2169SOL     OW 7405   5.358   1.783   0.238
 2169SOL    HW1 7406   5.358   1.836   0.322
 2169SOL    HW2 7407   5.443   1.800   0.188
 2170SOL     OW 7408   6.992   4.152   5.415
 2170SOL    HW1 7409   6.907   4.193   5.448
 2170SOL    HW2 7410   6.975   4.056   5.389
 2171SOL     OW 7411   0.086   5.162   1.437
 2171SOL    HW1 7412   0.109   5.136   1.343
 2171SOL    HW2 7413   7.020   5.125   1.462
 2172SOL     OW 7414   1.762   2.233   6.253
 2172SOL    HW1 7415   1.704   2.201   6.177
 2172SOL    HW2 7416   1.834   2.292   6.216
 2173SOL     OW 7417   4.044   1.030   5.318
 2173SOL    HW1 7418   3.993   0.945   5.331
 2173SOL    HW2 7419   4.074   1.064   5.407
 2174SOL     OW 7420   5.553   5.907   4.910
 2174SOL    HW1 7421   5.650   5.931   4.905
 2174SOL    HW2 7422   5.519   5.924   5.002
 2175SOL     OW 7423   2.042   2.754   4.562
 2175SOL    HW1 7424   2.093   2.714   4.638
 2175SOL    HW2 7425   2.099   2.821   4.515
 2176SOL     OW 7426   6.015   2.042   0.468
 2176SOL    HW1 7427   5.949   1.987   0.417
 2176SOL    HW2 7428   6.017   2.135   0.431
 2177SOL     OW 7429   7.004   2.012   3.963
 2177SOL    HW1 7430   0.023   1.992   3.874
 2177SOL    HW2 7431   6.966   1.928   4.002
 2178SOL     OW 7432   1.938   2.166   1.749
 2178SOL    HW1 7433   1.918   2.074   1.714
 2178SOL    HW2 7434   2.032   2.191   1.726
 2179SOL     OW 7435   2.044   5.052   5.166
 2179SOL    HW1 7436   2.009   5.128   5.111
 2179SOL    HW2 7437   2.142   5.065   5.182
 2180SOL     OW 7438   1.642   2.136   2.087
 2180SOL    HW1 7439   1.560   2.176   2.046
 2180SOL    HW2 7440   1.723   2.182   2.050
 2181SOL     OW 7441   5.018   4.685   4.590
 2181SOL    HW1 7442   4.961   4.745   4.533
 2181SOL    HW2 7443   5.033   4.729   4.679
 2182SOL     OW 7444   1.764   4.040   4.186
 2182SOL    HW1 7445   1.820   4.009   4.262
 2182SOL    HW2 7446   1.774   3.977   4.109
 2183SOL     OW 7447   2.433   4.579   5.964
 2183SOL    HW1 7448   2.405   4.487   5.990
 2183SOL    HW2 7449   2.476   4.576   5.873
 2184SOL     OW 7450   3.664   1.276   6.188
 2184SOL    HW1 7451   3.666   1.191   6.135
 2184SOL    HW2 7452   3.573   1.288   6.228
 2185SOL     OW 7453   0.352   0.543   1.480
 2185SOL    HW1 7454   0.362   0.538   1.381
 2185SOL    HW2 7455   0.405   0.470   1.523
 2186SOL     OW 7456   0.244   5.961   1.574
 2186SOL    HW1 7457   0.217   5.904   1.652
 2186SOL    HW2 7458   0.173   6.029   1.556
 2187SOL     OW 7459   6.334   6.094   3.257
 2187SOL    HW1 7460   6.382   6.106   3.345
 2187SOL    HW2 7461   6.401   6.086   3.184
 2188SOL     OW 7462   6.865   5.848   4.192
 2188SOL    HW1 7463   6.846   5.843   4.094
 2188SOL    HW2 7464   6.943   5.790   4.214
 2189SOL     OW 7465   1.831   6.407   0.419
 2189SOL    HW1 7466   1.867   6.352   0.344
 2189SOL    HW2 7467   1.885   6.392   0.502
 2190SOL     OW 7468   0.268   3.533   1.972
 2190SOL    HW1 7469   0.310   3.469   1.908
 2190SOL    HW2 7470   0.271   3.494   2.064
 2191SOL     OW 7471   2.706   1.852   6.814
 2191SOL    HW1 7472   2.705   1.766   6.865
 2191SOL    HW2 7473   2.641   1.847   6.738
 2192SOL     OW 7474   4.803   0.753   2.540
 2192SOL    HW1 7475   4.811   0.662   2.581
 2192SOL    HW2 7476   4.882   0.770   2.481
 2193SOL     OW 7477   5.466   5.924   0.135
 2193SOL    HW1 7478   5.380   5.966   0.163
 2193SOL    HW2 7479   5.478   5.934   0.036
 2194SOL     OW 7480   2.558   4.572   5.716
 2194SOL    HW1 7481   2.530   4.501   5.651
 2194SOL    HW2 7482   2.657   4.580   5.717
 2195SOL     OW 7483   0.133   0.174   4.649
 2195SOL    HW1 7484   0.058   0.213   4.595
 2195SOL    HW2 7485   0.130   0.212   4.742
 2196SOL     OW 7486   3.357   0.053   5.123
 2196SOL    HW1 7487   3.265   0.071   5.088
 2196SOL    HW2 7488   3.390   0.134   5.172
 2197SOL     OW 7489   2.797   3.790   0.335
 2197SOL    HW1 7490   2.769   3.820   0.426
 2197SOL    HW2 7491   2.895   3.773   0.334
 2198SOL     OW 7492   5.458   0.399   0.254
 2198SOL    HW1 7493   5.540   0.421   0.307
 2198SOL    HW2 7494   5.418   0.314   0.288
 2199SOL     OW 7495   4.779   0.449   3.109
 2199SOL    HW1 7496   4.771   0.545   3.135
 2199SOL    HW2 7497   4.875   0.423   3.106
 2200SOL     OW 7498   2.717   2.002   4.353
 2200SOL    HW1 7499   2.697   2.056   4.271
 2200SOL    HW2 7500   2.781   1.929   4.329
 2201SOL     OW 7501   6.999   2.992   2.889
 2201SOL    HW1 7502   6.971   2.898   2.869
 2201SOL    HW2 7503   0.062   2.990   2.941
 2202SOL     OW 7504   2.794   5.493   2.544
 2202SOL    HW1 7505   2.828   5.581   2.508
 2202SOL    HW2 7506   2.836   5.418   2.493
 2203SOL     OW 7507   1.787   2.687   0.782
 2203SOL    HW1 7508   1.764   2.743   0.702
 2203SOL    HW2 7509   1.762   2.735   0.865
 2204SOL     OW 7510   4.514   1.611   1.512
 2204SOL    HW1 7511   4.565   1.539   1.465
 2204SOL    HW2 7512   4.436   1.638   1.457
 2205SOL     OW 7513   0.955   0.116   6.252
 2205SOL    HW1 7514   0.952   0.066   6.165
 2205SOL    HW2 7515   0.862   0.129   6.286
 2206SOL     OW 7516   2.921   5.060   6.200
 2206SOL    HW1 7517   3.016   5.071   6.231
 2206SOL    HW2 7518   2.920   5.004   6.117
 2207SOL     OW 7519   3.353   4.546   6.371
 2207SOL    HW1 7520   3.420   4.611   6.407
 2207SOL    HW2 7521   3.264   4.592   6.361
 2208SOL     OW 7522   1.662   5.742   2.929
 2208SOL    HW1 7523   1.737   5.785   2.880
 2208SOL    HW2 7524   1.696   5.666   2.984
 2209SOL     OW 7525   1.793   6.428   5.414
 2209SOL    HW1 7526   1.767   6.423   5.511
 2209SOL    HW2 7527   1.813   6.523   5.390
 2210SOL     OW 7528   6.962   5.008   4.766
 2210SOL    HW1 7529   7.007   4.970   4.847
 2210SOL    HW2 7530   6.906   4.938   4.723
 2211SOL     OW 7531   6.105   0.448   0.734
 2211SOL    HW1 7532   6.022   0.430   0.785
 2211SOL    HW2 7533   6.184   0.409   0.783
 2212SOL     OW 7534   2.499   5.753   6.713
 2212SOL    HW1 7535   2.458   5.769   6.803
 2212SOL    HW2 7536   2.429   5.765   6.643
 2213SOL     OW 7537   3.273   2.116   5.450
 2213SOL    HW1 7538   3.310   2.156   5.534
 2213SOL    HW2 7539   3.186   2.160   5.428
 2214SOL     OW 7540   3.714   3.430   5.428
 2214SOL    HW1 7541   3.744   3.485   5.350
 2214SOL    HW2 7542   3.637   3.373   5.401
 2215SOL     OW 7543   6.273   0.825   0.185
 2215SOL    HW1 7544   6.179   0.855   0.165
 2215SOL    HW2 7545   6.337   0.883   0.134
 2216SOL     OW 7546   1.902   1.244   6.244
 2216SOL    HW1 7547   1.941   1.285   6.162
 2216SOL    HW2 7548   1.842   1.310   6.290
 2217SOL     OW 7549   4.077   6.773   1.881
 2217SOL    HW1 7550   4.173   6.773   1.854
 2217SOL    HW2 7551   4.033   6.857   1.848
 2218SOL     OW 7552   6.553   5.494   6.912
 2218SOL    HW1 7553   6.615   5.531   6.980
 2218SOL    HW2 7554   6.510   5.570   6.862
 2219SOL     OW 7555   5.251   1.919   1.485
 2219SOL    HW1 7556   5.157   1.883   1.482
 2219SOL    HW2 7557   5.259   1.995   1.421
 2220SOL     OW 7558   1.741   0.171   5.059
 2220SOL    HW1 7559   1.649   0.133   5.058
 2220SOL    HW2 7560   1.805   0.103   5.094
 2221SOL     OW 7561   6.536   1.237   5.920
 2221SOL    HW1 7562   6.468   1.292   5.872
 2221SOL    HW2 7563   6.552   1.153   5.868
 2222SOL     OW 7564   4.722   1.052   0.079
 2222SOL    HW1 7565   4.764   1.056   0.170
 2222SOL    HW2 7566   4.651   0.982   0.078
 2223SOL     OW 7567   5.986   1.190   4.999
 2223SOL    HW1 7568   5.907   1.225   4.950
 2223SOL    HW2 7569   5.984   1.223   5.093
 2224SOL     OW 7570   0.050   3.192   0.964
 2224SOL    HW1 7571   0.016   3.200   1.058
 2224SOL    HW2 7572   0.106   3.110   0.956
 2225SOL     OW 7573   6.698   6.440   3.711
 2225SOL    HW1 7574   6.601   6.458   3.693
 2225SOL    HW2 7575   6.742   6.408   3.627
 2226SOL     OW 7576   3.607   4.775   1.136
 2226SOL    HW1 7577   3.689   4.829   1.148
 2226SOL    HW2 7578   3.529   4.822   1.178
 2227SOL     OW 7579   4.923   3.671   6.831
 2227SOL    HW1 7580   4.914   3.761   6.789
 2227SOL    HW2 7581   5.014   3.661   6.869
 2228SOL     OW 7582   3.649   4.580   1.365
 2228SOL    HW1 7583   3.660   4.537   1.276
 2228SOL    HW2 7584   3.563   4.631   1.367
 2229SOL     OW 7585   4.481   2.929   5.697
 2229SOL    HW1 7586   4.533   2.952   5.615
 2229SOL    HW2 7587   4.436   3.012   5.732
 2230SOL     OW 7588   5.231   6.815   7.003
 2230SOL    HW1 7589   5.176   6.764   6.937
 2230SOL    HW2 7590   5.323   6.776   7.006
 2231SOL     OW 7591   0.581   0.774   1.609
 2231SOL    HW1 7592   0.571   0.869   1.581
 2231SOL    HW2 7593   0.498   0.723   1.586
 2232SOL     OW 7594   0.834   2.773   5.233
 2232SOL    HW1 7595   0.852   2.802   5.139
 2232SOL    HW2 7596   0.883   2.687   5.251
 2233SOL     OW 7597   2.198   4.131   6.983
 2233SOL    HW1 7598   2.134   4.206   6.968
 2233SOL    HW2 7599   2.201   4.109   0.058
 2234SOL     OW 7600   4.254   1.693   1.448
 2234SOL    HW1 7601   4.250   1.776   1.504
 2234SOL    HW2 7602   4.164   1.651   1.444
 2235SOL     OW 7603   2.595   6.974   1.477
 2235SOL    HW1 7604   2.687   6.994   1.446
 2235SOL    HW2 7605   2.554   0.033   1.517
 2236SOL     OW 7606   1.481   4.284   6.439
 2236SOL    HW1 7607   1.524   4.353   6.497
 2236SOL    HW2 7608   1.388   4.267   6.471
 2237SOL     OW 7609   5.757   4.633   4.308
 2237SOL    HW1 7610   5.683   4.697   4.329
 2237SOL    HW2 7611   5.788   4.590   4.393
 2238SOL     OW 7612   4.640   4.613   1.648
 2238SOL    HW1 7613   4.733   4.618   1.685
 2238SOL    HW2 7614   4.582   4.681   1.693
 2239SOL     OW 7615   3.670   5.319   4.250
 2239SOL    HW1 7616   3.654   5.281   4.158
 2239SOL    HW2 7617   3.721   5.405   4.242
 2240SOL     OW 7618   4.302   5.711   3.775
 2240SOL    HW1 7619   4.238   5.733   3.848
 2240SOL    HW2 7620   4.277   5.624   3.732
 2241SOL     OW 7621   0.352   5.437   3.121
 2241SOL    HW1 7622   0.288   5.365   3.148
 2241SOL    HW2 7623   0.322   5.524   3.160
 2242SOL     OW 7624   5.602   3.025   2.802
 2242SOL    HW1 7625   5.615   3.047   2.898
 2242SOL    HW2 7626   5.514   3.062   2.771
 2243SOL     OW 7627   1.887   6.744   6.280
 2243SOL    HW1 7628   1.811   6.692   6.319
 2243SOL    HW2 7629   1.875   6.841   6.301
 2244SOL     OW 7630   1.553   6.430   1.984
 2244SOL    HW1 7631   1.622   6.364   2.014
 2244SOL    HW2 7632   1.507   6.395   1.902
 2245SOL     OW 7633   0.618   2.581   1.008
 2245SOL    HW1 7634   0.519   2.583   1.026
 2245SOL    HW2 7635   0.667   2.616   1.088
 2246SOL     OW 7636   1.108   1.702   4.791
 2246SOL    HW1 7637   1.124   1.686   4.694
 2246SOL    HW2 7638   1.075   1.619   4.834
 2247SOL     OW 7639   3.373   2.911   4.156
 2247SOL    HW1 7640   3.396   2.919   4.252
 2247SOL    HW2 7641   3.457   2.905   4.102
 2248SOL     OW 7642   5.810   3.636   5.556
 2248SOL    HW1 7643   5.711   3.652   5.564
 2248SOL    HW2 7644   5.827   3.572   5.480
 2249SOL     OW 7645   5.688   6.452   2.942
 2249SOL    HW1 7646   5.639   6.532   2.977
 2249SOL    HW2 7647   5.779   6.448   2.984
 2250SOL     OW 7648   4.016   4.044   6.293
 2250SOL    HW1 7649   4.114   4.064   6.287
 2250SOL    HW2 7650   3.998   3.953   6.256
 2251SOL     OW 7651   5.273   0.226   6.650
 2251SOL    HW1 7652   5.343   0.224   6.579
 2251SOL    HW2 7653   5.287   0.306   6.709
 2252SOL     OW 7654   4.841   2.833   2.060
 2252SOL    HW1 7655   4.852   2.788   1.972
 2252SOL    HW2 7656   4.819   2.930   2.045
 2253SOL     OW 7657   0.719   3.588   6.726
 2253SOL    HW1 7658   0.751   3.523   6.657
 2253SOL    HW2 7659   0.783   3.588   6.803
 2254SOL     OW 7660   3.574   2.602   5.808
 2254SOL    HW1 7661   3.476   2.623   5.803
 2254SOL    HW2 7662   3.622   2.647   5.733
 2255SOL     OW 7663   4.633   2.952   6.359
 2255SOL    HW1 7664   4.665   3.019   6.292
 2255SOL    HW2 7665   4.603   2.869   6.312
 2256SOL     OW 7666   5.159   5.847   1.887
 2256SOL    HW1 7667   5.149   5.945   1.868
 2256SOL    HW2 7668   5.068   5.805   1.896
 2257SOL     OW 7669   0.130   1.815   4.752
 2257SOL    HW1 7670   0.121   1.892   4.815
 2257SOL    HW2 7671   0.208   1.758   4.780
 2258SOL     OW 7672   1.323   5.659   4.934
 2258SOL    HW1 7673   1.372   5.609   5.004
 2258SOL    HW2 7674   1.388   5.702   4.872
 2259SOL     OW 7675   5.537   4.159   6.395
 2259SOL    HW1 7676   5.443   4.128   6.380
 2259SOL    HW2 7677   5.598   4.114   6.331
 2260SOL     OW 7678   6.222   4.190   1.898
 2260SOL    HW1 7679   6.194   4.177   1.803
 2260SOL    HW2 7680   6.311   4.146   1.913
 2261SOL     OW 7681   6.421   5.551   0.238
 2261SOL    HW1 7682   6.410   5.583   0.332
 2261SOL    HW2 7683   6.516   5.523   0.223
 2262SOL     OW 7684   5.933   1.229   3.105
 2262SOL    HW1 7685   6.024   1.265   3.086
 2262SOL    HW2 7686   5.942   1.139   3.148
 2263SOL     OW 7687   3.025   5.593   0.046
 2263SOL    HW1 7688   3.115   5.584   0.088
 2263SOL    HW2 7689   2.972   5.510   0.063
 2264SOL     OW 7690   2.459   4.388   0.488
 2264SOL    HW1 7691   2.537   4.450   0.480
 2264SOL    HW2 7692   2.402   4.417   0.564
 2265SOL     OW 7693   0.554   0.650   4.313
 2265SOL    HW1 7694   0.495   0.728   4.337
 2265SOL    HW2 7695   0.512   0.598   4.239
 2266SOL     OW 7696   5.157   1.912   0.082
 2266SOL    HW1 7697   5.194   1.882   0.170
 2266SOL    HW2 7698   5.078   1.855   0.058
 2267SOL     OW 7699   5.031   2.485   4.752
 2267SOL    HW1 7700   4.960   2.525   4.694
 2267SOL    HW2 7701   4.988   2.425   4.820
 2268SOL     OW 7702   6.538   3.436   0.025
 2268SOL    HW1 7703   6.499   3.512   6.996
 2268SOL    HW2 7704   6.566   3.363   6.985
 2269SOL     OW 7705   5.962   5.291   4.998
 2269SOL    HW1 7706   5.892   5.236   4.954
 2269SOL    HW2 7707   5.940   5.388   4.989
 2270SOL     OW 7708   3.053   2.366   6.308
 2270SOL    HW1 7709   3.142   2.410   6.303
 2270SOL    HW2 7710   3.031   2.345   6.404
 2271SOL     OW 7711   5.625   3.791   0.957
 2271SOL    HW1 7712   5.607   3.878   0.911
 2271SOL    HW2 7713   5.576   3.717   0.910
 2272SOL     OW 7714   5.724   2.928   6.408
 2272SOL    HW1 7715   5.710   3.019   6.447
 2272SOL    HW2 7716   5.810   2.890   6.441
 2273SOL     OW 7717   1.586   0.726   2.224
 2273SOL    HW1 7718   1.532   0.801   2.187
 2273SOL    HW2 7719   1.654   0.697   2.156
 2274SOL     OW 7720   6.943   2.419   6.456
 2274SOL    HW1 7721   0.011   2.454   6.478
 2274SOL    HW2 7722   6.877   2.495   6.454
 2275SOL     OW 7723   6.187   0.082   4.099
 2275SOL    HW1 7724   6.187   0.007   4.165
 2275SOL    HW2 7725   6.267   0.075   4.040
 2276SOL     OW 7726   2.454   5.198   0.926
 2276SOL    HW1 7727   2.520   5.236   0.860
 2276SOL    HW2 7728   2.441   5.101   0.907
 2277SOL     OW 7729   3.818   4.077   4.452
 2277SOL    HW1 7730   3.871   4.040   4.529
 2277SOL    HW2 7731   3.743   4.132   4.487
 2278SOL     OW 7732   6.418   4.763   4.399
 2278SOL    HW1 7733   6.391   4.673   4.365
 2278SOL    HW2 7734   6.467   4.812   4.327
 2279SOL     OW 7735   5.269   6.963   5.152
 2279SOL    HW1 7736   5.350   7.012   5.119
 2279SOL    HW2 7737   5.189   0.000   5.146
 2280SOL     OW 7738   6.641   0.039   4.925
 2280SOL    HW1 7739   6.638   0.018   4.828
 2280SOL    HW2 7740   6.671   6.980   4.976
 2281SOL     OW 7741   3.383   1.457   2.383
 2281SOL    HW1 7742   3.419   1.463   2.290
 2281SOL    HW2 7743   3.415   1.535   2.436
 2282SOL     OW 7744   5.292   0.432   4.689
 2282SOL    HW1 7745   5.346   0.447   4.606
 2282SOL    HW2 7746   5.306   0.508   4.752
 2283SOL     OW 7747   0.441   4.702   1.473
 2283SOL    HW1 7748   0.507   4.634   1.440
 2283SOL    HW2 7749   0.461   4.724   1.568
 2284SOL     OW 7750   0.884   2.489   6.872
 2284SOL    HW1 7751   0.958   2.538   6.918
 2284SOL    HW2 7752   0.796   2.529   6.899
 2285SOL     OW 7753   2.356   2.213   0.778
 2285SOL    HW1 7754   2.385   2.296   0.729
 2285SOL    HW2 7755   2.375   2.224   0.875
 2286SOL     OW 7756   0.246   6.941   4.303
 2286SOL    HW1 7757   0.182   7.016   4.288
 2286SOL    HW2 7758   0.333   6.977   4.336
 2287SOL     OW 7759   1.300   0.697   3.483
 2287SOL    HW1 7760   1.307   0.713   3.385
 2287SOL    HW2 7761   1.273   0.602   3.500
 2288SOL     OW 7762   6.049   5.462   4.720
 2288SOL    HW1 7763   5.963   5.510   4.702
 2288SOL    HW2 7764   6.077   5.413   4.637
 2289SOL     OW 7765   0.903   4.800   1.592
 2289SOL    HW1 7766   0.896   4.880   1.651
 2289SOL    HW2 7767   0.848   4.815   1.510
 2290SOL     OW 7768   1.103   4.276   1.052
 2290SOL    HW1 7769   1.102   4.373   1.029
 2290SOL    HW2 7770   1.150   4.262   1.139
 2291SOL     OW 7771   2.868   2.551   6.227
 2291SOL    HW1 7772   2.911   2.476   6.278
 2291SOL    HW2 7773   2.827   2.615   6.291
 2292SOL     OW 7774   6.394   2.012   5.189
 2292SOL    HW1 7775   6.347   1.925   5.207
 2292SOL    HW2 7776   6.358   2.051   5.104
 2293SOL     OW 7777   5.243   6.524   1.242
 2293SOL    HW1 7778   5.222   6.446   1.182
 2293SOL    HW2 7779   5.342   6.530   1.255
 2294SOL     OW 7780   3.189   0.825   6.482
 2294SOL    HW1 7781   3.261   0.863   6.424
 2294SOL    HW2 7782   3.107   0.882   6.475
 2295SOL     OW 7783   0.352   2.493   3.008
 2295SOL    HW1 7784   0.342   2.509   2.910
 2295SOL    HW2 7785   0.431   2.434   3.024
 2296SOL     OW 7786   3.781   5.427   1.297
 2296SOL    HW1 7787   3.840   5.501   1.331
 2296SOL    HW2 7788   3.709   5.466   1.239
 2297SOL     OW 7789   4.564   4.727   5.670
 2297SOL    HW1 7790   4.536   4.787   5.595
 2297SOL    HW2 7791   4.660   4.742   5.691
 2298SOL     OW 7792   4.037   3.266   1.734
 2298SOL    HW1 7793   3.953   3.305   1.697
 2298SOL    HW2 7794   4.019   3.225   1.823
 2299SOL     OW 7795   4.301   5.272   5.550
 2299SOL    HW1 7796   4.206   5.260   5.579
 2299SOL    HW2 7797   4.307   5.265   5.451
 2300SOL     OW 7798   2.439   5.924   1.730
 2300SOL    HW1 7799   2.493   5.848   1.766
 2300SOL    HW2 7800   2.363   5.944   1.792
 2301SOL     OW 7801   3.415   2.923   2.793
 2301SOL    HW1 7802   3.323   2.939   2.755
 2301SOL    HW2 7803   3.408   2.906   2.891
 2302SOL     OW 7804   4.004   0.279   0.975
 2302SOL    HW1 7805   3.995   0.336   0.893
 2302SOL    HW2 7806   4.060   0.327   1.042
 2303SOL     OW 7807   2.583   3.358   6.398
 2303SOL    HW1 7808   2.587   3.259   6.388
 2303SOL    HW2 7809   2.569   3.400   6.309
 2304SOL     OW 7810   4.496   6.482   3.385
 2304SOL    HW1 7811   4.591   6.454   3.400
 2304SOL    HW2 7812   4.436   6.427   3.443
 2305SOL     OW 7813   2.598   6.289   2.549
 2305SOL    HW1 7814   2.510   6.266   2.590
 2305SOL    HW2 7815   2.617   6.228   2.472
 2306SOL     OW 7816   3.176   4.859   2.244
 2306SOL    HW1 7817   3.102   4.803   2.206
 2306SOL    HW2 7818   3.239   4.885   2.171
 2307SOL     OW 7819   6.628   4.211   2.635
 2307SOL    HW1 7820   6.656   4.306   2.641
 2307SOL    HW2 7821   6.679   4.157   2.702
 2308SOL     OW 7822   1.087   5.179   1.570
 2308SOL    HW1 7823   1.031   5.218   1.643
 2308SOL    HW2 7824   1.029   5.136   1.502
 2309SOL     OW 7825   1.818   1.237   6.818
 2309SOL    HW1 7826   1.773   1.320   6.786
 2309SOL    HW2 7827   1.876   1.200   6.745
 2310SOL     OW 7828   5.095   6.562   0.550
 2310SOL    HW1 7829   5.176   6.589   0.498
 2310SOL    HW2 7830   5.039   6.501   0.494
 2311SOL     OW 7831   1.867   6.601   1.388
 2311SOL    HW1 7832   1.875   6.656   1.304
 2311SOL    HW2 7833   1.917   6.647   1.462
 2312SOL     OW 7834   4.207   6.486   3.165
 2312SOL    HW1 7835   4.299   6.467   3.131
 2312SOL    HW2 7836   4.141   6.432   3.113
 2313SOL     OW 7837   5.936   5.820   1.246
 2313SOL    HW1 7838   6.012   5.884   1.256
 2313SOL    HW2 7839   5.961   5.749   1.181
 2314SOL     OW 7840   5.805   0.059   4.444
 2314SOL    HW1 7841   5.752   0.095   4.521
 2314SOL    HW2 7842   5.842   6.992   4.467
 2315SOL     OW 7843   4.951   3.374   6.010
 2315SOL    HW1 7844   4.965   3.313   5.933
 2315SOL    HW2 7845   4.897   3.453   5.980
 2316SOL     OW 7846   3.592   0.932   4.009
 2316SOL    HW1 7847   3.595   1.012   4.069
 2316SOL    HW2 7848   3.685   0.900   3.990
 2317SOL     OW 7849   0.266   5.622   3.338
 2317SOL    HW1 7850   0.366   5.619   3.345
 2317SOL    HW2 7851   0.226   5.552   3.397
 2318SOL     OW 7852   1.775   2.803   4.612
 2318SOL    HW1 7853   1.766   2.827   4.709
 2318SOL    HW2 7854   1.867   2.825   4.580
 2319SOL     OW 7855   1.800   4.640   3.955
 2319SOL    HW1 7856   1.869   4.697   3.912
 2319SOL    HW2 7857   1.740   4.697   4.012
 2320SOL     OW 7858   0.693   2.556   4.881
 2320SOL    HW1 7859   0.711   2.599   4.793
 2320SOL    HW2 7860   0.615   2.495   4.874
 2321SOL     OW 7861   2.181   0.344   0.195
 2321SOL    HW1 7862   2.203   0.441   0.204
 2321SOL    HW2 7863   2.137   0.312   0.279
 2322SOL     OW 7864   2.426   1.666   3.679
 2322SOL    HW1 7865   2.412   1.574   3.642
 2322SOL    HW2 7866   2.524   1.682   3.692
 2323SOL     OW 7867   2.891   5.140   2.166
 2323SOL    HW1 7868   2.975   5.141   2.112
 2323SOL    HW2 7869   2.817   5.184   2.114
 2324SOL     OW 7870   6.542   7.016   0.993
 2324SOL    HW1 7871   6.469   6.962   1.035
 2324SOL    HW2 7872   6.630   6.987   1.030
 2325SOL     OW 7873   1.231   4.819   1.778
 2325SOL    HW1 7874   1.248   4.900   1.723
 2325SOL    HW2 7875   1.142   4.826   1.822
 2326SOL     OW 7876   3.324   5.362   6.128
 2326SOL    HW1 7877   3.256   5.423   6.087
 2326SOL    HW2 7878   3.409   5.367   6.075
 2327SOL     OW 7879   6.891   2.203   3.818
 2327SOL    HW1 7880   6.892   2.294   3.859
 2327SOL    HW2 7881   6.941   2.139   3.876
 2328SOL     OW 7882   2.955   2.146   2.565
 2328SOL    HW1 7883   2.949   2.178   2.470
 2328SOL    HW2 7884   2.913   2.055   2.572
 2329SOL     OW 7885   1.645   3.697   5.327
 2329SOL    HW1 7886   1.705   3.623   5.298
 2329SOL    HW2 7887   1.693   3.785   5.318
 2330SOL     OW 7888   0.629   4.066   1.309
 2330SOL    HW1 7889   0.727   4.081   1.304
 2330SOL    HW2 7890   0.588   4.132   1.372
 2331SOL     OW 7891   4.961   5.235   0.654
 2331SOL    HW1 7892   4.902   5.155   0.649
 2331SOL    HW2 7893   4.980   5.256   0.750
 2332SOL     OW 7894   4.747   2.086   4.978
 2332SOL    HW1 7895   4.751   2.040   5.066
 2332SOL    HW2 7896   4.652   2.089   4.946
 2333SOL     OW 7897   0.802   5.206   2.880
 2333SOL    HW1 7898   0.709   5.174   2.859
 2333SOL    HW2 7899   0.868   5.135   2.853
 2334SOL     OW 7900   2.475   0.513   6.921
 2334SOL    HW1 7901   2.426   0.545   7.002
 2334SOL    HW2 7902   2.541   0.582   6.893
 2335SOL     OW 7903   6.079   0.947   2.908
 2335SOL    HW1 7904   6.027   1.030   2.927
 2335SOL    HW2 7905   6.036   0.898   2.832
 2336SOL     OW 7906   4.419   2.416   4.911
 2336SOL    HW1 7907   4.455   2.323   4.921
 2336SOL    HW2 7908   4.325   2.419   4.945
 2337SOL     OW 7909   4.699   1.013   2.614
 2337SOL    HW1 7910   4.752   1.095   2.595
 2337SOL    HW2 7911   4.754   0.932   2.594
 2338SOL     OW 7912   1.391   2.039   5.850
 2338SOL    HW1 7913   1.338   1.998   5.924
 2338SOL    HW2 7914   1.457   1.973   5.815
 2339SOL     OW 7915   4.055   4.021   5.198
 2339SOL    HW1 7916   3.963   4.026   5.239
 2339SOL    HW2 7917   4.094   3.931   5.217
 2340SOL     OW 7918   5.623   4.537   0.293
 2340SOL    HW1 7919   5.565   4.585   0.360
 2340SOL    HW2 7920   5.709   4.587   0.283
 2341SOL     OW 7921   4.757   4.690   1.334
 2341SOL    HW1 7922   4.728   4.784   1.353
 2341SOL    HW2 7923   4.694   4.627   1.379
 2342SOL     OW 7924   0.601   0.034   5.117
 2342SOL    HW1 7925   0.599   7.000   5.035
 2342SOL    HW2 7926   0.696   0.057   5.140
 2343SOL     OW 7927   2.790   6.012   2.650
 2343SOL    HW1 7928   2.779   6.063   2.564
 2343SOL    HW2 7929   2.840   5.927   2.632
 2344SOL     OW 7930   1.586   0.528   0.823
 2344SOL    HW1 7931   1.636   0.552   0.906
 2344SOL    HW2 7932   1.541   0.440   0.834
 2345SOL     OW 7933   3.598   5.375   5.133
 2345SOL    HW1 7934   3.573   5.299   5.071
 2345SOL    HW2 7935   3.643   5.338   5.214
 2346SOL     OW 7936   4.856   2.551   4.533
 2346SOL    HW1 7937   4.832   2.458   4.506
 2346SOL    HW2 7938   4.775   2.610   4.524
 2347SOL     OW 7939   2.548   3.249   1.693
 2347SOL    HW1 7940   2.544   3.309   1.613
 2347SOL    HW2 7941   2.468   3.265   1.750
 2348SOL     OW 7942   3.712   6.466   3.230
 2348SOL    HW1 7943   3.783   6.534   3.212
 2348SOL    HW2 7944   3.626   6.512   3.250
 2349SOL     OW 7945   0.677   4.484   6.332
 2349SOL    HW1 7946   0.685   4.442   6.422
 2349SOL    HW2 7947   0.761   4.534   6.311
 2350SOL     OW 7948   5.135   7.018   6.450
 2350SOL    HW1 7949   5.229   0.016   6.476
 2350SOL    HW2 7950   5.072   0.029   6.520
 2351SOL     OW 7951   3.732   5.165   2.710
 2351SOL    HW1 7952   3.746   5.200   2.803
 2351SOL    HW2 7953   3.635   5.173   2.686
 2352SOL     OW 7954   1.297   4.484   2.180
 2352SOL    HW1 7955   1.330   4.390   2.188
 2352SOL    HW2 7956   1.244   4.493   2.095
 2353SOL     OW 7957   3.035   4.498   5.464
 2353SOL    HW1 7958   3.091   4.423   5.429
 2353SOL    HW2 7959   2.985   4.540   5.388
 2354SOL     OW 7960   2.459   1.692   6.074
 2354SOL    HW1 7961   2.423   1.620   6.134
 2354SOL    HW2 7962   2.432   1.672   5.980
 2355SOL     OW 7963   1.492   5.720   6.940
 2355SOL    HW1 7964   1.506   5.664   6.858
 2355SOL    HW2 7965   1.551   5.802   6.935
 2356SOL     OW 7966   2.054   3.920   0.617
 2356SOL    HW1 7967   2.016   3.881   0.701
 2356SOL    HW2 7968   1.983   3.927   0.548
 2357SOL     OW 7969   4.612   5.373   4.266
 2357SOL    HW1 7970   4.625   5.330   4.177
 2357SOL    HW2 7971   4.517   5.404   4.275
 2358SOL     OW 7972   2.620   5.215   5.332
 2358SOL    HW1 7973   2.715   5.190   5.315
 2358SOL    HW2 7974   2.600   5.208   5.429
 2359SOL     OW 7975   0.075   1.083   5.974
 2359SOL    HW1 7976   0.039   1.035   6.055
 2359SOL    HW2 7977   0.145   1.027   5.930
 2360SOL     OW 7978   5.207   6.049   6.225
 2360SOL    HW1 7979   5.148   6.061   6.145
 2360SOL    HW2 7980   5.150   6.031   6.305
 2361SOL     OW 7981   2.774   1.117   5.345
 2361SOL    HW1 7982   2.804   1.200   5.298
 2361SOL    HW2 7983   2.686   1.134   5.390
 2362SOL     OW 7984   2.692   0.963   5.138
 2362SOL    HW1 7985   2.718   1.011   5.222
 2362SOL    HW2 7986   2.761   0.979   5.068
 2363SOL     OW 7987   4.343   2.666   5.591
 2363SOL    HW1 7988   4.256   2.681   5.545
 2363SOL    HW2 7989   4.394   2.752   5.596
 2364SOL     OW 7990   0.951   2.316   2.878
 2364SOL    HW1 7991   1.020   2.255   2.839
 2364SOL    HW2 7992   0.873   2.322   2.816
 2365SOL     OW 7993   5.874   2.286   6.838
 2365SOL    HW1 7994   5.917   2.201   6.871
 2365SOL    HW2 7995   5.913   2.364   6.888
 2366SOL     OW 7996   1.540   4.462   6.002
 2366SOL    HW1 7997   1.515   4.386   5.942
 2366SOL    HW2 7998   1.568   4.427   6.091
 2367SOL     OW 7999   3.467   3.628   6.663
 2367SOL    HW1 8000   3.386   3.642   6.721
 2367SOL    HW2 8001   3.439   3.595   6.574
 2368SOL     OW 8002   4.973   6.739   2.985
 2368SOL    HW1 8003   4.979   6.811   3.053
 2368SOL    HW2 8004   5.037   6.758   2.910
 2369SOL     OW 8005   1.922   2.852   5.261
 2369SOL    HW1 8006   1.849   2.887   5.321
 2369SOL    HW2 8007   1.980   2.790   5.313
 2370SOL     OW 8008   4.864   4.495   6.564
 2370SOL    HW1 8009   4.837   4.428   6.495
 2370SOL    HW2 8010   4.927   4.451   6.629
 2371SOL     OW 8011   0.471   6.137   1.528
 2371SOL    HW1 8012   0.381   6.097   1.547
 2371SOL    HW2 8013   0.533   6.115   1.603
 2372SOL     OW 8014   0.333   2.311   1.292
 2372SOL    HW1 8015   0.255   2.263   1.331
 2372SOL    HW2 8016   0.405   2.319   1.361
 2373SOL     OW 8017   0.188   6.949   7.019
 2373SOL    HW1 8018   0.175   0.019   0.031
 2373SOL    HW2 8019   0.112   6.925   6.959
 2374SOL     OW 8020   6.298   0.440   4.103
 2374SOL    HW1 8021   6.343   0.530   4.108
 2374SOL    HW2 8022   6.203   0.449   4.134
 2375SOL     OW 8023   1.872   6.568   4.013
 2375SOL    HW1 8024   1.914   6.570   3.922
 2375SOL    HW2 8025   1.928   6.622   4.076
 2376SOL     OW 8026   5.606   2.302   4.186
 2376SOL    HW1 8027   5.553   2.229   4.229
 2376SOL    HW2 8028   5.681   2.329   4.246
 2377SOL     OW 8029   3.437   4.170   3.101
 2377SOL    HW1 8030   3.347   4.126   3.109
 2377SOL    HW2 8031   3.482   4.173   3.190
 2378SOL     OW 8032   4.569   2.195   7.010
 2378SOL    HW1 8033   4.498   2.175   6.943
 2378SOL    HW2 8034   4.527   2.223   0.073
 2379SOL     OW 8035   6.204   1.607   6.681
 2379SOL    HW1 8036   6.238   1.516   6.708
 2379SOL    HW2 8037   6.172   1.655   6.762
 2380SOL     OW 8038   0.104   6.769   5.467
 2380SOL    HW1 8039   0.086   6.755   5.564
 2380SOL    HW2 8040   0.081   6.686   5.417
 2381SOL     OW 8041   2.189   4.196   4.111
 2381SOL    HW1 8042   2.170   4.109   4.064
 2381SOL    HW2 8043   2.109   4.223   4.164
 2382SOL     OW 8044   2.464   5.092   3.631
 2382SOL    HW1 8045   2.451   5.188   3.657
 2382SOL    HW2 8046   2.446   5.082   3.533
 2383SOL     OW 8047   5.912   6.366   0.069
 2383SOL    HW1 8048   5.945   6.282   0.113
 2383SOL    HW2 8049   5.990   6.423   0.043
 2384SOL     OW 8050   6.783   6.134   2.362
 2384SOL    HW1 8051   6.727   6.213   2.386
 2384SOL    HW2 8052   6.841   6.110   2.440
 2385SOL     OW 8053   6.463   6.749   1.137
 2385SOL    HW1 8054   6.549   6.777   1.181
 2385SOL    HW2 8055   6.388   6.804   1.171
 2386SOL     OW 8056   5.314   5.063   4.513
 2386SOL    HW1 8057   5.346   5.039   4.604
 2386SOL    HW2 8058   5.282   4.980   4.466
 2387SOL     OW 8059   0.554   2.158   3.745
 2387SOL    HW1 8060   0.629   2.094   3.756
 2387SOL    HW2 8061   0.558   2.227   3.817
 2388SOL     OW 8062   1.268   2.057   3.658
 2388SOL    HW1 8063   1.268   2.043   3.559
 2388SOL    HW2 8064   1.181   2.027   3.697
 2389SOL     OW 8065   5.304   3.377   3.561
 2389SOL    HW1 8066   5.250   3.445   3.612
 2389SOL    HW2 8067   5.374   3.338   3.621
 2390SOL     OW 8068   3.030   3.967   4.013
 2390SOL    HW1 8069   3.022   3.995   3.917
 2390SOL    HW2 8070   2.991   3.876   4.025
 2391SOL     OW 8071   4.761   4.523   5.728
 2391SOL    HW1 8072   4.689   4.477   5.676
 2391SOL    HW2 8073   4.827   4.455   5.759
 2392SOL     OW 8074   3.840   6.969   4.888
 2392SOL    HW1 8075   3.879   6.993   4.799
 2392SOL    HW2 8076   3.759   0.003   4.905
 2393SOL     OW 8077   4.131   4.848   6.807
 2393SOL    HW1 8078   4.036   4.834   6.832
 2393SOL    HW2 8079   4.138   4.862   6.708
 2394SOL     OW 8080   2.003   3.294   4.339
 2394SOL    HW1 8081   1.996   3.338   4.249
 2394SOL    HW2 8082   2.080   3.231   4.339
 2395SOL     OW 8083   6.265   2.581   0.534
 2395SOL    HW1 8084   6.259   2.482   0.516
 2395SOL    HW2 8085   6.175   2.616   0.560
 2396SOL     OW 8086   4.065   5.262   0.914
 2396SOL    HW1 8087   4.096   5.336   0.974
 2396SOL    HW2 8088   4.120   5.262   0.830
 2397SOL     OW 8089   0.077   3.825   6.966
 2397SOL    HW1 8090   7.008   3.856   6.991
 2397SOL    HW2 8091   0.101   3.860   6.875
 2398SOL     OW 8092   3.159   4.143   6.516
 2398SOL    HW1 8093   3.158   4.110   6.422
 2398SOL    HW2 8094   3.072   4.121   6.560
 2399SOL     OW 8095   5.138   1.256   2.218
 2399SOL    HW1 8096   5.087   1.171   2.203
 2399SOL    HW2 8097   5.226   1.235   2.259
 2400SOL     OW 8098   3.680   5.578   0.163
 2400SOL    HW1 8099   3.737   5.581   0.081
 2400SOL    HW2 8100   3.648   5.484   0.178
 2401SOL     OW 8101   4.320   0.195   6.596
 2401SOL    HW1 8102   4.375   0.201   6.512
 2401SOL    HW2 8103   4.310   0.286   6.636
 2402SOL     OW 8104   0.835   1.590   4.496
 2402SOL    HW1 8105   0.891   1.515   4.529
 2402SOL    HW2 8106   0.798   1.566   4.406
 2403SOL     OW 8107   2.312   2.368   0.286
 2403SOL    HW1 8108   2.387   2.310   0.251
 2403SOL    HW2 8109   2.323   2.381   0.384
 2404SOL     OW 8110   5.783   1.065   1.564
 2404SOL    HW1 8111   5.777   1.038   1.660
 2404SOL    HW2 8112   5.825   1.156   1.558
 2405SOL     OW 8113   3.446   3.408   3.669
 2405SOL    HW1 8114   3.463   3.316   3.705
 2405SOL    HW2 8115   3.402   3.401   3.580
 2406SOL     OW 8116   2.330   0.101   3.380
 2406SOL    HW1 8117   2.235   0.102   3.350
 2406SOL    HW2 8118   2.379   0.026   3.336
 2407SOL     OW 8119   5.416   2.504   2.665
 2407SOL    HW1 8120   5.342   2.559   2.627
 2407SOL    HW2 8121   5.500   2.558   2.665
 2408SOL     OW 8122   3.847   4.889   3.642
 2408SOL    HW1 8123   3.764   4.852   3.600
 2408SOL    HW2 8124   3.918   4.897   3.572
 2409SOL     OW 8125   1.616   3.063   1.190
 2409SOL    HW1 8126   1.701   3.060   1.243
 2409SOL    HW2 8127   1.593   3.158   1.170
 2410SOL     OW 8128   4.707   2.426   6.622
 2410SOL    HW1 8129   4.621   2.408   6.574
 2410SOL    HW2 8130   4.718   2.525   6.634
 2411SOL     OW 8131   4.722   5.553   5.663
 2411SOL    HW1 8132   4.630   5.529   5.632
 2411SOL    HW2 8133   4.717   5.589   5.756
 2412SOL     OW 8134   3.697   4.535   0.283
 2412SOL    HW1 8135   3.653   4.451   0.316
 2412SOL    HW2 8136   3.630   4.592   0.236
 2413SOL     OW 8137   6.493   2.184   0.146
 2413SOL    HW1 8138   6.413   2.149   0.097
 2413SOL    HW2 8139   6.488   2.157   0.242
 2414SOL     OW 8140   5.002   3.925   2.174
 2414SOL    HW1 8141   4.960   3.921   2.083
 2414SOL    HW2 8142   5.094   3.964   2.166
 2415SOL     OW 8143   0.923   6.627   1.582
 2415SOL    HW1 8144   0.959   6.694   1.646
 2415SOL    HW2 8145   0.828   6.649   1.559
 2416SOL     OW 8146   3.313   2.081   5.036
 2416SOL    HW1 8147   3.249   2.157   5.024
 2416SOL    HW2 8148   3.365   2.067   4.952
 2417SOL     OW 8149   4.364   3.082   6.061
 2417SOL    HW1 8150   4.434   3.016   6.085
 2417SOL    HW2 8151   4.279   3.060   6.109
 2418SOL     OW 8152   3.006   3.674   3.837
 2418SOL    HW1 8153   3.093   3.629   3.857
 2418SOL    HW2 8154   3.023   3.768   3.807
 2419SOL     OW 8155   0.715   6.210   3.681
 2419SOL    HW1 8156   0.798   6.263   3.702
 2419SOL    HW2 8157   0.638   6.273   3.670
 2420SOL     OW 8158   3.774   1.812   1.324
 2420SOL    HW1 8159   3.823   1.895   1.350
 2420SOL    HW2 8160   3.676   1.831   1.321
 2421SOL     OW 8161   2.726   1.217   4.899
 2421SOL    HW1 8162   2.764   1.309   4.895
 2421SOL    HW2 8163   2.655   1.207   4.828
 2422SOL     OW 8164   6.602   0.586   2.184
 2422SOL    HW1 8165   6.596   0.487   2.198
 2422SOL    HW2 8166   6.555   0.610   2.098
 2423SOL     OW 8167   1.693   6.343   3.652
 2423SOL    HW1 8168   1.711   6.346   3.751
 2423SOL    HW2 8169   1.594   6.345   3.636
 2424SOL     OW 8170   5.805   6.231   6.197
 2424SOL    HW1 8171   5.873   6.303   6.205
 2424SOL    HW2 8172   5.822   6.178   6.114
 2425SOL     OW 8173   6.162   0.095   4.516
 2425SOL    HW1 8174   6.176   0.005   4.475
 2425SOL    HW2 8175   6.193   0.166   4.452
 2426SOL     OW 8176   0.592   4.872   4.447
 2426SOL    HW1 8177   0.685   4.850   4.477
 2426SOL    HW2 8178   0.534   4.886   4.528
 2427SOL     OW 8179   5.699   5.469   6.829
 2427SOL    HW1 8180   5.722   5.480   6.926
 2427SOL    HW2 8181   5.644   5.547   6.799
 2428SOL     OW 8182   0.299   0.233   3.563
 2428SOL    HW1 8183   0.291   0.148   3.613
 2428SOL    HW2 8184   0.208   0.273   3.551
 2429SOL     OW 8185   6.599   5.777   4.822
 2429SOL    HW1 8186   6.639   5.846   4.762
 2429SOL    HW2 8187   6.578   5.695   4.769
 2430SOL     OW 8188   6.255   1.660   0.972
 2430SOL    HW1 8189   6.159   1.680   0.991
 2430SOL    HW2 8190   6.307   1.746   0.970
 2431SOL     OW 8191   3.513   0.262   2.040
 2431SOL    HW1 8192   3.571   0.243   2.119
 2431SOL    HW2 8193   3.434   0.201   2.040
 2432SOL     OW 8194   3.527   6.859   3.036
 2432SOL    HW1 8195   3.527   6.927   3.109
 2432SOL    HW2 8196   3.480   6.776   3.067
 2433SOL     OW 8197   3.263   6.474   0.887
 2433SOL    HW1 8198   3.170   6.450   0.917
 2433SOL    HW2 8199   3.285   6.566   0.918
 2434SOL     OW 8200   4.986   1.373   3.958
 2434SOL    HW1 8201   5.059   1.407   3.899
 2434SOL    HW2 8202   5.021   1.361   4.051
 2435SOL     OW 8203   4.650   5.481   6.054
 2435SOL    HW1 8204   4.670   5.571   6.016
 2435SOL    HW2 8205   4.733   5.444   6.097
 2436SOL     OW 8206   2.107   6.326   1.424
 2436SOL    HW1 8207   2.184   6.382   1.395
 2436SOL    HW2 8208   2.115   6.307   1.522
 2437SOL     OW 8209   3.775   6.327   1.014
 2437SOL    HW1 8210   3.681   6.301   0.991
 2437SOL    HW2 8211   3.838   6.285   0.949
 2438SOL     OW 8212   3.850   1.725   5.665
 2438SOL    HW1 8213   3.852   1.796   5.735
 2438SOL    HW2 8214   3.833   1.636   5.708
 2439SOL     OW 8215   1.100   4.311   0.021
 2439SOL    HW1 8216   1.193   4.345   0.007
 2439SOL    HW2 8217   1.101   4.211   0.025
 2440SOL     OW 8218   4.561   6.504   4.858
 2440SOL    HW1 8219   4.600   6.429   4.805
 2440SOL    HW2 8220   4.621   6.584   4.853
 2441SOL     OW 8221   6.944   0.550   6.665
 2441SOL    HW1 8222   6.989   0.461   6.653
 2441SOL    HW2 8223   6.849   0.535   6.694
 2442SOL     OW 8224   6.548   5.781   4.079
 2442SOL    HW1 8225   6.581   5.687   4.076
 2442SOL    HW2 8226   6.465   5.789   4.024
 2443SOL     OW 8227   3.428   6.823   5.839
 2443SOL    HW1 8228   3.405   6.867   5.926
 2443SOL    HW2 8229   3.526   6.830   5.823
 2444SOL     OW 8230   3.773   4.728   6.006
 2444SOL    HW1 8231   3.707   4.776   6.065
 2444SOL    HW2 8232   3.767   4.630   6.022
 2445SOL     OW 8233   0.676   0.388   1.807
 2445SOL    HW1 8234   0.755   0.388   1.745
 2445SOL    HW2 8235   0.702   0.345   1.893
 2446SOL     OW 8236   6.996   3.449   3.809
 2446SOL    HW1 8237   6.944   3.493   3.736
 2446SOL    HW2 8238   0.002   3.358   3.781
 2447SOL     OW 8239   2.615   1.083   0.655
 2447SOL    HW1 8240   2.518   1.102   0.640
 2447SOL    HW2 8241   2.655   1.157   0.709
 2448SOL     OW 8242   1.012   0.582   5.278
 2448SOL    HW1 8243   0.982   0.662   5.328
 2448SOL    HW2 8244   0.980   0.586   5.184
 2449SOL     OW 8245   0.333   4.988   1.930
 2449SOL    HW1 8246   0.317   5.055   1.857
 2449SOL    HW2 8247   0.246   4.948   1.958
 2450SOL     OW 8248   2.855   4.909   4.341
 2450SOL    HW1 8249   2.950   4.878   4.334
 2450SOL    HW2 8250   2.795   4.830   4.355
 2451SOL     OW 8251   0.995   0.202   3.836
 2451SOL    HW1 8252   0.927   0.248   3.779
 2451SOL    HW2 8253   0.983   0.229   3.931
 2452SOL     OW 8254   2.181   2.089   3.108
 2452SOL    HW1 8255   2.140   2.149   3.040
 2452SOL    HW2 8256   2.278   2.073   3.086
 2453SOL     OW 8257   6.758   4.106   1.314
 2453SOL    HW1 8258   6.701   4.188   1.315
 2453SOL    HW2 8259   6.748   4.060   1.226
 2454SOL     OW 8260   3.372   1.303   0.128
 2454SOL    HW1 8261   3.399   1.257   0.043
 2454SOL    HW2 8262   3.305   1.247   0.177
 2455SOL     OW 8263   5.557   6.758   0.658
 2455SOL    HW1 8264   5.460   6.772   0.638
 2455SOL    HW2 8265   5.599   6.707   0.583
 2456SOL     OW 8266   6.045   0.451   0.306
 2456SOL    HW1 8267   6.116   0.515   0.335
 2456SOL    HW2 8268   6.018   0.472   0.212
 2457SOL     OW 8269   6.304   6.281   0.093
 2457SOL    HW1 8270   6.298   6.379   0.111
 2457SOL    HW2 8271   6.222   6.236   0.126
 2458SOL     OW 8272   2.477   5.691   3.939
 2458SOL    HW1 8273   2.454   5.599   3.906
 2458SOL    HW2 8274   2.575   5.708   3.926
 2459SOL     OW 8275   2.788   6.410   0.473
 2459SOL    HW1 8276   2.755   6.502   0.452
 2459SOL    HW2 8277   2.719   6.343   0.446
 2460SOL     OW 8278   2.364   0.666   1.229
 2460SOL    HW1 8279   2.415   0.689   1.146
 2460SOL    HW2 8280   2.364   0.745   1.291
 2461SOL     OW 8281   4.140   0.150   2.989
 2461SOL    HW1 8282   4.130   0.055   2.962
 2461SOL    HW2 8283   4.151   0.155   3.088
 2462SOL     OW 8284   2.333   5.190   0.114
 2462SOL    HW1 8285   2.431   5.195   0.095
 2462SOL    HW2 8286   2.291   5.123   0.053
 2463SOL     OW 8287   6.217   2.300   3.648
 2463SOL    HW1 8288   6.270   2.229   3.694
 2463SOL    HW2 8289   6.171   2.261   3.568
 2464SOL     OW 8290   1.637   4.528   1.520
 2464SOL    HW1 8291   1.604   4.605   1.574
 2464SOL    HW2 8292   1.731   4.506   1.547
 2465SOL     OW 8293   0.076   6.189   1.532
 2465SOL    HW1 8294   0.090   6.240   1.617
 2465SOL    HW2 8295   7.018   6.225   1.485
 2466SOL     OW 8296   3.490   1.553   1.946
 2466SOL    HW1 8297   3.549   1.490   1.997
 2466SOL    HW2 8298   3.545   1.607   1.882
 2467SOL     OW 8299   5.616   1.663   5.310
 2467SOL    HW1 8300   5.680   1.586   5.318
 2467SOL    HW2 8301   5.524   1.633   5.333
 2468SOL     OW 8302   5.362   6.167   2.617
 2468SOL    HW1 8303   5.408   6.141   2.532
 2468SOL    HW2 8304   5.429   6.209   2.679
 2469SOL     OW 8305   3.579   4.579   5.411
 2469SOL    HW1 8306   3.562   4.487   5.448
 2469SOL    HW2 8307   3.495   4.616   5.374
 2470SOL     OW 8308   3.422   4.237   5.724
 2470SOL    HW1 8309   3.384   4.156   5.769
 2470SOL    HW2 8310   3.408   4.317   5.782
 2471SOL     OW 8311   2.367   6.157   1.282
 2471SOL    HW1 8312   2.329   6.247   1.303
 2471SOL    HW2 8313   2.379   6.105   1.367
 2472SOL     OW 8314   4.812   1.639   4.029
 2472SOL    HW1 8315   4.882   1.708   4.044
 2472SOL    HW2 8316   4.848   1.568   3.969
 2473SOL     OW 8317   1.773   3.938   5.344
 2473SOL    HW1 8318   1.851   3.962   5.285
 2473SOL    HW2 8319   1.701   4.005   5.332
 2474SOL     OW 8320   0.147   5.809   0.311
 2474SOL    HW1 8321   0.188   5.877   0.250
 2474SOL    HW2 8322   0.114   5.854   0.394
 2475SOL     OW 8323   4.012   1.303   0.499
 2475SOL    HW1 8324   4.014   1.203   0.498
 2475SOL    HW2 8325   4.077   1.338   0.431
 2476SOL     OW 8326   0.888   2.759   3.924
 2476SOL    HW1 8327   0.904   2.857   3.940
 2476SOL    HW2 8328   0.932   2.732   3.839
 2477SOL     OW 8329   6.420   0.460   2.637
 2477SOL    HW1 8330   6.443   0.520   2.560
 2477SOL    HW2 8331   6.447   0.503   2.723
 2478SOL     OW 8332   5.721   7.010   2.567
 2478SOL    HW1 8333   5.676   0.076   2.556
 2478SOL    HW2 8334   5.694   6.949   2.494
 2479SOL     OW 8335   1.097   3.457   1.373
 2479SOL    HW1 8336   1.030   3.452   1.299
 2479SOL    HW2 8337   1.060   3.508   1.449
 2480SOL     OW 8338   5.723   4.170   0.940
 2480SOL    HW1 8339   5.665   4.130   0.868
 2480SOL    HW2 8340   5.730   4.269   0.927
 2481SOL     OW 8341   2.660   6.637   0.290
 2481SOL    HW1 8342   2.681   6.571   0.218
 2481SOL    HW2 8343   2.638   6.726   0.250
 2482SOL     OW 8344   5.499   2.896   5.702
 2482SOL    HW1 8345   5.427   2.833   5.729
 2482SOL    HW2 8346   5.558   2.917   5.780
 2483SOL     OW 8347   2.186   1.069   6.689
 2483SOL    HW1 8348   2.220   1.138   6.753
 2483SOL    HW2 8349   2.250   0.993   6.685
 2484SOL     OW 8350   1.979   0.679   0.358
 2484SOL    HW1 8351   1.894   0.712   0.401
 2484SOL    HW2 8352   2.026   0.755   0.314
 2485SOL     OW 8353   4.229   4.688   2.228
 2485SOL    HW1 8354   4.158   4.630   2.186
 2485SOL    HW2 8355   4.235   4.775   2.179
 2486SOL     OW 8356   3.492   5.431   2.816
 2486SOL    HW1 8357   3.420   5.409   2.751
 2486SOL    HW2 8358   3.502   5.357   2.882
 2487SOL     OW 8359   3.729   5.308   6.450
 2487SOL    HW1 8360   3.758   5.356   6.367
 2487SOL    HW2 8361   3.807   5.263   6.492
 2488SOL     OW 8362   2.307   3.968   1.925
 2488SOL    HW1 8363   2.258   4.054   1.911
 2488SOL    HW2 8364   2.397   3.974   1.881
 2489SOL     OW 8365   2.228   5.196   3.989
 2489SOL    HW1 8366   2.316   5.214   4.032
 2489SOL    HW2 8367   2.242   5.151   3.900
 2490SOL     OW 8368   6.519   5.360   0.756
 2490SOL    HW1 8369   6.506   5.458   0.741
 2490SOL    HW2 8370   6.434   5.319   0.788
 2491SOL     OW 8371   2.188   5.856   2.509
 2491SOL    HW1 8372   2.145   5.765   2.503
 2491SOL    HW2 8373   2.126   5.919   2.555
 2492SOL     OW 8374   3.777   2.788   6.961
 2492SOL    HW1 8375   3.688   2.827   6.936
 2492SOL    HW2 8376   3.808   2.830   0.024
 2493SOL     OW 8377   5.777   0.703   3.035
 2493SOL    HW1 8378   5.721   0.621   3.029
 2493SOL    HW2 8379   5.873   0.680   3.021
 2494SOL     OW 8380   6.058   3.540   2.561
 2494SOL    HW1 8381   5.964   3.552   2.529
 2494SOL    HW2 8382   6.120   3.543   2.483
 2495SOL     OW 8383   5.415   0.231   4.839
 2495SOL    HW1 8384   5.350   0.297   4.802
 2495SOL    HW2 8385   5.508   0.265   4.826
 2496SOL     OW 8386   1.114   5.028   6.598
 2496SOL    HW1 8387   1.045   5.058   6.532
 2496SOL    HW2 8388   1.090   5.063   6.689
 2497SOL     OW 8389   6.924   1.267   0.731
 2497SOL    HW1 8390   6.846   1.266   0.669
 2497SOL    HW2 8391   6.892   1.256   0.826
 2498SOL     OW 8392   3.286   2.106   3.206
 2498SOL    HW1 8393   3.250   2.137   3.295
 2498SOL    HW2 8394   3.218   2.124   3.135
 2499SOL     OW 8395   5.660   1.459   4.657
 2499SOL    HW1 8396   5.621   1.458   4.749
 2499SOL    HW2 8397   5.638   1.373   4.610
 2500SOL     OW 8398   4.671   3.190   5.889
 2500SOL    HW1 8399   4.692   3.281   5.924
 2500SOL    HW2 8400   4.687   3.187   5.790
 2501SOL     OW 8401   6.737   5.671   0.007
 2501SOL    HW1 8402   6.824   5.633   6.998
 2501SOL    HW2 8403   6.711   5.747   6.970
 2502SOL     OW 8404   2.848   6.237   3.713
 2502SOL    HW1 8405   2.892   6.157   3.753
 2502SOL    HW2 8406   2.811   6.213   3.623
 2503SOL     OW 8407   3.352   5.972   5.430
 2503SOL    HW1 8408   3.283   6.038   5.460
 2503SOL    HW2 8409   3.441   6.017   5.423
 2504SOL     OW 8410   3.027   6.002   4.845
 2504SOL    HW1 8411   2.931   5.981   4.827
 2504SOL    HW2 8412   3.057   6.075   4.784
 2505SOL     OW 8413   1.836   6.528   4.651
 2505SOL    HW1 8414   1.913   6.470   4.681
 2505SOL    HW2 8415   1.832   6.529   4.551
 2506SOL     OW 8416   6.974   2.975   5.971
 2506SOL    HW1 8417   6.975   2.875   5.980
 2506SOL    HW2 8418   6.919   3.015   6.045
 2507SOL     OW 8419   6.482   4.121   0.298
 2507SOL    HW1 8420   6.540   4.150   0.221
 2507SOL    HW2 8421   6.534   4.060   0.357
 2508SOL     OW 8422   2.534   1.780   2.432
 2508SOL    HW1 8423   2.439   1.756   2.415
 2508SOL    HW2 8424   2.545   1.879   2.428
 2509SOL     OW 8425   5.808   3.125   2.643
 2509SOL    HW1 8426   5.741   3.115   2.716
 2509SOL    HW2 8427   5.867   3.203   2.662
 2510SOL     OW 8428   3.363   4.152   0.416
 2510SOL    HW1 8429   3.290   4.161   0.483
 2510SOL    HW2 8430   3.378   4.240   0.371
 2511SOL     OW 8431   1.980   1.883   4.730
 2511SOL    HW1 8432   2.018   1.963   4.684
 2511SOL    HW2 8433   2.051   1.813   4.741
 2512SOL     OW 8434   5.623   4.593   5.162
 2512SOL    HW1 8435   5.641   4.692   5.164
 2512SOL    HW2 8436   5.570   4.572   5.080
 2513SOL     OW 8437   1.264   2.642   6.062
 2513SOL    HW1 8438   1.337   2.585   6.097
 2513SOL    HW2 8439   1.280   2.663   5.966
 2514SOL     OW 8440   0.322   3.202   3.845
 2514SOL    HW1 8441   0.377   3.278   3.881
 2514SOL    HW2 8442   0.295   3.143   3.921
 2515SOL     OW 8443   1.286   6.720   0.706
 2515SOL    HW1 8444   1.235   6.802   0.734
 2515SOL    HW2 8445   1.349   6.693   0.778
 2516SOL     OW 8446   6.453   6.054   2.559
 2516SOL    HW1 8447   6.431   6.022   2.467
 2516SOL    HW2 8448   6.493   6.146   2.554
 2517SOL     OW 8449   2.204   5.495   5.723
 2517SOL    HW1 8450   2.208   5.567   5.654
 2517SOL    HW2 8451   2.153   5.417   5.685
 2518SOL     OW 8452   1.779   3.304   0.370
 2518SOL    HW1 8453   1.710   3.300   0.298
 2518SOL    HW2 8454   1.737   3.277   0.457
 2519SOL     OW 8455   5.126   5.206   4.334
 2519SOL    HW1 8456   5.102   5.300   4.361
 2519SOL    HW2 8457   5.176   5.162   4.409
 2520SOL     OW 8458   0.658   2.943   1.073
 2520SOL    HW1 8459   0.739   3.000   1.085
 2520SOL    HW2 8460   0.596   2.957   1.150
 2521SOL     OW 8461   1.443   6.512   5.402
 2521SOL    HW1 8462   1.345   6.535   5.397
 2521SOL    HW2 8463   1.470   6.502   5.498
 2522SOL     OW 8464   0.906   2.972   5.412
 2522SOL    HW1 8465   0.873   2.905   5.346
 2522SOL    HW2 8466   0.838   2.985   5.485
 2523SOL     OW 8467   0.185   2.876   1.182
 2523SOL    HW1 8468   0.151   2.785   1.159
 2523SOL    HW2 8469   0.129   2.916   1.254
 2524SOL     OW 8470   0.776   6.105   4.292
 2524SOL    HW1 8471   0.827   6.183   4.256
 2524SOL    HW2 8472   0.815   6.020   4.256
 2525SOL     OW 8473   1.514   2.503   4.503
 2525SOL    HW1 8474   1.495   2.558   4.422
 2525SOL    HW2 8475   1.528   2.408   4.476
 2526SOL     OW 8476   0.811   3.714   5.960
 2526SOL    HW1 8477   0.853   3.707   6.051
 2526SOL    HW2 8478   0.872   3.766   5.900
 2527SOL     OW 8479   5.089   0.144   5.174
 2527SOL    HW1 8480   5.141   0.228   5.186
 2527SOL    HW2 8481   5.001   0.165   5.131
 2528SOL     OW 8482   6.052   4.668   1.316
 2528SOL    HW1 8483   6.022   4.751   1.363
 2528SOL    HW2 8484   5.998   4.590   1.348
 2529SOL     OW 8485   5.720   4.896   6.336
 2529SOL    HW1 8486   5.671   4.873   6.253
 2529SOL    HW2 8487   5.672   4.858   6.416
 2530SOL     OW 8488   1.308   6.314   5.011
 2530SOL    HW1 8489   1.355   6.273   5.089
 2530SOL    HW2 8490   1.241   6.249   4.975
 2531SOL     OW 8491   5.568   5.697   4.699
 2531SOL    HW1 8492   5.562   5.762   4.774
 2531SOL    HW2 8493   5.505   5.723   4.626
 2532SOL     OW 8494   0.394   6.114   0.551
 2532SOL    HW1 8495   0.440   6.043   0.604
 2532SOL    HW2 8496   0.299   6.121   0.580
 2533SOL     OW 8497   5.347   6.397   4.675
 2533SOL    HW1 8498   5.346   6.315   4.732
 2533SOL    HW2 8499   5.256   6.438   4.673
 2534SOL     OW 8500   2.434   0.795   2.881
 2534SOL    HW1 8501   2.526   0.759   2.899
 2534SOL    HW2 8502   2.428   0.823   2.785
 2535SOL     OW 8503   2.123   1.964   6.576
 2535SOL    HW1 8504   2.186   2.042   6.579
 2535SOL    HW2 8505   2.067   1.969   6.494
 2536SOL     OW 8506   0.617   2.183   3.487
 2536SOL    HW1 8507   0.592   2.151   3.579
 2536SOL    HW2 8508   0.558   2.138   3.420
 2537SOL     OW 8509   4.954   6.222   0.561
 2537SOL    HW1 8510   4.975   6.282   0.483
 2537SOL    HW2 8511   4.897   6.271   0.626
 2538SOL     OW 8512   2.012   3.968   5.231
 2538SOL    HW1 8513   2.105   3.934   5.242
 2538SOL    HW2 8514   2.015   4.064   5.205
 2539SOL     OW 8515   3.887   6.986   5.593
 2539SOL    HW1 8516   3.791   6.958   5.602
 2539SOL    HW2 8517   3.893   0.047   5.539
 2540SOL     OW 8518   5.016   0.391   1.374
 2540SOL    HW1 8519   5.095   0.448   1.396
 2540SOL    HW2 8520   4.942   0.411   1.438
 2541SOL     OW 8521   1.482   0.535   6.076
 2541SOL    HW1 8522   1.384   0.538   6.095
 2541SOL    HW2 8523   1.521   0.627   6.088
 2542SOL     OW 8524   3.753   1.968   4.662
 2542SOL    HW1 8525   3.768   1.894   4.727
 2542SOL    HW2 8526   3.833   2.027   4.659
 2543SOL     OW 8527   2.150   0.385   2.943
 2543SOL    HW1 8528   2.175   0.332   3.024
 2543SOL    HW2 8529   2.126   0.322   2.868
 2544SOL     OW 8530   0.214   5.389   2.217
 2544SOL    HW1 8531   0.161   5.472   2.236
 2544SOL    HW2 8532   0.310   5.413   2.203
 2545SOL     OW 8533   1.790   0.689   1.709
 2545SOL    HW1 8534   1.726   0.700   1.632
 2545SOL    HW2 8535   1.762   0.612   1.765
 2546SOL     OW 8536   5.957   3.207   1.186
 2546SOL    HW1 8537   5.980   3.116   1.153
 2546SOL    HW2 8538   5.944   3.268   1.108
 2547SOL     OW 8539   5.196   5.918   0.196
 2547SOL    HW1 8540   5.198   6.013   0.226
 2547SOL    HW2 8541   5.192   5.858   0.275
 2548SOL     OW 8542   2.434   0.352   4.824
 2548SOL    HW1 8543   2.349   0.370   4.873
 2548SOL    HW2 8544   2.413   0.329   4.729
 2549SOL     OW 8545   2.172   2.355   1.957
 2549SOL    HW1 8546   2.179   2.277   1.894
 2549SOL    HW2 8547   2.181   2.322   2.051
 2550SOL     OW 8548   5.704   1.133   6.713
 2550SOL    HW1 8549   5.711   1.181   6.801
 2550SOL    HW2 8550   5.631   1.065   6.718
 2551SOL     OW 8551   3.243   5.546   0.269
 2551SOL    HW1 8552   3.342   5.548   0.254
 2551SOL    HW2 8553   3.219   5.464   0.322
 2552SOL     OW 8554   1.908   5.104   6.337
 2552SOL    HW1 8555   1.920   5.027   6.273
 2552SOL    HW2 8556   1.838   5.080   6.405
 2553SOL     OW 8557   3.075   3.004   6.180
 2553SOL    HW1 8558   3.075   2.973   6.085
 2553SOL    HW2 8559   3.144   3.075   6.191
 2554SOL     OW 8560   2.115   5.994   6.872
 2554SOL    HW1 8561   2.134   6.014   6.776
 2554SOL    HW2 8562   2.057   5.912   6.878
 2555SOL     OW 8563   5.871   6.433   6.496
 2555SOL    HW1 8564   5.821   6.464   6.577
 2555SOL    HW2 8565   5.931   6.357   6.522
 2556SOL     OW 8566   4.194   6.255   1.286
 2556SOL    HW1 8567   4.256   6.310   1.230
 2556SOL    HW2 8568   4.156   6.181   1.231
 2557SOL     OW 8569   2.528   1.039   6.609
 2557SOL    HW1 8570   2.504   0.946   6.638
 2557SOL    HW2 8571   2.619   1.039   6.570
 2558SOL     OW 8572   4.101   3.726   5.181
 2558SOL    HW1 8573   4.138   3.669   5.255
 2558SOL    HW2 8574   4.124   3.685   5.093
 2559SOL     OW 8575   5.823   2.876   3.852
 2559SOL    HW1 8576   5.867   2.858   3.764
 2559SOL    HW2 8577   5.886   2.851   3.926
 2560SOL     OW 8578   4.948   3.504   3.716
 2560SOL    HW1 8579   5.008   3.550   3.650
 2560SOL    HW2 8580   4.884   3.571   3.755
 2561SOL     OW 8581   3.681   1.173   3.506
 2561SOL    HW1 8582   3.675   1.271   3.520
 2561SOL    HW2 8583   3.689   1.127   3.594
 2562SOL     OW 8584   2.935   5.382   3.627
 2562SOL    HW1 8585   2.998   5.421   3.559
 2562SOL    HW2 8586   2.841   5.408   3.605
 2563SOL     OW 8587   3.853   1.507   5.827
 2563SOL    HW1 8588   3.940   1.548   5.854
 2563SOL    HW2 8589   3.857   1.408   5.842
 2564SOL     OW 8590   1.677   6.487   6.923
 2564SOL    HW1 8591   1.579   6.504   6.915
 2564SOL    HW2 8592   1.728   6.570   6.899
 2565SOL     OW 8593   0.438   0.323   0.212
 2565SOL    HW1 8594   0.425   0.353   0.118
 2565SOL    HW2 8595   0.381   0.377   0.273
 2566SOL     OW 8596   1.514   6.665   0.821
 2566SOL    HW1 8597   1.589   6.727   0.843
 2566SOL    HW2 8598   1.549   6.589   0.766
 2567SOL     OW 8599   1.495   1.356   1.809
 2567SOL    HW1 8600   1.575   1.330   1.863
 2567SOL    HW2 8601   1.500   1.454   1.787
 2568SOL     OW 8602   3.162   0.216   0.639
 2568SOL    HW1 8603   3.129   0.242   0.730
 2568SOL    HW2 8604   3.179   0.117   0.637
 2569SOL     OW 8605   2.269   1.446   2.378
 2569SOL    HW1 8606   2.245   1.442   2.475
 2569SOL    HW2 8607   2.258   1.540   2.345
 2570SOL     OW 8608   4.522   6.469   6.094
 2570SOL    HW1 8609   4.462   6.441   6.168
 2570SOL    HW2 8610   4.604   6.512   6.132
 2571SOL     OW 8611   3.411   2.864   4.690
 2571SOL    HW1 8612   3.343   2.922   4.734
 2571SOL    HW2 8613   3.366   2.786   4.647
 2572SOL     OW 8614   1.892   6.423   0.731
 2572SOL    HW1 8615   1.828   6.353   0.762
 2572SOL    HW2 8616   1.978   6.416   0.781
 2573SOL     OW 8617   6.220   1.107   2.097
 2573SOL    HW1 8618   6.140   1.102   2.037
 2573SOL    HW2 8619   6.303   1.100   2.043
 2574SOL     OW 8620   5.987   3.591   0.092
 2574SOL    HW1 8621   5.918   3.560   0.027
 2574SOL    HW2 8622   5.959   3.680   0.131
 2575SOL     OW 8623   5.119   3.589   1.553
 2575SOL    HW1 8624   5.216   3.614   1.556
 2575SOL    HW2 8625   5.108   3.494   1.584
 2576SOL     OW 8626   4.007   6.766   3.694
 2576SOL    HW1 8627   3.982   6.769   3.790
 2576SOL    HW2 8628   4.014   6.859   3.658
 2577SOL     OW 8629   5.164   0.398   3.383
 2577SOL    HW1 8630   5.088   0.453   3.348
 2577SOL    HW2 8631   5.134   0.346   3.463
 2578SOL     OW 8632   4.708   2.919   5.526
 2578SOL    HW1 8633   4.736   2.870   5.443
 2578SOL    HW2 8634   4.748   2.875   5.606
 2579SOL     OW 8635   1.068   1.098   4.935
 2579SOL    HW1 8636   1.015   1.106   5.019
 2579SOL    HW2 8637   1.151   1.045   4.953
 2580SOL     OW 8638   1.775   2.984   6.342
 2580SOL    HW1 8639   1.751   2.908   6.401
 2580SOL    HW2 8640   1.853   2.958   6.284
 2581SOL     OW 8641   5.950   4.494   1.724
 2581SOL    HW1 8642   6.030   4.521   1.671
 2581SOL    HW2 8643   5.977   4.434   1.798
 2582SOL     OW 8644   2.060   4.714   2.899
 2582SOL    HW1 8645   2.049   4.804   2.941
 2582SOL    HW2 8646   2.109   4.723   2.813
 2583SOL     OW 8647   1.638   1.251   1.321
 2583SOL    HW1 8648   1.691   1.169   1.341
 2583SOL    HW2 8649   1.699   1.326   1.299
 2584SOL     OW 8650   4.175   5.764   0.268
 2584SOL    HW1 8651   4.201   5.751   0.173
 2584SOL    HW2 8652   4.152   5.860   0.283
 2585SOL     OW 8653   3.516   0.463   0.366
 2585SOL    HW1 8654   3.500   0.432   0.273
 2585SOL    HW2 8655   3.471   0.400   0.430
 2586SOL     OW 8656   4.944   1.590   4.424
 2586SOL    HW1 8657   4.923   1.525   4.497
 2586SOL    HW2 8658   5.006   1.661   4.461
 2587SOL     OW 8659   0.226   1.100   4.604
 2587SOL    HW1 8660   0.163   1.023   4.615
 2587SOL    HW2 8661   0.178   1.176   4.560
 2588SOL     OW 8662   4.693   0.321   0.274
 2588SOL    HW1 8663   4.614   0.345   0.330
 2588SOL    HW2 8664   4.748   0.252   0.322
 2589SOL     OW 8665   0.938   6.623   5.902
 2589SOL    HW1 8666   0.913   6.650   5.809
 2589SOL    HW2 8667   0.856   6.592   5.951
 2590SOL     OW 8668   3.530   6.441   2.578
 2590SOL    HW1 8669   3.569   6.442   2.670
 2590SOL    HW2 8670   3.604   6.451   2.511
 2591SOL     OW 8671   5.941   6.094   2.444
 2591SOL    HW1 8672   6.006   6.023   2.470
 2591SOL    HW2 8673   5.848   6.060   2.459
 2592SOL     OW 8674   2.495   6.875   1.246
 2592SOL    HW1 8675   2.534   6.918   1.327
 2592SOL    HW2 8676   2.542   6.788   1.230
 2593SOL     OW 8677   3.328   6.493   2.047
 2593SOL    HW1 8678   3.315   6.421   2.114
 2593SOL    HW2 8679   3.273   6.573   2.072
 2594SOL     OW 8680   6.979   6.187   5.884
 2594SOL    HW1 8681   6.982   6.096   5.844
 2594SOL    HW2 8682   6.969   6.179   5.984
 2595SOL     OW 8683   6.234   1.784   5.881
 2595SOL    HW1 8684   6.220   1.733   5.966
 2595SOL    HW2 8685   6.162   1.760   5.816
 2596SOL     OW 8686   3.947   2.219   1.854
 2596SOL    HW1 8687   3.976   2.200   1.948
 2596SOL    HW2 8688   3.878   2.292   1.854
 2597SOL     OW 8689   1.707   4.169   0.462
 2597SOL    HW1 8690   1.778   4.238   0.452
 2597SOL    HW2 8691   1.680   4.162   0.558
 2598SOL     OW 8692   6.195   1.515   4.587
 2598SOL    HW1 8693   6.105   1.515   4.544
 2598SOL    HW2 8694   6.265   1.528   4.517
 2599SOL     OW 8695   3.467   5.821   0.437
 2599SOL    HW1 8696   3.560   5.795   0.462
 2599SOL    HW2 8697   3.402   5.771   0.494
 2600SOL     OW 8698   4.880   3.899   4.921
 2600SOL    HW1 8699   4.802   3.932   4.975
 2600SOL    HW2 8700   4.884   3.800   4.925
 2601SOL     OW 8701   3.192   1.772   6.761
 2601SOL    HW1 8702   3.268   1.813   6.710
 2601SOL    HW2 8703   3.226   1.694   6.814
 2602SOL     OW 8704   6.816   4.719   4.128
 2602SOL    HW1 8705   6.915   4.733   4.122
 2602SOL    HW2 8706   6.796   4.660   4.206
 2603SOL     OW 8707   2.329   2.651   1.394
 2603SOL    HW1 8708   2.401   2.583   1.384
 2603SOL    HW2 8709   2.353   2.716   1.466
 2604SOL     OW 8710   5.165   1.100   2.548
 2604SOL    HW1 8711   5.179   1.184   2.601
 2604SOL    HW2 8712   5.236   1.093   2.478
 2605SOL     OW 8713   3.568   5.332   3.656
 2605SOL    HW1 8714   3.634   5.280   3.602
 2605SOL    HW2 8715   3.588   5.429   3.649
 2606SOL     OW 8716   6.295   4.285   0.656
 2606SOL    HW1 8717   6.314   4.301   0.559
 2606SOL    HW2 8718   6.354   4.342   0.712
 2607SOL     OW 8719   0.470   1.927   6.222
 2607SOL    HW1 8720   0.505   1.859   6.157
 2607SOL    HW2 8721   0.458   1.885   6.312
 2608SOL     OW 8722   3.870   5.866   2.544
 2608SOL    HW1 8723   3.898   5.947   2.597
 2608SOL    HW2 8724   3.894   5.783   2.595
 2609SOL     OW 8725   0.081   2.731   1.527
 2609SOL    HW1 8726   0.140   2.695   1.455
 2609SOL    HW2 8727   0.097   2.828   1.539
 2610SOL     OW 8728   6.702   5.220   4.075
 2610SOL    HW1 8729   6.662   5.243   4.164
 2610SOL    HW2 8730   6.634   5.174   4.019
 2611SOL     OW 8731   5.797   6.794   1.162
 2611SOL    HW1 8732   5.817   6.872   1.104
 2611SOL    HW2 8733   5.879   6.737   1.171
 2612SOL     OW 8734   7.002   6.548   6.107
 2612SOL    HW1 8735   0.035   6.491   6.047
 2612SOL    HW2 8736   6.926   6.494   6.143
 2613SOL     OW 8737   2.820   6.270   1.372
 2613SOL    HW1 8738   2.801   6.190   1.316
 2613SOL    HW2 8739   2.862   6.241   1.458
 2614SOL     OW 8740   6.372   6.809   6.122
 2614SOL    HW1 8741   6.333   6.868   6.052
 2614SOL    HW2 8742   6.460   6.773   6.091
 2615SOL     OW 8743   5.516   4.664   2.791
 2615SOL    HW1 8744   5.592   4.602   2.810
 2615SOL    HW2 8745   5.550   4.758   2.788
 2616SOL     OW 8746   3.780   3.388   4.124
 2616SOL    HW1 8747   3.747   3.331   4.200
 2616SOL    HW2 8748   3.754   3.345   4.037
 2617SOL     OW 8749   3.509   6.507   1.281
 2617SOL    HW1 8750   3.587   6.447   1.301
 2617SOL    HW2 8751   3.432   6.452   1.249
 2618SOL     OW 8752   0.605   6.629   3.868
 2618SOL    HW1 8753   0.626   6.654   3.773
 2618SOL    HW2 8754   0.564   6.538   3.869
 2619SOL     OW 8755   2.877   1.589   3.723
 2619SOL    HW1 8756   2.797   1.528   3.727
 2619SOL    HW2 8757   2.960   1.537   3.744
 2620SOL     OW 8758   0.695   5.825   3.371
 2620SOL    HW1 8759   0.777   5.784   3.412
 2620SOL    HW2 8760   0.640   5.755   3.327
 2621SOL     OW 8761   2.255   6.129   3.114
 2621SOL    HW1 8762   2.184   6.194   3.088
 2621SOL    HW2 8763   2.341   6.154   3.070
 2622SOL     OW 8764   2.429   1.877   6.575
 2622SOL    HW1 8765   2.337   1.880   6.535
 2622SOL    HW2 8766   2.470   1.788   6.559
 2623SOL     OW 8767   3.101   1.710   4.831
 2623SOL    HW1 8768   3.115   1.668   4.920
 2623SOL    HW2 8769   3.049   1.795   4.842
 2624SOL     OW 8770   6.587   3.481   4.578
 2624SOL    HW1 8771   6.662   3.449   4.521
 2624SOL    HW2 8772   6.502   3.483   4.525
 2625SOL     OW 8773   2.536   2.831   5.964
 2625SOL    HW1 8774   2.615   2.797   6.016
 2625SOL    HW2 8775   2.558   2.920   5.925
 2626SOL     OW 8776   0.762   0.144   4.424
 2626SOL    HW1 8777   0.854   0.139   4.387
 2626SOL    HW2 8778   0.742   0.238   4.452
 2627SOL     OW 8779   0.495   0.607   4.707
 2627SOL    HW1 8780   0.451   0.531   4.659
 2627SOL    HW2 8781   0.546   0.571   4.785
 2628SOL     OW 8782   2.950   5.590   6.765
 2628SOL    HW1 8783   3.036   5.622   6.805
 2628SOL    HW2 8784   2.904   5.666   6.718
 2629SOL     OW 8785   3.090   4.016   2.072
 2629SOL    HW1 8786   3.162   3.980   2.132
 2629SOL    HW2 8787   3.046   4.094   2.117
 2630SOL     OW 8788   3.203   1.833   3.438
 2630SOL    HW1 8789   3.279   1.878   3.392
 2630SOL    HW2 8790   3.119   1.848   3.386
 2631SOL     OW 8791   4.745   0.712   4.367
 2631SOL    HW1 8792   4.700   0.801   4.362
 2631SOL    HW2 8793   4.772   0.694   4.462
 2632SOL     OW 8794   2.874   2.045   6.326
 2632SOL    HW1 8795   2.952   2.029   6.265
 2632SOL    HW2 8796   2.860   1.965   6.384
 2633SOL     OW 8797   6.099   2.109   6.076
 2633SOL    HW1 8798   6.133   2.199   6.050
 2633SOL    HW2 8799   6.171   2.058   6.123
 2634SOL     OW 8800   1.902   4.304   2.816
 2634SOL    HW1 8801   1.965   4.295   2.894
 2634SOL    HW2 8802   1.823   4.245   2.830
 2635SOL     OW 8803   5.768   6.173   4.661
 2635SOL    HW1 8804   5.767   6.258   4.714
 2635SOL    HW2 8805   5.849   6.120   4.686
 2636SOL     OW 8806   4.708   0.740   5.961
 2636SOL    HW1 8807   4.776   0.667   5.951
 2636SOL    HW2 8808   4.647   0.739   5.882
 2637SOL     OW 8809   6.548   1.104   3.869
 2637SOL    HW1 8810   6.554   1.196   3.830
 2637SOL    HW2 8811   6.632   1.054   3.851
 2638SOL     OW 8812   0.297   0.142   3.084
 2638SOL    HW1 8813   0.218   0.202   3.097
 2638SOL    HW2 8814   0.275   0.073   3.015
 2639SOL     OW 8815   0.833   0.019   2.243
 2639SOL    HW1 8816   0.913   6.999   2.286
 2639SOL    HW2 8817   0.754   0.010   2.304
 2640SOL     OW 8818   6.838   6.082   5.123
 2640SOL    HW1 8819   6.848   5.994   5.076
 2640SOL    HW2 8820   6.750   6.084   5.171
 2641SOL     OW 8821   5.201   3.001   1.683
 2641SOL    HW1 8822   5.279   2.939   1.672
 2641SOL    HW2 8823   5.137   2.988   1.607
 2642SOL     OW 8824   5.253   6.995   4.463
 2642SOL    HW1 8825   5.327   0.005   4.404
 2642SOL    HW2 8826   5.277   7.013   4.559
 2643SOL     OW 8827   1.692   4.800   3.269
 2643SOL    HW1 8828   1.682   4.719   3.210
 2643SOL    HW2 8829   1.602   4.837   3.291
 2644SOL     OW 8830   6.375   4.957   5.604
 2644SOL    HW1 8831   6.402   5.040   5.653
 2644SOL    HW2 8832   6.278   4.940   5.618
 2645SOL     OW 8833   4.400   5.790   4.220
 2645SOL    HW1 8834   4.408   5.728   4.299
 2645SOL    HW2 8835   4.343   5.747   4.150
 2646SOL     OW 8836   5.770   6.847   6.615
 2646SOL    HW1 8837   5.856   6.839   6.665
 2646SOL    HW2 8838   5.769   6.781   6.539
 2647SOL     OW 8839   6.022   0.548   1.606
 2647SOL    HW1 8840   5.998   0.496   1.688
 2647SOL    HW2 8841   5.940   0.595   1.571
 2648SOL     OW 8842   0.462   0.459   3.626
 2648SOL    HW1 8843   0.530   0.492   3.560
 2648SOL    HW2 8844   0.411   0.383   3.586
 2649SOL     OW 8845   5.335   3.221   5.918
 2649SOL    HW1 8846   5.360   3.178   5.831
 2649SOL    HW2 8847   5.302   3.314   5.901
 2650SOL     OW 8848   1.048   3.720   4.273
 2650SOL    HW1 8849   0.964   3.762   4.239
 2650SOL    HW2 8850   1.029   3.625   4.298
 2651SOL     OW 8851   0.109   1.962   7.013
 2651SOL    HW1 8852   0.084   1.904   0.067
 2651SOL    HW2 8853   0.208   1.956   6.998
 2652SOL     OW 8854   3.028   3.287   3.817
 2652SOL    HW1 8855   3.005   3.281   3.914
 2652SOL    HW2 8856   3.093   3.362   3.803
 2653SOL     OW 8857   5.065   6.741   5.294
 2653SOL    HW1 8858   5.046   6.789   5.209
 2653SOL    HW2 8859   5.145   6.782   5.339
 2654SOL     OW 8860   4.383   4.249   1.193
 2654SOL    HW1 8861   4.452   4.215   1.256
 2654SOL    HW2 8862   4.428   4.288   1.112
 2655SOL     OW 8863   5.570   4.882   4.627
 2655SOL    HW1 8864   5.497   4.913   4.687
 2655SOL    HW2 8865   5.645   4.949   4.627
 2656SOL     OW 8866   3.996   4.878   4.495
 2656SOL    HW1 8867   3.928   4.871   4.568
 2656SOL    HW2 8868   3.956   4.928   4.418
 2657SOL     OW 8869   2.492   4.447   6.502
 2657SOL    HW1 8870   2.444   4.441   6.589
 2657SOL    HW2 8871   2.529   4.539   6.490
 2658SOL     OW 8872   5.040   3.772   0.243
 2658SOL    HW1 8873   5.134   3.754   0.213
 2658SOL    HW2 8874   5.013   3.864   0.213
 2659SOL     OW 8875   6.296   2.497   4.690
 2659SOL    HW1 8876   6.323   2.503   4.594
 2659SOL    HW2 8877   6.211   2.444   4.698
 2660SOL     OW 8878   0.851   1.276   1.018
 2660SOL    HW1 8879   0.798   1.295   0.935
 2660SOL    HW2 8880   0.948   1.285   0.998
 2661SOL     OW 8881   2.331   6.442   1.400
 2661SOL    HW1 8882   2.431   6.441   1.410
 2661SOL    HW2 8883   2.301   6.535   1.378
 2662SOL     OW 8884   4.500   0.477   5.602
 2662SOL    HW1 8885   4.493   0.377   5.608
 2662SOL    HW2 8886   4.573   0.501   5.537
 2663SOL     OW 8887   2.816   3.645   1.397
 2663SOL    HW1 8888   2.904   3.598   1.390
 2663SOL    HW2 8889   2.775   3.626   1.487
 2664SOL     OW 8890   3.563   3.884   4.645
 2664SOL    HW1 8891   3.607   3.794   4.642
 2664SOL    HW2 8892   3.632   3.954   4.662
 2665SOL     OW 8893   2.813   2.591   5.413
 2665SOL    HW1 8894   2.803   2.548   5.323
 2665SOL    HW2 8895   2.847   2.523   5.478
 2666SOL     OW 8896   4.937   3.916   1.910
 2666SOL    HW1 8897   4.901   4.009   1.898
 2666SOL    HW2 8898   4.924   3.864   1.826
 2667SOL     OW 8899   1.773   6.183   4.285
 2667SOL    HW1 8900   1.780   6.150   4.190
 2667SOL    HW2 8901   1.677   6.189   4.311
 2668SOL     OW 8902   6.228   3.170   3.175
 2668SOL    HW1 8903   6.161   3.162   3.249
 2668SOL    HW2 8904   6.284   3.087   3.173
 2669SOL     OW 8905   2.934   4.800   5.249
 2669SOL    HW1 8906   2.851   4.852   5.271
 2669SOL    HW2 8907   2.910   4.719   5.196
 2670SOL     OW 8908   5.606   1.646   6.387
 2670SOL    HW1 8909   5.587   1.735   6.346
 2670SOL    HW2 8910   5.563   1.574   6.332
 2671SOL     OW 8911   3.408   5.324   0.043
 2671SOL    HW1 8912   3.344   5.267   7.015
 2671SOL    HW2 8913   3.408   5.298   0.139
 2672SOL     OW 8914   6.759   5.290   6.933
 2672SOL    HW1 8915   6.693   5.355   6.895
 2672SOL    HW2 8916   6.819   5.257   6.860
 2673SOL     OW 8917   6.272   2.044   3.362
 2673SOL    HW1 8918   6.244   1.950   3.340
 2673SOL    HW2 8919   6.302   2.090   3.279
 2674SOL     OW 8920   2.132   4.003   3.937
 2674SOL    HW1 8921   2.131   3.912   3.980
 2674SOL    HW2 8922   2.155   3.993   3.840
 2675SOL     OW 8923   6.654   4.882   4.570
 2675SOL    HW1 8924   6.589   4.814   4.537
 2675SOL    HW2 8925   6.707   4.844   4.645
 2676SOL     OW 8926   4.386   1.229   2.048
 2676SOL    HW1 8927   4.469   1.216   2.102
 2676SOL    HW2 8928   4.345   1.141   2.027
 2677SOL     OW 8929   3.153   4.532   0.120
 2677SOL    HW1 8930   3.135   4.631   0.115
 2677SOL    HW2 8931   3.077   4.482   0.079
 2678SOL     OW 8932   7.013   4.726   1.327
 2678SOL    HW1 8933   0.070   4.786   1.321
 2678SOL    HW2 8934   0.019   4.631   1.319
 2679SOL     OW 8935   3.762   5.041   0.659
 2679SOL    HW1 8936   3.785   5.077   0.749
 2679SOL    HW2 8937   3.847   5.020   0.609
 2680SOL     OW 8938   1.165   1.717   1.519
 2680SOL    HW1 8939   1.235   1.653   1.487
 2680SOL    HW2 8940   1.075   1.687   1.489
 2681SOL     OW 8941   1.431   2.313   4.203
 2681SOL    HW1 8942   1.396   2.403   4.228
 2681SOL    HW2 8943   1.499   2.322   4.131
 2682SOL     OW 8944   5.107   3.581   2.852
 2682SOL    HW1 8945   5.116   3.638   2.770
 2682SOL    HW2 8946   5.013   3.585   2.885
 2683SOL     OW 8947   1.333   4.258   0.281
 2683SOL    HW1 8948   1.319   4.259   0.380
 2683SOL    HW2 8949   1.284   4.181   0.241
 2684SOL     OW 8950   4.486   5.540   1.945
 2684SOL    HW1 8951   4.419   5.545   2.018
 2684SOL    HW2 8952   4.475   5.454   1.894
 2685SOL     OW 8953   6.382   5.782   6.302
 2685SOL    HW1 8954   6.393   5.797   6.204
 2685SOL    HW2 8955   6.306   5.719   6.317
 2686SOL     OW 8956   1.511   1.480   5.730
 2686SOL    HW1 8957   1.468   1.399   5.689
 2686SOL    HW2 8958   1.462   1.562   5.700
 2687SOL     OW 8959   4.527   4.437   2.916
 2687SOL    HW1 8960   4.597   4.494   2.872
 2687SOL    HW2 8961   4.512   4.355   2.861
 2688SOL     OW 8962   4.656   5.622   6.935
 2688SOL    HW1 8963   4.702   5.711   6.930
 2688SOL    HW2 8964   4.714   5.552   6.892
 2689SOL     OW 8965   2.280   2.256   3.555
 2689SOL    HW1 8966   2.355   2.215   3.504
 2689SOL    HW2 8967   2.248   2.192   3.625
 2690SOL     OW 8968   3.039   3.468   4.264
 2690SOL    HW1 8969   3.023   3.409   4.343
 2690SOL    HW2 8970   3.126   3.516   4.275
 2691SOL     OW 8971   1.153   5.722   2.351
 2691SOL    HW1 8972   1.226   5.654   2.360
 2691SOL    HW2 8973   1.156   5.761   2.259
 2692SOL     OW 8974   4.218   4.713   3.708
 2692SOL    HW1 8975   4.240   4.800   3.665
 2692SOL    HW2 8976   4.296   4.651   3.701
 2693SOL     OW 8977   2.048   4.255   3.094
 2693SOL    HW1 8978   1.994   4.304   3.162
 2693SOL    HW2 8979   2.007   4.165   3.077
 2694SOL     OW 8980   3.839   6.958   2.878
 2694SOL    HW1 8981   3.756   6.912   2.847
 2694SOL    HW2 8982   3.869   0.001   2.809
 2695SOL     OW 8983   5.663   0.972   2.589
 2695SOL    HW1 8984   5.650   0.876   2.613
 2695SOL    HW2 8985   5.751   0.983   2.543
 2696SOL     OW 8986   3.825   3.735   5.202
 2696SOL    HW1 8987   3.788   3.720   5.110
 2696SOL    HW2 8988   3.924   3.722   5.200
 2697SOL     OW 8989   4.181   1.183   3.271
 2697SOL    HW1 8990   4.107   1.250   3.281
 2697SOL    HW2 8991   4.142   1.091   3.263
 2698SOL     OW 8992   1.988   5.783   0.621
 2698SOL    HW1 8993   2.080   5.796   0.584
 2698SOL    HW2 8994   1.948   5.699   0.584
 2699SOL     OW 8995   3.511   5.791   0.170
 2699SOL    HW1 8996   3.500   5.805   0.269
 2699SOL    HW2 8997   3.558   5.705   0.153
 2700SOL     OW 8998   2.052   4.085   1.453
 2700SOL    HW1 8999   2.069   4.086   1.354
 2700SOL    HW2 9000   1.957   4.109   1.470
 2701SOL     OW 9001   3.146   0.413   6.485
 2701SOL    HW1 9002   3.108   0.323   6.465
 2701SOL    HW2 9003   3.116   0.478   6.415
 2702SOL     OW 9004   0.265   2.876   2.807
 2702SOL    HW1 9005   0.204   2.799   2.787
 2702SOL    HW2 9006   0.359   2.852   2.783
 2703SOL     OW 9007   2.376   0.313   2.416
 2703SOL    HW1 9008   2.393   0.217   2.397
 2703SOL    HW2 9009   2.283   0.337   2.387
 2704SOL     OW 9010   0.369   5.856   0.927
 2704SOL    HW1 9011   0.283   5.881   0.972
 2704SOL    HW2 9012   0.444   5.910   0.966
 2705SOL     OW 9013   1.557   5.505   4.816
 2705SOL    HW1 9014   1.595   5.562   4.889
 2705SOL    HW2 9015   1.581   5.544   4.727
 2706SOL     OW 9016   0.384   0.777   1.078
 2706SOL    HW1 9017   0.432   0.752   0.994
 2706SOL    HW2 9018   0.366   0.876   1.078
 2707SOL     OW 9019   2.151   1.028   5.184
 2707SOL    HW1 9020   2.139   1.127   5.186
 2707SOL    HW2 9021   2.142   0.991   5.276
 2708SOL     OW 9022   1.312   1.875   1.277
 2708SOL    HW1 9023   1.226   1.846   1.236
 2708SOL    HW2 9024   1.308   1.972   1.299
 2709SOL     OW 9025   5.643   6.628   0.410
 2709SOL    HW1 9026   5.656   6.662   0.316
 2709SOL    HW2 9027   5.646   6.528   0.409
 2710SOL     OW 9028   0.565   3.374   2.696
 2710SOL    HW1 9029   0.550   3.329   2.784
 2710SOL    HW2 9030   0.529   3.467   2.699
 2711SOL     OW 9031   2.598   1.247   3.135
 2711SOL    HW1 9032   2.655   1.169   3.108
 2711SOL    HW2 9033   2.585   1.308   3.057
 2712SOL     OW 9034   3.321   4.978   1.081
 2712SOL    HW1 9035   3.371   4.981   0.994
 2712SOL    HW2 9036   3.224   4.998   1.063
 2713SOL     OW 9037   2.097   2.382   4.899
 2713SOL    HW1 9038   2.010   2.430   4.910
 2713SOL    HW2 9039   2.164   2.422   4.962
 2714SOL     OW 9040   4.754   2.085   6.669
 2714SOL    HW1 9041   4.751   2.178   6.631
 2714SOL    HW2 9042   4.822   2.080   6.742
 2715SOL     OW 9043   5.407   0.678   0.203
 2715SOL    HW1 9044   5.403   0.581   0.178
 2715SOL    HW2 9045   5.435   0.687   0.299
 2716SOL     OW 9046   5.229   5.091   2.694
 2716SOL    HW1 9047   5.165   5.019   2.666
 2716SOL    HW2 9048   5.322   5.054   2.696
 2717SOL     OW 9049   1.970   5.006   2.271
 2717SOL    HW1 9050   1.936   5.071   2.202
 2717SOL    HW2 9051   2.039   5.051   2.328
 2718SOL     OW 9052   1.843   3.523   5.244
 2718SOL    HW1 9053   1.890   3.437   5.222
 2718SOL    HW2 9054   1.851   3.586   5.167
 2719SOL     OW 9055   6.016   5.498   1.501
 2719SOL    HW1 9056   6.049   5.439   1.574
 2719SOL    HW2 9057   6.090   5.558   1.470
 2720SOL     OW 9058   1.937   6.176   2.820
 2720SOL    HW1 9059   1.921   6.234   2.900
 2720SOL    HW2 9060   1.858   6.179   2.759
 2721SOL     OW 9061   3.200   0.709   3.971
 2721SOL    HW1 9062   3.195   0.808   3.955
 2721SOL    HW2 9063   3.206   0.661   3.884
 2722SOL     OW 9064   6.525   5.540   1.986
 2722SOL    HW1 9065   6.616   5.505   1.962
 2722SOL    HW2 9066   6.515   5.541   2.085
 2723SOL     OW 9067   1.399   6.653   6.015
 2723SOL    HW1 9068   1.313   6.699   5.991
 2723SOL    HW2 9069   1.404   6.643   6.114
 2724SOL     OW 9070   2.511   6.943   6.455
 2724SOL    HW1 9071   2.456   6.872   6.498
 2724SOL    HW2 9072   2.459   6.986   6.382
 2725SOL     OW 9073   6.222   4.615   4.091
 2725SOL    HW1 9074   6.122   4.621   4.097
 2725SOL    HW2 9075   6.258   4.702   4.056
 2726SOL     OW 9076   6.921   4.193   1.016
 2726SOL    HW1 9077   6.877   4.114   1.057
 2726SOL    HW2 9078   6.977   4.240   1.085
 2727SOL     OW 9079   0.758   4.700   3.182
 2727SOL    HW1 9080   0.817   4.619   3.181
 2727SOL    HW2 9081   0.715   4.709   3.272
 2728SOL     OW 9082   3.634   0.057   5.862
 2728SOL    HW1 9083   3.597   0.015   5.779
 2728SOL    HW2 9084   3.565   0.053   5.934
 2729SOL     OW 9085   6.034   5.636   1.096
 2729SOL    HW1 9086   6.053   5.549   1.141
 2729SOL    HW2 9087   6.059   5.631   1.000
 2730SOL     OW 9088   1.411   5.403   1.918
 2730SOL    HW1 9089   1.324   5.430   1.877
 2730SOL    HW2 9090   1.435   5.467   1.991
 2731SOL     OW 9091   3.827   3.544   1.960
 2731SOL    HW1 9092   3.791   3.629   1.921
 2731SOL    HW2 9093   3.919   3.561   1.996
 2732SOL     OW 9094   5.622   3.331   2.193
 2732SOL    HW1 9095   5.546   3.271   2.166
 2732SOL    HW2 9096   5.593   3.426   2.186
 2733SOL     OW 9097   0.297   0.102   4.950
 2733SOL    HW1 9098   0.261   0.027   5.005
 2733SOL    HW2 9099   0.354   0.066   4.877
 2734SOL     OW 9100   2.172   5.718   2.167
 2734SOL    HW1 9101   2.172   5.817   2.182
 2734SOL    HW2 9102   2.077   5.687   2.157
 2735SOL     OW 9103   1.009   3.766   2.938
 2735SOL    HW1 9104   0.946   3.699   2.898
 2735SOL    HW2 9105   1.072   3.798   2.867
 2736SOL     OW 9106   4.742   0.313   4.553
 2736SOL    HW1 9107   4.710   0.396   4.599
 2736SOL    HW2 9108   4.747   0.238   4.620
 2737SOL     OW 9109   3.330   3.543   5.337
 2737SOL    HW1 9110   3.370   3.566   5.249
 2737SOL    HW2 9111   3.276   3.620   5.371
 2738SOL     OW 9112   5.631   5.045   4.216
 2738SOL    HW1 9113   5.595   5.064   4.125
 2738SOL    HW2 9114   5.596   4.957   4.248
 2739SOL     OW 9115   6.392   5.045   0.266
 2739SOL    HW1 9116   6.471   5.100   0.292
 2739SOL    HW2 9117   6.371   5.060   0.169
 2740SOL     OW 9118   6.483   3.968   2.214
 2740SOL    HW1 9119   6.498   4.007   2.305
 2740SOL    HW2 9120   6.466   3.870   2.222
 2741SOL     OW 9121   6.812   0.948   5.577
 2741SOL    HW1 9122   6.742   0.939   5.506
 2741SOL    HW2 9123   6.900   0.919   5.541
 2742SOL     OW 9124   1.545   4.674   6.851
 2742SOL    HW1 9125   1.567   4.718   6.764
 2742SOL    HW2 9126   1.629   4.659   6.903
 2743SOL     OW 9127   6.197   5.175   1.962
 2743SOL    HW1 9128   6.172   5.099   2.021
 2743SOL    HW2 9129   6.246   5.244   2.015
 2744SOL     OW 9130   4.597   1.907   0.037
 2744SOL    HW1 9131   4.613   1.835   6.992
 2744SOL    HW2 9132   4.617   1.996   7.019
 2745SOL     OW 9133   1.068   6.419   6.681
 2745SOL    HW1 9134   1.044   6.424   6.584
 2745SOL    HW2 9135   1.014   6.347   6.725
 2746SOL     OW 9136   2.700   1.793   3.744
 2746SOL    HW1 9137   2.726   1.870   3.803
 2746SOL    HW2 9138   2.764   1.717   3.758
 2747SOL     OW 9139   5.264   3.481   5.887
 2747SOL    HW1 9140   5.339   3.543   5.864
 2747SOL    HW2 9141   5.200   3.475   5.809
 2748SOL     OW 9142   3.718   1.849   0.894
 2748SOL    HW1 9143   3.692   1.880   0.802
 2748SOL    HW2 9144   3.637   1.814   0.941
 2749SOL     OW 9145   5.962   4.611   4.098
 2749SOL    HW1 9146   5.885   4.619   4.161
 2749SOL    HW2 9147   5.932   4.565   4.014
 2750SOL     OW 9148   0.969   5.501   1.372
 2750SOL    HW1 9149   0.925   5.491   1.461
 2750SOL    HW2 9150   0.930   5.436   1.307
 2751SOL     OW 9151   0.895   6.424   0.407
 2751SOL    HW1 9152   0.862   6.340   0.365
 2751SOL    HW2 9153   0.822   6.491   0.410
 2752SOL     OW 9154   4.955   4.765   5.071
 2752SOL    HW1 9155   4.946   4.698   5.145
 2752SOL    HW2 9156   5.001   4.847   5.107
 2753SOL     OW 9157   1.454   0.215   6.334
 2753SOL    HW1 9158   1.445   0.310   6.365
 2753SOL    HW2 9159   1.416   0.207   6.241
 2754SOL     OW 9160   6.566   0.811   4.194
 2754SOL    HW1 9161   6.580   0.909   4.210
 2754SOL    HW2 9162   6.478   0.784   4.231
 2755SOL     OW 9163   3.222   6.668   3.424
 2755SOL    HW1 9164   3.223   6.647   3.522
 2755SOL    HW2 9165   3.192   6.762   3.411
 2756SOL     OW 9166   6.472   3.817   5.261
 2756SOL    HW1 9167   6.552   3.759   5.245
 2756SOL    HW2 9168   6.390   3.761   5.259
 2757SOL     OW 9169   2.424   1.209   6.436
 2757SOL    HW1 9170   2.471   1.146   6.498
 2757SOL    HW2 9171   2.327   1.187   6.433
 2758SOL     OW 9172   5.271   6.182   3.710
 2758SOL    HW1 9173   5.307   6.273   3.690
 2758SOL    HW2 9174   5.304   6.153   3.800
 2759SOL     OW 9175   4.427   5.461   5.698
 2759SOL    HW1 9176   4.351   5.494   5.753
 2759SOL    HW2 9177   4.395   5.387   5.638
 2760SOL     OW 9178   6.879   5.121   2.809
 2760SOL    HW1 9179   6.805   5.095   2.747
 2760SOL    HW2 9180   6.915   5.211   2.783
 2761SOL     OW 9181   1.760   4.255   4.347
 2761SOL    HW1 9182   1.679   4.314   4.340
 2761SOL    HW2 9183   1.761   4.191   4.269
 2762SOL     OW 9184   1.708   1.874   6.715
 2762SOL    HW1 9185   1.692   1.917   6.626
 2762SOL    HW2 9186   1.667   1.931   6.787
 2763SOL     OW 9187   4.806   2.219   5.363
 2763SOL    HW1 9188   4.878   2.242   5.298
 2763SOL    HW2 9189   4.818   2.272   5.447
 2764SOL     OW 9190   0.231   6.159   2.351
 2764SOL    HW1 9191   0.242   6.226   2.278
 2764SOL    HW2 9192   0.292   6.082   2.335
 2765SOL     OW 9193   6.861   0.276   0.812
 2765SOL    HW1 9194   6.913   0.192   0.798
 2765SOL    HW2 9195   6.794   0.286   0.738
 2766SOL     OW 9196   3.844   1.944   6.801
 2766SOL    HW1 9197   3.883   1.862   6.757
 2766SOL    HW2 9198   3.907   2.021   6.788
 2767SOL     OW 9199   6.370   5.550   6.071
 2767SOL    HW1 9200   6.348   5.477   6.007
 2767SOL    HW2 9201   6.289   5.569   6.128
 2768SOL     OW 9202   4.216   1.256   0.300
 2768SOL    HW1 9203   4.142   1.284   0.239
 2768SOL    HW2 9204   4.193   1.168   0.342
 2769SOL     OW 9205   2.558   4.700   6.446
 2769SOL    HW1 9206   2.515   4.769   6.505
 2769SOL    HW2 9207   2.513   4.702   6.357
 2770SOL     OW 9208   4.039   5.261   5.648
 2770SOL    HW1 9209   4.049   5.184   5.710
 2770SOL    HW2 9210   3.942   5.288   5.643
 2771SOL     OW 9211   5.903   0.940   4.899
 2771SOL    HW1 9212   5.899   1.039   4.880
 2771SOL    HW2 9213   5.986   0.902   4.858
 2772SOL     OW 9214   2.996   1.493   1.219
 2772SOL    HW1 9215   3.070   1.556   1.194
 2772SOL    HW2 9216   2.926   1.543   1.270
 2773SOL     OW 9217   6.958   2.683   4.351
 2773SOL    HW1 9218   0.005   2.674   4.422
 2773SOL    HW2 9219   6.979   2.620   4.276
 2774SOL     OW 9220   4.970   2.985   2.922
 2774SOL    HW1 9221   4.997   2.982   2.826
 2774SOL    HW2 9222   4.960   3.080   2.951
 2775SOL     OW 9223   6.227   3.045   4.349
 2775SOL    HW1 9224   6.147   3.105   4.349
 2775SOL    HW2 9225   6.306   3.095   4.314
 2776SOL     OW 9226   5.424   4.256   5.674
 2776SOL    HW1 9227   5.349   4.281   5.614
 2776SOL    HW2 9228   5.510   4.254   5.622
 2777SOL     OW 9229   2.377   1.534   0.750
 2777SOL    HW1 9230   2.358   1.438   0.772
 2777SOL    HW2 9231   2.323   1.562   0.670
 2778SOL     OW 9232   1.479   6.122   6.640
 2778SOL    HW1 9233   1.446   6.030   6.618
 2778SOL    HW2 9234   1.538   6.118   6.721
 2779SOL     OW 9235   5.446   6.638   1.726
 2779SOL    HW1 9236   5.501   6.569   1.773
 2779SOL    HW2 9237   5.447   6.723   1.779
 2780SOL     OW 9238   7.005   0.091   5.746
 2780SOL    HW1 9239   6.908   0.113   5.758
 2780SOL    HW2 9240   7.023   0.069   5.650
 2781SOL     OW 9241   5.942   0.488   3.220
 2781SOL    HW1 9242   6.011   0.552   3.254
 2781SOL    HW2 9243   5.923   0.508   3.124
 2782SOL     OW 9244   4.605   1.285   4.709
 2782SOL    HW1 9245   4.506   1.296   4.709
 2782SOL    HW2 9246   4.629   1.197   4.670
 2783SOL     OW 9247   7.020   4.100   1.473
 2783SOL    HW1 9248   0.044   4.014   1.452
 2783SOL    HW2 9249   6.934   4.103   1.422
 2784SOL     OW 9250   3.278   1.380   1.976
 2784SOL    HW1 9251   3.263   1.342   1.884
 2784SOL    HW2 9252   3.354   1.444   1.973
 2785SOL     OW 9253   4.871   2.297   0.448
 2785SOL    HW1 9254   4.849   2.394   0.439
 2785SOL    HW2 9255   4.958   2.287   0.496
 2786SOL     OW 9256   6.362   6.447   1.380
 2786SOL    HW1 9257   6.331   6.542   1.381
 2786SOL    HW2 9258   6.334   6.405   1.294
 2787SOL     OW 9259   6.204   6.186   5.314
 2787SOL    HW1 9260   6.116   6.177   5.361
 2787SOL    HW2 9261   6.238   6.280   5.324
 2788SOL     OW 9262   2.873   6.658   6.229
 2788SOL    HW1 9263   2.786   6.697   6.260
 2788SOL    HW2 9264   2.863   6.559   6.218
 2789SOL     OW 9265   1.775   1.407   3.473
 2789SOL    HW1 9266   1.738   1.477   3.411
 2789SOL    HW2 9267   1.720   1.324   3.464
 2790SOL     OW 9268   3.226   5.240   0.746
 2790SOL    HW1 9269   3.130   5.269   0.745
 2790SOL    HW2 9270   3.231   5.141   0.759
 2791SOL     OW 9271   1.037   4.262   2.237
 2791SOL    HW1 9272   1.060   4.184   2.179
 2791SOL    HW2 9273   0.964   4.315   2.193
 2792SOL     OW 9274   2.944   0.679   4.259
 2792SOL    HW1 9275   2.889   0.760   4.237
 2792SOL    HW2 9276   3.040   0.705   4.265
 2793SOL     OW 9277   5.308   3.786   2.187
 2793SOL    HW1 9278   5.288   3.796   2.284
 2793SOL    HW2 9279   5.276   3.866   2.137
 2794SOL     OW 9280   6.601   2.286   6.067
 2794SOL    HW1 9281   6.620   2.311   5.972
 2794SOL    HW2 9282   6.608   2.187   6.078
 2795SOL     OW 9283   0.244   4.056   1.180
 2795SOL    HW1 9284   0.271   3.997   1.256
 2795SOL    HW2 9285   0.239   4.002   1.096
 2796SOL     OW 9286   0.322   5.740   3.747
 2796SOL    HW1 9287   0.415   5.754   3.779
 2796SOL    HW2 9288   0.301   5.806   3.674
 2797SOL     OW 9289   5.597   5.162   5.505
 2797SOL    HW1 9290   5.595   5.066   5.476
 2797SOL    HW2 9291   5.682   5.204   5.471
 2798SOL     OW 9292   5.929   5.806   2.609
 2798SOL    HW1 9293   5.882   5.889   2.638
 2798SOL    HW2 9294   5.862   5.740   2.576
 2799SOL     OW 9295   5.375   5.995   5.831
 2799SOL    HW1 9296   5.346   5.918   5.888
 2799SOL    HW2 9297   5.344   5.980   5.737
 2800SOL     OW 9298   5.444   0.146   5.822
 2800SOL    HW1 9299   5.535   0.187   5.812
 2800SOL    HW2 9300   5.430   0.121   5.918
 2801SOL     OW 9301   0.926   5.275   6.143
 2801SOL    HW1 9302   0.924   5.374   6.146
 2801SOL    HW2 9303   0.851   5.238   6.199
 2802SOL     OW 9304   6.716   5.924   5.459
 2802SOL    HW1 9305   6.770   6.006   5.476
 2802SOL    HW2 9306   6.618   5.945   5.468
 2803SOL     OW 9307   3.438   4.694   5.761
 2803SOL    HW1 9308   3.346   4.670   5.732
 2803SOL    HW2 9309   3.494   4.713   5.680
 2804SOL     OW 9310   0.464   3.885   4.252
 2804SOL    HW1 9311   0.428   3.969   4.292
 2804SOL    HW2 9312   0.532   3.845   4.313
 2805SOL     OW 9313   6.064   3.786   2.673
 2805SOL    HW1 9314   6.024   3.776   2.764
 2805SOL    HW2 9315   6.050   3.702   2.621
 2806SOL     OW 9316   1.859   4.252   6.248
 2806SOL    HW1 9317   1.936   4.281   6.190
 2806SOL    HW2 9318   1.894   4.204   6.329
 2807SOL     OW 9319   4.350   0.177   3.211
 2807SOL    HW1 9320   4.439   0.175   3.255
 2807SOL    HW2 9321   4.302   0.090   3.227
 2808SOL     OW 9322   6.517   5.671   0.508
 2808SOL    HW1 9323   6.511   5.771   0.503
 2808SOL    HW2 9324   6.571   5.645   0.588
 2809SOL     OW 9325   5.463   2.101   1.338
 2809SOL    HW1 9326   5.483   2.179   1.279
 2809SOL    HW2 9327   5.455   2.018   1.283
 2810SOL     OW 9328   2.584   5.484   3.084
 2810SOL    HW1 9329   2.669   5.431   3.075
 2810SOL    HW2 9330   2.506   5.422   3.073
 2811SOL     OW 9331   0.678   1.630   2.808
 2811SOL    HW1 9332   0.590   1.590   2.833
 2811SOL    HW2 9333   0.737   1.560   2.768
 2812SOL     OW 9334   5.914   3.445   0.674
 2812SOL    HW1 9335   5.998   3.395   0.698
 2812SOL    HW2 9336   5.907   3.527   0.729
 2813SOL     OW 9337   0.751   1.785   0.529
 2813SOL    HW1 9338   0.738   1.790   0.629
 2813SOL    HW2 9339   0.796   1.869   0.498
 2814SOL     OW 9340   3.156   4.206   5.564
 2814SOL    HW1 9341   3.206   4.269   5.623
 2814SOL    HW2 9342   3.063   4.192   5.600
 2815SOL     OW 9343   6.615   5.129   6.082
 2815SOL    HW1 9344   6.533   5.103   6.030
 2815SOL    HW2 9345   6.672   5.189   6.025
 2816SOL     OW 9346   6.508   6.004   4.249
 2816SOL    HW1 9347   6.523   5.914   4.207
 2816SOL    HW2 9348   6.453   5.994   4.331
 2817SOL     OW 9349   3.562   1.212   2.615
 2817SOL    HW1 9350   3.470   1.173   2.613
 2817SOL    HW2 9351   3.608   1.184   2.700
 2818SOL     OW 9352   6.791   1.338   2.488
 2818SOL    HW1 9353   6.814   1.391   2.407
 2818SOL    HW2 9354   6.824   1.385   2.570
 2819SOL     OW 9355   1.406   0.439   1.810
 2819SOL    HW1 9356   1.504   0.454   1.822
 2819SOL    HW2 9357   1.359   0.458   1.896
 2820SOL     OW 9358   0.968   2.192   2.338
 2820SOL    HW1 9359   0.959   2.131   2.259
 2820SOL    HW2 9360   1.030   2.267   2.315
 2821SOL     OW 9361   2.746   5.112   5.929
 2821SOL    HW1 9362   2.677   5.149   5.991
 2821SOL    HW2 9363   2.705   5.098   5.839
 2822SOL     OW 9364   4.086   2.091   7.003
 2822SOL    HW1 9365   4.163   2.027   7.004
 2822SOL    HW2 9366   4.041   2.088   6.913
 2823SOL     OW 9367   6.259   0.608   7.000
 2823SOL    HW1 9368   6.161   0.585   6.999
 2823SOL    HW2 9369   6.274   0.688   0.035
 2824SOL     OW 9370   1.628   2.683   5.464
 2824SOL    HW1 9371   1.566   2.719   5.394
 2824SOL    HW2 9372   1.600   2.590   5.487
 2825SOL     OW 9373   5.346   0.446   6.054
 2825SOL    HW1 9374   5.367   0.446   6.152
 2825SOL    HW2 9375   5.253   0.413   6.040
 2826SOL     OW 9376   2.725   3.420   6.636
 2826SOL    HW1 9377   2.721   3.366   6.552
 2826SOL    HW2 9378   2.647   3.396   6.694
 2827SOL     OW 9379   0.474   0.936   6.426
 2827SOL    HW1 9380   0.455   0.839   6.408
 2827SOL    HW2 9381   0.456   0.989   6.344
 2828SOL     OW 9382   2.328   3.688   1.019
 2828SOL    HW1 9383   2.401   3.621   1.003
 2828SOL    HW2 9384   2.326   3.753   0.943
 2829SOL     OW 9385   2.995   3.124   3.363
 2829SOL    HW1 9386   2.967   3.219   3.350
 2829SOL    HW2 9387   2.949   3.086   3.443
 2830SOL     OW 9388   3.226   4.310   5.315
 2830SOL    HW1 9389   3.176   4.334   5.232
 2830SOL    HW2 9390   3.193   4.222   5.350
 2831SOL     OW 9391   0.589   2.890   2.900
 2831SOL    HW1 9392   0.646   2.807   2.896
 2831SOL    HW2 9393   0.588   2.925   2.994
 2832SOL     OW 9394   0.998   3.015   1.970
 2832SOL    HW1 9395   1.095   3.015   1.994
 2832SOL    HW2 9396   0.956   3.100   2.004
 2833SOL     OW 9397   2.747   1.573   1.929
 2833SOL    HW1 9398   2.738   1.671   1.909
 2833SOL    HW2 9399   2.763   1.523   1.843
 2834SOL     OW 9400   4.526   6.143   4.453
 2834SOL    HW1 9401   4.598   6.075   4.443
 2834SOL    HW2 9402   4.537   6.214   4.383
 2835SOL     OW 9403   0.955   6.749   0.573
 2835SOL    HW1 9404   1.035   6.810   0.577
 2835SOL    HW2 9405   0.929   6.733   0.478
 2836SOL     OW 9406   1.661   6.171   1.701
 2836SOL    HW1 9407   1.702   6.096   1.753
 2836SOL    HW2 9408   1.733   6.235   1.673
 2837SOL     OW 9409   5.430   4.488   2.579
 2837SOL    HW1 9410   5.527   4.462   2.588
 2837SOL    HW2 9411   5.420   4.586   2.596
 2838SOL     OW 9412   4.894   3.638   0.497
 2838SOL    HW1 9413   4.954   3.632   0.577
 2838SOL    HW2 9414   4.943   3.684   0.423
 2839SOL     OW 9415   0.452   3.138   2.298
 2839SOL    HW1 9416   0.422   3.158   2.391
 2839SOL    HW2 9417   0.475   3.041   2.289
 2840SOL     OW 9418   1.953   5.686   2.719
 2840SOL    HW1 9419   2.023   5.625   2.757
 2840SOL    HW2 9420   1.943   5.767   2.777
 2841SOL     OW 9421   6.283   2.087   0.007
 2841SOL    HW1 9422   6.254   2.127   6.942
 2841SOL    HW2 9423   6.205   2.040   0.048
 2842SOL     OW 9424   1.142   5.600   4.702
 2842SOL    HW1 9425   1.049   5.580   4.669
 2842SOL    HW2 9426   1.144   5.593   4.802
 2843SOL     OW 9427   2.495   1.278   2.326
 2843SOL    HW1 9428   2.428   1.345   2.357
 2843SOL    HW2 9429   2.554   1.319   2.256
 2844SOL     OW 9430   5.695   5.202   1.339
 2844SOL    HW1 9431   5.616   5.234   1.287
 2844SOL    HW2 9432   5.670   5.120   1.390
 2845SOL     OW 9433   5.391   3.198   2.466
 2845SOL    HW1 9434   5.323   3.252   2.417
 2845SOL    HW2 9435   5.405   3.111   2.420
 2846SOL     OW 9436   2.974   0.573   0.485
 2846SOL    HW1 9437   2.923   0.487   0.475
 2846SOL    HW2 9438   3.047   0.577   0.417
 2847SOL     OW 9439   4.869   3.678   2.203
 2847SOL    HW1 9440   4.918   3.764   2.217
 2847SOL    HW2 9441   4.775   3.698   2.174
 2848SOL     OW 9442   2.680   2.605   5.684
 2848SOL    HW1 9443   2.644   2.624   5.593
 2848SOL    HW2 9444   2.636   2.523   5.721
 2849SOL     OW 9445   3.575   1.093   1.467
 2849SOL    HW1 9446   3.497   1.078   1.407
 2849SOL    HW2 9447   3.554   1.167   1.531
 2850SOL     OW 9448   2.729   6.767   3.338
 2850SOL    HW1 9449   2.636   6.731   3.332
 2850SOL    HW2 9450   2.768   6.776   3.247
 2851SOL     OW 9451   4.233   3.215   6.596
 2851SOL    HW1 9452   4.260   3.301   6.638
 2851SOL    HW2 9453   4.311   3.176   6.547
 2852SOL     OW 9454   6.084   4.192   0.308
 2852SOL    HW1 9455   6.008   4.191   0.244
 2852SOL    HW2 9456   6.157   4.132   0.275
 2853SOL     OW 9457   0.835   3.710   0.244
 2853SOL    HW1 9458   0.799   3.643   0.178
 2853SOL    HW2 9459   0.841   3.667   0.334
 2854SOL     OW 9460   3.377   0.768   6.047
 2854SOL    HW1 9461   3.287   0.809   6.033
 2854SOL    HW2 9462   3.415   0.740   5.959
 2855SOL     OW 9463   0.990   2.940   4.596
 2855SOL    HW1 9464   1.036   2.913   4.680
 2855SOL    HW2 9465   0.926   2.868   4.568
 2856SOL     OW 9466   1.221   2.939   4.036
 2856SOL    HW1 9467   1.297   2.971   3.979
 2856SOL    HW2 9468   1.253   2.931   4.131
 2857SOL     OW 9469   0.187   2.947   0.914
 2857SOL    HW1 9470   0.191   2.907   1.005
 2857SOL    HW2 9471   0.278   2.946   0.873
 2858SOL     OW 9472   5.221   6.433   2.568
 2858SOL    HW1 9473   5.135   6.444   2.618
 2858SOL    HW2 9474   5.293   6.406   2.632
 2859SOL     OW 9475   6.068   6.456   0.336
 2859SOL    HW1 9476   6.082   6.516   0.257
 2859SOL    HW2 9477   6.152   6.453   0.390
 2860SOL     OW 9478   1.720   6.741   2.194
 2860SOL    HW1 9479   1.713   6.839   2.174
 2860SOL    HW2 9480   1.789   6.700   2.134
 2861SOL     OW 9481   3.348   5.986   5.034
 2861SOL    HW1 9482   3.404   5.947   5.107
 2861SOL    HW2 9483   3.255   5.948   5.040
 2862SOL     OW 9484   4.339   2.407   1.848
 2862SOL    HW1 9485   4.376   2.427   1.938
 2862SOL    HW2 9486   4.407   2.427   1.778
 2863SOL     OW 9487   4.916   1.323   6.747
 2863SOL    HW1 9488   4.871   1.412   6.739
 2863SOL    HW2 9489   4.876   1.260   6.679
 2864SOL     OW 9490   4.303   2.930   0.990
 2864SOL    HW1 9491   4.338   2.965   1.077
 2864SOL    HW2 9492   4.222   2.874   1.007
 2865SOL     OW 9493   4.418   6.722   4.063
 2865SOL    HW1 9494   4.323   6.696   4.048
 2865SOL    HW2 9495   4.443   6.797   4.002
 2866SOL     OW 9496   5.796   3.973   6.934
 2866SOL    HW1 9497   5.699   3.970   6.910
 2866SOL    HW2 9498   5.814   3.910   7.009
 2867SOL     OW 9499   6.109   6.282   2.350
 2867SOL    HW1 9500   6.194   6.234   2.329
 2867SOL    HW2 9501   6.045   6.219   2.393
 2868SOL     OW 9502   1.242   1.636   5.325
 2868SOL    HW1 9503   1.296   1.681   5.254
 2868SOL    HW2 9504   1.258   1.681   5.413
 2869SOL     OW 9505   6.352   0.357   3.830
 2869SOL    HW1 9506   6.331   0.407   3.914
 2869SOL    HW2 9507   6.350   0.421   3.753
 2870SOL     OW 9508   0.401   1.896   6.528
 2870SOL    HW1 9509   0.378   1.802   6.554
 2870SOL    HW2 9510   0.497   1.914   6.550
 2871SOL     OW 9511   6.369   0.462   0.197
 2871SOL    HW1 9512   6.427   0.404   0.140
 2871SOL    HW2 9513   6.304   0.512   0.140
 2872SOL     OW 9514   2.498   1.745   0.960
 2872SOL    HW1 9515   2.543   1.751   1.049
 2872SOL    HW2 9516   2.567   1.737   0.889
 2873SOL     OW 9517   6.829   6.456   2.444
 2873SOL    HW1 9518   6.895   6.441   2.370
 2873SOL    HW2 9519   6.797   6.551   2.441
 2874SOL     OW 9520   4.244   6.737   3.207
 2874SOL    HW1 9521   4.185   6.762   3.284
 2874SOL    HW2 9522   4.236   6.639   3.189
 2875SOL     OW 9523   4.095   6.876   3.005
 2875SOL    HW1 9524   4.132   6.844   3.092
 2875SOL    HW2 9525   3.998   6.853   3.000
 2876SOL     OW 9526   1.211   6.549   2.498
 2876SOL    HW1 9527   1.287   6.496   2.460
 2876SOL    HW2 9528   1.248   6.632   2.541
 2877SOL     OW 9529   2.011   0.619   6.380
 2877SOL    HW1 9530   2.067   0.550   6.333
 2877SOL    HW2 9531   1.936   0.647   6.320
 2878SOL     OW 9532   3.276   3.643   4.973
 2878SOL    HW1 9533   3.261   3.669   4.878
 2878SOL    HW2 9534   3.328   3.714   5.019
 2879SOL     OW 9535   4.741   5.154   5.786
 2879SOL    HW1 9536   4.656   5.144   5.734
 2879SOL    HW2 9537   4.720   5.174   5.881
 2880SOL     OW 9538   0.111   1.919   3.742
 2880SOL    HW1 9539   0.189   1.971   3.707
 2880SOL    HW2 9540   0.085   1.849   3.676
 2881SOL     OW 9541   3.449   6.175   6.777
 2881SOL    HW1 9542   3.464   6.274   6.772
 2881SOL    HW2 9543   3.484   6.141   6.864
 2882SOL     OW 9544   6.426   5.973   1.261
 2882SOL    HW1 9545   6.515   6.009   1.287
 2882SOL    HW2 9546   6.435   5.878   1.233
 2883SOL     OW 9547   5.672   6.857   3.219
 2883SOL    HW1 9548   5.643   6.824   3.129
 2883SOL    HW2 9549   5.711   6.781   3.271
 2884SOL     OW 9550   0.065   6.191   2.548
 2884SOL    HW1 9551   0.128   6.167   2.475
 2884SOL    HW2 9552   0.006   6.113   2.568
 2885SOL     OW 9553   1.235   2.343   4.531
 2885SOL    HW1 9554   1.195   2.390   4.453
 2885SOL    HW2 9555   1.267   2.252   4.503
 2886SOL     OW 9556   1.704   4.153   6.540
 2886SOL    HW1 9557   1.624   4.176   6.485
 2886SOL    HW2 9558   1.776   4.114   6.481
 2887SOL     OW 9559   0.094   6.035   4.548
 2887SOL    HW1 9560   0.049   5.970   4.608
 2887SOL    HW2 9561   0.084   6.128   4.585
 2888SOL     OW 9562   0.317   5.169   0.197
 2888SOL    HW1 9563   0.232   5.120   0.212
 2888SOL    HW2 9564   0.301   5.267   0.204
 2889SOL     OW 9565   3.333   6.769   2.604
 2889SOL    HW1 9566   3.286   6.788   2.690
 2889SOL    HW2 9567   3.425   6.735   2.623
 2890SOL     OW 9568   1.930   5.998   0.947
 2890SOL    HW1 9569   1.966   5.904   0.943
 2890SOL    HW2 9570   1.996   6.057   0.992
 2891SOL     OW 9571   1.405   3.289   3.575
 2891SOL    HW1 9572   1.420   3.260   3.481
 2891SOL    HW2 9573   1.307   3.304   3.590
 2892SOL     OW 9574   5.741   3.161   1.415
 2892SOL    HW1 9575   5.651   3.173   1.457
 2892SOL    HW2 9576   5.732   3.106   1.332
 2893SOL     OW 9577   1.675   5.086   4.609
 2893SOL    HW1 9578   1.725   5.142   4.542
 2893SOL    HW2 9579   1.658   5.140   4.691
 2894SOL     OW 9580   1.694   3.785   1.515
 2894SOL    HW1 9581   1.775   3.778   1.457
 2894SOL    HW2 9582   1.721   3.800   1.610
 2895SOL     OW 9583   4.298   0.602   6.120
 2895SOL    HW1 9584   4.380   0.587   6.064
 2895SOL    HW2 9585   4.324   0.652   6.203
 2896SOL     OW 9586   4.361   0.264   5.262
 2896SOL    HW1 9587   4.333   0.190   5.201
 2896SOL    HW2 9588   4.308   0.258   5.347
 2897SOL     OW 9589   4.008   5.057   2.822
 2897SOL    HW1 9590   4.037   5.067   2.726
 2897SOL    HW2 9591   3.958   4.971   2.832
 2898SOL     OW 9592   5.158   4.047   4.345
 2898SOL    HW1 9593   5.188   3.960   4.306
 2898SOL    HW2 9594   5.059   4.056   4.332
 2899SOL     OW 9595   6.488   1.874   0.617
 2899SOL    HW1 9596   6.476   1.775   0.611
 2899SOL    HW2 9597   6.402   1.920   0.595
 2900SOL     OW 9598   3.783   4.872   6.496
 2900SOL    HW1 9599   3.841   4.803   6.538
 2900SOL    HW2 9600   3.840   4.942   6.454
 2901SOL     OW 9601   2.126   4.779   3.626
 2901SOL    HW1 9602   2.176   4.694   3.612
 2901SOL    HW2 9603   2.069   4.799   3.546
 2902SOL     OW 9604   6.552   5.326   3.768
 2902SOL    HW1 9605   6.636   5.376   3.786
 2902SOL    HW2 9606   6.479   5.391   3.746
 2903SOL     OW 9607   4.313   6.339   0.752
 2903SOL    HW1 9608   4.252   6.415   0.776
 2903SOL    HW2 9609   4.408   6.366   0.767
 2904SOL     OW 9610   3.324   5.447   5.094
 2904SOL    HW1 9611   3.413   5.420   5.131
 2904SOL    HW2 9612   3.271   5.365   5.073
 2905SOL     OW 9613   1.248   4.144   4.382
 2905SOL    HW1 9614   1.319   4.109   4.322
 2905SOL    HW2 9615   1.230   4.077   4.455
 2906SOL     OW 9616   5.482   5.782   2.549
 2906SOL    HW1 9617   5.432   5.773   2.635
 2906SOL    HW2 9618   5.422   5.826   2.481
 2907SOL     OW 9619   0.657   1.781   4.162
 2907SOL    HW1 9620   0.744   1.767   4.115
 2907SOL    HW2 9621   0.673   1.829   4.248
 2908SOL     OW 9622   5.226   6.455   3.598
 2908SOL    HW1 9623   5.185   6.463   3.507
 2908SOL    HW2 9624   5.306   6.515   3.603
 2909SOL     OW 9625   2.127   6.294   3.479
 2909SOL    HW1 9626   2.044   6.239   3.475
 2909SOL    HW2 9627   2.139   6.343   3.393
 2910SOL     OW 9628   6.727   0.701   3.929
 2910SOL    HW1 9629   6.695   0.795   3.923
 2910SOL    HW2 9630   6.651   0.641   3.956
 2911SOL     OW 9631   1.863   5.036   3.842
 2911SOL    HW1 9632   1.805   5.116   3.857
 2911SOL    HW2 9633   1.926   5.025   3.919
 2912SOL     OW 9634   6.386   6.147   6.800
 2912SOL    HW1 9635   6.355   6.196   6.881
 2912SOL    HW2 9636   6.337   6.060   6.792
 2913SOL     OW 9637   3.577   5.193   2.136
 2913SOL    HW1 9638   3.608   5.284   2.109
 2913SOL    HW2 9639   3.494   5.169   2.085
 2914SOL     OW 9640   5.939   5.860   0.807
 2914SOL    HW1 9641   5.930   5.916   0.725
 2914SOL    HW2 9642   5.849   5.845   0.847
 2915SOL     OW 9643   3.198   1.619   3.826
 2915SOL    HW1 9644   3.243   1.663   3.904
 2915SOL    HW2 9645   3.144   1.686   3.776
 2916SOL     OW 9646   1.441   5.261   0.326
 2916SOL    HW1 9647   1.530   5.237   0.363
 2916SOL    HW2 9648   1.431   5.360   0.324
 2917SOL     OW 9649   3.524   0.596   4.488
 2917SOL    HW1 9650   3.447   0.562   4.433
 2917SOL    HW2 9651   3.491   0.623   4.578
 2918SOL     OW 9652   5.771   3.605   6.401
 2918SOL    HW1 9653   5.758   3.688   6.455
 2918SOL    HW2 9654   5.853   3.556   6.433
 2919SOL     OW 9655   6.291   0.380   3.554
 2919SOL    HW1 9656   6.268   0.291   3.516
 2919SOL    HW2 9657   6.207   0.431   3.572
 2920SOL     OW 9658   3.421   0.290   1.721
 2920SOL    HW1 9659   3.419   0.326   1.628
 2920SOL    HW2 9660   3.442   0.363   1.785
 2921SOL     OW 9661   0.769   6.956   5.743
 2921SOL    HW1 9662   0.769   6.859   5.717
 2921SOL    HW2 9663   0.719   7.009   5.675
 2922SOL     OW 9664   4.154   5.990   1.576
 2922SOL    HW1 9665   4.136   5.990   1.674
 2922SOL    HW2 9666   4.067   5.994   1.526
 2923SOL     OW 9667   6.868   5.501   4.257
 2923SOL    HW1 9668   6.941   5.475   4.320
 2923SOL    HW2 9669   6.779   5.489   4.302
 2924SOL     OW 9670   0.389   2.288   4.458
 2924SOL    HW1 9671   0.430   2.228   4.390
 2924SOL    HW2 9672   0.311   2.242   4.501
 2925SOL     OW 9673   5.859   1.953   0.246
 2925SOL    HW1 9674   5.800   1.996   0.177
 2925SOL    HW2 9675   5.806   1.886   0.298
 2926SOL     OW 9676   6.308   2.291   6.514
 2926SOL    HW1 9677   6.380   2.275   6.446
 2926SOL    HW2 9678   6.270   2.382   6.502
 2927SOL     OW 9679   1.872   3.633   0.689
 2927SOL    HW1 9680   1.819   3.553   0.719
 2927SOL    HW2 9681   1.883   3.630   0.590
 2928SOL     OW 9682   6.252   1.192   6.859
 2928SOL    HW1 9683   6.277   1.099   6.833
 2928SOL    HW2 9684   6.174   1.222   6.804
 2929SOL     OW 9685   2.328   2.720   5.490
 2929SOL    HW1 9686   2.352   2.732   5.586
 2929SOL    HW2 9687   2.339   2.807   5.442
 2930SOL     OW 9688   5.261   6.199   5.231
 2930SOL    HW1 9689   5.298   6.290   5.217
 2930SOL    HW2 9690   5.215   6.195   5.320
 2931SOL     OW 9691   4.652   4.879   0.040
 2931SOL    HW1 9692   4.716   4.951   0.014
 2931SOL    HW2 9693   4.595   4.911   0.116
 2932SOL     OW 9694   0.572   5.755   1.682
 2932SOL    HW1 9695   0.550   5.852   1.679
 2932SOL    HW2 9696   0.606   5.725   1.593
 2933SOL     OW 9697   0.849   6.625   1.996
 2933SOL    HW1 9698   0.755   6.593   1.985
 2933SOL    HW2 9699   0.912   6.548   1.988
 2934SOL     OW 9700   5.346   2.774   0.732
 2934SOL    HW1 9701   5.330   2.732   0.821
 2934SOL    HW2 9702   5.264   2.823   0.703
 2935SOL     OW 9703   0.310   2.455   6.312
 2935SOL    HW1 9704   0.270   2.430   6.224
 2935SOL    HW2 9705   0.236   2.477   6.376
 2936SOL     OW 9706   3.868   6.340   0.504
 2936SOL    HW1 9707   3.886   6.320   0.601
 2936SOL    HW2 9708   3.776   6.376   0.494
 2937SOL     OW 9709   4.826   5.521   1.387
 2937SOL    HW1 9710   4.812   5.560   1.478
 2937SOL    HW2 9711   4.754   5.552   1.325
 2938SOL     OW 9712   0.118   4.973   0.204
 2938SOL    HW1 9713   0.088   4.920   0.283
 2938SOL    HW2 9714   0.182   4.918   0.150
 2939SOL     OW 9715   2.180   0.676   1.511
 2939SOL    HW1 9716   2.273   0.704   1.535
 2939SOL    HW2 9717   2.137   0.747   1.455
 2940SOL     OW 9718   6.137   5.320   5.240
 2940SOL    HW1 9719   6.077   5.336   5.162
 2940SOL    HW2 9720   6.222   5.371   5.228
 2941SOL     OW 9721   2.171   1.626   2.982
 2941SOL    HW1 9722   2.188   1.553   3.048
 2941SOL    HW2 9723   2.150   1.711   3.030
 2942SOL     OW 9724   3.756   2.754   0.975
 2942SOL    HW1 9725   3.691   2.768   1.050
 2942SOL    HW2 9726   3.816   2.678   0.997
 2943SOL     OW 9727   5.624   4.327   3.919
 2943SOL    HW1 9728   5.529   4.303   3.900
 2943SOL    HW2 9729   5.627   4.411   3.972
 2944SOL     OW 9730   2.672   6.356   4.100
 2944SOL    HW1 9731   2.745   6.372   4.033
 2944SOL    HW2 9732   2.584   6.352   4.053
 2945SOL     OW 9733   4.701   2.579   1.831
 2945SOL    HW1 9734   4.793   2.617   1.833
 2945SOL    HW2 9735   4.639   2.643   1.784
 2946SOL     OW 9736   2.336   4.212   5.695
 2946SOL    HW1 9737   2.311   4.117   5.711
 2946SOL    HW2 9738   2.273   4.254   5.630
 2947SOL     OW 9739   0.457   5.297   0.879
 2947SOL    HW1 9740   0.401   5.239   0.819
 2947SOL    HW2 9741   0.490   5.376   0.828
 2948SOL     OW 9742   6.840   4.315   3.898
 2948SOL    HW1 9743   6.910   4.339   3.830
 2948SOL    HW2 9744   6.845   4.217   3.916
 2949SOL     OW 9745   0.136   5.414   7.007
 2949SOL    HW1 9746   0.125   5.434   0.081
 2949SOL    HW2 9747   0.215   5.463   6.971
 2950SOL     OW 9748   6.012   6.389   3.954
 2950SOL    HW1 9749   5.921   6.423   3.977
 2950SOL    HW2 9750   6.039   6.320   4.020
 2951SOL     OW 9751   5.460   1.898   2.277
 2951SOL    HW1 9752   5.361   1.911   2.270
 2951SOL    HW2 9753   5.479   1.809   2.318
 2952SOL     OW 9754   0.593   6.809   5.498
 2952SOL    HW1 9755   0.519   6.761   5.452
 2952SOL    HW2 9756   0.665   6.829   5.432
 2953SOL     OW 9757   6.779   4.460   3.255
 2953SOL    HW1 9758   6.742   4.368   3.248
 2953SOL    HW2 9759   6.866   4.457   3.306
 2954SOL     OW 9760   0.053   4.516   0.495
 2954SOL    HW1 9761   0.077   4.609   0.467
 2954SOL    HW2 9762   6.992   4.519   0.549
 2955SOL     OW 9763   0.438   4.674   1.097
 2955SOL    HW1 9764   0.427   4.668   0.998
 2955SOL    HW2 9765   0.521   4.626   1.125
 2956SOL     OW 9766   6.068   5.628   3.419
 2956SOL    HW1 9767   6.119   5.559   3.368
 2956SOL    HW2 9768   6.110   5.718   3.404
 2957SOL     OW 9769   4.561   4.440   1.479
 2957SOL    HW1 9770   4.598   4.513   1.536
 2957SOL    HW2 9771   4.561   4.354   1.531
 2958SOL     OW 9772   2.275   4.667   3.340
 2958SOL    HW1 9773   2.273   4.626   3.432
 2958SOL    HW2 9774   2.237   4.602   3.274
 2959SOL     OW 9775   5.372   2.914   2.315
 2959SOL    HW1 9776   5.320   2.908   2.229
 2959SOL    HW2 9777   5.470   2.912   2.294
 2960SOL     OW 9778   3.767   6.867   6.629
 2960SOL    HW1 9779   3.838   6.869   6.559
 2960SOL    HW2 9780   3.736   6.772   6.642
 2961SOL     OW 9781   6.084   4.785   3.184
 2961SOL    HW1 9782   6.179   4.812   3.166
 2961SOL    HW2 9783   6.076   4.685   3.178
 2962SOL     OW 9784   5.011   6.252   3.545
 2962SOL    HW1 9785   5.055   6.263   3.634
 2962SOL    HW2 9786   5.036   6.163   3.506
 2963SOL     OW 9787   0.496   1.171   6.754
 2963SOL    HW1 9788   0.567   1.219   6.702
 2963SOL    HW2 9789   0.502   1.198   6.850
 2964SOL     OW 9790   0.741   2.027   6.034
 2964SOL    HW1 9791   0.830   2.061   6.004
 2964SOL    HW2 9792   0.717   1.945   5.982
 2965SOL     OW 9793   0.679   0.993   4.431
 2965SOL    HW1 9794   0.619   1.060   4.475
 2965SOL    HW2 9795   0.737   1.039   4.365
 2966SOL     OW 9796   4.843   5.675   3.277
 2966SOL    HW1 9797   4.909   5.742   3.243
 2966SOL    HW2 9798   4.793   5.714   3.354
 2967SOL     OW 9799   6.375   0.791   5.311
 2967SOL    HW1 9800   6.367   0.703   5.358
 2967SOL    HW2 9801   6.289   0.811   5.265
 2968SOL     OW 9802   1.075   2.521   0.815
 2968SOL    HW1 9803   1.020   2.455   0.866
 2968SOL    HW2 9804   1.125   2.474   0.743
 2969SOL     OW 9805   4.610   2.632   4.058
 2969SOL    HW1 9806   4.686   2.695   4.071
 2969SOL    HW2 9807   4.530   2.665   4.108
 2970SOL     OW 9808   2.563   3.228   5.386
 2970SOL    HW1 9809   2.552   3.169   5.306
 2970SOL    HW2 9810   2.500   3.200   5.458
 2971SOL     OW 9811   5.404   3.900   0.585
 2971SOL    HW1 9812   5.375   3.823   0.527
 2971SOL    HW2 9813   5.451   3.968   0.528
 2972SOL     OW 9814   5.829   5.187   6.391
 2972SOL    HW1 9815   5.756   5.119   6.379
 2972SOL    HW2 9816   5.819   5.232   6.479
 2973SOL     OW 9817   4.959   6.799   2.071
 2973SOL    HW1 9818   4.987   6.709   2.105
 2973SOL    HW2 9819   5.002   6.816   1.983
 2974SOL     OW 9820   6.665   4.596   3.659
 2974SOL    HW1 9821   6.760   4.572   3.636
 2974SOL    HW2 9822   6.665   4.659   3.737
 2975SOL     OW 9823   5.235   4.510   4.361
 2975SOL    HW1 9824   5.179   4.564   4.298
 2975SOL    HW2 9825   5.317   4.477   4.314
 2976SOL     OW 9826   5.252   1.613   2.680
 2976SOL    HW1 9827   5.221   1.705   2.659
 2976SOL    HW2 9828   5.312   1.614   2.760
 2977SOL     OW 9829   0.418   0.915   2.500
 2977SOL    HW1 9830   0.395   0.925   2.403
 2977SOL    HW2 9831   0.471   0.831   2.514
 2978SOL     OW 9832   3.971   4.519   0.254
 2978SOL    HW1 9833   3.874   4.525   0.276
 2978SOL    HW2 9834   3.987   4.555   0.162
 2979SOL     OW 9835   3.573   1.711   4.136
 2979SOL    HW1 9836   3.538   1.713   4.042
 2979SOL    HW2 9837   3.627   1.794   4.153
 2980SOL     OW 9838   2.441   5.571   5.844
 2980SOL    HW1 9839   2.362   5.514   5.820
 2980SOL    HW2 9840   2.496   5.523   5.913
 2981SOL     OW 9841   2.050   0.974   0.391
 2981SOL    HW1 9842   2.051   1.064   0.349
 2981SOL    HW2 9843   2.000   0.978   0.478
 2982SOL     OW 9844   2.146   6.219   1.677
 2982SOL    HW1 9845   2.244   6.214   1.653
 2982SOL    HW2 9846   2.109   6.127   1.686
 2983SOL     OW 9847   6.474   2.223   1.293
 2983SOL    HW1 9848   6.484   2.319   1.319
 2983SOL    HW2 9849   6.458   2.168   1.375
 2984SOL     OW 9850   5.649   5.584   6.175
 2984SOL    HW1 9851   5.601   5.669   6.197
 2984SOL    HW2 9852   5.591   5.527   6.117
 2985SOL     OW 9853   1.496   1.943   4.505
 2985SOL    HW1 9854   1.578   1.991   4.473
 2985SOL    HW2 9855   1.487   1.857   4.456
 2986SOL     OW 9856   3.647   3.958   2.590
 2986SOL    HW1 9857   3.557   3.927   2.560
 2986SOL    HW2 9858   3.658   3.939   2.688
 2987SOL     OW 9859   1.583   1.424   4.563
 2987SOL    HW1 9860   1.567   1.332   4.599
 2987SOL    HW2 9861   1.607   1.419   4.466
 2988SOL     OW 9862   1.443   6.792   1.907
 2988SOL    HW1 9863   1.464   6.799   1.810
 2988SOL    HW2 9864   1.528   6.786   1.959
 2989SOL     OW 9865   5.320   4.271   5.362
 2989SOL    HW1 9866   5.224   4.295   5.378
 2989SOL    HW2 9867   5.333   4.173   5.377
 2990SOL     OW 9868   4.557   2.091   4.165
 2990SOL    HW1 9869   4.469   2.133   4.186
 2990SOL    HW2 9870   4.551   1.992   4.178
 2991SOL     OW 9871   6.004   2.984   6.182
 2991SOL    HW1 9872   6.017   2.974   6.084
 2991SOL    HW2 9873   5.983   3.080   6.204
 2992SOL     OW 9874   1.889   4.728   4.886
 2992SOL    HW1 9875   1.857   4.813   4.843
 2992SOL    HW2 9876   1.978   4.744   4.929
 2993SOL     OW 9877   0.561   4.890   0.698
 2993SOL    HW1 9878   0.507   4.970   0.674
 2993SOL    HW2 9879   0.647   4.918   0.741
 2994SOL     OW 9880   3.709   6.020   0.440
 2994SOL    HW1 9881   3.740   5.943   0.495
 2994SOL    HW2 9882   3.788   6.064   0.397
 2995SOL     OW 9883   3.795   0.774   7.013
 2995SOL    HW1 9884   3.704   0.801   0.023
 2995SOL    HW2 9885   3.828   0.696   0.044
 2996SOL     OW 9886   0.692   2.178   5.038
 2996SOL    HW1 9887   0.606   2.202   4.995
 2996SOL    HW2 9888   0.757   2.253   5.026
 2997SOL     OW 9889   5.309   0.331   3.178
 2997SOL    HW1 9890   5.402   0.306   3.207
 2997SOL    HW2 9891   5.260   0.372   3.256
 2998SOL     OW 9892   4.910   6.508   3.470
 2998SOL    HW1 9893   4.954   6.419   3.479
 2998SOL    HW2 9894   4.836   6.515   3.537
 2999SOL     OW 9895   2.710   5.352   5.605
 2999SOL    HW1 9896   2.667   5.263   5.590
 2999SOL    HW2 9897   2.660   5.422   5.552
 3000SOL     OW 9898   2.692   4.056   6.463
 3000SOL    HW1 9899   2.603   4.025   6.431
 3000SOL    HW2 9900   2.731   4.119   6.396
 3001SOL     OW 9901   6.164   1.628   0.139
 3001SOL    HW1 9902   6.153   1.637   0.238
 3001SOL    HW2 9903   6.170   1.531   0.115
 3002SOL     OW 9904   3.177   1.901   0.146
 3002SOL    HW1 9905   3.107   1.910   0.217
 3002SOL    HW2 9906   3.268   1.896   0.189
 3003SOL     OW 9907   0.865   6.700   1.268
 3003SOL    HW1 9908   0.859   6.733   1.174
 3003SOL    HW2 9909   0.944   6.743   1.313
 3004SOL     OW 9910   1.391   4.622   2.817
 3004SOL    HW1 9911   1.405   4.527   2.787
 3004SOL    HW2 9912   1.371   4.679   2.738
 3005SOL     OW 9913   1.339   2.874   6.487
 3005SOL    HW1 9914   1.367   2.778   6.489
 3005SOL    HW2 9915   1.239   2.880   6.496
 3006SOL     OW 9916   5.484   1.761   5.009
 3006SOL    HW1 9917   5.555   1.828   4.987
 3006SOL    HW2 9918   5.474   1.755   5.109
 3007SOL     OW 9919   4.756   4.938   0.704
 3007SOL    HW1 9920   4.677   4.881   0.727
 3007SOL    HW2 9921   4.774   5.002   0.780
 3008SOL     OW 9922   3.064   1.976   6.114
 3008SOL    HW1 9923   3.065   2.072   6.088
 3008SOL    HW2 9924   3.158   1.940   6.116
 3009SOL     OW 9925   6.899   3.127   2.242
 3009SOL    HW1 9926   6.888   3.050   2.304
 3009SOL    HW2 9927   6.907   3.093   2.148
 3010SOL     OW 9928   2.912   5.476   4.210
 3010SOL    HW1 9929   2.903   5.417   4.129
 3010SOL    HW2 9930   2.953   5.423   4.285
 3011SOL     OW 9931   5.856   0.802   1.961
 3011SOL    HW1 9932   5.910   0.757   2.033
 3011SOL    HW2 9933   5.912   0.811   1.879
 3012SOL     OW 9934   2.508   3.018   0.223
 3012SOL    HW1 9935   2.453   2.998   0.142
 3012SOL    HW2 9936   2.560   3.101   0.208
 3013SOL     OW 9937   6.218   5.050   3.665
 3013SOL    HW1 9938   6.293   4.996   3.704
 3013SOL    HW2 9939   6.167   4.992   3.601
 3014SOL     OW 9940   4.910   2.048   6.292
 3014SOL    HW1 9941   4.899   2.141   6.258
 3014SOL    HW2 9942   4.980   2.001   6.239
 3015SOL     OW 9943   1.603   2.080   0.430
 3015SOL    HW1 9944   1.574   2.133   0.510
 3015SOL    HW2 9945   1.553   2.111   0.349
 3016SOL     OW 9946   3.366   0.079   4.117
 3016SOL    HW1 9947   3.384   0.107   4.211
 3016SOL    HW2 9948   3.406   7.012   4.100
 3017SOL     OW 9949   5.359   5.523   2.514
 3017SOL    HW1 9950   5.317   5.498   2.601
 3017SOL    HW2 9951   5.395   5.616   2.520
 3018SOL     OW 9952   3.623   0.318   6.702
 3018SOL    HW1 9953   3.524   0.305   6.715
 3018SOL    HW2 9954   3.666   0.337   6.790
 3019SOL     OW 9955   0.881   0.160   6.645
 3019SOL    HW1 9956   0.813   0.223   6.607
 3019SOL    HW2 9957   0.954   0.213   6.688
 3020SOL     OW 9958   3.902   3.048   0.770
 3020SOL    HW1 9959   3.862   3.050   0.862
 3020SOL    HW2 9960   4.000   3.063   0.776
 3021SOL     OW 9961   2.387   0.249   4.292
 3021SOL    HW1 9962   2.305   0.215   4.248
 3021SOL    HW2 9963   2.412   0.338   4.253
 3022SOL     OW 9964   4.395   5.027   5.050
 3022SOL    HW1 9965   4.463   5.075   5.106
 3022SOL    HW2 9966   4.309   5.078   5.049
 3023SOL     OW 9967   4.367   6.708   3.485
 3023SOL    HW1 9968   4.429   6.643   3.441
 3023SOL    HW2 9969   4.317   6.662   3.558
 3024SOL     OW 9970   5.943   6.424   5.165
 3024SOL    HW1 9971   5.971   6.404   5.259
 3024SOL    HW2 9972   5.919   6.339   5.119
 3025SOL     OW 9973   3.585   5.913   1.640
 3025SOL    HW1 9974   3.628   6.001   1.659
 3025SOL    HW2 9975   3.583   5.858   1.724
 3026SOL     OW 9976   0.473   1.317   5.994
 3026SOL    HW1 9977   0.568   1.293   6.011
 3026SOL    HW2 9978   0.426   1.333   6.081
 3027SOL     OW 9979   3.686   1.652   1.770
 3027SOL    HW1 9980   3.722   1.718   1.836
 3027SOL    HW2 9981   3.747   1.646   1.691
 3028SOL     OW 9982   1.237   4.376   6.003
 3028SOL    HW1 9983   1.273   4.446   6.065
 3028SOL    HW2 9984   1.284   4.289   6.020
 3029SOL     OW 9985   0.960   3.037   3.971
 3029SOL    HW1 9986   0.930   3.108   4.034
 3029SOL    HW2 9987   1.056   3.015   3.988
 3030SOL     OW 9988   1.436   4.096   1.110
 3030SOL    HW1 9989   1.500   4.173   1.098
 3030SOL    HW2 9990   1.474   4.032   1.176
 3031SOL     OW 9991   0.061   4.620   1.008
 3031SOL    HW1 9992   0.141   4.651   1.060
 3031SOL    HW2 9993   7.001   4.656   1.051
 3032SOL     OW 9994   1.948   6.700   1.133
 3032SOL    HW1 9995   1.907   6.667   1.049
 3032SOL    HW2 9996   1.986   6.791   1.119
 3033SOL     OW 9997   6.163   1.145   2.352
 3033SOL    HW1 9998   6.192   1.230   2.396
 3033SOL    HW2 9999   6.210   1.135   2.265
 3034SOL     OW10000   0.309   6.344   3.371
 3034SOL    HW110001   0.231   6.400   3.400
 3034SOL    HW210002   0.340   6.375   3.281
 3035SOL     OW10003   0.850   3.413   6.114
 3035SOL    HW110004   0.798   3.436   6.032
 3035SOL    HW210005   0.946   3.398   6.091
 3036SOL     OW10006   1.472   2.170   5.394
 3036SOL    HW110007   1.408   2.172   5.471
 3036SOL    HW210008   1.440   2.104   5.326
 3037SOL     OW10009   6.435   5.205   5.720
 3037SOL    HW110010   6.414   5.231   5.814
 3037SOL    HW210011   6.533   5.192   5.710
 3038SOL     OW10012   4.962   4.338   5.785
 3038SOL    HW110013   4.966   4.244   5.820
 3038SOL    HW210014   5.054   4.370   5.763
 3039SOL     OW10015   0.282   2.962   0.360
 3039SOL    HW110016   0.202   2.971   0.420
 3039SOL    HW210017   0.362   3.000   0.405
 3040SOL     OW10018   3.144   4.851   5.423
 3040SOL    HW110019   3.057   4.835   5.377
 3040SOL    HW210020   3.161   4.779   5.490
 3041SOL     OW10021   0.997   4.787   6.023
 3041SOL    HW110022   1.036   4.846   6.093
 3041SOL    HW210023   0.994   4.835   5.935
 3042SOL     OW10024   5.794   6.309   2.720
 3042SOL    HW110025   5.756   6.376   2.784
 3042SOL    HW210026   5.857   6.354   2.657
 3043SOL     OW10027   2.877   3.779   1.715
 3043SOL    HW110028   2.815   3.705   1.687
 3043SOL    HW210029   2.858   3.804   1.810
 3044SOL     OW10030   3.396   5.342   5.446
 3044SOL    HW110031   3.411   5.429   5.398
 3044SOL    HW210032   3.469   5.329   5.513
 3045SOL     OW10033   5.066   6.478   3.037
 3045SOL    HW110034   5.021   6.562   3.007
 3045SOL    HW210035   5.083   6.419   2.958
 3046SOL     OW10036   3.426   0.106   6.826
 3046SOL    HW110037   3.350   0.048   6.854
 3046SOL    HW210038   3.391   0.188   6.783
 3047SOL     OW10039   6.133   0.001   1.041
 3047SOL    HW110040   6.093   0.063   1.108
 3047SOL    HW210041   6.168   0.054   0.963
 3048SOL     OW10042   4.816   2.035   0.865
 3048SOL    HW110043   4.774   1.946   0.847
 3048SOL    HW210044   4.865   2.032   0.952
 3049SOL     OW10045   1.602   0.628   3.557
 3049SOL    HW110046   1.592   0.718   3.599
 3049SOL    HW210047   1.584   0.635   3.459
 3050SOL     OW10048   3.127   2.008   1.476
 3050SOL    HW110049   3.029   1.994   1.466
 3050SOL    HW210050   3.171   1.921   1.498
 3051SOL     OW10051   2.016   6.395   6.544
 3051SOL    HW110052   2.105   6.351   6.534
 3051SOL    HW210053   1.961   6.346   6.611
 3052SOL     OW10054   4.974   5.632   1.892
 3052SOL    HW110055   4.938   5.551   1.937
 3052SOL    HW210056   5.060   5.609   1.846
 3053SOL     OW10057   0.061   3.639   1.603
 3053SOL    HW110058   0.081   3.543   1.584
 3053SOL    HW210059   0.067   3.656   1.701
 3054SOL     OW10060   5.538   1.431   2.086
 3054SOL    HW110061   5.500   1.457   1.997
 3054SOL    HW210062   5.506   1.339   2.110
 3055SOL     OW10063   5.213   0.400   5.257
 3055SOL    HW110064   5.148   0.420   5.330
 3055SOL    HW210065   5.177   0.434   5.170
 3056SOL     OW10066   6.657   0.847   5.385
 3056SOL    HW110067   6.560   0.839   5.363
 3056SOL    HW210068   6.711   0.811   5.309
 3057SOL     OW10069   4.832   5.674   4.504
 3057SOL    HW110070   4.847   5.769   4.477
 3057SOL    HW210071   4.887   5.654   4.585
 3058SOL     OW10072   6.146   4.401   0.926
 3058SOL    HW110073   6.070   4.370   0.869
 3058SOL    HW210074   6.233   4.380   0.882
 3059SOL     OW10075   2.599   1.267   3.413
 3059SOL    HW110076   2.693   1.257   3.447
 3059SOL    HW210077   2.599   1.257   3.313
 3060SOL     OW10078   2.023   5.207   0.315
 3060SOL    HW110079   2.050   5.182   0.408
 3060SOL    HW210080   2.072   5.290   0.288
 3061SOL     OW10081   6.221   5.726   5.728
 3061SOL    HW110082   6.187   5.798   5.667
 3061SOL    HW210083   6.165   5.722   5.810
 3062SOL     OW10084   2.097   6.424   0.912
 3062SOL    HW110085   2.194   6.415   0.889
 3062SOL    HW210086   2.087   6.429   1.011
 3063SOL     OW10087   1.464   4.679   1.301
 3063SOL    HW110088   1.407   4.761   1.296
 3063SOL    HW210089   1.501   4.669   1.393
 3064SOL     OW10090   4.445   3.704   0.472
 3064SOL    HW110091   4.529   3.652   0.490
 3064SOL    HW210092   4.446   3.789   0.524
 3065SOL     OW10093   0.972   2.117   6.624
 3065SOL    HW110094   0.909   2.173   6.571
 3065SOL    HW210095   1.065   2.155   6.616
 3066SOL     OW10096   5.369   5.398   0.007
 3066SOL    HW110097   5.272   5.390   0.029
 3066SOL    HW210098   5.423   5.349   0.075
 3067SOL     OW10099   2.964   0.831   0.113
 3067SOL    HW110100   2.975   0.906   0.048
 3067SOL    HW210101   2.867   0.814   0.130
 3068SOL     OW10102   6.808   6.694   1.487
 3068SOL    HW110103   6.877   6.635   1.529
 3068SOL    HW210104   6.848   6.784   1.467
 3069SOL     OW10105   6.443   6.629   3.039
 3069SOL    HW110106   6.429   6.550   2.979
 3069SOL    HW210107   6.361   6.687   3.038
 3070SOL     OW10108   2.036   0.792   6.730
 3070SOL    HW110109   2.023   0.860   6.802
 3070SOL    HW210110   1.992   0.824   6.646
 3071SOL     OW10111   6.326   6.001   3.997
 3071SOL    HW110112   6.286   5.975   3.909
 3071SOL    HW210113   6.425   6.012   3.986
 3072SOL     OW10114   2.535   5.585   6.285
 3072SOL    HW110115   2.571   5.547   6.200
 3072SOL    HW210116   2.435   5.591   6.278
 3073SOL     OW10117   0.034   4.484   2.393
 3073SOL    HW110118   6.976   4.451   2.344
 3073SOL    HW210119   0.016   4.575   2.429
 3074SOL     OW10120   0.256   4.227   0.829
 3074SOL    HW110121   0.353   4.206   0.819
 3074SOL    HW210122   0.212   4.157   0.885
 3075SOL     OW10123   3.180   5.397   3.436
 3075SOL    HW110124   3.231   5.315   3.461
 3075SOL    HW210125   3.243   5.473   3.422
 3076SOL     OW10126   0.051   1.597   4.015
 3076SOL    HW110127   7.000   1.663   4.034
 3076SOL    HW210128   0.016   1.525   3.955
 3077SOL     OW10129   5.829   4.158   2.052
 3077SOL    HW110130   5.817   4.077   1.994
 3077SOL    HW210131   5.850   4.129   2.146
 3078SOL     OW10132   6.510   3.105   2.507
 3078SOL    HW110133   6.592   3.140   2.553
 3078SOL    HW210134   6.437   3.093   2.575
 3079SOL     OW10135   3.122   2.194   3.016
 3079SOL    HW110136   3.034   2.242   3.021
 3079SOL    HW210137   3.126   2.141   2.931
 3080SOL     OW10138   5.482   4.181   2.087
 3080SOL    HW110139   5.557   4.153   2.027
 3080SOL    HW210140   5.517   4.243   2.158
 3081SOL     OW10141   0.176   4.613   5.787
 3081SOL    HW110142   0.213   4.561   5.864
 3081SOL    HW210143   0.142   4.550   5.718
 3082SOL     OW10144   1.726   5.705   4.182
 3082SOL    HW110145   1.825   5.720   4.181
 3082SOL    HW210146   1.682   5.783   4.226
 3083SOL     OW10147   3.409   6.434   3.042
 3083SOL    HW110148   3.365   6.384   3.116
 3083SOL    HW210149   3.340   6.463   2.975
 3084SOL     OW10150   6.492   4.855   3.392
 3084SOL    HW110151   6.513   4.759   3.376
 3084SOL    HW210152   6.422   4.885   3.327
 3085SOL     OW10153   5.759   4.638   0.628
 3085SOL    HW110154   5.835   4.584   0.594
 3085SOL    HW210155   5.678   4.580   0.637
 3086SOL     OW10156   4.810   1.146   6.583
 3086SOL    HW110157   4.721   1.101   6.576
 3086SOL    HW210158   4.879   1.079   6.610
 3087SOL     OW10159   3.062   6.405   3.004
 3087SOL    HW110160   3.026   6.313   2.991
 3087SOL    HW210161   3.075   6.423   3.101
 3088SOL     OW10162   1.687   3.232   5.046
 3088SOL    HW110163   1.762   3.182   5.003
 3088SOL    HW210164   1.663   3.311   4.990
 3089SOL     OW10165   3.991   2.102   4.625
 3089SOL    HW110166   4.034   2.147   4.703
 3089SOL    HW210167   4.019   2.149   4.541
 3090SOL     OW10168   2.099   0.862   1.987
 3090SOL    HW110169   2.130   0.888   1.896
 3090SOL    HW210170   2.137   0.773   2.011
 3091SOL     OW10171   1.269   1.399   0.676
 3091SOL    HW110172   1.200   1.362   0.738
 3091SOL    HW210173   1.343   1.439   0.731
 3092SOL     OW10174   5.405   0.140   0.703
 3092SOL    HW110175   5.461   0.086   0.640
 3092SOL    HW210176   5.316   0.095   0.715
 3093SOL     OW10177   5.453   6.140   6.218
 3093SOL    HW110178   5.357   6.127   6.244
 3093SOL    HW210179   5.483   6.230   6.247
 3094SOL     OW10180   2.572   0.328   3.982
 3094SOL    HW110181   2.503   0.259   3.962
 3094SOL    HW210182   2.638   0.292   4.047
 3095SOL     OW10183   2.594   3.997   5.804
 3095SOL    HW110184   2.658   3.934   5.847
 3095SOL    HW210185   2.556   3.955   5.722
 3096SOL     OW10186   1.227   4.922   5.537
 3096SOL    HW110187   1.243   5.019   5.517
 3096SOL    HW210188   1.171   4.882   5.464
 3097SOL     OW10189   5.516   3.252   0.021
 3097SOL    HW110190   5.491   3.268   6.948
 3097SOL    HW210191   5.450   3.295   0.081
 3098SOL     OW10192   1.675   3.435   1.659
 3098SOL    HW110193   1.748   3.500   1.640
 3098SOL    HW210194   1.603   3.446   1.590
 3099SOL     OW10195   1.063   6.193   3.968
 3099SOL    HW110196   1.009   6.232   4.043
 3099SOL    HW210197   1.154   6.169   4.002
 3100SOL     OW10198   6.365   6.118   3.525
 3100SOL    HW110199   6.315   6.205   3.523
 3100SOL    HW210200   6.334   6.063   3.602
 3101SOL     OW10201   4.964   5.640   6.334
 3101SOL    HW110202   4.924   5.561   6.289
 3101SOL    HW210203   5.042   5.673   6.282
 3102SOL     OW10204   6.552   0.009   1.380
 3102SOL    HW110205   6.468   0.035   1.334
 3102SOL    HW210206   6.594   6.954   1.332
 3103SOL     OW10207   4.265   1.080   1.215
 3103SOL    HW110208   4.204   1.144   1.261
 3103SOL    HW210209   4.271   0.995   1.268
 3104SOL     OW10210   3.776   0.550   5.842
 3104SOL    HW110211   3.771   0.645   5.811
 3104SOL    HW210212   3.866   0.532   5.881
 3105SOL     OW10213   4.737   3.656   1.500
 3105SOL    HW110214   4.783   3.593   1.437
 3105SOL    HW210215   4.792   3.668   1.582
 3106SOL     OW10216   5.423   6.246   5.535
 3106SOL    HW110217   5.333   6.207   5.514
 3106SOL    HW210218   5.435   6.251   5.634
 3107SOL     OW10219   3.983   1.386   4.706
 3107SOL    HW110220   4.025   1.360   4.619
 3107SOL    HW210221   4.021   1.330   4.780
 3108SOL     OW10222   1.907   4.977   4.759
 3108SOL    HW110223   1.944   5.067   4.783
 3108SOL    HW210224   1.822   4.988   4.708
 3109SOL     OW10225   6.215   6.881   4.337
 3109SOL    HW110226   6.152   6.810   4.368
 3109SOL    HW210227   6.267   6.847   4.259
 3110SOL     OW10228   1.852   4.304   3.289
 3110SOL    HW110229   1.832   4.356   3.373
 3110SOL    HW210230   1.771   4.305   3.230
 3111SOL     OW10231   0.349   4.844   3.596
 3111SOL    HW110232   0.429   4.837   3.657
 3111SOL    HW210233   0.269   4.805   3.642
 3112SOL     OW10234   2.816   3.338   0.572
 3112SOL    HW110235   2.890   3.293   0.522
 3112SOL    HW210236   2.795   3.285   0.654
 3113SOL     OW10237   3.109   5.954   2.512
 3113SOL    HW110238   3.209   5.962   2.516
 3113SOL    HW210239   3.067   6.036   2.551
 3114SOL     OW10240   3.455   1.740   0.359
 3114SOL    HW110241   3.395   1.661   0.369
 3114SOL    HW210242   3.524   1.722   0.289
 3115SOL     OW10243   4.104   4.585   5.463
 3115SOL    HW110244   4.007   4.601   5.476
 3115SOL    HW210245   4.144   4.549   5.547
 3116SOL     OW10246   6.680   1.880   0.271
 3116SOL    HW110247   6.719   1.961   0.313
 3116SOL    HW210248   6.690   1.885   0.172
 3117SOL     OW10249   4.335   3.406   5.302
 3117SOL    HW110250   4.290   3.363   5.223
 3117SOL    HW210251   4.270   3.466   5.349
 3118SOL     OW10252   0.762   5.511   2.501
 3118SOL    HW110253   0.839   5.568   2.530
 3118SOL    HW210254   0.796   5.440   2.439
 3119SOL     OW10255   2.286   2.254   6.285
 3119SOL    HW110256   2.377   2.295   6.281
 3119SOL    HW210257   2.238   2.273   6.199
 3120SOL     OW10258   2.586   0.464   5.661
 3120SOL    HW110259   2.539   0.549   5.686
 3120SOL    HW210260   2.662   0.449   5.725
 3121SOL     OW10261   5.872   1.685   4.813
 3121SOL    HW110262   5.903   1.615   4.877
 3121SOL    HW210263   5.909   1.666   4.722
 3122SOL     OW10264   4.808   5.075   4.818
 3122SOL    HW110265   4.719   5.030   4.829
 3122SOL    HW210266   4.842   5.103   4.908
 3123SOL     OW10267   1.769   1.275   2.708
 3123SOL    HW110268   1.796   1.371   2.709
 3123SOL    HW210269   1.676   1.266   2.745
 3124SOL     OW10270   4.666   0.039   4.106
 3124SOL    HW110271   4.759   0.003   4.111
 3124SOL    HW210272   4.668   0.130   4.064
 3125SOL     OW10273   1.624   2.954   5.308
 3125SOL    HW110274   1.630   3.048   5.341
 3125SOL    HW210275   1.532   2.919   5.324
 3126SOL     OW10276   5.396   4.530   5.306
 3126SOL    HW110277   5.483   4.536   5.257
 3126SOL    HW210278   5.373   4.434   5.321
 3127SOL     OW10279   2.192   1.931   5.896
 3127SOL    HW110280   2.268   1.895   5.951
 3127SOL    HW210281   2.152   1.857   5.842
 3128SOL     OW10282   3.200   0.916   0.389
 3128SOL    HW110283   3.263   0.945   0.461
 3128SOL    HW210284   3.251   0.897   0.305
 3129SOL     OW10285   5.575   3.595   0.741
 3129SOL    HW110286   5.615   3.657   0.674
 3129SOL    HW210287   5.508   3.536   0.697
 3130SOL     OW10288   2.178   4.682   1.413
 3130SOL    HW110289   2.268   4.702   1.374
 3130SOL    HW210290   2.115   4.657   1.340
 3131SOL     OW10291   0.854   3.697   2.178
 3131SOL    HW110292   0.755   3.706   2.165
 3131SOL    HW210293   0.884   3.761   2.248
 3132SOL     OW10294   4.986   5.227   6.869
 3132SOL    HW110295   5.026   5.293   6.932
 3132SOL    HW210296   5.053   5.204   6.798
 3133SOL     OW10297   3.828   1.045   3.259
 3133SOL    HW110298   3.804   1.095   3.343
 3133SOL    HW210299   3.756   0.979   3.239
 3134SOL     OW10300   4.307   4.799   0.888
 3134SOL    HW110301   4.311   4.785   0.789
 3134SOL    HW210302   4.369   4.735   0.933
 3135SOL     OW10303   5.212   0.271   5.741
 3135SOL    HW110304   5.178   0.232   5.655
 3135SOL    HW210305   5.305   0.240   5.757
 3136SOL     OW10306   5.661   6.842   2.373
 3136SOL    HW110307   5.737   6.778   2.367
 3136SOL    HW210308   5.575   6.792   2.380
 3137SOL     OW10309   6.944   6.547   3.816
 3137SOL    HW110310   6.868   6.508   3.763
 3137SOL    HW210311   6.917   6.637   3.850
 3138SOL     OW10312   5.754   5.373   3.325
 3138SOL    HW110313   5.654   5.375   3.312
 3138SOL    HW210314   5.787   5.466   3.340
 3139SOL     OW10315   3.519   5.048   1.329
 3139SOL    HW110316   3.490   4.955   1.309
 3139SOL    HW210317   3.570   5.050   1.414
 3140SOL     OW10318   6.417   5.951   5.432
 3140SOL    HW110319   6.419   5.851   5.431
 3140SOL    HW210320   6.323   5.983   5.442
 3141SOL     OW10321   0.529   6.962   6.448
 3141SOL    HW110322   0.487   6.872   6.442
 3141SOL    HW210323   0.618   6.955   6.493
 3142SOL     OW10324   2.797   0.333   2.703
 3142SOL    HW110325   2.701   0.345   2.676
 3142SOL    HW210326   2.849   0.414   2.676
 3143SOL     OW10327   5.870   0.831   6.927
 3143SOL    HW110328   5.955   0.797   6.967
 3143SOL    HW210329   5.859   0.928   6.949
 3144SOL     OW10330   4.355   3.773   0.848
 3144SOL    HW110331   4.305   3.693   0.814
 3144SOL    HW210332   4.290   3.839   0.886
 3145SOL     OW10333   1.721   6.534   2.512
 3145SOL    HW110334   1.687   6.620   2.473
 3145SOL    HW210335   1.820   6.527   2.497
 3146SOL     OW10336   1.169   1.202   4.714
 3146SOL    HW110337   1.145   1.135   4.645
 3146SOL    HW210338   1.126   1.178   4.801
 3147SOL     OW10339   2.907   5.115   0.238
 3147SOL    HW110340   2.918   5.056   0.159
 3147SOL    HW210341   2.821   5.094   0.285
 3148SOL     OW10342   6.914   6.804   4.076
 3148SOL    HW110343   6.953   6.713   4.092
 3148SOL    HW210344   6.909   6.821   3.978
 3149SOL     OW10345   3.103   1.113   6.631
 3149SOL    HW110346   3.132   1.059   6.710
 3149SOL    HW210347   3.004   1.101   6.618
 3150SOL     OW10348   0.005   5.937   4.825
 3150SOL    HW110349   0.069   5.976   4.891
 3150SOL    HW210350   6.946   5.905   4.873
 3151SOL     OW10351   0.177   1.294   5.364
 3151SOL    HW110352   0.154   1.197   5.358
 3151SOL    HW210353   0.099   1.345   5.401
 3152SOL     OW10354   0.555   4.319   0.518
 3152SOL    HW110355   0.504   4.283   0.596
 3152SOL    HW210356   0.583   4.244   0.459
 3153SOL     OW10357   6.290   5.575   0.645
 3153SOL    HW110358   6.292   5.482   0.606
 3153SOL    HW210359   6.361   5.630   0.602
 3154SOL     OW10360   6.747   1.323   0.522
 3154SOL    HW110361   6.650   1.299   0.533
 3154SOL    HW210362   6.756   1.422   0.514
 3155SOL     OW10363   6.385   4.918   0.507
 3155SOL    HW110364   6.412   4.823   0.522
 3155SOL    HW210365   6.388   4.938   0.409
 3156SOL     OW10366   3.212   3.640   2.003
 3156SOL    HW110367   3.275   3.655   2.079
 3156SOL    HW210368   3.163   3.554   2.017
 3157SOL     OW10369   1.738   1.814   5.356
 3157SOL    HW110370   1.793   1.740   5.396
 3157SOL    HW210371   1.776   1.902   5.385
 3158SOL     OW10372   2.507   1.096   4.303
 3158SOL    HW110373   2.436   1.151   4.259
 3158SOL    HW210374   2.475   1.002   4.312
 3159SOL     OW10375   5.681   0.030   6.449
 3159SOL    HW110376   5.723   6.999   6.522
 3159SOL    HW210377   5.720   0.004   6.361
 3160SOL     OW10378   1.932   5.951   6.111
 3160SOL    HW110379   1.902   6.045   6.126
 3160SOL    HW210380   2.001   5.949   6.038
 3161SOL     OW10381   2.281   2.118   2.535
 3161SOL    HW110382   2.372   2.119   2.494
 3161SOL    HW210383   2.268   2.202   2.589
 3162SOL     OW10384   0.913   5.854   1.831
 3162SOL    HW110385   0.928   5.804   1.746
 3162SOL    HW210386   0.988   5.920   1.845
 3163SOL     OW10387   4.319   3.777   6.264
 3163SOL    HW110388   4.228   3.760   6.303
 3163SOL    HW210389   4.381   3.704   6.291
 3164SOL     OW10390   3.264   5.587   1.579
 3164SOL    HW110391   3.301   5.509   1.528
 3164SOL    HW210392   3.267   5.567   1.677
 3165SOL     OW10393   2.121   5.662   1.345
 3165SOL    HW110394   2.164   5.577   1.315
 3165SOL    HW210395   2.153   5.738   1.288
 3166SOL     OW10396   4.309   1.987   3.414
 3166SOL    HW110397   4.318   2.053   3.488
 3166SOL    HW210398   4.400   1.962   3.380
 3167SOL     OW10399   5.403   4.088   1.028
 3167SOL    HW110400   5.474   4.124   1.089
 3167SOL    HW210401   5.370   4.000   1.063
 3168SOL     OW10402   5.241   3.106   6.939
 3168SOL    HW110403   5.321   3.139   6.890
 3168SOL    HW210404   5.267   3.078   0.009
 3169SOL     OW10405   2.333   4.206   3.695
 3169SOL    HW110406   2.279   4.243   3.620
 3169SOL    HW210407   2.321   4.107   3.699
 3170SOL     OW10408   3.848   5.998   1.949
 3170SOL    HW110409   3.760   5.951   1.956
 3170SOL    HW210410   3.910   5.963   2.020
 3171SOL     OW10411   6.687   1.903   2.186
 3171SOL    HW110412   6.689   1.914   2.285
 3171SOL    HW210413   6.658   1.988   2.143
 3172SOL     OW10414   6.697   5.447   6.550
 3172SOL    HW110415   6.641   5.456   6.632
 3172SOL    HW210416   6.663   5.371   6.495
 3173SOL     OW10417   3.130   2.242   6.933
 3173SOL    HW110418   3.130   2.144   6.914
 3173SOL    HW210419   3.222   2.279   6.918
 3174SOL     OW10420   2.771   2.529   6.914
 3174SOL    HW110421   2.689   2.556   6.964
 3174SOL    HW210422   2.836   2.605   6.912
 3175SOL     OW10423   5.309   1.800   1.784
 3175SOL    HW110424   5.256   1.871   1.737
 3175SOL    HW210425   5.399   1.837   1.808
 3176SOL     OW10426   1.031   4.005   5.233
 3176SOL    HW110427   1.127   3.976   5.232
 3176SOL    HW210428   1.017   4.075   5.164
 3177SOL     OW10429   5.129   4.303   4.492
 3177SOL    HW110430   5.181   4.373   4.442
 3177SOL    HW210431   5.139   4.215   4.445
 3178SOL     OW10432   6.286   2.295   0.499
 3178SOL    HW110433   6.356   2.330   0.562
 3178SOL    HW210434   6.328   2.231   0.435
 3179SOL     OW10435   1.112   2.367   1.986
 3179SOL    HW110436   1.028   2.401   2.027
 3179SOL    HW210437   1.093   2.284   1.933
 3180SOL     OW10438   5.589   7.018   0.562
 3180SOL    HW110439   5.557   6.975   0.478
 3180SOL    HW210440   5.638   6.950   0.617
 3181SOL     OW10441   6.488   2.242   3.617
 3181SOL    HW110442   6.563   2.288   3.569
 3181SOL    HW210443   6.407   2.240   3.558
 3182SOL     OW10444   2.468   0.262   6.751
 3182SOL    HW110445   2.393   0.273   6.686
 3182SOL    HW210446   2.479   0.347   6.802
 3183SOL     OW10447   4.647   4.361   2.241
 3183SOL    HW110448   4.596   4.342   2.157
 3183SOL    HW210449   4.584   4.393   2.312
 3184SOL     OW10450   0.319   2.983   3.054
 3184SOL    HW110451   0.330   2.929   2.970
 3184SOL    HW210452   0.402   2.977   3.109
 3185SOL     OW10453   4.012   5.913   6.292
 3185SOL    HW110454   3.985   5.937   6.385
 3185SOL    HW210455   3.992   5.816   6.275
 3186SOL     OW10456   3.209   2.305   0.603
 3186SOL    HW110457   3.267   2.385   0.590
 3186SOL    HW210458   3.175   2.303   0.696
 3187SOL     OW10459   4.385   5.476   0.826
 3187SOL    HW110460   4.311   5.507   0.885
 3187SOL    HW210461   4.365   5.499   0.731
 3188SOL     OW10462   1.244   6.690   4.278
 3188SOL    HW110463   1.311   6.621   4.307
 3188SOL    HW210464   1.278   6.781   4.301
 3189SOL     OW10465   1.540   2.403   1.351
 3189SOL    HW110466   1.617   2.378   1.293
 3189SOL    HW210467   1.574   2.440   1.438
 3190SOL     OW10468   6.730   5.296   0.577
 3190SOL    HW110469   6.770   5.380   0.615
 3190SOL    HW210470   6.648   5.273   0.629
 3191SOL     OW10471   4.761   5.540   1.655
 3191SOL    HW110472   4.754   5.640   1.655
 3191SOL    HW210473   4.669   5.500   1.654
 3192SOL     OW10474   0.807   3.731   1.779
 3192SOL    HW110475   0.757   3.653   1.815
 3192SOL    HW210476   0.826   3.796   1.852
 3193SOL     OW10477   3.866   1.253   5.959
 3193SOL    HW110478   3.821   1.278   6.044
 3193SOL    HW210479   3.875   1.153   5.954
 3194SOL     OW10480   1.965   2.370   5.812
 3194SOL    HW110481   1.905   2.428   5.866
 3194SOL    HW210482   1.944   2.274   5.830
 3195SOL     OW10483   1.668   0.963   2.651
 3195SOL    HW110484   1.695   1.052   2.612
 3195SOL    HW210485   1.569   0.957   2.655
 3196SOL     OW10486   0.074   1.067   6.829
 3196SOL    HW110487   0.149   1.051   6.765
 3196SOL    HW210488   0.006   1.126   6.786
 3197SOL     OW10489   2.909   6.602   4.788
 3197SOL    HW110490   2.948   6.692   4.768
 3197SOL    HW210491   2.946   6.535   4.724
 3198SOL     OW10492   6.387   3.449   3.191
 3198SOL    HW110493   6.314   3.511   3.165
 3198SOL    HW210494   6.364   3.356   3.164
 3199SOL     OW10495   4.963   4.074   2.816
 3199SOL    HW110496   4.985   4.046   2.723
 3199SOL    HW210497   5.017   4.021   2.881
 3200SOL     OW10498   5.975   3.324   2.714
 3200SOL    HW110499   6.001   3.304   2.809
 3200SOL    HW210500   6.010   3.414   2.688
 3201SOL     OW10501   6.908   4.633   3.548
 3201SOL    HW110502   6.922   4.687   3.465
 3201SOL    HW210503   6.939   4.687   3.627
 3202SOL     OW10504   1.194   5.088   1.175
 3202SOL    HW110505   1.177   5.060   1.081
 3202SOL    HW210506   1.239   5.014   1.224
 3203SOL     OW10507   5.697   1.798   0.401
 3203SOL    HW110508   5.610   1.829   0.362
 3203SOL    HW210509   5.718   1.706   0.366
 3204SOL     OW10510   4.290   6.985   3.448
 3204SOL    HW110511   4.326   6.893   3.462
 3204SOL    HW210512   4.235   6.987   3.365
 3205SOL     OW10513   5.269   3.039   6.121
 3205SOL    HW110514   5.291   3.101   6.045
 3205SOL    HW210515   5.305   3.077   6.206
 3206SOL     OW10516   1.824   4.679   0.789
 3206SOL    HW110517   1.832   4.611   0.862
 3206SOL    HW210518   1.772   4.640   0.713
 3207SOL     OW10519   1.373   0.768   6.686
 3207SOL    HW110520   1.398   0.845   6.627
 3207SOL    HW210521   1.447   0.702   6.688
 3208SOL     OW10522   4.741   6.479   6.334
 3208SOL    HW110523   4.705   6.563   6.292
 3208SOL    HW210524   4.837   6.467   6.306
 3209SOL     OW10525   3.644   5.230   3.983
 3209SOL    HW110526   3.547   5.242   3.961
 3209SOL    HW210527   3.671   5.136   3.963
 3210SOL     OW10528   1.453   4.602   1.027
 3210SOL    HW110529   1.438   4.641   1.118
 3210SOL    HW210530   1.494   4.511   1.036
 3211SOL     OW10531   1.641   4.101   0.711
 3211SOL    HW110532   1.580   4.033   0.671
 3211SOL    HW210533   1.676   4.067   0.798
 3212SOL     OW10534   2.898   6.702   1.648
 3212SOL    HW110535   2.924   6.794   1.674
 3212SOL    HW210536   2.976   6.655   1.606
 3213SOL     OW10537   1.428   6.905   0.212
 3213SOL    HW110538   1.505   6.854   0.176
 3213SOL    HW210539   1.377   6.848   0.277
 3214SOL     OW10540   4.529   5.591   1.204
 3214SOL    HW110541   4.431   5.606   1.188
 3214SOL    HW210542   4.581   5.668   1.168
 3215SOL     OW10543   0.060   4.327   1.219
 3215SOL    HW110544   0.124   4.253   1.237
 3215SOL    HW210545   0.111   4.411   1.199
 3216SOL     OW10546   5.670   5.437   0.542
 3216SOL    HW110547   5.589   5.379   0.529
 3216SOL    HW210548   5.682   5.497   0.463
 3217SOL     OW10549   0.059   5.557   2.658
 3217SOL    HW110550   0.151   5.571   2.622
 3217SOL    HW210551   0.007   5.642   2.651
 3218SOL     OW10552   5.042   2.544   2.703
 3218SOL    HW110553   5.049   2.605   2.624
 3218SOL    HW210554   5.010   2.596   2.783
 3219SOL     OW10555   0.400   1.724   3.653
 3219SOL    HW110556   0.342   1.646   3.675
 3219SOL    HW210557   0.451   1.751   3.734
 3220SOL     OW10558   7.002   5.156   5.983
 3220SOL    HW110559   6.962   5.174   5.893
 3220SOL    HW210560   0.027   5.238   6.015
 3221SOL     OW10561   3.823   0.223   1.875
 3221SOL    HW110562   3.735   0.185   1.845
 3221SOL    HW210563   3.830   0.215   1.974
 3222SOL     OW10564   2.714   1.475   2.699
 3222SOL    HW110565   2.693   1.400   2.637
 3222SOL    HW210566   2.638   1.541   2.699
 3223SOL     OW10567   2.647   6.743   6.316
 3223SOL    HW110568   2.621   6.821   6.374
 3223SOL    HW210569   2.577   6.672   6.324
 3224SOL     OW10570   4.710   2.821   5.160
 3224SOL    HW110571   4.805   2.793   5.168
 3224SOL    HW210572   4.703   2.920   5.167
 3225SOL     OW10573   5.108   2.563   5.820
 3225SOL    HW110574   5.172   2.637   5.841
 3225SOL    HW210575   5.071   2.526   5.906
 3226SOL     OW10576   1.856   0.947   2.089
 3226SOL    HW110577   1.940   0.909   2.052
 3226SOL    HW210578   1.855   0.937   2.189
 3227SOL     OW10579   2.872   3.238   6.926
 3227SOL    HW110580   2.792   3.183   6.948
 3227SOL    HW210581   2.845   3.318   6.872
 3228SOL     OW10582   6.739   3.966   1.077
 3228SOL    HW110583   6.653   3.938   1.119
 3228SOL    HW210584   6.796   3.886   1.059
 3229SOL     OW10585   3.833   0.413   5.518
 3229SOL    HW110586   3.798   0.396   5.610
 3229SOL    HW210587   3.775   0.366   5.451
 3230SOL     OW10588   2.066   4.527   5.535
 3230SOL    HW110589   2.132   4.556   5.604
 3230SOL    HW210590   2.113   4.481   5.460
 3231SOL     OW10591   2.872   0.212   1.639
 3231SOL    HW110592   2.777   0.195   1.613
 3231SOL    HW210593   2.877   0.291   1.699
 3232SOL     OW10594   4.535   6.573   4.356
 3232SOL    HW110595   4.472   6.552   4.430
 3232SOL    HW210596   4.531   6.671   4.336
 3233SOL     OW10597   6.482   2.364   0.679
 3233SOL    HW110598   6.418   2.300   0.721
 3233SOL    HW210599   6.547   2.396   0.748
 3234SOL     OW10600   0.647   2.610   7.006
 3234SOL    HW110601   0.699   2.683   0.029
 3234SOL    HW210602   0.593   2.650   6.932
 3235SOL     OW10603   0.019   0.263   1.394
 3235SOL    HW110604   0.019   0.261   1.494
 3235SOL    HW210605   0.109   0.237   1.360
 3236SOL     OW10606   1.095   4.103   0.351
 3236SOL    HW110607   1.123   4.055   0.268
 3236SOL    HW210608   0.996   4.094   0.363
 3237SOL     OW10609   6.297   1.436   2.481
 3237SOL    HW110610   6.240   1.454   2.561
 3237SOL    HW210611   6.325   1.523   2.440
 3238SOL     OW10612   6.666   5.405   0.155
 3238SOL    HW110613   6.694   5.380   0.063
 3238SOL    HW210614   6.747   5.431   0.209
 3239SOL     OW10615   0.040   1.380   2.726
 3239SOL    HW110616   0.119   1.320   2.736
 3239SOL    HW210617   7.000   1.365   2.801
 3240SOL     OW10618   6.531   6.429   6.384
 3240SOL    HW110619   6.474   6.509   6.362
 3240SOL    HW210620   6.474   6.357   6.424
 3241SOL     OW10621   4.691   0.579   5.439
 3241SOL    HW110622   4.685   0.603   5.342
 3241SOL    HW210623   4.762   0.510   5.452
 3242SOL     OW10624   4.759   4.734   6.620
 3242SOL    HW110625   4.792   4.642   6.595
 3242SOL    HW210626   4.835   4.788   6.654
 3243SOL     OW10627   4.145   4.804   0.133
 3243SOL    HW110628   4.190   4.744   0.198
 3243SOL    HW210629   4.210   4.873   0.100
 3244SOL     OW10630   4.843   5.918   0.195
 3244SOL    HW110631   4.863   5.886   0.102
 3244SOL    HW210632   4.847   5.841   0.258
 3245SOL     OW10633   5.158   3.605   4.398
 3245SOL    HW110634   5.074   3.625   4.449
 3245SOL    HW210635   5.156   3.511   4.365
 3246SOL     OW10636   6.634   0.423   3.071
 3246SOL    HW110637   6.554   0.481   3.087
 3246SOL    HW210638   6.692   0.464   3.000
 3247SOL     OW10639   5.778   4.423   2.645
 3247SOL    HW110640   5.769   4.411   2.744
 3247SOL    HW210641   5.846   4.359   2.610
 3248SOL     OW10642   5.462   3.346   1.816
 3248SOL    HW110643   5.494   3.400   1.894
 3248SOL    HW210644   5.366   3.320   1.831
 3249SOL     OW10645   3.830   4.078   3.909
 3249SOL    HW110646   3.816   4.110   4.003
 3249SOL    HW210647   3.909   4.018   3.906
 3250SOL     OW10648   6.110   0.476   2.668
 3250SOL    HW110649   6.185   0.428   2.713
 3250SOL    HW210650   6.023   0.439   2.702
 3251SOL     OW10651   3.536   0.780   3.633
 3251SOL    HW110652   3.523   0.702   3.694
 3251SOL    HW210653   3.626   0.775   3.591
 3252SOL     OW10654   2.834   1.039   2.457
 3252SOL    HW110655   2.890   1.072   2.381
 3252SOL    HW210656   2.776   0.963   2.426
 3253SOL     OW10657   4.661   3.907   1.335
 3253SOL    HW110658   4.585   3.842   1.322
 3253SOL    HW210659   4.746   3.856   1.350
 3254SOL     OW10660   4.381   5.684   6.378
 3254SOL    HW110661   4.326   5.735   6.444
 3254SOL    HW210662   4.402   5.743   6.300
 3255SOL     OW10663   4.394   6.709   0.925
 3255SOL    HW110664   4.397   6.798   0.881
 3255SOL    HW210665   4.462   6.648   0.883
 3256SOL     OW10666   3.902   1.387   1.182
 3256SOL    HW110667   3.926   1.333   1.102
 3256SOL    HW210668   3.811   1.427   1.170
 3257SOL     OW10669   1.301   2.035   2.168
 3257SOL    HW110670   1.209   2.010   2.138
 3257SOL    HW210671   1.363   2.033   2.090
 3258SOL     OW10672   4.752   6.182   2.179
 3258SOL    HW110673   4.664   6.228   2.186
 3258SOL    HW210674   4.788   6.163   2.270
 3259SOL     OW10675   4.801   4.926   5.264
 3259SOL    HW110676   4.752   5.012   5.279
 3259SOL    HW210677   4.747   4.867   5.205
 3260SOL     OW10678   1.624   2.563   0.998
 3260SOL    HW110679   1.693   2.540   0.930
 3260SOL    HW210680   1.666   2.614   1.072
 3261SOL     OW10681   5.611   0.431   1.576
 3261SOL    HW110682   5.686   0.463   1.518
 3261SOL    HW210683   5.543   0.503   1.586
 3262SOL     OW10684   3.187   1.755   2.280
 3262SOL    HW110685   3.108   1.694   2.272
 3262SOL    HW210686   3.270   1.707   2.252
 3263SOL     OW10687   2.619   1.208   2.802
 3263SOL    HW110688   2.637   1.210   2.704
 3263SOL    HW210689   2.573   1.123   2.826
 3264SOL     OW10690   1.287   5.687   0.897
 3264SOL    HW110691   1.340   5.671   0.980
 3264SOL    HW210692   1.240   5.775   0.904
 3265SOL     OW10693   4.513   0.495   6.358
 3265SOL    HW110694   4.586   0.515   6.294
 3265SOL    HW210695   4.463   0.580   6.380
 3266SOL     OW10696   2.028   4.341   0.188
 3266SOL    HW110697   1.981   4.311   0.105
 3266SOL    HW210698   2.126   4.348   0.170
 3267SOL     OW10699   3.118   6.146   1.068
 3267SOL    HW110700   3.173   6.200   1.132
 3267SOL    HW210701   3.051   6.092   1.119
 3268SOL     OW10702   2.127   3.824   1.751
 3268SOL    HW110703   2.077   3.747   1.790
 3268SOL    HW210704   2.182   3.868   1.823
 3269SOL     OW10705   5.275   5.841   2.394
 3269SOL    HW110706   5.183   5.807   2.411
 3269SOL    HW210707   5.272   5.914   2.325
 3270SOL     OW10708   1.300   4.567   6.163
 3270SOL    HW110709   1.228   4.630   6.192
 3270SOL    HW210710   1.365   4.555   6.238
 3271SOL     OW10711   5.495   3.799   1.928
 3271SOL    HW110712   5.403   3.836   1.918
 3271SOL    HW210713   5.520   3.747   1.846
 3272SOL     OW10714   3.022   4.375   6.316
 3272SOL    HW110715   3.078   4.371   6.399
 3272SOL    HW210716   2.997   4.470   6.298
 3273SOL     OW10717   6.008   5.523   0.413
 3273SOL    HW110718   6.052   5.468   0.485
 3273SOL    HW210719   5.939   5.582   0.454
 3274SOL     OW10720   5.137   0.977   0.883
 3274SOL    HW110721   5.054   1.029   0.864
 3274SOL    HW210722   5.199   0.984   0.805
 3275SOL     OW10723   5.596   0.759   6.934
 3275SOL    HW110724   5.553   0.676   6.970
 3275SOL    HW210725   5.695   0.753   6.946
 3276SOL     OW10726   3.496   6.002   6.453
 3276SOL    HW110727   3.578   6.055   6.430
 3276SOL    HW210728   3.422   6.064   6.479
 3277SOL     OW10729   3.718   0.243   0.603
 3277SOL    HW110730   3.752   0.324   0.651
 3277SOL    HW210731   3.706   0.168   0.669
 3278SOL     OW10732   1.001   0.924   5.727
 3278SOL    HW110733   1.001   0.840   5.672
 3278SOL    HW210734   0.949   0.995   5.680
 3279SOL     OW10735   4.950   0.184   0.365
 3279SOL    HW110736   4.989   0.276   0.366
 3279SOL    HW210737   4.992   0.130   0.293
 3280SOL     OW10738   5.010   4.257   4.735
 3280SOL    HW110739   5.005   4.158   4.736
 3280SOL    HW210740   5.045   4.288   4.647
 3281SOL     OW10741   1.564   4.722   1.677
 3281SOL    HW110742   1.619   4.800   1.707
 3281SOL    HW210743   1.498   4.698   1.748
 3282SOL     OW10744   0.427   5.024   4.892
 3282SOL    HW110745   0.367   5.104   4.880
 3282SOL    HW210746   0.460   5.022   4.987
 3283SOL     OW10747   3.274   0.591   1.214
 3283SOL    HW110748   3.335   0.636   1.278
 3283SOL    HW210749   3.180   0.599   1.246
 3284SOL     OW10750   0.509   5.574   6.769
 3284SOL    HW110751   0.544   5.484   6.795
 3284SOL    HW210752   0.473   5.570   6.676
 3285SOL     OW10753   4.033   2.168   3.654
 3285SOL    HW110754   4.078   2.136   3.737
 3285SOL    HW210755   4.096   2.223   3.600
 3286SOL     OW10756   3.442   3.150   2.563
 3286SOL    HW110757   3.523   3.208   2.569
 3286SOL    HW210758   3.459   3.063   2.610
 3287SOL     OW10759   0.852   0.328   0.112
 3287SOL    HW110760   0.944   0.340   0.150
 3287SOL    HW210761   0.848   0.242   0.060
 3288SOL     OW10762   1.982   6.340   0.088
 3288SOL    HW110763   2.081   6.341   0.077
 3288SOL    HW210764   1.941   6.285   0.015
 3289SOL     OW10765   2.961   0.912   5.457
 3289SOL    HW110766   2.944   0.972   5.379
 3289SOL    HW210767   2.930   0.819   5.434
 3290SOL     OW10768   0.266   5.561   1.365
 3290SOL    HW110769   0.209   5.543   1.444
 3290SOL    HW210770   0.275   5.660   1.352
 3291SOL     OW10771   2.055   0.127   6.664
 3291SOL    HW110772   2.111   0.201   6.628
 3291SOL    HW210773   2.114   0.053   6.696
 3292SOL     OW10774   0.134   0.877   0.689
 3292SOL    HW110775   0.121   0.926   0.775
 3292SOL    HW210776   0.118   0.779   0.703
 3293SOL     OW10777   6.615   4.263   2.304
 3293SOL    HW110778   6.615   4.242   2.401
 3293SOL    HW210779   6.524   4.294   2.276
 3294SOL     OW10780   6.002   2.807   6.413
 3294SOL    HW110781   6.014   2.875   6.340
 3294SOL    HW210782   6.090   2.765   6.434
 3295SOL     OW10783   1.308   2.656   2.250
 3295SOL    HW110784   1.365   2.575   2.240
 3295SOL    HW210785   1.245   2.644   2.327
 3296SOL     OW10786   1.153   0.156   2.995
 3296SOL    HW110787   1.238   0.201   2.967
 3296SOL    HW210788   1.171   0.098   3.075
 3297SOL     OW10789   2.894   1.602   5.580
 3297SOL    HW110790   2.909   1.504   5.567
 3297SOL    HW210791   2.975   1.652   5.551
 3298SOL     OW10792   6.106   2.219   5.603
 3298SOL    HW110793   6.052   2.274   5.666
 3298SOL    HW210794   6.059   2.133   5.585
 3299SOL     OW10795   3.929   5.776   2.998
 3299SOL    HW110796   4.029   5.771   3.001
 3299SOL    HW210797   3.891   5.689   3.028
 3300SOL     OW10798   0.391   0.689   5.675
 3300SOL    HW110799   0.449   0.759   5.633
 3300SOL    HW210800   0.442   0.640   5.745
 3301SOL     OW10801   2.263   2.901   3.375
 3301SOL    HW110802   2.255   2.959   3.294
 3301SOL    HW210803   2.187   2.835   3.376
 3302SOL     OW10804   0.559   5.032   5.461
 3302SOL    HW110805   0.496   5.036   5.539
 3302SOL    HW210806   0.545   5.112   5.403
 3303SOL     OW10807   3.310   3.434   0.850
 3303SOL    HW110808   3.333   3.354   0.794
 3303SOL    HW210809   3.343   3.420   0.943
 3304SOL     OW10810   1.903   5.283   4.777
 3304SOL    HW110811   1.938   5.360   4.723
 3304SOL    HW210812   1.804   5.276   4.764
 3305SOL     OW10813   2.346   1.320   2.029
 3305SOL    HW110814   2.287   1.298   2.107
 3305SOL    HW210815   2.305   1.394   1.976
 3306SOL     OW10816   2.389   5.433   4.627
 3306SOL    HW110817   2.305   5.438   4.680
 3306SOL    HW210818   2.467   5.459   4.684
 3307SOL     OW10819   0.369   5.697   6.393
 3307SOL    HW110820   0.431   5.681   6.316
 3307SOL    HW210821   0.276   5.710   6.358
 3308SOL     OW10822   2.731   6.000   1.360
 3308SOL    HW110823   2.653   5.950   1.324
 3308SOL    HW210824   2.751   5.969   1.453
 3309SOL     OW10825   6.160   5.455   3.949
 3309SOL    HW110826   6.103   5.372   3.947
 3309SOL    HW210827   6.168   5.492   3.856
 3310SOL     OW10828   0.335   4.281   5.210
 3310SOL    HW110829   0.297   4.218   5.278
 3310SOL    HW210830   0.327   4.375   5.243
 3311SOL     OW10831   4.141   4.313   0.555
 3311SOL    HW110832   4.162   4.217   0.536
 3311SOL    HW210833   4.056   4.318   0.607
 3312SOL     OW10834   4.268   4.433   5.685
 3312SOL    HW110835   4.208   4.363   5.647
 3312SOL    HW210836   4.254   4.439   5.784
 3313SOL     OW10837   0.910   6.370   3.769
 3313SOL    HW110838   0.961   6.418   3.697
 3313SOL    HW210839   0.963   6.292   3.801
 3314SOL     OW10840   2.113   1.074   2.377
 3314SOL    HW110841   2.043   1.006   2.353
 3314SOL    HW210842   2.074   1.140   2.442
 3315SOL     OW10843   6.875   4.479   5.019
 3315SOL    HW110844   6.947   4.488   4.950
 3315SOL    HW210845   6.909   4.425   5.096
 3316SOL     OW10846   5.187   0.765   5.800
 3316SOL    HW110847   5.213   0.858   5.774
 3316SOL    HW210848   5.096   0.767   5.842
 3317SOL     OW10849   4.833   2.919   1.711
 3317SOL    HW110850   4.777   2.931   1.629
 3317SOL    HW210851   4.786   2.961   1.789
 3318SOL     OW10852   1.978   1.925   1.624
 3318SOL    HW110853   1.929   1.889   1.544
 3318SOL    HW210854   2.070   1.886   1.628
 3319SOL     OW10855   6.253   1.828   3.797
 3319SOL    HW110856   6.323   1.835   3.868
 3319SOL    HW210857   6.210   1.738   3.802
 3320SOL     OW10858   6.830   0.771   5.181
 3320SOL    HW110859   6.802   0.711   5.106
 3320SOL    HW210860   6.877   0.851   5.144
 3321SOL     OW10861   4.595   1.408   0.429
 3321SOL    HW110862   4.535   1.479   0.392
 3321SOL    HW210863   4.617   1.429   0.524
 3322SOL     OW10864   6.610   2.427   0.936
 3322SOL    HW110865   6.650   2.515   0.907
 3322SOL    HW210866   6.656   2.395   1.018
 3323SOL     OW10867   3.020   2.514   0.365
 3323SOL    HW110868   3.052   2.575   0.438
 3323SOL    HW210869   2.927   2.539   0.338
 3324SOL     OW10870   4.071   5.223   6.903
 3324SOL    HW110871   4.032   5.291   6.965
 3324SOL    HW210872   3.998   5.166   6.865
 3325SOL     OW10873   0.237   3.467   6.444
 3325SOL    HW110874   0.287   3.528   6.505
 3325SOL    HW210875   0.163   3.423   6.494
 3326SOL     OW10876   5.164   1.871   2.337
 3326SOL    HW110877   5.170   1.836   2.431
 3326SOL    HW210878   5.109   1.809   2.282
 3327SOL     OW10879   2.996   5.162   1.815
 3327SOL    HW110880   2.998   5.244   1.872
 3327SOL    HW210881   2.926   5.099   1.850
 3328SOL     OW10882   4.435   2.139   0.389
 3328SOL    HW110883   4.506   2.070   0.376
 3328SOL    HW210884   4.376   2.113   0.465
 3329SOL     OW10885   5.701   0.757   4.955
 3329SOL    HW110886   5.775   0.818   4.926
 3329SOL    HW210887   5.632   0.752   4.883
 3330SOL     OW10888   6.442   4.450   1.604
 3330SOL    HW110889   6.467   4.364   1.559
 3330SOL    HW210890   6.505   4.522   1.575
 3331SOL     OW10891   2.089   2.703   1.653
 3331SOL    HW110892   2.189   2.696   1.660
 3331SOL    HW210893   2.061   2.796   1.677
 3332SOL     OW10894   5.532   5.697   6.781
 3332SOL    HW110895   5.532   5.690   6.881
 3332SOL    HW210896   5.439   5.682   6.748
 3333SOL     OW10897   4.501   4.848   6.628
 3333SOL    HW110898   4.584   4.793   6.633
 3333SOL    HW210899   4.429   4.805   6.682
 3334SOL     OW10900   2.698   3.991   1.660
 3334SOL    HW110901   2.778   3.930   1.662
 3334SOL    HW210902   2.726   4.083   1.687
 3335SOL     OW10903   4.777   5.989   5.992
 3335SOL    HW110904   4.848   5.970   5.923
 3335SOL    HW210905   4.698   6.030   5.947
 3336SOL     OW10906   2.783   5.986   4.735
 3336SOL    HW110907   2.824   5.964   4.646
 3336SOL    HW210908   2.753   6.082   4.734
 3337SOL     OW10909   2.991   3.788   2.806
 3337SOL    HW110910   3.020   3.839   2.725
 3337SOL    HW210911   3.046   3.704   2.813
 3338SOL     OW10912   5.678   2.682   1.381
 3338SOL    HW110913   5.655   2.655   1.287
 3338SOL    HW210914   5.694   2.600   1.436
 3339SOL     OW10915   6.599   6.962   6.764
 3339SOL    HW110916   6.517   6.920   6.725
 3339SOL    HW210917   6.661   6.989   6.690
 3340SOL     OW10918   3.679   0.948   2.190
 3340SOL    HW110919   3.597   0.923   2.242
 3340SOL    HW210920   3.745   0.991   2.252
 3341SOL     OW10921   1.092   5.661   3.325
 3341SOL    HW110922   1.035   5.712   3.261
 3341SOL    HW210923   1.102   5.567   3.293
 3342SOL     OW10924   2.592   7.007   4.415
 3342SOL    HW110925   2.606   0.061   4.353
 3342SOL    HW210926   2.675   6.990   4.468
 3343SOL     OW10927   4.643   3.235   0.705
 3343SOL    HW110928   4.689   3.184   0.632
 3343SOL    HW210929   4.576   3.176   0.750
 3344SOL     OW10930   5.847   3.444   4.162
 3344SOL    HW110931   5.782   3.391   4.108
 3344SOL    HW210932   5.803   3.474   4.247
 3345SOL     OW10933   1.517   3.504   6.164
 3345SOL    HW110934   1.542   3.412   6.134
 3345SOL    HW210935   1.424   3.503   6.199
 3346SOL     OW10936   1.632   0.546   0.386
 3346SOL    HW110937   1.586   0.564   0.300
 3346SOL    HW210938   1.575   0.578   0.462
 3347SOL     OW10939   0.627   3.988   3.955
 3347SOL    HW110940   0.699   4.057   3.956
 3347SOL    HW210941   0.575   3.993   4.041
 3348SOL     OW10942   3.121   3.083   3.659
 3348SOL    HW110943   3.085   3.155   3.719
 3348SOL    HW210944   3.158   3.009   3.715
 3349SOL     OW10945   1.530   6.019   3.352
 3349SOL    HW110946   1.435   6.015   3.384
 3349SOL    HW210947   1.541   5.957   3.274
 3350SOL     OW10948   1.440   2.455   5.659
 3350SOL    HW110949   1.386   2.372   5.646
 3350SOL    HW210950   1.537   2.432   5.655
 3351SOL     OW10951   5.107   0.464   2.573
 3351SOL    HW110952   5.176   0.486   2.503
 3351SOL    HW210953   5.072   0.372   2.557
 3352SOL     OW10954   0.295   2.657   0.579
 3352SOL    HW110955   0.254   2.629   0.493
 3352SOL    HW210956   0.345   2.743   0.566
 3353SOL     OW10957   1.465   5.663   2.070
 3353SOL    HW110958   1.550   5.642   2.119
 3353SOL    HW210959   1.487   5.700   1.980
 3354SOL     OW10960   5.151   2.629   5.173
 3354SOL    HW110961   5.175   2.534   5.194
 3354SOL    HW210962   5.235   2.682   5.162
 3355SOL     OW10963   2.094   1.668   0.621
 3355SOL    HW110964   2.070   1.739   0.555
 3355SOL    HW210965   2.050   1.688   0.709
 3356SOL     OW10966   2.101   3.978   6.117
 3356SOL    HW110967   2.098   4.077   6.113
 3356SOL    HW210968   2.081   3.940   6.026
 3357SOL     OW10969   2.623   4.741   1.879
 3357SOL    HW110970   2.702   4.699   1.922
 3357SOL    HW210971   2.544   4.734   1.939
 3358SOL     OW10972   5.293   0.534   0.525
 3358SOL    HW110973   5.312   0.633   0.520
 3358SOL    HW210974   5.365   0.490   0.578
 3359SOL     OW10975   0.065   0.444   3.859
 3359SOL    HW110976   0.119   0.524   3.835
 3359SOL    HW210977   0.001   0.467   3.932
 3360SOL     OW10978   0.516   1.379   6.423
 3360SOL    HW110979   0.516   1.474   6.454
 3360SOL    HW210980   0.567   1.323   6.488
 3361SOL     OW10981   0.630   4.243   2.882
 3361SOL    HW110982   0.673   4.158   2.850
 3361SOL    HW210983   0.534   4.244   2.854
 3362SOL     OW10984   3.640   1.478   3.779
 3362SOL    HW110985   3.589   1.418   3.840
 3362SOL    HW210986   3.718   1.517   3.828
 3363SOL     OW10987   0.047   0.118   0.563
 3363SOL    HW110988   0.081   0.193   0.506
 3363SOL    HW210989   0.079   0.031   0.525
 3364SOL     OW10990   1.179   4.552   3.856
 3364SOL    HW110991   1.127   4.564   3.771
 3364SOL    HW210992   1.160   4.628   3.918
 3365SOL     OW10993   0.554   2.324   5.299
 3365SOL    HW110994   0.544   2.417   5.335
 3365SOL    HW210995   0.563   2.328   5.199
 3366SOL     OW10996   5.889   0.518   6.090
 3366SOL    HW110997   5.917   0.524   6.186
 3366SOL    HW210998   5.850   0.605   6.061
 3367SOL     OW10999   3.668   2.826   1.613
 3367SOL    HW111000   3.674   2.736   1.656
 3367SOL    HW211001   3.661   2.814   1.513
 3368SOL     OW11002   0.581   5.133   5.897
 3368SOL    HW111003   0.645   5.064   5.931
 3368SOL    HW211004   0.624   5.223   5.897
 3369SOL     OW11005   4.037   2.408   5.606
 3369SOL    HW111006   4.031   2.406   5.507
 3369SOL    HW211007   4.018   2.501   5.639
 3370SOL     OW11008   6.611   6.013   5.959
 3370SOL    HW111009   6.622   5.958   5.877
 3370SOL    HW211010   6.565   6.099   5.936
 3371SOL     OW11011   1.655   3.443   2.140
 3371SOL    HW111012   1.568   3.461   2.094
 3371SOL    HW211013   1.644   3.455   2.239
 3372SOL     OW11014   1.275   1.117   1.157
 3372SOL    HW111015   1.278   1.066   1.243
 3372SOL    HW211016   1.331   1.199   1.165
 3373SOL     OW11017   0.054   1.953   2.912
 3373SOL    HW111018   0.019   1.936   3.004
 3373SOL    HW211019   0.114   1.878   2.885
 3374SOL     OW11020   1.834   6.475   4.370
 3374SOL    HW111021   1.921   6.437   4.337
 3374SOL    HW211022   1.759   6.417   4.338
 3375SOL     OW11023   6.173   5.613   6.275
 3375SOL    HW111024   6.085   5.661   6.274
 3375SOL    HW211025   6.158   5.517   6.297
 3376SOL     OW11026   3.987   3.239   3.655
 3376SOL    HW111027   3.910   3.301   3.641
 3376SOL    HW211028   3.982   3.198   3.745
 3377SOL     OW11029   0.390   6.381   4.806
 3377SOL    HW111030   0.438   6.466   4.825
 3377SOL    HW211031   0.340   6.352   4.888
 3378SOL     OW11032   7.019   0.887   0.203
 3378SOL    HW111033   6.980   0.871   0.293
 3378SOL    HW211034   6.951   0.931   0.145
 3379SOL     OW11035   6.876   6.089   6.591
 3379SOL    HW111036   6.788   6.116   6.629
 3379SOL    HW211037   6.946   6.097   6.662
 3380SOL     OW11038   5.888   6.588   5.978
 3380SOL    HW111039   5.987   6.586   5.994
 3380SOL    HW211040   5.844   6.643   6.049
 3381SOL     OW11041   1.253   2.816   1.225
 3381SOL    HW111042   1.193   2.776   1.157
 3381SOL    HW211043   1.223   2.790   1.316
 3382SOL     OW11044   0.663   1.320   0.820
 3382SOL    HW111045   0.612   1.244   0.779
 3382SOL    HW211046   0.618   1.406   0.799
 3383SOL     OW11047   4.332   5.884   2.159
 3383SOL    HW111048   4.370   5.871   2.068
 3383SOL    HW211049   4.233   5.897   2.152
 3384SOL     OW11050   2.275   3.396   5.856
 3384SOL    HW111051   2.271   3.496   5.847
 3384SOL    HW211052   2.283   3.355   5.765
 3385SOL     OW11053   0.268   3.019   4.038
 3385SOL    HW111054   0.295   3.056   4.127
 3385SOL    HW211055   0.169   3.006   4.036
 3386SOL     OW11056   6.544   3.260   6.766
 3386SOL    HW111057   6.445   3.250   6.775
 3386SOL    HW211058   6.565   3.331   6.699
 3387SOL     OW11059   3.168   1.336   3.811
 3387SOL    HW111060   3.082   1.331   3.862
 3387SOL    HW211061   3.184   1.430   3.782
 3388SOL     OW11062   5.216   3.229   1.871
 3388SOL    HW111063   5.116   3.236   1.872
 3388SOL    HW211064   5.243   3.146   1.822
 3389SOL     OW11065   5.271   4.740   5.436
 3389SOL    HW111066   5.290   4.649   5.401
 3389SOL    HW211067   5.269   4.805   5.360
 3390SOL     OW11068   5.083   4.679   5.903
 3390SOL    HW111069   5.037   4.669   5.991
 3390SOL    HW211070   5.016   4.700   5.832
 3391SOL     OW11071   5.035   3.136   5.009
 3391SOL    HW111072   4.993   3.213   5.057
 3391SOL    HW211073   5.123   3.114   5.051
 3392SOL     OW11074   2.807   6.702   3.834
 3392SOL    HW111075   2.811   6.739   3.926
 3392SOL    HW211076   2.737   6.750   3.781
 3393SOL     OW11077   0.146   6.402   6.893
 3393SOL    HW111078   0.243   6.381   6.882
 3393SOL    HW211079   0.135   6.477   6.957
 3394SOL     OW11080   6.029   3.251   1.430
 3394SOL    HW111081   5.993   3.230   1.339
 3394SOL    HW211082   5.955   3.247   1.497
 3395SOL     OW11083   5.729   3.181   3.577
 3395SOL    HW111084   5.658   3.113   3.597
 3395SOL    HW211085   5.777   3.156   3.493
 3396SOL     OW11086   5.256   1.767   3.459
 3396SOL    HW111087   5.231   1.776   3.555
 3396SOL    HW211088   5.295   1.676   3.443
 3397SOL     OW11089   2.474   0.668   5.426
 3397SOL    HW111090   2.490   0.570   5.431
 3397SOL    HW211091   2.407   0.695   5.496
 3398SOL     OW11092   1.021   0.236   4.656
 3398SOL    HW111093   1.044   0.285   4.572
 3398SOL    HW211094   1.079   0.156   4.665
 3399SOL     OW11095   5.737   4.304   4.378
 3399SOL    HW111096   5.820   4.336   4.424
 3399SOL    HW211097   5.762   4.243   4.302
 3400SOL     OW11098   4.724   2.448   5.929
 3400SOL    HW111099   4.741   2.430   5.832
 3400SOL    HW211100   4.812   2.455   5.977
 3401SOL     OW11101   6.953   3.495   1.102
 3401SOL    HW111102   6.931   3.451   1.189
 3401SOL    HW211103   0.009   3.555   1.114
 3402SOL     OW11104   3.563   6.429   6.475
 3402SOL    HW111105   3.504   6.373   6.534
 3402SOL    HW211106   3.509   6.466   6.400
 3403SOL     OW11107   4.206   6.743   4.868
 3403SOL    HW111108   4.109   6.743   4.892
 3403SOL    HW211109   4.243   6.835   4.880
 3404SOL     OW11110   5.084   1.440   0.196
 3404SOL    HW111111   4.990   1.411   0.210
 3404SOL    HW211112   5.111   1.419   0.102
 3405SOL     OW11113   6.923   3.673   4.170
 3405SOL    HW111114   6.919   3.766   4.208
 3405SOL    HW211115   6.993   3.670   4.098
 3406SOL     OW11116   0.757   4.066   2.323
 3406SOL    HW111117   0.825   3.992   2.330
 3406SOL    HW211118   0.726   4.073   2.228
 3407SOL     OW11119   1.477   5.361   6.930
 3407SOL    HW111120   1.496   5.401   7.020
 3407SOL    HW211121   1.498   5.427   6.858
 3408SOL     OW11122   4.790   3.677   5.440
 3408SOL    HW111123   4.745   3.606   5.386
 3408SOL    HW211124   4.849   3.732   5.380
 3409SOL     OW11125   3.292   6.130   6.559
 3409SOL    HW111126   3.235   6.211   6.544
 3409SOL    HW211127   3.332   6.133   6.651
 3410SOL     OW11128   0.023   6.171   6.783
 3410SOL    HW111129   0.069   6.255   6.811
 3410SOL    HW211130   0.024   6.106   6.859
 3411SOL     OW11131   0.471   2.884   1.518
 3411SOL    HW111132   0.560   2.925   1.536
 3411SOL    HW211133   0.434   2.846   1.602
 3412SOL     OW11134   3.954   2.742   6.757
 3412SOL    HW111135   3.918   2.672   6.695
 3412SOL    HW211136   3.898   2.746   6.839
 3413SOL     OW11137   5.709   1.239   1.077
 3413SOL    HW111138   5.671   1.330   1.064
 3413SOL    HW211139   5.674   1.200   1.162
 3414SOL     OW11140   1.837   0.705   6.208
 3414SOL    HW111141   1.755   0.660   6.174
 3414SOL    HW211142   1.823   0.804   6.208
 3415SOL     OW11143   1.803   3.788   4.813
 3415SOL    HW111144   1.775   3.853   4.743
 3415SOL    HW211145   1.811   3.697   4.773
 3416SOL     OW11146   0.134   5.614   0.835
 3416SOL    HW111147   0.205   5.625   0.766
 3416SOL    HW211148   0.122   5.701   0.884
 3417SOL     OW11149   0.683   6.032   3.206
 3417SOL    HW111150   0.663   6.107   3.270
 3417SOL    HW211151   0.711   5.951   3.258
 3418SOL     OW11152   3.659   0.920   4.511
 3418SOL    HW111153   3.624   0.999   4.561
 3418SOL    HW211154   3.664   0.841   4.572
 3419SOL     OW11155   4.451   5.698   4.994
 3419SOL    HW111156   4.480   5.792   5.011
 3419SOL    HW211157   4.357   5.698   4.959
 3420SOL     OW11158   5.373   2.875   3.926
 3420SOL    HW111159   5.423   2.790   3.909
 3420SOL    HW211160   5.299   2.859   3.990
 3421SOL     OW11161   5.749   0.761   6.001
 3421SOL    HW111162   5.687   0.789   6.074
 3421SOL    HW211163   5.735   0.819   5.921
 3422SOL     OW11164   1.731   0.236   1.048
 3422SOL    HW111165   1.681   0.172   1.106
 3422SOL    HW211166   1.744   0.322   1.097
 3423SOL     OW11167   1.923   5.452   6.763
 3423SOL    HW111168   1.899   5.514   6.689
 3423SOL    HW211169   1.845   5.393   6.785
 3424SOL     OW11170   2.596   6.719   2.170
 3424SOL    HW111171   2.609   6.753   2.077
 3424SOL    HW211172   2.499   6.714   2.191
 3425SOL     OW11173   5.059   4.775   2.458
 3425SOL    HW111174   5.111   4.724   2.526
 3425SOL    HW211175   5.065   4.730   2.369
 3426SOL     OW11176   3.690   2.682   0.611
 3426SOL    HW111177   3.688   2.774   0.652
 3426SOL    HW211178   3.753   2.682   0.534
 3427SOL     OW11179   6.609   0.122   0.215
 3427SOL    HW111180   6.703   0.116   0.250
 3427SOL    HW211181   6.545   0.125   0.292
 3428SOL     OW11182   3.062   4.741   0.841
 3428SOL    HW111183   3.013   4.724   0.756
 3428SOL    HW211184   3.160   4.726   0.827
 3429SOL     OW11185   0.418   2.198   0.417
 3429SOL    HW111186   0.511   2.234   0.411
 3429SOL    HW211187   0.414   2.108   0.374
 3430SOL     OW11188   0.292   6.253   5.217
 3430SOL    HW111189   0.211   6.202   5.244
 3430SOL    HW211190   0.265   6.336   5.169
 3431SOL     OW11191   1.299   6.989   1.393
 3431SOL    HW111192   1.232   7.014   1.324
 3431SOL    HW211193   1.362   0.043   1.408
 3432SOL     OW11194   1.829   2.640   0.135
 3432SOL    HW111195   1.744   2.626   0.085
 3432SOL    HW211196   1.896   2.572   0.106
 3433SOL     OW11197   1.138   0.259   6.413
 3433SOL    HW111198   1.056   0.206   6.396
 3433SOL    HW211199   1.211   0.230   6.350
 3434SOL     OW11200   4.611   1.780   0.546
 3434SOL    HW111201   4.526   1.729   0.562
 3434SOL    HW211202   4.611   1.817   0.453
 3435SOL     OW11203   0.936   1.594   1.109
 3435SOL    HW111204   0.842   1.571   1.082
 3435SOL    HW211205   0.999   1.567   1.036
 3436SOL     OW11206   3.512   5.739   6.368
 3436SOL    HW111207   3.475   5.825   6.404
 3436SOL    HW211208   3.478   5.724   6.275
 3437SOL     OW11209   1.868   1.517   6.029
 3437SOL    HW111210   1.958   1.483   6.053
 3437SOL    HW211211   1.851   1.603   6.077
 3438SOL     OW11212   1.254   2.794   0.360
 3438SOL    HW111213   1.196   2.810   0.440
 3438SOL    HW211214   1.212   2.836   0.280
 3439SOL     OW11215   2.075   6.281   5.048
 3439SOL    HW111216   2.171   6.259   5.066
 3439SOL    HW211217   2.069   6.344   4.971
 3440SOL     OW11218   3.784   3.382   1.715
 3440SOL    HW111219   3.810   3.417   1.805
 3440SOL    HW211220   3.690   3.407   1.696
 3441SOL     OW11221   5.448   0.028   4.294
 3441SOL    HW111222   5.546   0.023   4.274
 3441SOL    HW211223   5.396   7.003   4.224
 3442SOL     OW11224   3.324   5.643   2.026
 3442SOL    HW111225   3.403   5.704   2.024
 3442SOL    HW211226   3.241   5.695   2.047
 3443SOL     OW11227   5.354   6.446   2.102
 3443SOL    HW111228   5.439   6.451   2.153
 3443SOL    HW211229   5.279   6.421   2.163
 3444SOL     OW11230   5.387   5.662   0.347
 3444SOL    HW111231   5.434   5.734   0.398
 3444SOL    HW211232   5.292   5.687   0.332
 3445SOL     OW11233   6.206   5.812   4.565
 3445SOL    HW111234   6.119   5.858   4.580
 3445SOL    HW211235   6.262   5.820   4.648
 3446SOL     OW11236   6.313   0.232   2.595
 3446SOL    HW111237   6.379   0.308   2.587
 3446SOL    HW211238   6.239   0.246   2.530
 3447SOL     OW11239   5.428   5.595   0.961
 3447SOL    HW111240   5.375   5.657   1.018
 3447SOL    HW211241   5.456   5.642   0.877
 3448SOL     OW11242   3.044   0.137   0.886
 3448SOL    HW111243   3.005   0.070   0.824
 3448SOL    HW211244   3.105   0.091   0.951
 3449SOL     OW11245   6.651   6.689   4.137
 3449SOL    HW111246   6.644   6.599   4.095
 3449SOL    HW211247   6.744   6.724   4.124
 3450SOL     OW11248   6.798   1.890   6.652
 3450SOL    HW111249   6.817   1.985   6.627
 3450SOL    HW211250   6.871   1.856   6.711
 3451SOL     OW11251   2.010   6.260   1.896
 3451SOL    HW111252   2.068   6.248   1.815
 3451SOL    HW211253   1.919   6.225   1.878
 3452SOL     OW11254   5.929   1.270   6.169
 3452SOL    HW111255   5.984   1.201   6.122
 3452SOL    HW211256   5.866   1.312   6.103
 3453SOL     OW11257   6.924   5.823   5.661
 3453SOL    HW111258   6.908   5.735   5.615
 3453SOL    HW211259   6.969   5.807   5.749
 3454SOL     OW11260   1.264   1.938   6.662
 3454SOL    HW111261   1.320   1.860   6.690
 3454SOL    HW211262   1.251   1.999   6.741
 3455SOL     OW11263   2.384   2.277   4.499
 3455SOL    HW111264   2.454   2.328   4.548
 3455SOL    HW211265   2.372   2.187   4.541
 3456SOL     OW11266   5.889   5.438   2.675
 3456SOL    HW111267   5.865   5.341   2.662
 3456SOL    HW211268   5.947   5.446   2.757
 3457SOL     OW11269   3.233   5.904   3.459
 3457SOL    HW111270   3.251   5.870   3.367
 3457SOL    HW211271   3.162   5.849   3.502
 3458SOL     OW11272   4.851   0.549   1.084
 3458SOL    HW111273   4.753   0.536   1.071
 3458SOL    HW211274   4.901   0.471   1.047
 3459SOL     OW11275   5.849   4.179   2.836
 3459SOL    HW111276   5.923   4.188   2.770
 3459SOL    HW211277   5.802   4.092   2.822
 3460SOL     OW11278   2.542   3.267   0.147
 3460SOL    HW111279   2.619   3.291   0.206
 3460SOL    HW211280   2.476   3.342   0.145
 3461SOL     OW11281   4.907   6.832   5.084
 3461SOL    HW111282   4.952   6.858   4.998
 3461SOL    HW211283   4.843   6.904   5.110
 3462SOL     OW11284   0.591   3.642   2.134
 3462SOL    HW111285   0.605   3.555   2.180
 3462SOL    HW211286   0.558   3.626   2.041
 3463SOL     OW11287   1.140   3.755   3.275
 3463SOL    HW111288   1.099   3.808   3.350
 3463SOL    HW211289   1.126   3.804   3.189
 3464SOL     OW11290   6.768   3.188   6.912
 3464SOL    HW111291   6.752   3.096   6.947
 3464SOL    HW211292   6.700   3.210   6.843
 3465SOL     OW11293   1.451   2.420   2.217
 3465SOL    HW111294   1.449   2.389   2.122
 3465SOL    HW211295   1.546   2.429   2.247
 3466SOL     OW11296   6.860   4.782   6.928
 3466SOL    HW111297   6.938   4.741   6.975
 3466SOL    HW211298   6.841   4.873   6.966
 3467SOL     OW11299   2.014   2.563   0.832
 3467SOL    HW111300   2.032   2.567   0.930
 3467SOL    HW211301   1.930   2.613   0.812
 3468SOL     OW11302   5.864   0.322   2.685
 3468SOL    HW111303   5.927   0.291   2.614
 3468SOL    HW211304   5.770   0.298   2.659
 3469SOL     OW11305   4.759   6.826   3.559
 3469SOL    HW111306   4.715   6.763   3.622
 3469SOL    HW211307   4.825   6.882   3.609
 3470SOL     OW11308   6.551   2.621   1.873
 3470SOL    HW111309   6.463   2.656   1.841
 3470SOL    HW211310   6.557   2.522   1.856
 3471SOL     OW11311   4.831   4.824   4.438
 3471SOL    HW111312   4.733   4.816   4.456
 3471SOL    HW211313   4.854   4.772   4.356
 3472SOL     OW11314   3.011   1.340   3.143
 3472SOL    HW111315   2.953   1.264   3.171
 3472SOL    HW211316   2.987   1.368   3.050
 3473SOL     OW11317   0.066   3.013   1.567
 3473SOL    HW111318   0.142   3.076   1.549
 3473SOL    HW211319   7.020   3.021   1.495
 3474SOL     OW11320   1.058   4.753   2.698
 3474SOL    HW111321   1.046   4.654   2.704
 3474SOL    HW211322   0.991   4.791   2.633
 3475SOL     OW11323   1.120   4.454   4.494
 3475SOL    HW111324   1.199   4.429   4.551
 3475SOL    HW211325   1.152   4.496   4.410
 3476SOL     OW11326   1.835   1.541   2.721
 3476SOL    HW111327   1.928   1.569   2.696
 3476SOL    HW211328   1.823   1.548   2.820
 3477SOL     OW11329   1.701   5.489   0.689
 3477SOL    HW111330   1.780   5.429   0.677
 3477SOL    HW211331   1.618   5.442   0.661
 3478SOL     OW11332   2.508   5.381   5.162
 3478SOL    HW111333   2.451   5.314   5.114
 3478SOL    HW211334   2.550   5.337   5.242
 3479SOL     OW11335   0.812   0.952   3.377
 3479SOL    HW111336   0.900   0.946   3.329
 3479SOL    HW211337   0.739   0.971   3.312
 3480SOL     OW11338   0.541   6.151   4.771
 3480SOL    HW111339   0.620   6.144   4.710
 3480SOL    HW211340   0.485   6.229   4.744
 3481SOL     OW11341   4.589   0.833   0.070
 3481SOL    HW111342   4.529   0.754   0.058
 3481SOL    HW211343   4.657   0.812   0.141
 3482SOL     OW11344   6.441   1.611   1.897
 3482SOL    HW111345   6.408   1.705   1.898
 3482SOL    HW211346   6.381   1.554   1.954
 3483SOL     OW11347   4.758   2.195   1.777
 3483SOL    HW111348   4.683   2.172   1.716
 3483SOL    HW211349   4.732   2.174   1.871
 3484SOL     OW11350   1.169   3.357   0.132
 3484SOL    HW111351   1.158   3.393   0.040
 3484SOL    HW211352   1.229   3.278   0.131
 3485SOL     OW11353   2.061   1.577   3.978
 3485SOL    HW111354   2.053   1.637   3.898
 3485SOL    HW211355   1.974   1.576   4.027
 3486SOL     OW11356   2.802   0.295   3.782
 3486SOL    HW111357   2.713   0.338   3.765
 3486SOL    HW211358   2.860   0.358   3.833
 3487SOL     OW11359   6.162   2.378   5.986
 3487SOL    HW111360   6.241   2.392   5.926
 3487SOL    HW211361   6.078   2.376   5.931
 3488SOL     OW11362   6.576   0.495   4.854
 3488SOL    HW111363   6.583   0.530   4.761
 3488SOL    HW211364   6.480   0.471   4.873
 3489SOL     OW11365   4.095   6.907   1.465
 3489SOL    HW111366   4.147   6.949   1.391
 3489SOL    HW211367   4.144   6.919   1.552
 3490SOL     OW11368   4.292   4.489   0.714
 3490SOL    HW111369   4.208   4.525   0.755
 3490SOL    HW211370   4.273   4.400   0.672
 3491SOL     OW11371   4.378   2.462   5.810
 3491SOL    HW111372   4.451   2.395   5.799
 3491SOL    HW211373   4.369   2.516   5.726
 3492SOL     OW11374   6.651   4.627   1.584
 3492SOL    HW111375   6.692   4.705   1.536
 3492SOL    HW211376   6.720   4.583   1.641
 3493SOL     OW11377   5.205   3.906   5.230
 3493SOL    HW111378   5.159   3.818   5.220
 3493SOL    HW211379   5.175   3.968   5.158
 3494SOL     OW11380   3.515   0.496   1.898
 3494SOL    HW111381   3.528   0.440   1.979
 3494SOL    HW211382   3.559   0.585   1.911
 3495SOL     OW11383   5.515   4.999   1.413
 3495SOL    HW111384   5.437   4.956   1.367
 3495SOL    HW211385   5.569   4.929   1.459
 3496SOL     OW11386   6.006   4.631   1.018
 3496SOL    HW111387   6.036   4.677   1.101
 3496SOL    HW211388   6.077   4.567   0.988
 3497SOL     OW11389   2.634   1.228   4.088
 3497SOL    HW111390   2.593   1.200   4.175
 3497SOL    HW211391   2.577   1.196   4.013
 3498SOL     OW11392   3.084   2.201   1.086
 3498SOL    HW111393   3.018   2.275   1.101
 3498SOL    HW211394   3.141   2.190   1.168
 3499SOL     OW11395   5.076   3.773   3.868
 3499SOL    HW111396   5.090   3.674   3.871
 3499SOL    HW211397   5.127   3.816   3.942
 3500SOL     OW11398   1.893   3.722   5.070
 3500SOL    HW111399   1.877   3.771   4.984
 3500SOL    HW211400   1.930   3.786   5.138
 3501SOL     OW11401   1.581   5.815   4.889
 3501SOL    HW111402   1.556   5.912   4.895
 3501SOL    HW211403   1.666   5.806   4.836
 3502SOL     OW11404   6.518   2.604   2.488
 3502SOL    HW111405   6.547   2.658   2.567
 3502SOL    HW211406   6.465   2.662   2.426
 3503SOL     OW11407   6.245   6.604   5.116
 3503SOL    HW111408   6.229   6.510   5.084
 3503SOL    HW211409   6.171   6.663   5.083
 3504SOL     OW11410   2.503   1.651   1.579
 3504SOL    HW111411   2.533   1.556   1.582
 3504SOL    HW211412   2.490   1.686   1.672
 3505SOL     OW11413   5.837   4.025   5.252
 3505SOL    HW111414   5.777   4.024   5.172
 3505SOL    HW211415   5.783   4.010   5.335
 3506SOL     OW11416   5.274   5.445   5.657
 3506SOL    HW111417   5.223   5.428   5.573
 3506SOL    HW211418   5.213   5.432   5.736
 3507SOL     OW11419   1.999   0.633   0.972
 3507SOL    HW111420   1.903   0.656   0.990
 3507SOL    HW211421   2.055   0.715   0.982
 3508SOL     OW11422   2.704   1.999   5.352
 3508SOL    HW111423   2.638   2.037   5.417
 3508SOL    HW211424   2.673   2.017   5.259
 3509SOL     OW11425   5.443   6.940   6.123
 3509SOL    HW111426   5.497   7.021   6.146
 3509SOL    HW211427   5.467   6.865   6.185
 3510SOL     OW11428   1.404   1.902   2.376
 3510SOL    HW111429   1.378   1.928   2.469
 3510SOL    HW211430   1.358   1.963   2.311
 3511SOL     OW11431   2.644   5.251   0.734
 3511SOL    HW111432   2.726   5.196   0.718
 3511SOL    HW211433   2.669   5.348   0.738
 3512SOL     OW11434   6.934   4.408   0.838
 3512SOL    HW111435   6.908   4.339   0.906
 3512SOL    HW211436   0.011   4.415   0.835
 3513SOL     OW11437   5.442   2.528   0.338
 3513SOL    HW111438   5.433   2.494   0.432
 3513SOL    HW211439   5.510   2.472   0.289
 3514SOL     OW11440   0.263   1.463   1.798
 3514SOL    HW111441   0.219   1.530   1.739
 3514SOL    HW211442   0.251   1.371   1.761
 3515SOL     OW11443   5.267   5.935   3.295
 3515SOL    HW111444   5.254   5.852   3.241
 3515SOL    HW211445   5.278   6.014   3.235
 3516SOL     OW11446   4.914   6.935   0.654
 3516SOL    HW111447   4.897   6.979   0.743
 3516SOL    HW211448   4.885   6.840   0.658
 3517SOL     OW11449   1.541   2.529   0.659
 3517SOL    HW111450   1.515   2.566   0.748
 3517SOL    HW211451   1.617   2.582   0.622
 3518SOL     OW11452   5.952   2.178   3.910
 3518SOL    HW111453   5.942   2.258   3.851
 3518SOL    HW211454   5.958   2.207   4.005
 3519SOL     OW11455   1.656   0.827   6.607
 3519SOL    HW111456   1.633   0.854   6.700
 3519SOL    HW211457   1.755   0.830   6.595
 3520SOL     OW11458   3.207   4.607   6.641
 3520SOL    HW111459   3.302   4.627   6.666
 3520SOL    HW211460   3.178   4.671   6.570
 3521SOL     OW11461   4.966   2.103   6.853
 3521SOL    HW111462   5.065   2.100   6.868
 3521SOL    HW211463   4.921   2.131   6.937
 3522SOL     OW11464   0.515   4.839   1.725
 3522SOL    HW111465   0.593   4.808   1.780
 3522SOL    HW211466   0.450   4.887   1.784
 3523SOL     OW11467   1.992   5.272   5.856
 3523SOL    HW111468   1.948   5.342   5.800
 3523SOL    HW211469   1.952   5.183   5.838
 3524SOL     OW11470   4.632   1.576   1.971
 3524SOL    HW111471   4.651   1.658   1.917
 3524SOL    HW211472   4.717   1.526   1.986
 3525SOL     OW11473   1.408   4.186   3.260
 3525SOL    HW111474   1.439   4.093   3.278
 3525SOL    HW211475   1.394   4.234   3.346
 3526SOL     OW11476   2.536   6.842   4.044
 3526SOL    HW111477   2.512   6.799   4.131
 3526SOL    HW211478   2.508   6.784   3.969
 3527SOL     OW11479   6.017   3.204   6.410
 3527SOL    HW111480   6.007   3.246   6.320
 3527SOL    HW211481   6.077   3.261   6.467
 3528SOL     OW11482   0.937   5.774   5.107
 3528SOL    HW111483   0.857   5.826   5.079
 3528SOL    HW211484   0.955   5.701   5.041
 3529SOL     OW11485   3.887   0.550   0.104
 3529SOL    HW111486   3.871   0.510   0.194
 3529SOL    HW211487   3.975   0.520   0.069
 3530SOL     OW11488   0.287   5.289   2.506
 3530SOL    HW111489   0.299   5.383   2.539
 3530SOL    HW211490   0.256   5.291   2.411
 3531SOL     OW11491   5.124   2.916   0.661
 3531SOL    HW111492   5.081   2.999   0.694
 3531SOL    HW211493   5.110   2.907   0.562
 3532SOL     OW11494   2.852   0.829   1.443
 3532SOL    HW111495   2.830   0.784   1.356
 3532SOL    HW211496   2.910   0.769   1.498
 3533SOL     OW11497   1.878   2.030   2.599
 3533SOL    HW111498   1.963   1.983   2.624
 3533SOL    HW211499   1.804   1.964   2.593
 3534SOL     OW11500   5.888   0.971   6.262
 3534SOL    HW111501   5.906   0.969   6.360
 3534SOL    HW211502   5.794   0.940   6.245
 3535SOL     OW11503   1.633   5.976   0.972
 3535SOL    HW111504   1.732   5.968   0.958
 3535SOL    HW211505   1.585   5.908   0.918
 3536SOL     OW11506   2.843   2.292   3.089
 3536SOL    HW111507   2.758   2.345   3.098
 3536SOL    HW211508   2.839   2.211   3.147
 3537SOL     OW11509   2.955   5.466   1.666
 3537SOL    HW111510   2.991   5.382   1.626
 3537SOL    HW211511   2.960   5.461   1.766
 3538SOL     OW11512   1.382   0.451   6.433
 3538SOL    HW111513   1.283   0.460   6.448
 3538SOL    HW211514   1.421   0.541   6.418
 3539SOL     OW11515   5.679   3.334   5.913
 3539SOL    HW111516   5.639   3.323   6.004
 3539SOL    HW211517   5.711   3.428   5.902
 3540SOL     OW11518   2.779   2.347   5.806
 3540SOL    HW111519   2.779   2.249   5.826
 3540SOL    HW211520   2.742   2.398   5.884
 3541SOL     OW11521   1.580   2.476   6.800
 3541SOL    HW111522   1.580   2.575   6.784
 3541SOL    HW211523   1.665   2.437   6.764
 3542SOL     OW11524   1.433   4.903   2.564
 3542SOL    HW111525   1.423   4.803   2.563
 3542SOL    HW211526   1.360   4.943   2.619
 3543SOL     OW11527   0.465   2.299   4.912
 3543SOL    HW111528   0.398   2.273   4.982
 3543SOL    HW211529   0.417   2.326   4.829
 3544SOL     OW11530   2.822   4.203   6.283
 3544SOL    HW111531   2.800   4.189   6.186
 3544SOL    HW211532   2.891   4.274   6.291
 3545SOL     OW11533   4.049   5.008   0.584
 3545SOL    HW111534   4.111   4.929   0.579
 3545SOL    HW211535   4.099   5.087   0.619
 3546SOL     OW11536   0.909   3.987   4.060
 3546SOL    HW111537   0.954   4.052   4.123
 3546SOL    HW211538   0.970   3.969   3.983
 3547SOL     OW11539   6.814   4.685   4.720
 3547SOL    HW111540   6.784   4.644   4.634
 3547SOL    HW211541   6.897   4.640   4.752
 3548SOL     OW11542   5.788   0.521   5.793
 3548SOL    HW111543   5.760   0.555   5.883
 3548SOL    HW211544   5.875   0.564   5.767
 3549SOL     OW11545   6.624   4.482   5.998
 3549SOL    HW111546   6.663   4.439   6.079
 3549SOL    HW211547   6.696   4.531   5.948
 3550SOL     OW11548   5.917   3.529   3.263
 3550SOL    HW111549   5.842   3.581   3.303
 3550SOL    HW211550   5.988   3.513   3.332
 3551SOL     OW11551   3.758   2.034   2.430
 3551SOL    HW111552   3.786   2.110   2.488
 3551SOL    HW211553   3.692   2.067   2.361
 3552SOL     OW11554   6.139   6.251   1.838
 3552SOL    HW111555   6.150   6.318   1.765
 3552SOL    HW211556   6.150   6.297   1.927
 3553SOL     OW11557   4.448   5.351   1.108
 3553SOL    HW111558   4.424   5.383   1.016
 3553SOL    HW211559   4.505   5.420   1.153
 3554SOL     OW11560   4.522   2.174   1.580
 3554SOL    HW111561   4.512   2.076   1.568
 3554SOL    HW211562   4.447   2.221   1.533
 3555SOL     OW11563   0.750   4.489   3.455
 3555SOL    HW111564   0.680   4.534   3.400
 3555SOL    HW211565   0.712   4.405   3.495
 3556SOL     OW11566   4.235   1.475   4.279
 3556SOL    HW111567   4.228   1.434   4.189
 3556SOL    HW211568   4.331   1.498   4.298
 3557SOL     OW11569   1.449   1.681   4.450
 3557SOL    HW111570   1.512   1.648   4.521
 3557SOL    HW211571   1.493   1.674   4.360
 3558SOL     OW11572   0.807   6.518   2.643
 3558SOL    HW111573   0.861   6.519   2.560
 3558SOL    HW211574   0.716   6.481   2.624
 3559SOL     OW11575   0.746   6.225   5.595
 3559SOL    HW111576   0.691   6.253   5.674
 3559SOL    HW211577   0.816   6.161   5.625
 3560SOL     OW11578   1.293   5.988   2.658
 3560SOL    HW111579   1.306   5.975   2.560
 3560SOL    HW211580   1.206   5.947   2.686
 3561SOL     OW11581   4.324   4.742   4.821
 3561SOL    HW111582   4.238   4.784   4.850
 3561SOL    HW211583   4.333   4.652   4.864
 3562SOL     OW11584   4.666   1.352   3.365
 3562SOL    HW111585   4.692   1.311   3.277
 3562SOL    HW211586   4.566   1.355   3.372
 3563SOL     OW11587   5.775   1.125   7.005
 3563SOL    HW111588   5.684   1.093   0.011
 3563SOL    HW211589   5.827   1.154   0.062
 3564SOL     OW11590   1.838   4.394   3.599
 3564SOL    HW111591   1.782   4.318   3.631
 3564SOL    HW211592   1.926   4.393   3.646
 3565SOL     OW11593   2.548   5.882   4.845
 3565SOL    HW111594   2.574   5.803   4.901
 3565SOL    HW211595   2.629   5.917   4.798
 3566SOL     OW11596   6.808   3.771   5.935
 3566SOL    HW111597   6.897   3.790   5.977
 3566SOL    HW211598   6.768   3.689   5.977
 3567SOL     OW11599   0.302   2.870   0.108
 3567SOL    HW111600   0.214   2.901   0.074
 3567SOL    HW211601   0.305   2.881   0.207
 3568SOL     OW11602   4.542   5.174   4.043
 3568SOL    HW111603   4.500   5.085   4.062
 3568SOL    HW211604   4.495   5.218   3.966
 3569SOL     OW11605   1.734   1.659   5.685
 3569SOL    HW111606   1.676   1.578   5.687
 3569SOL    HW211607   1.770   1.672   5.592
 3570SOL     OW11608   5.376   1.120   5.244
 3570SOL    HW111609   5.456   1.179   5.244
 3570SOL    HW211610   5.331   1.125   5.155
 3571SOL     OW11611   1.008   5.509   4.950
 3571SOL    HW111612   1.068   5.465   5.016
 3571SOL    HW211613   0.963   5.440   4.894
 3572SOL     OW11614   5.841   3.289   3.149
 3572SOL    HW111615   5.911   3.284   3.078
 3572SOL    HW211616   5.852   3.375   3.199
 3573SOL     OW11617   6.995   5.032   3.647
 3573SOL    HW111618   6.910   5.083   3.665
 3573SOL    HW211619   0.003   5.052   3.554
 3574SOL     OW11620   0.521   2.996   0.497
 3574SOL    HW111621   0.578   2.916   0.477
 3574SOL    HW211622   0.569   3.056   0.561
 3575SOL     OW11623   5.722   5.614   2.568
 3575SOL    HW111624   5.663   5.596   2.489
 3575SOL    HW211625   5.778   5.533   2.586
 3576SOL     OW11626   0.706   2.658   6.517
 3576SOL    HW111627   0.750   2.723   6.579
 3576SOL    HW211628   0.633   2.704   6.468
 3577SOL     OW11629   1.542   1.975   6.924
 3577SOL    HW111630   1.468   1.926   6.971
 3577SOL    HW211631   1.519   2.072   6.919
 3578SOL     OW11632   3.667   1.641   0.166
 3578SOL    HW111633   3.597   1.645   0.094
 3578SOL    HW211634   3.751   1.686   0.134
 3579SOL     OW11635   0.003   2.265   3.153
 3579SOL    HW111636   6.986   2.344   3.199
 3579SOL    HW211637   0.034   2.292   3.062
 3580SOL     OW11638   6.253   3.378   1.280
 3580SOL    HW111639   6.209   3.434   1.210
 3580SOL    HW211640   6.185   3.318   1.323
 3581SOL     OW11641   1.486   4.991   3.337
 3581SOL    HW111642   1.438   5.076   3.318
 3581SOL    HW211643   1.430   4.913   3.309
 3582SOL     OW11644   1.178   3.390   6.607
 3582SOL    HW111645   1.121   3.455   6.558
 3582SOL    HW211646   1.228   3.334   6.542
 3583SOL     OW11647   1.195   4.762   6.579
 3583SOL    HW111648   1.154   4.851   6.600
 3583SOL    HW211649   1.221   4.717   6.664
 3584SOL     OW11650   5.917   4.623   6.096
 3584SOL    HW111651   5.891   4.543   6.040
 3584SOL    HW211652   5.844   4.690   6.093
 3585SOL     OW11653   3.098   1.416   4.396
 3585SOL    HW111654   3.162   1.463   4.335
 3585SOL    HW211655   3.010   1.405   4.350
 3586SOL     OW11656   6.368   1.428   4.396
 3586SOL    HW111657   6.431   1.468   4.462
 3586SOL    HW211658   6.391   1.459   4.304
 3587SOL     OW11659   2.228   4.649   5.706
 3587SOL    HW111660   2.327   4.639   5.706
 3587SOL    HW211661   2.203   4.740   5.738
 3588SOL     OW11662   0.783   3.030   4.959
 3588SOL    HW111663   0.836   3.068   5.035
 3588SOL    HW211664   0.808   2.935   4.945
 3589SOL     OW11665   5.334   1.001   5.720
 3589SOL    HW111666   5.407   0.955   5.670
 3589SOL    HW211667   5.349   1.100   5.717
 3590SOL     OW11668   0.840   3.469   0.681
 3590SOL    HW111669   0.746   3.468   0.716
 3590SOL    HW211670   0.841   3.435   0.587
 3591SOL     OW11671   5.283   4.219   6.767
 3591SOL    HW111672   5.351   4.155   6.732
 3591SOL    HW211673   5.328   4.305   6.791
 3592SOL     OW11674   0.481   5.699   1.939
 3592SOL    HW111675   0.552   5.701   2.009
 3592SOL    HW211676   0.522   5.714   1.849
 3593SOL     OW11677   1.144   5.418   5.231
 3593SOL    HW111678   1.083   5.390   5.306
 3593SOL    HW211679   1.210   5.486   5.265
 3594SOL     OW11680   4.693   6.663   3.099
 3594SOL    HW111681   4.666   6.726   3.172
 3594SOL    HW211682   4.776   6.697   3.055
 3595SOL     OW11683   4.172   6.219   6.116
 3595SOL    HW111684   4.223   6.171   6.187
 3595SOL    HW211685   4.096   6.160   6.085
 3596SOL     OW11686   6.253   3.316   2.536
 3596SOL    HW111687   6.279   3.230   2.492
 3596SOL    HW211688   6.154   3.326   2.533
 3597SOL     OW11689   2.266   2.019   5.634
 3597SOL    HW111690   2.198   2.082   5.597
 3597SOL    HW211691   2.269   2.027   5.733
 3598SOL     OW11692   1.049   6.004   6.197
 3598SOL    HW111693   0.962   6.019   6.149
 3598SOL    HW211694   1.110   6.081   6.180
 3599SOL     OW11695   5.369   2.187   6.583
 3599SOL    HW111696   5.407   2.113   6.638
 3599SOL    HW211697   5.283   2.158   6.541
 3600SOL     OW11698   0.556   3.223   1.655
 3600SOL    HW111699   0.626   3.287   1.623
 3600SOL    HW211700   0.581   3.130   1.628
 3601SOL     OW11701   4.952   3.270   6.246
 3601SOL    HW111702   4.954   3.311   6.154
 3601SOL    HW211703   4.858   3.269   6.280
 3602SOL     OW11704   0.974   3.665   0.864
 3602SOL    HW111705   0.890   3.612   0.876
 3602SOL    HW211706   1.053   3.611   0.894
 3603SOL     OW11707   3.756   1.485   4.210
 3603SOL    HW111708   3.837   1.529   4.169
 3603SOL    HW211709   3.678   1.547   4.202
 3604SOL     OW11710   6.778   6.118   3.365
 3604SOL    HW111711   6.736   6.171   3.292
 3604SOL    HW211712   6.796   6.025   3.333
 3605SOL     OW11713   6.780   4.022   3.915
 3605SOL    HW111714   6.713   3.987   3.980
 3605SOL    HW211715   6.832   3.946   3.876
 3606SOL     OW11716   0.652   0.346   4.144
 3606SOL    HW111717   0.572   0.404   4.129
 3606SOL    HW211718   0.671   0.340   4.242
 3607SOL     OW11719   5.371   5.256   1.760
 3607SOL    HW111720   5.470   5.255   1.772
 3607SOL    HW211721   5.326   5.223   1.843
 3608SOL     OW11722   4.552   2.245   4.513
 3608SOL    HW111723   4.526   2.148   4.511
 3608SOL    HW211724   4.652   2.252   4.513
 3609SOL     OW11725   1.190   0.461   4.099
 3609SOL    HW111726   1.244   0.378   4.085
 3609SOL    HW211727   1.246   0.541   4.079
 3610SOL     OW11728   1.509   0.076   5.902
 3610SOL    HW111729   1.548   0.052   5.814
 3610SOL    HW211730   1.545   0.015   5.973
 3611SOL     OW11731   4.848   4.562   4.770
 3611SOL    HW111732   4.751   4.550   4.748
 3611SOL    HW211733   4.901   4.569   4.686
 3612SOL     OW11734   0.104   0.186   0.075
 3612SOL    HW111735   0.188   0.232   0.104
 3612SOL    HW211736   0.039   0.253   0.039
 3613SOL     OW11737   4.788   4.768   2.223
 3613SOL    HW111738   4.803   4.682   2.271
 3613SOL    HW211739   4.692   4.777   2.198
 3614SOL     OW11740   3.640   3.485   0.836
 3614SOL    HW111741   3.614   3.516   0.927
 3614SOL    HW211742   3.691   3.557   0.790
 3615SOL     OW11743   4.878   3.709   5.882
 3615SOL    HW111744   4.974   3.708   5.910
 3615SOL    HW211745   4.822   3.739   5.959
 3616SOL     OW11746   0.155   1.527   6.750
 3616SOL    HW111747   0.147   1.459   6.678
 3616SOL    HW211748   0.073   1.584   6.752
 3617SOL     OW11749   4.533   1.068   6.590
 3617SOL    HW111750   4.468   1.139   6.619
 3617SOL    HW211751   4.531   0.993   6.657
 3618SOL     OW11752   2.361   2.998   5.420
 3618SOL    HW111753   2.436   2.991   5.354
 3618SOL    HW211754   2.286   3.049   5.380
 3619SOL     OW11755   5.903   2.590   4.928
 3619SOL    HW111756   5.965   2.526   4.884
 3619SOL    HW211757   5.913   2.681   4.887
 3620SOL     OW11758   6.328   5.666   5.467
 3620SOL    HW111759   6.293   5.688   5.558
 3620SOL    HW211760   6.392   5.589   5.475
 3621SOL     OW11761   3.472   2.845   5.509
 3621SOL    HW111762   3.466   2.914   5.581
 3621SOL    HW211763   3.408   2.771   5.528
 3622SOL     OW11764   0.915   1.750   6.923
 3622SOL    HW111765   0.995   1.702   6.889
 3622SOL    HW211766   0.904   1.837   6.875
 3623SOL     OW11767   6.720   6.212   4.595
 3623SOL    HW111768   6.671   6.172   4.517
 3623SOL    HW211769   6.747   6.306   4.572
 3624SOL     OW11770   1.494   0.061   2.317
 3624SOL    HW111771   1.461   0.120   2.242
 3624SOL    HW211772   1.417   0.008   2.353
 3625SOL     OW11773   0.459   3.326   6.656
 3625SOL    HW111774   0.387   3.274   6.610
 3625SOL    HW211775   0.435   3.423   6.655
 3626SOL     OW11776   1.142   2.836   5.428
 3626SOL    HW111777   1.175   2.862   5.520
 3626SOL    HW211778   1.056   2.883   5.410
 3627SOL     OW11779   3.751   3.492   1.378
 3627SOL    HW111780   3.766   3.503   1.280
 3627SOL    HW211781   3.829   3.530   1.428
 3628SOL     OW11782   0.916   1.410   2.447
 3628SOL    HW111783   1.008   1.410   2.407
 3628SOL    HW211784   0.851   1.375   2.379
 3629SOL     OW11785   0.569   1.175   5.415
 3629SOL    HW111786   0.625   1.216   5.343
 3629SOL    HW211787   0.509   1.244   5.455
 3630SOL     OW11788   5.182   2.156   4.163
 3630SOL    HW111789   5.172   2.067   4.207
 3630SOL    HW211790   5.101   2.211   4.183
 3631SOL     OW11791   2.030   0.932   2.931
 3631SOL    HW111792   2.077   0.960   2.847
 3631SOL    HW211793   1.935   0.908   2.909
 3632SOL     OW11794   5.317   5.345   0.945
 3632SOL    HW111795   5.220   5.331   0.929
 3632SOL    HW211796   5.335   5.443   0.957
 3633SOL     OW11797   4.270   2.053   5.869
 3633SOL    HW111798   4.325   2.129   5.902
 3633SOL    HW211799   4.244   1.995   5.946
 3634SOL     OW11800   1.847   5.453   5.723
 3634SOL    HW111801   1.870   5.549   5.742
 3634SOL    HW211802   1.785   5.419   5.793
 3635SOL     OW11803   3.333   0.043   1.024
 3635SOL    HW111804   3.299   0.024   1.116
 3635SOL    HW211805   3.426   0.080   1.030
 3636SOL     OW11806   6.638   5.928   0.900
 3636SOL    HW111807   6.588   5.841   0.899
 3636SOL    HW211808   6.736   5.910   0.906
 3637SOL     OW11809   0.223   2.526   2.092
 3637SOL    HW111810   0.210   2.624   2.106
 3637SOL    HW211811   0.229   2.480   2.181
 3638SOL     OW11812   0.340   3.956   2.814
 3638SOL    HW111813   0.306   3.865   2.788
 3638SOL    HW211814   0.382   3.950   2.905
 3639SOL     OW11815   4.168   5.521   0.393
 3639SOL    HW111816   4.077   5.483   0.408
 3639SOL    HW211817   4.160   5.614   0.356
 3640SOL     OW11818   4.438   1.204   6.988
 3640SOL    HW111819   4.534   1.214   6.966
 3640SOL    HW211820   4.427   1.203   0.065
 3641SOL     OW11821   5.938   3.566   2.014
 3641SOL    HW111822   5.885   3.596   1.935
 3641SOL    HW211823   5.908   3.618   2.095
 3642SOL     OW11824   5.338   2.182   0.107
 3642SOL    HW111825   5.332   2.134   0.020
 3642SOL    HW211826   5.277   2.262   0.106
 3643SOL     OW11827   2.334   5.930   4.654
 3643SOL    HW111828   2.247   5.941   4.703
 3643SOL    HW211829   2.409   5.934   4.719
 3644SOL     OW11830   1.886   1.534   1.989
 3644SOL    HW111831   1.934   1.452   1.958
 3644SOL    HW211832   1.898   1.607   1.922
 3645SOL     OW11833   1.654   2.236   3.833
 3645SOL    HW111834   1.554   2.232   3.831
 3645SOL    HW211835   1.684   2.328   3.807
 3646SOL     OW11836   1.409   4.166   6.014
 3646SOL    HW111837   1.409   4.099   5.941
 3646SOL    HW211838   1.496   4.162   6.063
 3647SOL     OW11839   2.395   6.402   6.790
 3647SOL    HW111840   2.461   6.407   6.715
 3647SOL    HW211841   2.411   6.479   6.852
 3648SOL     OW11842   4.391   6.272   2.637
 3648SOL    HW111843   4.367   6.186   2.682
 3648SOL    HW211844   4.339   6.346   2.679
 3649SOL     OW11845   5.767   2.930   1.253
 3649SOL    HW111846   5.751   2.840   1.293
 3649SOL    HW211847   5.856   2.931   1.207
 3650SOL     OW11848   6.414   5.136   1.758
 3650SOL    HW111849   6.380   5.210   1.700
 3650SOL    HW211850   6.359   5.131   1.842
 3651SOL     OW11851   0.930   0.785   3.868
 3651SOL    HW111852   1.012   0.807   3.814
 3651SOL    HW211853   0.935   0.831   3.956
 3652SOL     OW11854   6.140   6.960   3.395
 3652SOL    HW111855   6.164   6.904   3.475
 3652SOL    HW211856   6.212   0.004   3.379
 3653SOL     OW11857   1.272   1.536   3.197
 3653SOL    HW111858   1.207   1.542   3.121
 3653SOL    HW211859   1.345   1.602   3.185
 3654SOL     OW11860   3.783   4.806   0.346
 3654SOL    HW111861   3.694   4.830   0.307
 3654SOL    HW211862   3.797   4.707   0.338
 3655SOL     OW11863   3.194   0.570   3.730
 3655SOL    HW111864   3.177   0.472   3.726
 3655SOL    HW211865   3.176   0.610   3.640
 3656SOL     OW11866   0.511   4.934   1.117
 3656SOL    HW111867   0.506   4.933   1.217
 3656SOL    HW211868   0.504   4.841   1.082
 3657SOL     OW11869   5.021   5.232   5.266
 3657SOL    HW111870   5.076   5.149   5.253
 3657SOL    HW211871   4.972   5.225   5.353
 3658SOL     OW11872   3.100   4.723   6.427
 3658SOL    HW111873   3.072   4.722   6.331
 3658SOL    HW211874   3.019   4.730   6.485
 3659SOL     OW11875   1.829   2.539   5.973
 3659SOL    HW111876   1.794   2.528   6.066
 3659SOL    HW211877   1.812   2.632   5.941
 3660SOL     OW11878   5.915   6.352   4.330
 3660SOL    HW111879   5.838   6.319   4.386
 3660SOL    HW211880   5.934   6.286   4.258
 3661SOL     OW11881   0.176   0.558   4.755
 3661SOL    HW111882   0.247   0.563   4.684
 3661SOL    HW211883   0.194   0.482   4.816
 3662SOL     OW11884   4.257   0.439   4.525
 3662SOL    HW111885   4.339   0.439   4.582
 3662SOL    HW211886   4.279   0.477   4.435
 3663SOL     OW11887   1.632   3.166   0.561
 3663SOL    HW111888   1.562   3.140   0.494
 3663SOL    HW211889   1.627   3.105   0.640
 3664SOL     OW11890   4.630   2.165   2.046
 3664SOL    HW111891   4.533   2.148   2.031
 3664SOL    HW211892   4.643   2.261   2.074
 3665SOL     OW11893   1.171   6.111   4.861
 3665SOL    HW111894   1.193   6.027   4.909
 3665SOL    HW211895   1.072   6.125   4.862
 3666SOL     OW11896   1.005   4.201   3.008
 3666SOL    HW111897   1.104   4.190   3.003
 3666SOL    HW211898   0.983   4.279   3.066
 3667SOL     OW11899   0.224   1.496   3.722
 3667SOL    HW111900   0.156   1.458   3.784
 3667SOL    HW211901   0.188   1.494   3.628
 3668SOL     OW11902   1.330   0.937   1.363
 3668SOL    HW111903   1.316   0.921   1.461
 3668SOL    HW211904   1.342   0.849   1.317
 3669SOL     OW11905   6.045   1.866   3.525
 3669SOL    HW111906   6.103   1.795   3.486
 3669SOL    HW211907   6.024   1.843   3.620
 3670SOL     OW11908   2.372   5.129   6.429
 3670SOL    HW111909   2.403   5.221   6.450
 3670SOL    HW211910   2.291   5.135   6.370
 3671SOL     OW11911   0.177   1.850   4.286
 3671SOL    HW111912   0.205   1.896   4.202
 3671SOL    HW211913   0.259   1.814   4.332
 3672SOL     OW11914   4.626   1.938   2.576
 3672SOL    HW111915   4.551   1.949   2.642
 3672SOL    HW211916   4.636   1.841   2.554
 3673SOL     OW11917   3.855   5.853   7.003
 3673SOL    HW111918   3.814   5.908   0.053
 3673SOL    HW211919   3.782   5.810   6.948
 3674SOL     OW11920   2.051   5.953   5.861
 3674SOL    HW111921   2.072   6.036   5.810
 3674SOL    HW211922   2.134   5.898   5.871
 3675SOL     OW11923   1.707   2.599   4.138
 3675SOL    HW111924   1.642   2.657   4.187
 3675SOL    HW211925   1.775   2.563   4.202
 3676SOL     OW11926   6.023   4.245   2.589
 3676SOL    HW111927   5.987   4.154   2.568
 3676SOL    HW211928   6.122   4.242   2.595
 3677SOL     OW11929   2.855   6.767   4.489
 3677SOL    HW111930   2.846   6.723   4.399
 3677SOL    HW211931   2.817   6.706   4.559
 3678SOL     OW11932   1.520   1.537   4.799
 3678SOL    HW111933   1.537   1.502   4.707
 3678SOL    HW211934   1.582   1.493   4.863
 3679SOL     OW11935   0.054   0.626   3.266
 3679SOL    HW111936   7.014   0.548   3.263
 3679SOL    HW211937   0.119   0.613   3.340
 3680SOL     OW11938   5.213   2.350   3.907
 3680SOL    HW111939   5.191   2.333   4.003
 3680SOL    HW211940   5.297   2.403   3.901
 3681SOL     OW11941   0.982   1.353   6.839
 3681SOL    HW111942   0.899   1.297   6.837
 3681SOL    HW211943   1.005   1.374   6.934
 3682SOL     OW11944   5.561   2.366   0.160
 3682SOL    HW111945   5.630   2.361   0.087
 3682SOL    HW211946   5.479   2.317   0.132
 3683SOL     OW11947   0.603   1.513   4.217
 3683SOL    HW111948   0.607   1.613   4.209
 3683SOL    HW211949   0.638   1.472   4.133
 3684SOL     OW11950   0.981   5.643   0.435
 3684SOL    HW111951   1.013   5.605   0.521
 3684SOL    HW211952   0.970   5.569   0.368
 3685SOL     OW11953   2.276   5.796   5.837
 3685SOL    HW111954   2.326   5.713   5.865
 3685SOL    HW211955   2.259   5.793   5.739
 3686SOL     OW11956   6.260   4.939   4.521
 3686SOL    HW111957   6.207   4.886   4.587
 3686SOL    HW211958   6.334   4.883   4.484
 3687SOL     OW11959   4.254   6.159   4.462
 3687SOL    HW111960   4.220   6.146   4.555
 3687SOL    HW211961   4.354   6.151   4.462
 3688SOL     OW11962   6.811   2.926   6.975
 3688SOL    HW111963   6.804   2.894   0.046
 3688SOL    HW211964   6.721   2.928   6.933
 3689SOL     OW11965   2.107   0.779   6.086
 3689SOL    HW111966   2.105   0.809   5.990
 3689SOL    HW211967   2.021   0.732   6.108
 3690SOL     OW11968   3.856   5.763   0.289
 3690SOL    HW111969   3.929   5.793   0.227
 3690SOL    HW211970   3.809   5.684   0.248
 3691SOL     OW11971   2.560   1.721   0.339
 3691SOL    HW111972   2.640   1.729   0.398
 3691SOL    HW211973   2.541   1.810   0.296
 3692SOL     OW11974   6.465   5.230   5.394
 3692SOL    HW111975   6.405   5.156   5.423
 3692SOL    HW211976   6.524   5.199   5.320
 3693SOL     OW11977   2.477   2.468   3.334
 3693SOL    HW111978   2.470   2.561   3.369
 3693SOL    HW211979   2.498   2.405   3.409
 3694SOL     OW11980   1.541   6.693   2.389
 3694SOL    HW111981   1.606   6.717   2.316
 3694SOL    HW211982   1.488   6.613   2.360
 3695SOL     OW11983   5.144   2.432   1.167
 3695SOL    HW111984   5.068   2.371   1.147
 3695SOL    HW211985   5.113   2.507   1.226
 3696SOL     OW11986   4.247   0.294   4.221
 3696SOL    HW111987   4.343   0.289   4.249
 3696SOL    HW211988   4.189   0.272   4.299
 3697SOL     OW11989   0.162   5.925   2.895
 3697SOL    HW111990   0.169   5.885   2.986
 3697SOL    HW211991   0.240   5.896   2.840
 3698SOL     OW11992   2.352   0.842   3.294
 3698SOL    HW111993   2.303   0.886   3.219
 3698SOL    HW211994   2.328   0.887   3.380
 3699SOL     OW11995   2.063   1.065   3.452
 3699SOL    HW111996   1.981   1.045   3.398
 3699SOL    HW211997   2.085   1.163   3.444
 3700SOL     OW11998   1.706   4.697   5.128
 3700SOL    HW111999   1.609   4.695   5.102
 3700SOL    HW212000   1.762   4.693   5.045
 3701SOL     OW12001   1.710   0.360   3.444
 3701SOL    HW112002   1.714   0.459   3.454
 3701SOL    HW212003   1.679   0.336   3.353
 3702SOL     OW12004   5.579   6.393   3.422
 3702SOL    HW112005   5.672   6.369   3.396
 3702SOL    HW212006   5.580   6.476   3.478
 3703SOL     OW12007   0.283   0.427   6.493
 3703SOL    HW112008   0.325   0.337   6.478
 3703SOL    HW212009   0.278   0.445   6.591
 3704SOL     OW12010   4.011   2.214   1.345
 3704SOL    HW112011   3.970   2.305   1.350
 3704SOL    HW212012   3.955   2.149   1.397
 3705SOL     OW12013   5.658   4.085   4.741
 3705SOL    HW112014   5.618   4.167   4.701
 3705SOL    HW212015   5.755   4.080   4.717
 3706SOL     OW12016   0.518   3.776   6.810
 3706SOL    HW112017   0.593   3.713   6.787
 3706SOL    HW212018   0.498   3.769   6.907
 3707SOL     OW12019   5.256   5.639   4.749
 3707SOL    HW112020   5.295   5.607   4.835
 3707SOL    HW212021   5.258   5.738   4.746
 3708SOL     OW12022   5.416   6.897   0.926
 3708SOL    HW112023   5.414   6.817   0.986
 3708SOL    HW212024   5.361   6.879   0.844
 3709SOL     OW12025   3.590   6.913   1.424
 3709SOL    HW112026   3.639   6.943   1.507
 3709SOL    HW212027   3.653   6.912   1.347
 3710SOL     OW12028   6.565   5.374   5.034
 3710SOL    HW112029   6.610   5.315   5.100
 3710SOL    HW212030   6.623   5.454   5.016
 3711SOL     OW12031   1.564   5.613   5.191
 3711SOL    HW112032   1.526   5.547   5.256
 3711SOL    HW212033   1.547   5.706   5.224
 3712SOL     OW12034   1.326   5.355   6.630
 3712SOL    HW112035   1.287   5.376   6.541
 3712SOL    HW212036   1.362   5.262   6.630
 3713SOL     OW12037   0.307   0.275   5.314
 3713SOL    HW112038   0.345   0.236   5.398
 3713SOL    HW212039   0.379   0.319   5.262
 3714SOL     OW12040   5.620   5.853   6.425
 3714SOL    HW112041   5.633   5.948   6.395
 3714SOL    HW212042   5.676   5.836   6.506
 3715SOL     OW12043   1.336   4.219   2.276
 3715SOL    HW112044   1.351   4.210   2.375
 3715SOL    HW212045   1.239   4.232   2.258
 3716SOL     OW12046   6.037   6.110   4.578
 3716SOL    HW112047   6.076   6.161   4.501
 3716SOL    HW212048   6.083   6.137   4.663
 3717SOL     OW12049   5.746   0.330   0.167
 3717SOL    HW112050   5.732   0.405   0.231
 3717SOL    HW212051   5.703   0.247   0.202
 3718SOL     OW12052   0.091   0.326   0.350
 3718SOL    HW112053   0.157   0.392   0.386
 3718SOL    HW212054   0.026   0.374   0.291
 3719SOL     OW12055   4.620   2.838   0.398
 3719SOL    HW112056   4.558   2.779   0.346
 3719SOL    HW212057   4.701   2.857   0.343
 3720SOL     OW12058   5.264   3.129   0.529
 3720SOL    HW112059   5.180   3.107   0.479
 3720SOL    HW212060   5.262   3.084   0.618
 3721SOL     OW12061   6.932   5.031   1.072
 3721SOL    HW112062   0.006   5.026   1.099
 3721SOL    HW212063   6.926   5.071   0.980
 3722SOL     OW12064   5.566   6.229   0.888
 3722SOL    HW112065   5.578   6.307   0.827
 3722SOL    HW212066   5.654   6.202   0.926
 3723SOL     OW12067   4.407   5.011   0.514
 3723SOL    HW112068   4.423   5.047   0.606
 3723SOL    HW212069   4.404   5.086   0.448
 3724SOL     OW12070   1.592   4.427   5.496
 3724SOL    HW112071   1.678   4.392   5.532
 3724SOL    HW212072   1.609   4.498   5.428
 3725SOL     OW12073   0.199   5.601   6.617
 3725SOL    HW112074   0.264   5.638   6.550
 3725SOL    HW212075   0.113   5.652   6.612
 3726SOL     OW12076   5.533   3.266   6.126
 3726SOL    HW112077   5.471   3.231   6.055
 3726SOL    HW212078   5.560   3.190   6.186
 3727SOL     OW12079   7.002   2.381   5.559
 3727SOL    HW112080   6.999   2.302   5.497
 3727SOL    HW212081   6.971   2.463   5.510
 3728SOL     OW12082   1.373   3.094   6.881
 3728SOL    HW112083   1.465   3.068   6.852
 3728SOL    HW212084   1.341   3.170   6.825
 3729SOL     OW12085   1.838   1.563   4.125
 3729SOL    HW112086   1.787   1.477   4.128
 3729SOL    HW212087   1.779   1.638   4.154
 3730SOL     OW12088   3.555   6.146   5.415
 3730SOL    HW112089   3.632   6.185   5.364
 3730SOL    HW212090   3.590   6.099   5.496
 3731SOL     OW12091   0.145   1.329   0.807
 3731SOL    HW112092   0.199   1.245   0.804
 3731SOL    HW212093   0.059   1.316   0.758
 3732SOL     OW12094   2.245   1.865   0.356
 3732SOL    HW112095   2.240   1.917   0.441
 3732SOL    HW212096   2.341   1.853   0.329
 3733SOL     OW12097   2.054   2.758   3.122
 3733SOL    HW112098   2.109   2.706   3.187
 3733SOL    HW212099   2.113   2.814   3.064
 3734SOL     OW12100   4.934   0.050   0.930
 3734SOL    HW112101   5.023   0.083   0.899
 3734SOL    HW212102   4.913   0.088   1.020
 3735SOL     OW12103   3.203   0.689   2.676
 3735SOL    HW112104   3.301   0.675   2.663
 3735SOL    HW212105   3.179   0.784   2.654
 3736SOL     OW12106   0.487   1.316   1.064
 3736SOL    HW112107   0.582   1.332   1.088
 3736SOL    HW212108   0.457   1.384   0.996
 3737SOL     OW12109   5.750   1.150   3.628
 3737SOL    HW112110   5.841   1.178   3.598
 3737SOL    HW212111   5.721   1.070   3.576
 3738SOL     OW12112   6.163   0.516   1.369
 3738SOL    HW112113   6.202   0.601   1.334
 3738SOL    HW212114   6.121   0.533   1.458
 3739SOL     OW12115   2.449   4.656   1.304
 3739SOL    HW112116   2.475   4.571   1.260
 3739SOL    HW212117   2.531   4.704   1.335
 3740SOL     OW12118   6.539   6.747   0.344
 3740SOL    HW112119   6.480   6.760   0.424
 3740SOL    HW212120   6.635   6.757   0.371
 3741SOL     OW12121   5.012   2.692   6.308
 3741SOL    HW112122   4.981   2.759   6.376
 3741SOL    HW212123   5.033   2.605   6.353
 3742SOL     OW12124   3.734   0.862   0.289
 3742SOL    HW112125   3.743   0.952   0.246
 3742SOL    HW212126   3.821   0.838   0.332
 3743SOL     OW12127   5.494   3.208   0.392
 3743SOL    HW112128   5.395   3.194   0.398
 3743SOL    HW212129   5.512   3.302   0.362
 3744SOL     OW12130   1.184   6.134   1.404
 3744SOL    HW112131   1.125   6.174   1.333
 3744SOL    HW212132   1.280   6.148   1.379
 3745SOL     OW12133   4.629   4.289   3.118
 3745SOL    HW112134   4.583   4.360   3.064
 3745SOL    HW212135   4.656   4.214   3.058
 3746SOL     OW12136   6.976   0.022   3.591
 3746SOL    HW112137   0.009   0.030   3.509
 3746SOL    HW212138   0.002   0.062   3.669
 3747SOL     OW12139   4.531   5.817   5.299
 3747SOL    HW112140   4.436   5.795   5.325
 3747SOL    HW212141   4.530   5.878   5.220
 3748SOL     OW12142   5.468   1.255   1.670
 3748SOL    HW112143   5.429   1.316   1.740
 3748SOL    HW212144   5.415   1.263   1.586
 3749SOL     OW12145   2.718   4.790   2.858
 3749SOL    HW112146   2.732   4.848   2.938
 3749SOL    HW212147   2.638   4.822   2.807
 3750SOL     OW12148   6.447   4.665   0.990
 3750SOL    HW112149   6.519   4.734   1.003
 3750SOL    HW212150   6.383   4.670   1.067
 3751SOL     OW12151   6.723   3.372   0.964
 3751SOL    HW112152   6.803   3.409   1.011
 3751SOL    HW212153   6.641   3.389   1.019
 3752SOL     OW12154   0.320   6.724   6.994
 3752SOL    HW112155   0.399   6.708   0.030
 3752SOL    HW212156   0.287   6.817   7.006
 3753SOL     OW12157   0.223   1.179   4.005
 3753SOL    HW112158   0.191   1.125   3.927
 3753SOL    HW212159   0.283   1.252   3.972
 3754SOL     OW12160   4.149   6.599   1.271
 3754SOL    HW112161   4.126   6.562   1.181
 3754SOL    HW212162   4.068   6.643   1.311
 3755SOL     OW12163   5.656   5.836   4.443
 3755SOL    HW112164   5.603   5.882   4.372
 3755SOL    HW212165   5.705   5.758   4.404
 3756SOL     OW12166   2.482   6.505   6.048
 3756SOL    HW112167   2.557   6.445   6.077
 3756SOL    HW212168   2.515   6.567   5.976
 3757SOL     OW12169   3.746   6.592   6.672
 3757SOL    HW112170   3.711   6.519   6.612
 3757SOL    HW212171   3.846   6.591   6.669
 3758SOL     OW12172   1.883   1.422   4.759
 3758SOL    HW112173   1.849   1.501   4.708
 3758SOL    HW212174   1.938   1.365   4.698
 3759SOL     OW12175   4.370   5.685   5.965
 3759SOL    HW112176   4.359   5.735   6.051
 3759SOL    HW212177   4.287   5.694   5.910
 3760SOL     OW12178   1.916   2.259   4.514
 3760SOL    HW112179   1.991   2.325   4.510
 3760SOL    HW212180   1.837   2.302   4.558
 3761SOL     OW12181   0.815   0.686   5.497
 3761SOL    HW112182   0.766   0.713   5.580
 3761SOL    HW212183   0.750   0.669   5.423
 3762SOL     OW12184   0.965   4.843   0.163
 3762SOL    HW112185   0.953   4.938   0.135
 3762SOL    HW212186   0.920   4.783   0.096
 3763SOL     OW12187   6.933   4.275   0.397
 3763SOL    HW112188   6.946   4.187   0.444
 3763SOL    HW212189   6.989   4.345   0.440
 3764SOL     OW12190   2.021   6.882   3.943
 3764SOL    HW112191   1.926   6.881   3.912
 3764SOL    HW212192   2.044   6.974   3.976
 3765SOL     OW12193   4.732   1.146   1.044
 3765SOL    HW112194   4.633   1.157   1.052
 3765SOL    HW212195   4.768   1.107   1.129
 3766SOL     OW12196   1.069   1.475   3.654
 3766SOL    HW112197   1.156   1.433   3.680
 3766SOL    HW212198   1.080   1.526   3.569
 3767SOL     OW12199   2.110   4.802   0.297
 3767SOL    HW112200   2.200   4.761   0.282
 3767SOL    HW212201   2.089   4.865   0.222
 3768SOL     OW12202   1.891   5.594   4.896
 3768SOL    HW112203   1.861   5.654   4.970
 3768SOL    HW212204   1.847   5.621   4.810
 3769SOL     OW12205   6.090   5.882   5.553
 3769SOL    HW112206   6.053   5.928   5.634
 3769SOL    HW212207   6.018   5.827   5.511
 3770SOL     OW12208   1.829   0.175   6.550
 3770SOL    HW112209   1.824   0.265   6.507
 3770SOL    HW212210   1.922   0.159   6.584
 3771SOL     OW12211   6.103   2.905   6.883
 3771SOL    HW112212   6.139   2.817   6.854
 3771SOL    HW212213   6.089   2.964   6.803
 3772SOL     OW12214   6.981   0.730   0.427
 3772SOL    HW112215   6.882   0.746   0.429
 3772SOL    HW212216   7.015   0.717   0.520
 3773SOL     OW12217   6.551   2.668   6.425
 3773SOL    HW112218   6.551   2.581   6.375
 3773SOL    HW212219   6.643   2.687   6.458
 3774SOL     OW12220   0.078   6.115   0.033
 3774SOL    HW112221   0.165   6.162   0.047
 3774SOL    HW212222   0.036   6.095   0.121
 3775SOL     OW12223   5.003   5.115   1.969
 3775SOL    HW112224   5.090   5.142   2.008
 3775SOL    HW212225   4.957   5.196   1.931
 3776SOL     OW12226   3.991   1.619   1.295
 3776SOL    HW112227   3.908   1.674   1.294
 3776SOL    HW212228   3.978   1.537   1.240
 3777SOL     OW12229   3.399   5.010   4.755
 3777SOL    HW112230   3.320   4.975   4.705
 3777SOL    HW212231   3.400   5.110   4.751
 3778SOL     OW12232   3.378   4.858   2.594
 3778SOL    HW112233   3.401   4.766   2.625
 3778SOL    HW212234   3.283   4.878   2.617
 3779SOL     OW12235   2.106   5.152   0.865
 3779SOL    HW112236   2.197   5.111   0.861
 3779SOL    HW212237   2.060   5.124   0.949
 3780SOL     OW12238   4.985   5.893   5.851
 3780SOL    HW112239   4.944   5.873   5.762
 3780SOL    HW212240   5.034   5.812   5.884
 3781SOL     OW12241   1.405   0.284   4.125
 3781SOL    HW112242   1.435   0.291   4.030
 3781SOL    HW212243   1.453   0.352   4.181
 3782SOL     OW12244   2.819   0.912   4.209
 3782SOL    HW112245   2.872   0.985   4.166
 3782SOL    HW212246   2.776   0.947   4.292
 3783SOL     OW12247   5.489   5.612   4.185
 3783SOL    HW112248   5.395   5.635   4.160
 3783SOL    HW212249   5.547   5.620   4.104
 3784SOL     OW12250   4.767   2.885   2.544
 3784SOL    HW112251   4.846   2.945   2.531
 3784SOL    HW212252   4.755   2.828   2.463
 3785SOL     OW12253   1.166   1.643   6.887
 3785SOL    HW112254   1.227   1.706   6.936
 3785SOL    HW212255   1.221   1.575   6.838
 3786SOL     OW12256   2.402   6.849   3.261
 3786SOL    HW112257   2.401   6.835   3.360
 3786SOL    HW212258   2.357   6.772   3.217
 3787SOL     OW12259   5.973   0.064   2.409
 3787SOL    HW112260   5.882   0.031   2.434
 3787SOL    HW212261   6.042   0.013   2.460
 3788SOL     OW12262   1.053   4.196   4.197
 3788SOL    HW112263   1.125   4.181   4.265
 3788SOL    HW212264   1.011   4.285   4.212
 3789SOL     OW12265   0.037   3.349   5.262
 3789SOL    HW112266   7.023   3.315   5.175
 3789SOL    HW212267   0.077   3.440   5.248
 3790SOL     OW12268   1.642   4.641   5.734
 3790SOL    HW112269   1.572   4.651   5.663
 3790SOL    HW212270   1.599   4.648   5.824
 3791SOL     OW12271   6.316   0.226   0.384
 3791SOL    HW112272   6.228   0.222   0.433
 3791SOL    HW212273   6.326   0.316   0.341
 3792SOL     OW12274   0.946   1.134   4.532
 3792SOL    HW112275   0.943   1.130   4.432
 3792SOL    HW212276   0.872   1.193   4.566
 3793SOL     OW12277   4.397   6.969   2.635
 3793SOL    HW112278   4.455   6.920   2.700
 3793SOL    HW212279   4.341   6.903   2.586
 3794SOL     OW12280   2.336   4.445   1.003
 3794SOL    HW112281   2.428   4.445   0.964
 3794SOL    HW212282   2.282   4.372   0.961
 3795SOL     OW12283   3.582   5.840   6.087
 3795SOL    HW112284   3.484   5.830   6.108
 3795SOL    HW212285   3.615   5.927   6.124
 3796SOL     OW12286   2.595   1.697   0.715
 3796SOL    HW112287   2.663   1.640   0.669
 3796SOL    HW212288   2.512   1.643   0.733
 3797SOL     OW12289   0.138   4.377   2.639
 3797SOL    HW112290   0.067   4.323   2.684
 3797SOL    HW212291   0.099   4.428   2.563
 3798SOL     OW12292   3.790   6.008   2.908
 3798SOL    HW112293   3.756   6.087   2.959
 3798SOL    HW212294   3.836   5.946   2.972
 3799SOL     OW12295   0.651   2.252   4.155
 3799SOL    HW112296   0.710   2.266   4.075
 3799SOL    HW212297   0.606   2.338   4.178
 3800SOL     OW12298   5.831   3.164   4.565
 3800SOL    HW112299   5.774   3.245   4.580
 3800SOL    HW212300   5.776   3.082   4.575
 3801SOL     OW12301   5.948   6.416   3.059
 3801SOL    HW112302   6.028   6.457   3.015
 3801SOL    HW212303   5.977   6.355   3.132
 3802SOL     OW12304   1.109   2.555   2.850
 3802SOL    HW112305   1.062   2.519   2.930
 3802SOL    HW212306   1.161   2.482   2.806
 3803SOL     OW12307   3.763   2.056   1.084
 3803SOL    HW112308   3.763   1.981   1.018
 3803SOL    HW212309   3.847   2.053   1.138
 3804SOL     OW12310   5.424   1.519   3.491
 3804SOL    HW112311   5.496   1.577   3.455
 3804SOL    HW212312   5.463   1.452   3.555
 3805SOL     OW12313   3.052   3.346   2.101
 3805SOL    HW112314   3.065   3.272   2.036
 3805SOL    HW212315   2.978   3.406   2.070
 3806SOL     OW12316   3.457   4.025   6.563
 3806SOL    HW112317   3.377   3.967   6.579
 3806SOL    HW212318   3.435   4.097   6.497
 3807SOL     OW12319   2.186   6.587   3.592
 3807SOL    HW112320   2.281   6.564   3.614
 3807SOL    HW212321   2.158   6.535   3.511
 3808SOL     OW12322   4.822   6.817   0.973
 3808SOL    HW112323   4.785   6.785   1.061
 3808SOL    HW212324   4.886   6.893   0.990
 3809SOL     OW12325   5.585   2.667   0.639
 3809SOL    HW112326   5.502   2.709   0.676
 3809SOL    HW212327   5.568   2.569   0.624
 3810SOL     OW12328   4.690   2.481   4.968
 3810SOL    HW112329   4.595   2.460   4.948
 3810SOL    HW212330   4.703   2.580   4.969
 3811SOL     OW12331   1.123   4.296   3.856
 3811SOL    HW112332   1.150   4.392   3.861
 3811SOL    HW212333   1.126   4.256   3.947
 3812SOL     OW12334   5.235   6.869   5.671
 3812SOL    HW112335   5.156   6.930   5.665
 3812SOL    HW212336   5.299   6.890   5.597
 3813SOL     OW12337   4.567   4.019   0.284
 3813SOL    HW112338   4.549   4.064   0.371
 3813SOL    HW212339   4.642   4.066   0.237
 3814SOL     OW12340   0.125   6.877   0.495
 3814SOL    HW112341   0.183   6.806   0.536
 3814SOL    HW212342   0.092   6.845   0.406
 3815SOL     OW12343   4.419   2.735   0.242
 3815SOL    HW112344   4.397   2.700   0.333
 3815SOL    HW212345   4.460   2.662   0.188
 3816SOL     OW12346   0.363   6.118   0.042
 3816SOL    HW112347   0.377   6.094   0.138
 3816SOL    HW212348   0.436   6.079   7.009
 3817SOL     OW12349   5.239   3.800   3.321
 3817SOL    HW112350   5.214   3.706   3.299
 3817SOL    HW212351   5.338   3.812   3.313
 3818SOL     OW12352   5.438   0.168   6.983
 3818SOL    HW112353   5.342   0.195   6.974
 3818SOL    HW212354   5.482   0.226   0.029
 3819SOL     OW12355   5.081   5.536   1.275
 3819SOL    HW112356   5.085   5.445   1.235
 3819SOL    HW212357   4.989   5.552   1.311
 3820SOL     OW12358   6.599   6.823   2.956
 3820SOL    HW112359   6.536   6.752   2.989
 3820SOL    HW212360   6.550   6.884   2.894
 3821SOL     OW12361   2.784   2.055   0.862
 3821SOL    HW112362   2.714   2.022   0.798
 3821SOL    HW212363   2.806   1.983   0.928
 3822SOL     OW12364   1.607   6.224   2.965
 3822SOL    HW112365   1.571   6.239   3.057
 3822SOL    HW212366   1.620   6.311   2.918
 3823SOL     OW12367   3.030   2.915   5.953
 3823SOL    HW112368   3.079   2.830   5.973
 3823SOL    HW212369   3.063   2.952   5.866
 3824SOL     OW12370   5.662   2.055   7.021
 3824SOL    HW112371   5.756   2.041   6.989
 3824SOL    HW212372   5.624   2.137   6.978
 3825SOL     OW12373   0.220   6.516   0.485
 3825SOL    HW112374   0.280   6.504   0.406
 3825SOL    HW212375   0.271   6.496   0.569
 3826SOL     OW12376   0.507   3.297   0.062
 3826SOL    HW112377   0.422   3.258   0.027
 3826SOL    HW212378   0.514   3.279   0.160
 3827SOL     OW12379   2.840   2.744   1.171
 3827SOL    HW112380   2.937   2.760   1.187
 3827SOL    HW212381   2.786   2.804   1.230
 3828SOL     OW12382   3.690   2.097   1.711
 3828SOL    HW112383   3.694   2.161   1.789
 3828SOL    HW212384   3.694   2.149   1.626
 3829SOL     OW12385   2.082   4.154   4.692
 3829SOL    HW112386   2.077   4.109   4.781
 3829SOL    HW212387   1.993   4.195   4.671
 3830SOL     OW12388   0.661   0.054   4.674
 3830SOL    HW112389   0.708   0.085   4.591
 3830SOL    HW212390   0.564   0.041   4.654
 3831SOL     OW12391   4.909   1.494   2.453
 3831SOL    HW112392   4.826   1.503   2.397
 3831SOL    HW212393   4.901   1.553   2.534
 3832SOL     OW12394   5.851   0.648   2.255
 3832SOL    HW112395   5.816   0.632   2.347
 3832SOL    HW212396   5.898   0.566   2.223
 3833SOL     OW12397   0.524   5.677   6.152
 3833SOL    HW112398   0.592   5.693   6.080
 3833SOL    HW212399   0.457   5.610   6.120
 3834SOL     OW12400   3.603   2.803   1.209
 3834SOL    HW112401   3.543   2.883   1.208
 3834SOL    HW212402   3.579   2.744   1.286
 3835SOL     OW12403   2.950   5.635   5.034
 3835SOL    HW112404   2.962   5.579   5.117
 3835SOL    HW212405   2.928   5.575   4.957
 3836SOL     OW12406   1.434   4.037   5.730
 3836SOL    HW112407   1.506   4.004   5.668
 3836SOL    HW212408   1.363   3.967   5.738
 3837SOL     OW12409   4.701   3.875   0.054
 3837SOL    HW112410   4.728   3.789   0.097
 3837SOL    HW212411   4.643   3.926   0.117
 3838SOL     OW12412   6.975   3.364   4.086
 3838SOL    HW112413   6.972   3.426   4.008
 3838SOL    HW212414   6.949   3.414   4.169
 3839SOL     OW12415   3.988   0.786   4.316
 3839SOL    HW112416   3.921   0.744   4.377
 3839SOL    HW212417   3.957   0.878   4.290
 3840SOL     OW12418   2.058   1.293   5.179
 3840SOL    HW112419   2.062   1.330   5.086
 3840SOL    HW212420   2.030   1.365   5.242
 3841SOL     OW12421   0.165   3.108   5.354
 3841SOL    HW112422   0.158   3.203   5.327
 3841SOL    HW212423   0.211   3.102   5.443
 3842SOL     OW12424   0.736   3.975   6.688
 3842SOL    HW112425   0.718   4.042   6.616
 3842SOL    HW212426   0.660   3.976   6.754
 3843SOL     OW12427   6.433   4.512   1.881
 3843SOL    HW112428   6.465   4.500   1.787
 3843SOL    HW212429   6.354   4.452   1.897
 3844SOL     OW12430   0.034   3.582   6.308
 3844SOL    HW112431   0.108   3.543   6.363
 3844SOL    HW212432   7.019   3.662   6.355
 3845SOL     OW12433   3.824   2.968   2.998
 3845SOL    HW112434   3.780   2.938   3.083
 3845SOL    HW212435   3.896   3.034   3.020
 3846SOL     OW12436   0.567   4.654   4.010
 3846SOL    HW112437   0.657   4.611   4.008
 3846SOL    HW212438   0.521   4.632   4.096
 3847SOL     OW12439   5.869   0.961   5.179
 3847SOL    HW112440   5.837   1.056   5.180
 3847SOL    HW212441   5.910   0.940   5.090
 3848SOL     OW12442   3.289   5.468   2.471
 3848SOL    HW112443   3.237   5.399   2.521
 3848SOL    HW212444   3.378   5.431   2.444
 3849SOL     OW12445   1.024   1.658   5.171
 3849SOL    HW112446   0.995   1.574   5.126
 3849SOL    HW212447   1.120   1.649   5.199
 3850SOL     OW12448   2.731   3.301   1.308
 3850SOL    HW112449   2.807   3.313   1.372
 3850SOL    HW212450   2.647   3.339   1.347
 3851SOL     OW12451   1.255   4.443   3.017
 3851SOL    HW112452   1.261   4.344   3.005
 3851SOL    HW212453   1.264   4.488   2.928
 3852SOL     OW12454   5.047   6.831   4.443
 3852SOL    HW112455   5.125   6.893   4.451
 3852SOL    HW212456   5.078   6.743   4.407
 3853SOL     OW12457   1.666   3.012   2.596
 3853SOL    HW112458   1.627   2.950   2.664
 3853SOL    HW212459   1.757   3.042   2.625
 3854SOL     OW12460   1.466   3.613   2.821
 3854SOL    HW112461   1.504   3.575   2.906
 3854SOL    HW212462   1.397   3.550   2.785
 3855SOL     OW12463   4.435   5.982   6.652
 3855SOL    HW112464   4.531   5.970   6.627
 3855SOL    HW212465   4.388   5.894   6.645
 3856SOL     OW12466   0.016   6.071   5.539
 3856SOL    HW112467   6.958   6.130   5.540
 3856SOL    HW212468   7.014   5.980   5.570
 3857SOL     OW12469   0.985   5.613   5.991
 3857SOL    HW112470   1.059   5.680   5.993
 3857SOL    HW212471   0.949   5.607   5.898
 3858SOL     OW12472   1.621   6.065   5.578
 3858SOL    HW112473   1.638   6.134   5.508
 3858SOL    HW212474   1.691   6.072   5.649
 3859SOL     OW12475   6.557   2.328   3.007
 3859SOL    HW112476   6.533   2.314   2.911
 3859SOL    HW212477   6.602   2.416   3.019
 3860SOL     OW12478   1.096   0.367   5.616
 3860SOL    HW112479   1.175   0.344   5.558
 3860SOL    HW212480   1.020   0.307   5.592
 3861SOL     OW12481   5.118   4.291   1.803
 3861SOL    HW112482   5.020   4.295   1.786
 3861SOL    HW212483   5.149   4.380   1.839
 3862SOL     OW12484   0.531   6.620   4.838
 3862SOL    HW112485   0.567   6.623   4.931
 3862SOL    HW212486   0.456   6.687   4.830
 3863SOL     OW12487   3.657   3.940   6.256
 3863SOL    HW112488   3.753   3.913   6.257
 3863SOL    HW212489   3.604   3.876   6.312
 3864SOL     OW12490   3.817   1.716   5.194
 3864SOL    HW112491   3.824   1.786   5.265
 3864SOL    HW212492   3.890   1.731   5.126
 3865SOL     OW12493   4.027   0.506   1.639
 3865SOL    HW112494   4.052   0.531   1.732
 3865SOL    HW212495   3.942   0.453   1.641
 3866SOL     OW12496   4.220   0.885   1.001
 3866SOL    HW112497   4.285   0.948   1.044
 3866SOL    HW212498   4.181   0.928   0.919
 3867SOL     OW12499   1.545   3.259   3.811
 3867SOL    HW112500   1.496   3.270   3.898
 3867SOL    HW212501   1.480   3.261   3.736
 3868SOL     OW12502   2.248   6.476   1.694
 3868SOL    HW112503   2.337   6.447   1.660
 3868SOL    HW212504   2.186   6.397   1.697
 3869SOL     OW12505   6.877   3.211   4.759
 3869SOL    HW112506   6.777   3.205   4.758
 3869SOL    HW212507   6.906   3.294   4.713
 3870SOL     OW12508   4.601   4.748   0.487
 3870SOL    HW112509   4.569   4.841   0.506
 3870SOL    HW212510   4.605   4.733   0.388
 3871SOL     OW12511   3.466   0.863   2.376
 3871SOL    HW112512   3.457   0.763   2.373
 3871SOL    HW212513   3.405   0.899   2.446
 3872SOL     OW12514   3.240   2.969   2.095
 3872SOL    HW112515   3.323   3.021   2.075
 3872SOL    HW212516   3.244   2.935   2.189
 3873SOL     OW12517   6.101   5.378   1.150
 3873SOL    HW112518   6.041   5.303   1.123
 3873SOL    HW212519   6.175   5.343   1.208
 3874SOL     OW12520   3.902   6.141   6.986
 3874SOL    HW112521   3.967   6.122   0.037
 3874SOL    HW212522   3.860   6.055   6.956
 3875SOL     OW12523   1.201   3.172   2.443
 3875SOL    HW112524   1.217   3.101   2.512
 3875SOL    HW212525   1.146   3.135   2.369
 3876SOL     OW12526   5.900   5.696   6.253
 3876SOL    HW112527   5.831   5.628   6.228
 3876SOL    HW212528   5.868   5.787   6.225
 3877SOL     OW12529   6.490   1.663   0.293
 3877SOL    HW112530   6.538   1.640   0.377
 3877SOL    HW212531   6.523   1.751   0.258
 3878SOL     OW12532   2.545   6.526   5.667
 3878SOL    HW112533   2.542   6.581   5.751
 3878SOL    HW212534   2.455   6.484   5.652
 3879SOL     OW12535   4.029   6.371   1.586
 3879SOL    HW112536   3.982   6.338   1.504
 3879SOL    HW212537   4.113   6.418   1.560
 3880SOL     OW12538   5.854   4.267   3.250
 3880SOL    HW112539   5.847   4.222   3.338
 3880SOL    HW212540   5.762   4.292   3.218
 3881SOL     OW12541   1.336   5.086   0.786
 3881SOL    HW112542   1.414   5.132   0.830
 3881SOL    HW212543   1.367   5.043   0.701
 3882SOL     OW12544   6.369   1.200   4.796
 3882SOL    HW112545   6.308   1.189   4.875
 3882SOL    HW212546   6.459   1.163   4.818
 3883SOL     OW12547   4.530   1.160   4.003
 3883SOL    HW112548   4.436   1.154   3.969
 3883SOL    HW212549   4.588   1.202   3.934
 3884SOL     OW12550   1.129   5.876   4.521
 3884SOL    HW112551   1.114   5.799   4.582
 3884SOL    HW212552   1.227   5.896   4.515
 3885SOL     OW12553   6.498   1.074   4.517
 3885SOL    HW112554   6.552   1.149   4.557
 3885SOL    HW212555   6.438   1.111   4.446
 3886SOL     OW12556   6.371   0.213   5.601
 3886SOL    HW112557   6.345   0.275   5.675
 3886SOL    HW212558   6.288   0.169   5.564
 3887SOL     OW12559   5.479   2.194   5.628
 3887SOL    HW112560   5.451   2.289   5.620
 3887SOL    HW212561   5.421   2.147   5.695
 3888SOL     OW12562   0.264   0.467   5.999
 3888SOL    HW112563   0.299   0.549   6.043
 3888SOL    HW212564   0.164   0.468   6.002
 3889SOL     OW12565   6.984   4.221   6.844
 3889SOL    HW112566   6.976   4.136   6.791
 3889SOL    HW212567   6.894   4.264   6.851
 3890SOL     OW12568   6.581   6.535   3.246
 3890SOL    HW112569   6.656   6.589   3.284
 3890SOL    HW212570   6.538   6.585   3.171
 3891SOL     OW12571   5.669   4.382   4.865
 3891SOL    HW112572   5.577   4.377   4.905
 3891SOL    HW212573   5.663   4.363   4.767
 3892SOL     OW12574   1.091   0.150   2.289
 3892SOL    HW112575   1.133   0.203   2.363
 3892SOL    HW212576   1.093   0.053   2.313
 3893SOL     OW12577   3.571   5.761   2.599
 3893SOL    HW112578   3.641   5.720   2.657
 3893SOL    HW212579   3.584   5.860   2.596
 3894SOL     OW12580   3.485   2.412   1.156
 3894SOL    HW112581   3.456   2.504   1.130
 3894SOL    HW212582   3.419   2.345   1.120
 3895SOL     OW12583   0.830   1.059   5.528
 3895SOL    HW112584   0.854   1.142   5.578
 3895SOL    HW212585   0.738   1.069   5.489
 3896SOL     OW12586   0.797   2.687   6.204
 3896SOL    HW112587   0.883   2.644   6.231
 3896SOL    HW212588   0.730   2.616   6.182
 3897SOL     OW12589   2.962   6.698   2.361
 3897SOL    HW112590   2.962   6.653   2.450
 3897SOL    HW212591   2.896   6.653   2.301
 3898SOL     OW12592   3.223   3.015   3.281
 3898SOL    HW112593   3.204   3.013   3.183
 3898SOL    HW212594   3.140   3.037   3.332
 3899SOL     OW12595   4.918   1.313   5.042
 3899SOL    HW112596   4.932   1.233   5.100
 3899SOL    HW212597   4.965   1.392   5.082
 3900SOL     OW12598   5.692   2.850   3.462
 3900SOL    HW112599   5.641   2.870   3.546
 3900SOL    HW212600   5.661   2.763   3.424
 3901SOL     OW12601   1.816   6.112   5.811
 3901SOL    HW112602   1.754   6.125   5.888
 3901SOL    HW212603   1.892   6.053   5.838
 3902SOL     OW12604   4.659   4.260   2.734
 3902SOL    HW112605   4.614   4.182   2.777
 3902SOL    HW212606   4.725   4.227   2.667
 3903SOL     OW12607   4.169   3.986   6.627
 3903SOL    HW112608   4.211   4.060   6.574
 3903SOL    HW212609   4.070   3.997   6.626
 3904SOL     OW12610   0.876   6.853   6.936
 3904SOL    HW112611   0.949   6.830   7.000
 3904SOL    HW212612   0.904   6.827   6.843
 3905SOL     OW12613   6.172   6.600   6.452
 3905SOL    HW112614   6.262   6.644   6.454
 3905SOL    HW212615   6.134   6.599   6.545
 3906SOL     OW12616   1.806   4.517   4.729
 3906SOL    HW112617   1.839   4.585   4.794
 3906SOL    HW212618   1.786   4.561   4.641
 3907SOL     OW12619   0.608   1.000   4.852
 3907SOL    HW112620   0.699   0.966   4.878
 3907SOL    HW212621   0.538   0.939   4.889
 3908SOL     OW12622   0.812   0.446   5.970
 3908SOL    HW112623   0.870   0.381   5.921
 3908SOL    HW212624   0.716   0.428   5.948
 3909SOL     OW12625   5.115   3.748   5.987
 3909SOL    HW112626   5.198   3.798   5.960
 3909SOL    HW212627   5.142   3.665   6.036
 3910SOL     OW12628   3.744   4.126   1.965
 3910SOL    HW112629   3.843   4.114   1.952
 3910SOL    HW212630   3.725   4.137   2.062
 3911SOL     OW12631   5.473   0.399   0.716
 3911SOL    HW112632   5.452   0.302   0.702
 3911SOL    HW212633   5.405   0.439   0.777
 3912SOL     OW12634   3.103   1.149   5.747
 3912SOL    HW112635   3.180   1.086   5.761
 3912SOL    HW212636   3.108   1.188   5.655
 3913SOL     OW12637   3.637   5.800   6.857
 3913SOL    HW112638   3.582   5.879   6.832
 3913SOL    HW212639   3.580   5.731   6.901
 3914SOL     OW12640   5.515   1.863   1.528
 3914SOL    HW112641   5.564   1.950   1.529
 3914SOL    HW212642   5.417   1.880   1.525
 3915SOL     OW12643   3.223   6.789   0.147
 3915SOL    HW112644   3.130   6.820   0.166
 3915SOL    HW212645   3.241   6.704   0.198
 3916SOL     OW12646   3.144   6.873   3.149
 3916SOL    HW112647   3.217   6.932   3.112
 3916SOL    HW212648   3.145   6.880   3.249
 3917SOL     OW12649   2.720   5.490   0.297
 3917SOL    HW112650   2.757   5.576   0.332
 3917SOL    HW212651   2.784   5.451   0.230
 3918SOL     OW12652   4.596   1.140   0.489
 3918SOL    HW112653   4.649   1.104   0.413
 3918SOL    HW212654   4.592   1.240   0.482
 3919SOL     OW12655   3.984   1.215   0.995
 3919SOL    HW112656   4.055   1.186   0.930
 3919SOL    HW212657   3.923   1.138   1.013
 3920SOL     OW12658   2.361   1.282   6.853
 3920SOL    HW112659   2.271   1.320   6.875
 3920SOL    HW212660   2.406   1.253   6.937
 3921SOL     OW12661   6.566   2.873   6.846
 3921SOL    HW112662   6.501   2.923   6.904
 3921SOL    HW212663   6.524   2.856   6.757
 3922SOL     OW12664   4.671   5.143   1.929
 3922SOL    HW112665   4.689   5.045   1.936
 3922SOL    HW212666   4.574   5.157   1.910
 3923SOL     OW12667   5.968   1.253   0.949
 3923SOL    HW112668   5.889   1.230   1.005
 3923SOL    HW212669   5.977   1.187   0.875
 3924SOL     OW12670   0.151   4.423   3.020
 3924SOL    HW112671   0.235   4.427   2.966
 3924SOL    HW212672   0.138   4.330   3.054
 3925SOL     OW12673   4.715   4.375   0.720
 3925SOL    HW112674   4.651   4.315   0.671
 3925SOL    HW212675   4.807   4.362   0.685
 3926SOL     OW12676   1.001   0.265   5.880
 3926SOL    HW112677   1.012   0.247   5.782
 3926SOL    HW212678   1.088   0.248   5.926
 3927SOL     OW12679   0.908   3.438   3.780
 3927SOL    HW112680   0.944   3.471   3.868
 3927SOL    HW212681   0.935   3.502   3.708
 3928SOL     OW12682   3.137   6.767   2.885
 3928SOL    HW112683   3.052   6.799   2.844
 3928SOL    HW212684   3.132   6.777   2.984
 3929SOL     OW12685   6.875   1.679   0.003
 3929SOL    HW112686   6.926   1.713   6.947
 3929SOL    HW212687   6.783   1.720   0.004
 3930SOL     OW12688   1.076   1.915   3.974
 3930SOL    HW112689   1.168   1.929   4.012
 3930SOL    HW212690   1.084   1.896   3.876
 3931SOL     OW12691   1.659   1.869   1.905
 3931SOL    HW112692   1.747   1.830   1.930
 3931SOL    HW212693   1.647   1.957   1.953
 3932SOL     OW12694   2.295   5.884   3.869
 3932SOL    HW112695   2.363   5.813   3.888
 3932SOL    HW212696   2.231   5.852   3.799
 3933SOL     OW12697   1.105   5.528   0.649
 3933SOL    HW112698   1.168   5.605   0.650
 3933SOL    HW212699   1.156   5.443   0.631
 3934SOL     OW12700   0.112   2.216   2.894
 3934SOL    HW112701   0.067   2.126   2.894
 3934SOL    HW212702   0.211   2.203   2.900
 3935SOL     OW12703   6.100   2.640   6.804
 3935SOL    HW112704   6.187   2.635   6.756
 3935SOL    HW212705   6.092   2.563   6.867
 3936SOL     OW12706   6.824   5.829   4.995
 3936SOL    HW112707   6.767   5.817   4.914
 3936SOL    HW212708   6.815   5.750   5.055
 3937SOL     OW12709   0.318   5.541   2.593
 3937SOL    HW112710   0.331   5.625   2.540
 3937SOL    HW212711   0.378   5.541   2.672
 3938SOL     OW12712   6.919   3.540   4.869
 3938SOL    HW112713   6.890   3.635   4.870
 3938SOL    HW212714   6.935   3.511   4.774
 3939SOL     OW12715   1.282   1.129   2.508
 3939SOL    HW112716   1.301   1.176   2.422
 3939SOL    HW212717   1.225   1.187   2.567
 3940SOL     OW12718   3.046   4.784   1.932
 3940SOL    HW112719   3.033   4.861   1.995
 3940SOL    HW212720   3.010   4.701   1.973
 3941SOL     OW12721   6.146   0.006   4.774
 3941SOL    HW112722   6.192   6.940   4.780
 3941SOL    HW212723   6.149   0.040   4.680
 3942SOL     OW12724   1.481   6.108   5.938
 3942SOL    HW112725   1.505   6.025   5.988
 3942SOL    HW212726   1.547   6.180   5.960
 3943SOL     OW12727   1.108   3.746   1.851
 3943SOL    HW112728   1.184   3.810   1.857
 3943SOL    HW212729   1.138   3.662   1.806
 3944SOL     OW12730   5.427   3.111   6.369
 3944SOL    HW112731   5.356   3.179   6.389
 3944SOL    HW212732   5.444   3.056   6.450
 3945SOL     OW12733   0.877   2.225   3.155
 3945SOL    HW112734   0.905   2.260   3.065
 3945SOL    HW212735   0.889   2.126   3.157
 3946SOL     OW12736   6.776   3.547   0.411
 3946SOL    HW112737   6.718   3.497   0.476
 3946SOL    HW212738   6.871   3.517   0.421
 3947SOL     OW12739   5.903   5.765   0.021
 3947SOL    HW112740   5.839   5.838   0.001
 3947SOL    HW212741   5.979   5.801   0.076
 3948SOL     OW12742   1.853   3.330   6.972
 3948SOL    HW112743   1.760   3.368   6.971
 3948SOL    HW212744   1.915   3.397   7.012
 3949SOL     OW12745   6.557   6.704   2.638
 3949SOL    HW112746   6.631   6.756   2.595
 3949SOL    HW212747   6.494   6.768   2.684
 3950SOL     OW12748   4.209   4.124   1.714
 3950SOL    HW112749   4.220   4.047   1.652
 3950SOL    HW212750   4.299   4.153   1.748
 3951SOL     OW12751   0.477   2.640   6.060
 3951SOL    HW112752   0.560   2.595   6.029
 3951SOL    HW212753   0.397   2.593   6.021
 3952SOL     OW12754   5.799   2.519   4.342
 3952SOL    HW112755   5.838   2.533   4.433
 3952SOL    HW212756   5.731   2.589   4.324
 3953SOL     OW12757   3.077   4.265   6.039
 3953SOL    HW112758   3.110   4.345   6.090
 3953SOL    HW212759   2.984   4.282   6.008
 3954SOL     OW12760   6.584   3.916   5.615
 3954SOL    HW112761   6.578   3.968   5.700
 3954SOL    HW212762   6.568   3.977   5.537
 3955SOL     OW12763   4.994   6.406   0.336
 3955SOL    HW112764   4.948   6.336   0.280
 3955SOL    HW212765   4.957   6.496   0.315
 3956SOL     OW12766   0.775   2.769   5.704
 3956SOL    HW112767   0.758   2.724   5.792
 3956SOL    HW212768   0.736   2.714   5.631
 3957SOL     OW12769   3.097   0.051   4.094
 3957SOL    HW112770   3.089   6.977   4.069
 3957SOL    HW212771   3.193   0.073   4.111
 3958SOL     OW12772   6.331   6.511   0.319
 3958SOL    HW112773   6.361   6.597   0.279
 3958SOL    HW212774   6.410   6.452   0.336
 3959SOL     OW12775   2.988   5.344   0.810
 3959SOL    HW112776   3.036   5.336   0.897
 3959SOL    HW212777   2.913   5.410   0.819
 3960SOL     OW12778   4.319   2.523   6.677
 3960SOL    HW112779   4.336   2.572   6.592
 3960SOL    HW212780   4.386   2.551   6.746
 3961SOL     OW12781   5.262   2.408   2.253
 3961SOL    HW112782   5.173   2.445   2.279
 3961SOL    HW212783   5.253   2.312   2.228
 3962SOL     OW12784   0.703   5.761   0.124
 3962SOL    HW112785   0.609   5.778   0.093
 3962SOL    HW212786   0.716   5.663   0.140
 3963SOL     OW12787   5.504   5.422   3.259
 3963SOL    HW112788   5.410   5.388   3.251
 3963SOL    HW212789   5.516   5.503   3.202
 3964SOL     OW12790   4.822   5.965   5.089
 3964SOL    HW112791   4.873   6.051   5.086
 3964SOL    HW212792   4.861   5.901   5.022
 3965SOL     OW12793   3.545   4.907   6.847
 3965SOL    HW112794   3.529   4.977   6.777
 3965SOL    HW212795   3.526   4.817   6.809
 3966SOL     OW12796   6.568   4.257   6.467
 3966SOL    HW112797   6.657   4.221   6.496
 3966SOL    HW212798   6.551   4.344   6.512
 3967SOL     OW12799   0.625   5.229   3.761
 3967SOL    HW112800   0.566   5.149   3.752
 3967SOL    HW212801   0.578   5.310   3.726
 3968SOL     OW12802   5.318   0.392   2.894
 3968SOL    HW112803   5.403   0.392   2.947
 3968SOL    HW212804   5.240   0.391   2.956
 3969SOL     OW12805   1.428   4.985   2.950
 3969SOL    HW112806   1.491   4.908   2.941
 3969SOL    HW212807   1.335   4.950   2.965
 3970SOL     OW12808   4.699   4.915   4.155
 3970SOL    HW112809   4.646   4.950   4.078
 3970SOL    HW212810   4.660   4.948   4.241
 3971SOL     OW12811   3.190   5.462   3.018
 3971SOL    HW112812   3.281   5.449   3.059
 3971SOL    HW212813   3.133   5.517   3.079
 3972SOL     OW12814   0.293   6.310   0.891
 3972SOL    HW112815   0.372   6.254   0.916
 3972SOL    HW212816   0.246   6.341   0.974
 3973SOL     OW12817   3.004   3.218   5.162
 3973SOL    HW112818   3.051   3.250   5.080
 3973SOL    HW212819   3.021   3.120   5.175
 3974SOL     OW12820   0.123   1.490   6.188
 3974SOL    HW112821   0.077   1.469   6.275
 3974SOL    HW212822   0.055   1.516   6.120
 3975SOL     OW12823   6.720   0.404   5.818
 3975SOL    HW112824   6.629   0.444   5.809
 3975SOL    HW212825   6.774   0.457   5.884
 3976SOL     OW12826   0.489   4.316   1.205
 3976SOL    HW112827   0.403   4.345   1.164
 3976SOL    HW212828   0.501   4.218   1.193
 3977SOL     OW12829   2.697   6.090   5.545
 3977SOL    HW112830   2.598   6.094   5.551
 3977SOL    HW212831   2.728   6.141   5.465
 3978SOL     OW12832   5.811   1.616   5.895
 3978SOL    HW112833   5.724   1.639   5.851
 3978SOL    HW212834   5.883   1.612   5.825
 3979SOL     OW12835   2.194   0.101   1.450
 3979SOL    HW112836   2.249   0.061   1.376
 3979SOL    HW212837   2.223   0.195   1.466
 3980SOL     OW12838   5.721   3.422   4.617
 3980SOL    HW112839   5.629   3.383   4.625
 3980SOL    HW212840   5.754   3.448   4.708
 3981SOL     OW12841   6.850   2.167   6.457
 3981SOL    HW112842   6.915   2.104   6.415
 3981SOL    HW212843   6.896   2.254   6.477
 3982SOL     OW12844   2.353   0.952   4.995
 3982SOL    HW112845   2.282   0.952   5.065
 3982SOL    HW212846   2.406   1.036   5.000
 3983SOL     OW12847   3.732   6.716   4.688
 3983SOL    HW112848   3.808   6.780   4.674
 3983SOL    HW212849   3.726   6.691   4.784
 3984SOL     OW12850   1.778   6.882   1.890
 3984SOL    HW112851   1.708   6.904   1.822
 3984SOL    HW212852   1.760   6.932   1.974
 3985SOL     OW12853   1.786   4.265   6.778
 3985SOL    HW112854   1.738   4.226   6.857
 3985SOL    HW212855   1.748   4.225   6.694
 3986SOL     OW12856   0.346   1.970   2.105
 3986SOL    HW112857   0.369   1.874   2.087
 3986SOL    HW212858   0.279   1.975   2.180
 3987SOL     OW12859   1.471   5.902   5.278
 3987SOL    HW112860   1.393   5.959   5.252
 3987SOL    HW212861   1.556   5.948   5.252
 3988SOL     OW12862   3.642   1.952   6.315
 3988SOL    HW112863   3.721   1.911   6.269
 3988SOL    HW212864   3.640   1.921   6.410
 3989SOL     OW12865   6.129   0.004   6.450
 3989SOL    HW112866   6.189   0.033   6.375
 3989SOL    HW212867   6.061   6.962   6.414
 3990SOL     OW12868   6.436   2.554   5.172
 3990SOL    HW112869   6.388   2.629   5.218
 3990SOL    HW212870   6.419   2.558   5.074
 3991SOL     OW12871   0.074   2.535   3.545
 3991SOL    HW112872   0.121   2.447   3.559
 3991SOL    HW212873   0.116   2.584   3.469
 3992SOL     OW12874   3.865   3.172   6.706
 3992SOL    HW112875   3.890   3.159   6.610
 3992SOL    HW212876   3.943   3.150   6.764
 3993SOL     OW12877   2.527   2.299   2.671
 3993SOL    HW112878   2.540   2.221   2.610
 3993SOL    HW212879   2.606   2.307   2.732
 3994SOL     OW12880   2.265   2.510   5.082
 3994SOL    HW112881   2.249   2.608   5.093
 3994SOL    HW212882   2.350   2.495   5.032
 3995SOL     OW12883   2.251   4.257   3.445
 3995SOL    HW112884   2.307   4.253   3.363
 3995SOL    HW212885   2.169   4.202   3.432
 3996SOL     OW12886   2.063   1.543   4.353
 3996SOL    HW112887   2.103   1.627   4.388
 3996SOL    HW212888   2.049   1.552   4.254
 3997SOL     OW12889   4.883   3.644   3.318
 3997SOL    HW112890   4.881   3.545   3.304
 3997SOL    HW212891   4.856   3.664   3.412
 3998SOL     OW12892   6.019   2.289   1.943
 3998SOL    HW112893   5.928   2.248   1.954
 3998SOL    HW212894   6.024   2.338   1.856
 3999SOL     OW12895   6.413   4.295   3.379
 3999SOL    HW112896   6.484   4.317   3.446
 3999SOL    HW212897   6.323   4.315   3.418
 4000SOL     OW12898   3.309   5.717   2.726
 4000SOL    HW112899   3.232   5.657   2.704
 4000SOL    HW212900   3.354   5.746   2.641
 4001SOL     OW12901   2.335   4.327   5.977
 4001SOL    HW112902   2.373   4.239   6.006
 4001SOL    HW212903   2.358   4.343   5.881
 4002SOL     OW12904   3.627   2.911   4.536
 4002SOL    HW112905   3.564   2.898   4.612
 4002SOL    HW212906   3.686   2.990   4.555
 4003SOL     OW12907   1.586   1.442   6.121
 4003SOL    HW112908   1.648   1.476   6.049
 4003SOL    HW212909   1.626   1.462   6.210
 4004SOL     OW12910   6.662   3.345   3.942
 4004SOL    HW112911   6.721   3.329   3.863
 4004SOL    HW212912   6.719   3.349   4.025
 4005SOL     OW12913   4.030   4.842   0.845
 4005SOL    HW112914   4.124   4.809   0.844
 4005SOL    HW212915   3.978   4.798   0.772
 4006SOL     OW12916   5.390   4.876   1.914
 4006SOL    HW112917   5.476   4.825   1.920
 4006SOL    HW212918   5.335   4.842   1.838
 4007SOL     OW12919   0.622   2.439   2.907
 4007SOL    HW112920   0.637   2.381   2.827
 4007SOL    HW212921   0.628   2.384   2.990
 4008SOL     OW12922   3.414   0.582   6.413
 4008SOL    HW112923   3.342   0.600   6.346
 4008SOL    HW212924   3.372   0.560   6.501
 4009SOL     OW12925   4.846   1.790   1.090
 4009SOL    HW112926   4.776   1.745   1.034
 4009SOL    HW212927   4.920   1.725   1.109
 4010SOL     OW12928   3.214   3.373   1.833
 4010SOL    HW112929   3.167   3.294   1.872
 4010SOL    HW212930   3.281   3.407   1.899
 4011SOL     OW12931   6.817   6.281   1.979
 4011SOL    HW112932   6.746   6.296   1.910
 4011SOL    HW212933   6.859   6.369   2.003
 4012SOL     OW12934   4.543   6.717   2.693
 4012SOL    HW112935   4.444   6.715   2.706
 4012SOL    HW212936   4.565   6.674   2.605
 4013SOL     OW12937   2.166   0.475   1.148
 4013SOL    HW112938   2.100   0.519   1.088
 4013SOL    HW212939   2.227   0.544   1.187
 4014SOL     OW12940   3.281   6.091   4.066
 4014SOL    HW112941   3.305   5.994   4.069
 4014SOL    HW212942   3.240   6.112   3.977
 4015SOL     OW12943   4.838   5.145   6.212
 4015SOL    HW112944   4.744   5.163   6.183
 4015SOL    HW212945   4.838   5.079   6.287
 4016SOL     OW12946   2.897   6.037   0.070
 4016SOL    HW112947   2.980   5.982   0.072
 4016SOL    HW212948   2.919   6.132   0.091
 4017SOL     OW12949   0.350   5.357   5.604
 4017SOL    HW112950   0.300   5.425   5.658
 4017SOL    HW212951   0.298   5.271   5.603
 4018SOL     OW12952   4.379   0.045   1.969
 4018SOL    HW112953   4.339   0.135   1.987
 4018SOL    HW212954   4.306   6.999   1.965
 4019SOL     OW12955   5.466   3.695   2.670
 4019SOL    HW112956   5.563   3.713   2.687
 4019SOL    HW212957   5.422   3.667   2.755
 4020SOL     OW12958   6.569   2.917   5.566
 4020SOL    HW112959   6.575   3.014   5.540
 4020SOL    HW212960   6.651   2.891   5.616
 4021SOL     OW12961   3.617   4.227   5.224
 4021SOL    HW112962   3.612   4.128   5.238
 4021SOL    HW212963   3.529   4.268   5.247
 4022SOL     OW12964   3.171   6.384   6.532
 4022SOL    HW112965   3.143   6.445   6.458
 4022SOL    HW212966   3.162   6.431   6.620
 4023SOL     OW12967   6.997   0.394   5.071
 4023SOL    HW112968   6.940   0.475   5.060
 4023SOL    HW212969   6.949   0.327   5.128
 4024SOL     OW12970   2.397   4.428   4.206
 4024SOL    HW112971   2.405   4.353   4.141
 4024SOL    HW212972   2.323   4.408   4.270
 4025SOL     OW12973   0.761   6.152   4.567
 4025SOL    HW112974   0.849   6.132   4.610
 4025SOL    HW212975   0.763   6.123   4.471
 4026SOL     OW12976   6.280   6.523   4.062
 4026SOL    HW112977   6.248   6.445   4.008
 4026SOL    HW212978   6.235   6.523   4.151
 4027SOL     OW12979   2.603   2.814   7.013
 4027SOL    HW112980   2.609   2.715   0.009
 4027SOL    HW212981   2.506   2.840   7.005
 4028SOL     OW12982   4.745   1.411   3.845
 4028SOL    HW112983   4.839   1.416   3.877
 4028SOL    HW212984   4.730   1.324   3.798
 4029SOL     OW12985   2.924   4.124   5.703
 4029SOL    HW112986   2.880   4.212   5.691
 4029SOL    HW212987   2.876   4.072   5.774
 4030SOL     OW12988   6.901   0.956   1.991
 4030SOL    HW112989   6.852   1.026   2.043
 4030SOL    HW212990   6.841   0.877   1.977
 4031SOL     OW12991   5.523   6.106   3.243
 4031SOL    HW112992   5.504   6.074   3.336
 4031SOL    HW212993   5.468   6.187   3.224
 4032SOL     OW12994   0.030   6.888   2.212
 4032SOL    HW112995   0.020   6.796   2.249
 4032SOL    HW212996   6.979   6.906   2.147
 4033SOL     OW12997   2.288   3.300   1.528
 4033SOL    HW112998   2.220   3.313   1.456
 4033SOL    HW212999   2.245   3.309   1.617
 4034SOL     OW13000   6.030   1.905   4.922
 4034SOL    HW113001   5.981   1.823   4.892
 4034SOL    HW213002   6.128   1.884   4.931
 4035SOL     OW13003   5.990   1.243   0.460
 4035SOL    HW113004   5.955   1.330   0.495
 4035SOL    HW213005   5.923   1.171   0.475
 4036SOL     OW13006   4.114   4.755   2.480
 4036SOL    HW113007   4.019   4.777   2.461
 4036SOL    HW213008   4.163   4.743   2.394
 4037SOL     OW13009   1.844   1.537   0.293
 4037SOL    HW113010   1.824   1.523   0.196
 4037SOL    HW213011   1.884   1.628   0.306
 4038SOL     OW13012   4.057   3.133   1.461
 4038SOL    HW113013   4.135   3.187   1.492
 4038SOL    HW213014   3.995   3.116   1.537
 4039SOL     OW13015   5.745   5.435   1.467
 4039SOL    HW113016   5.741   5.346   1.421
 4039SOL    HW213017   5.840   5.461   1.481
 4040SOL     OW13018   3.518   6.858   5.096
 4040SOL    HW113019   3.452   6.928   5.122
 4040SOL    HW213020   3.610   6.890   5.115
 4041SOL     OW13021   1.110   4.992   0.926
 4041SOL    HW113022   1.031   4.975   0.866
 4041SOL    HW213023   1.190   5.013   0.870
 4042SOL     OW13024   5.941   5.979   4.374
 4042SOL    HW113025   6.015   5.941   4.319
 4042SOL    HW213026   5.978   6.027   4.453
 4043SOL     OW13027   6.939   2.313   6.159
 4043SOL    HW113028   6.907   2.338   6.250
 4043SOL    HW213029   6.861   2.306   6.097
 4044SOL     OW13030   4.703   6.436   3.631
 4044SOL    HW113031   4.649   6.514   3.664
 4044SOL    HW213032   4.665   6.351   3.669
 4045SOL     OW13033   3.887   5.706   5.761
 4045SOL    HW113034   3.798   5.704   5.806
 4045SOL    HW213035   3.958   5.728   5.829
 4046SOL     OW13036   1.406   1.587   3.535
 4046SOL    HW113037   1.384   1.502   3.581
 4046SOL    HW213038   1.475   1.637   3.588
 4047SOL     OW13039   2.197   2.644   0.245
 4047SOL    HW113040   2.253   2.561   0.246
 4047SOL    HW213041   2.204   2.690   0.333
 4048SOL     OW13042   5.038   2.028   1.785
 4048SOL    HW113043   5.122   2.083   1.787
 4048SOL    HW213044   4.994   2.036   1.696
 4049SOL     OW13045   5.418   5.336   6.260
 4049SOL    HW113046   5.367   5.316   6.344
 4049SOL    HW213047   5.425   5.253   6.205
 4050SOL     OW13048   1.181   6.549   1.854
 4050SOL    HW113049   1.242   6.544   1.932
 4050SOL    HW213050   1.229   6.592   1.777
 4051SOL     OW13051   4.170   1.452   6.496
 4051SOL    HW113052   4.070   1.450   6.489
 4051SOL    HW213053   4.207   1.513   6.426
 4052SOL     OW13054   6.451   1.258   1.953
 4052SOL    HW113055   6.452   1.327   2.025
 4052SOL    HW213056   6.400   1.292   1.875
 4053SOL     OW13057   3.431   6.509   4.403
 4053SOL    HW113058   3.403   6.416   4.379
 4053SOL    HW213059   3.407   6.571   4.328
 4054SOL     OW13060   5.846   3.729   1.110
 4054SOL    HW113061   5.841   3.769   1.201
 4054SOL    HW213062   5.771   3.764   1.054
 4055SOL     OW13063   3.051   3.439   0.234
 4055SOL    HW113064   3.051   3.381   0.152
 4055SOL    HW213065   3.054   3.380   0.315
 4056SOL     OW13066   5.201   3.863   0.761
 4056SOL    HW113067   5.279   3.871   0.699
 4056SOL    HW213068   5.131   3.929   0.735
 4057SOL     OW13069   6.594   2.058   0.824
 4057SOL    HW113070   6.633   2.118   0.754
 4057SOL    HW213071   6.573   1.969   0.784
 4058SOL     OW13072   2.327   7.003   5.185
 4058SOL    HW113073   2.370   6.938   5.122
 4058SOL    HW213074   2.250   0.025   5.140
 4059SOL     OW13075   0.770   1.761   3.038
 4059SOL    HW113076   0.752   1.731   2.944
 4059SOL    HW213077   0.783   1.680   3.096
 4060SOL     OW13078   5.435   5.653   4.986
 4060SOL    HW113079   5.519   5.688   4.944
 4060SOL    HW213080   5.398   5.721   5.049
 4061SOL     OW13081   2.564   4.756   2.455
 4061SOL    HW113082   2.655   4.725   2.426
 4061SOL    HW213083   2.572   4.847   2.495
 4062SOL     OW13084   2.541   1.058   1.699
 4062SOL    HW113085   2.449   1.083   1.728
 4062SOL    HW213086   2.602   1.137   1.709
 4063SOL     OW13087   6.119   6.532   6.996
 4063SOL    HW113088   6.136   6.513   6.899
 4063SOL    HW213089   6.189   6.594   0.008
 4064SOL     OW13090   2.481   0.493   3.672
 4064SOL    HW113091   2.450   0.402   3.644
 4064SOL    HW213092   2.532   0.535   3.597
 4065SOL     OW13093   1.577   6.832   1.684
 4065SOL    HW113094   1.588   6.928   1.656
 4065SOL    HW213095   1.605   6.772   1.609
 4066SOL     OW13096   6.048   4.890   3.549
 4066SOL    HW113097   6.059   4.796   3.581
 4066SOL    HW213098   5.955   4.902   3.513
 4067SOL     OW13099   6.255   3.768   2.965
 4067SOL    HW113100   6.243   3.837   2.894
 4067SOL    HW213101   6.289   3.811   3.048
 4068SOL     OW13102   1.670   1.321   4.923
 4068SOL    HW113103   1.760   1.319   4.879
 4068SOL    HW213104   1.604   1.270   4.867
 4069SOL     OW13105   2.987   5.414   6.537
 4069SOL    HW113106   2.950   5.463   6.616
 4069SOL    HW213107   2.986   5.474   6.458
 4070SOL     OW13108   0.583   3.572   1.821
 4070SOL    HW113109   0.633   3.486   1.835
 4070SOL    HW213110   0.489   3.552   1.794
 4071SOL     OW13111   1.376   1.145   5.253
 4071SOL    HW113112   1.277   1.157   5.263
 4071SOL    HW213113   1.420   1.235   5.247
 4072SOL     OW13114   0.361   5.810   4.101
 4072SOL    HW113115   0.402   5.885   4.153
 4072SOL    HW213116   0.264   5.829   4.084
 4073SOL     OW13117   3.039   6.072   6.064
 4073SOL    HW113118   3.057   5.976   6.040
 4073SOL    HW213119   3.075   6.091   6.155
 4074SOL     OW13120   0.060   4.066   2.163
 4074SOL    HW113121   0.131   4.132   2.188
 4074SOL    HW213122   0.074   4.035   2.069
 4075SOL     OW13123   4.102   1.910   1.976
 4075SOL    HW113124   4.121   1.992   2.029
 4075SOL    HW213125   4.105   1.830   2.037
 4076SOL     OW13126   2.801   2.849   5.684
 4076SOL    HW113127   2.776   2.752   5.695
 4076SOL    HW213128   2.821   2.868   5.588
 4077SOL     OW13129   2.996   1.443   6.936
 4077SOL    HW113130   2.951   1.398   7.013
 4077SOL    HW213131   2.935   1.441   6.856
 4078SOL     OW13132   0.377   5.585   1.057
 4078SOL    HW113133   0.386   5.678   1.024
 4078SOL    HW213134   0.285   5.573   1.096
 4079SOL     OW13135   1.603   0.879   3.704
 4079SOL    HW113136   1.703   0.872   3.706
 4079SOL    HW213137   1.570   0.906   3.794
 4080SOL     OW13138   4.228   4.429   5.943
 4080SOL    HW113139   4.165   4.485   5.997
 4080SOL    HW213140   4.204   4.333   5.951
 4081SOL     OW13141   1.836   2.619   4.392
 4081SOL    HW113142   1.931   2.630   4.420
 4081SOL    HW213143   1.775   2.653   4.464
 4082SOL     OW13144   0.727   3.919   0.567
 4082SOL    HW113145   0.630   3.911   0.543
 4082SOL    HW213146   0.738   3.987   0.640
 4083SOL     OW13147   6.829   3.913   2.254
 4083SOL    HW113148   6.736   3.913   2.218
 4083SOL    HW213149   6.888   3.965   2.192
 4084SOL     OW13150   5.823   1.841   3.344
 4084SOL    HW113151   5.901   1.846   3.407
 4084SOL    HW213152   5.850   1.879   3.256
 4085SOL     OW13153   2.788   5.706   1.721
 4085SOL    HW113154   2.791   5.713   1.821
 4085SOL    HW213155   2.860   5.644   1.690
 4086SOL     OW13156   1.069   5.583   2.060
 4086SOL    HW113157   1.090   5.679   2.078
 4086SOL    HW213158   1.112   5.526   2.129
 4087SOL     OW13159   1.541   1.925   3.440
 4087SOL    HW113160   1.540   1.872   3.525
 4087SOL    HW213161   1.635   1.935   3.408
 4088SOL     OW13162   6.861   0.899   6.813
 4088SOL    HW113163   6.929   0.970   6.831
 4088SOL    HW213164   6.787   0.937   6.758
 4089SOL     OW13165   6.166   5.643   4.342
 4089SOL    HW113166   6.185   5.700   4.422
 4089SOL    HW213167   6.132   5.554   4.371
 4090SOL     OW13168   1.523   5.179   5.696
 4090SOL    HW113169   1.533   5.278   5.709
 4090SOL    HW213170   1.427   5.153   5.708
 4091SOL     OW13171   6.831   6.373   6.883
 4091SOL    HW113172   6.909   6.353   6.824
 4091SOL    HW213173   6.864   6.396   6.975
 4092SOL     OW13174   6.684   2.552   5.659
 4092SOL    HW113175   6.669   2.650   5.641
 4092SOL    HW213176   6.734   2.512   5.581
 4093SOL     OW13177   4.567   6.569   2.421
 4093SOL    HW113178   4.472   6.553   2.395
 4093SOL    HW213179   4.606   6.485   2.459
 4094SOL     OW13180   2.265   5.742   5.043
 4094SOL    HW113181   2.254   5.799   4.962
 4094SOL    HW213182   2.286   5.801   5.122
 4095SOL     OW13183   0.350   3.470   0.526
 4095SOL    HW113184   0.300   3.557   0.517
 4095SOL    HW213185   0.286   3.397   0.547
 4096SOL     OW13186   4.655   5.724   5.906
 4096SOL    HW113187   4.644   5.817   5.941
 4096SOL    HW213188   4.566   5.685   5.885
 4097SOL     OW13189   3.839   4.563   5.456
 4097SOL    HW113190   3.848   4.496   5.382
 4097SOL    HW213191   3.746   4.600   5.457
 4098SOL     OW13192   6.935   2.069   1.848
 4098SOL    HW113193   6.997   2.143   1.874
 4098SOL    HW213194   6.920   2.009   1.927
 4099SOL     OW13195   2.738   5.038   1.905
 4099SOL    HW113196   2.740   4.950   1.858
 4099SOL    HW213197   2.644   5.062   1.926
 4100SOL     OW13198   0.127   6.264   4.926
 4100SOL    HW113199   0.089   6.237   4.838
 4100SOL    HW213200   0.150   6.182   4.979
 4101SOL     OW13201   5.982   0.902   0.179
 4101SOL    HW113202   5.887   0.882   0.204
 4101SOL    HW213203   5.992   0.999   0.159
 4102SOL     OW13204   6.350   0.488   0.878
 4102SOL    HW113205   6.401   0.406   0.904
 4102SOL    HW213206   6.291   0.515   0.954
 4103SOL     OW13207   0.309   0.480   0.016
 4103SOL    HW113208   0.223   0.505   0.061
 4103SOL    HW213209   0.373   0.557   0.022
 4104SOL     OW13210   1.007   5.001   2.823
 4104SOL    HW113211   1.018   4.915   2.772
 4104SOL    HW213212   1.011   4.981   2.921
 4105SOL     OW13213   4.919   7.003   1.498
 4105SOL    HW113214   4.865   6.937   1.446
 4105SOL    HW213215   4.904   6.988   1.596
 4106SOL     OW13216   6.103   2.778   2.967
 4106SOL    HW113217   6.183   2.742   2.918
 4106SOL    HW213218   6.022   2.770   2.909
 4107SOL     OW13219   1.390   5.659   1.162
 4107SOL    HW113220   1.421   5.730   1.225
 4107SOL    HW213221   1.343   5.587   1.213
 4108SOL     OW13222   6.510   4.048   5.391
 4108SOL    HW113223   6.444   4.115   5.357
 4108SOL    HW213224   6.507   3.966   5.333
 4109SOL     OW13225   6.202   0.103   5.161
 4109SOL    HW113226   6.115   0.105   5.111
 4109SOL    HW213227   6.277   0.127   5.100
 4110SOL     OW13228   3.929   3.792   6.202
 4110SOL    HW113229   3.959   3.796   6.107
 4110SOL    HW213230   3.897   3.700   6.223
 4111SOL     OW13231   4.370   3.366   0.011
 4111SOL    HW113232   4.423   3.442   0.048
 4111SOL    HW213233   4.274   3.376   0.038
 4112SOL     OW13234   4.913   6.423   4.813
 4112SOL    HW113235   4.971   6.342   4.797
 4112SOL    HW213236   4.878   6.456   4.725
 4113SOL     OW13237   4.901   5.799   4.885
 4113SOL    HW113238   4.827   5.732   4.877
 4113SOL    HW213239   4.979   5.756   4.932
 4114SOL     OW13240   3.528   1.995   3.830
 4114SOL    HW113241   3.469   2.026   3.904
 4114SOL    HW213242   3.505   2.045   3.746
 4115SOL     OW13243   3.726   4.972   2.111
 4115SOL    HW113244   3.688   4.899   2.055
 4115SOL    HW213245   3.670   5.055   2.102
 4116SOL     OW13246   3.474   1.669   2.208
 4116SOL    HW113247   3.480   1.631   2.116
 4116SOL    HW213248   3.547   1.736   2.222
 4117SOL     OW13249   1.589   4.579   2.354
 4117SOL    HW113250   1.667   4.523   2.326
 4117SOL    HW213251   1.532   4.599   2.274
 4118SOL     OW13252   3.236   6.529   0.524
 4118SOL    HW113253   3.224   6.621   0.561
 4118SOL    HW213254   3.272   6.535   0.431
 4119SOL     OW13255   3.553   1.726   3.875
 4119SOL    HW113256   3.528   1.820   3.854
 4119SOL    HW213257   3.551   1.671   3.792
 4120SOL     OW13258   3.528   0.688   0.090
 4120SOL    HW113259   3.494   0.596   0.073
 4120SOL    HW213260   3.567   0.692   0.182
 4121SOL     OW13261   6.329   0.742   4.504
 4121SOL    HW113262   6.233   0.770   4.511
 4121SOL    HW213263   6.384   0.796   4.568
 4122SOL     OW13264   1.263   6.092   5.208
 4122SOL    HW113265   1.189   6.144   5.250
 4122SOL    HW213266   1.229   6.043   5.128
 4123SOL     OW13267   4.319   5.127   5.949
 4123SOL    HW113268   4.353   5.067   6.021
 4123SOL    HW213269   4.317   5.221   5.981
 4124SOL     OW13270   6.154   5.642   6.575
 4124SOL    HW113271   6.145   5.665   6.672
 4124SOL    HW213272   6.251   5.639   6.551
 4125SOL     OW13273   4.564   1.462   2.625
 4125SOL    HW113274   4.565   1.458   2.724
 4125SOL    HW213275   4.526   1.377   2.588
 4126SOL     OW13276   1.375   3.438   4.589
 4126SOL    HW113277   1.337   3.508   4.649
 4126SOL    HW213278   1.427   3.372   4.645
 4127SOL     OW13279   4.545   4.834   4.678
 4127SOL    HW113280   4.535   4.798   4.585
 4127SOL    HW213281   4.470   4.801   4.734
 4128SOL     OW13282   1.239   2.704   1.482
 4128SOL    HW113283   1.260   2.607   1.495
 4128SOL    HW213284   1.293   2.759   1.546
 4129SOL     OW13285   3.804   1.453   6.528
 4129SOL    HW113286   3.766   1.392   6.598
 4129SOL    HW213287   3.829   1.399   6.448
 4130SOL     OW13288   6.626   2.975   6.369
 4130SOL    HW113289   6.613   3.003   6.273
 4130SOL    HW213290   6.583   2.886   6.384
 4131SOL     OW13291   1.609   0.083   3.237
 4131SOL    HW113292   1.683   0.019   3.215
 4131SOL    HW213293   1.577   0.066   3.330
 4132SOL     OW13294   5.253   4.494   3.922
 4132SOL    HW113295   5.179   4.468   3.984
 4132SOL    HW213296   5.300   4.411   3.892
 4133SOL     OW13297   2.914   5.990   0.537
 4133SOL    HW113298   2.849   5.986   0.461
 4133SOL    HW213299   2.993   6.046   0.511
 4134SOL     OW13300   2.588   3.054   1.041
 4134SOL    HW113301   2.519   2.988   1.010
 4134SOL    HW213302   2.632   3.020   1.124
 4135SOL     OW13303   0.870   1.501   3.114
 4135SOL    HW113304   0.875   1.440   3.035
 4135SOL    HW213305   0.830   1.453   3.192
 4136SOL     OW13306   1.203   2.085   2.913
 4136SOL    HW113307   1.114   2.052   2.942
 4136SOL    HW213308   1.269   2.010   2.914
 4137SOL     OW13309   0.410   4.728   0.846
 4137SOL    HW113310   0.316   4.746   0.817
 4137SOL    HW213311   0.473   4.789   0.798
 4138SOL     OW13312   4.605   5.285   3.239
 4138SOL    HW113313   4.607   5.376   3.197
 4138SOL    HW213314   4.535   5.230   3.195
 4139SOL     OW13315   1.864   2.057   5.453
 4139SOL    HW113316   1.859   2.084   5.356
 4139SOL    HW213317   1.923   2.122   5.502
 4140SOL     OW13318   2.968   0.521   5.218
 4140SOL    HW113319   2.950   0.448   5.152
 4140SOL    HW213320   2.893   0.526   5.284
 4141SOL     OW13321   6.150   5.973   1.242
 4141SOL    HW113322   6.249   5.987   1.255
 4141SOL    HW213323   6.129   5.977   1.145
 4142SOL     OW13324   6.250   5.363   0.917
 4142SOL    HW113325   6.339   5.397   0.947
 4142SOL    HW213326   6.178   5.401   0.975
 4143SOL     OW13327   6.777   2.194   1.392
 4143SOL    HW113328   6.774   2.123   1.462
 4143SOL    HW213329   6.684   2.222   1.369
 4144SOL     OW13330   5.075   3.928   6.222
 4144SOL    HW113331   5.090   3.838   6.182
 4144SOL    HW213332   5.090   3.998   6.152
 4145SOL     OW13333   6.549   6.322   1.169
 4145SOL    HW113334   6.481   6.309   1.241
 4145SOL    HW213335   6.538   6.251   1.099
 4146SOL     OW13336   6.933   0.553   4.747
 4146SOL    HW113337   0.008   0.562   4.764
 4146SOL    HW213338   6.909   0.598   4.661
 4147SOL     OW13339   4.728   4.013   5.931
 4147SOL    HW113340   4.690   3.932   5.975
 4147SOL    HW213341   4.691   4.023   5.839
 4148SOL     OW13342   0.883   0.551   4.696
 4148SOL    HW113343   0.824   0.631   4.705
 4148SOL    HW213344   0.829   0.468   4.704
 4149SOL     OW13345   6.873   2.844   0.955
 4149SOL    HW113346   6.836   2.936   0.942
 4149SOL    HW213347   6.952   2.830   0.896
 4150SOL     OW13348   1.042   0.513   6.498
 4150SOL    HW113349   1.076   0.426   6.463
 4150SOL    HW213350   0.942   0.508   6.506
 4151SOL     OW13351   3.489   5.662   5.372
 4151SOL    HW113352   3.406   5.716   5.382
 4151SOL    HW213353   3.539   5.690   5.291
 4152SOL     OW13354   3.827   6.100   1.678
 4152SOL    HW113355   3.848   6.198   1.681
 4152SOL    HW213356   3.836   6.061   1.769
 4153SOL     OW13357   4.336   4.950   6.995
 4153SOL    HW113358   4.275   4.931   6.918
 4153SOL    HW213359   4.431   4.950   6.962
 4154SOL     OW13360   0.300   4.924   4.260
 4154SOL    HW113361   0.282   4.952   4.355
 4154SOL    HW213362   0.316   5.005   4.204
 4155SOL     OW13363   7.011   1.136   1.762
 4155SOL    HW113364   6.997   1.057   1.821
 4155SOL    HW213365   6.922   1.169   1.729
 4156SOL     OW13366   5.873   6.170   5.052
 4156SOL    HW113367   5.838   6.121   5.132
 4156SOL    HW213368   5.796   6.211   5.002
 4157SOL     OW13369   5.008   5.561   4.683
 4157SOL    HW113370   5.104   5.586   4.696
 4157SOL    HW213371   4.995   5.465   4.708
 4158SOL     OW13372   1.810   4.574   2.843
 4158SOL    HW113373   1.806   4.494   2.783
 4158SOL    HW213374   1.906   4.597   2.860
 4159SOL     OW13375   2.131   3.591   4.271
 4159SOL    HW113376   2.035   3.585   4.242
 4159SOL    HW213377   2.183   3.517   4.228
 4160SOL     OW13378   5.929   0.743   0.789
 4160SOL    HW113379   5.849   0.683   0.796
 4160SOL    HW213380   5.994   0.705   0.724
 4161SOL     OW13381   0.652   0.857   0.231
 4161SOL    HW113382   0.696   0.826   0.316
 4161SOL    HW213383   0.721   0.867   0.160
 4162SOL     OW13384   6.007   6.778   6.345
 4162SOL    HW113385   5.911   6.751   6.339
 4162SOL    HW213386   6.064   6.699   6.368
 4163SOL     OW13387   5.872   6.390   3.386
 4163SOL    HW113388   5.889   6.362   3.481
 4163SOL    HW213389   5.946   6.358   3.328
 4164SOL     OW13390   1.747   6.526   6.432
 4164SOL    HW113391   1.717   6.586   6.506
 4164SOL    HW213392   1.838   6.491   6.453
 4165SOL     OW13393   3.911   0.230   7.000
 4165SOL    HW113394   3.993   0.199   6.953
 4165SOL    HW213395   3.841   0.256   6.933
 4166SOL     OW13396   6.353   4.197   1.031
 4166SOL    HW113397   6.359   4.193   1.131
 4166SOL    HW213398   6.433   4.244   0.994
 4167SOL     OW13399   0.918   4.132   1.287
 4167SOL    HW113400   0.907   4.102   1.192
 4167SOL    HW213401   1.004   4.183   1.296
 4168SOL     OW13402   6.779   4.796   0.759
 4168SOL    HW113403   6.785   4.793   0.659
 4168SOL    HW213404   6.719   4.870   0.787
 4169SOL     OW13405   5.974   3.933   4.015
 4169SOL    HW113406   5.896   3.873   4.032
 4169SOL    HW213407   5.941   4.025   3.992
 4170SOL     OW13408   3.659   4.088   5.492
 4170SOL    HW113409   3.756   4.077   5.467
 4170SOL    HW213410   3.641   4.185   5.509
 4171SOL     OW13411   5.765   5.447   1.121
 4171SOL    HW113412   5.674   5.413   1.146
 4171SOL    HW213413   5.791   5.522   1.183
 4172SOL     OW13414   0.577   2.436   6.297
 4172SOL    HW113415   0.480   2.449   6.316
 4172SOL    HW213416   0.589   2.357   6.237
 4173SOL     OW13417   4.796   3.449   5.758
 4173SOL    HW113418   4.769   3.441   5.662
 4173SOL    HW213419   4.822   3.544   5.777
 4174SOL     OW13420   5.455   0.745   3.509
 4174SOL    HW113421   5.415   0.654   3.498
 4174SOL    HW213422   5.444   0.796   3.424
 4175SOL     OW13423   2.008   6.290   4.646
 4175SOL    HW113424   2.106   6.283   4.662
 4175SOL    HW213425   1.983   6.234   4.567
 4176SOL     OW13426   3.077   6.752   2.000
 4176SOL    HW113427   3.102   6.818   2.071
 4176SOL    HW213428   2.982   6.768   1.972
 4177SOL     OW13429   6.657   4.382   4.888
 4177SOL    HW113430   6.719   4.459   4.905
 4177SOL    HW213431   6.660   4.319   4.965
 4178SOL     OW13432   4.948   0.270   4.193
 4178SOL    HW113433   5.018   0.264   4.264
 4178SOL    HW213434   4.889   0.349   4.211
 4179SOL     OW13435   5.555   2.271   3.048
 4179SOL    HW113436   5.482   2.263   2.980
 4179SOL    HW213437   5.556   2.363   3.087
 4180SOL     OW13438   4.932   4.193   1.476
 4180SOL    HW113439   4.932   4.258   1.400
 4180SOL    HW213440   5.026   4.183   1.511
 4181SOL     OW13441   1.901   2.047   0.510
 4181SOL    HW113442   1.966   2.058   0.585
 4181SOL    HW213443   1.808   2.054   0.545
 4182SOL     OW13444   0.283   6.820   3.250
 4182SOL    HW113445   0.274   6.918   3.268
 4182SOL    HW213446   0.232   6.795   3.169
 4183SOL     OW13447   4.544   0.896   6.811
 4183SOL    HW113448   4.642   0.880   6.821
 4183SOL    HW213449   4.499   0.875   6.898
 4184SOL     OW13450   4.341   5.032   1.730
 4184SOL    HW113451   4.262   4.988   1.773
 4184SOL    HW213452   4.329   5.033   1.631
 4185SOL     OW13453   0.609   5.705   2.638
 4185SOL    HW113454   0.685   5.770   2.644
 4185SOL    HW213455   0.646   5.613   2.622
 4186SOL     OW13456   2.324   4.962   0.850
 4186SOL    HW113457   2.323   4.909   0.935
 4186SOL    HW213458   2.294   4.904   0.774
 4187SOL     OW13459   3.693   3.629   5.956
 4187SOL    HW113460   3.631   3.588   5.888
 4187SOL    HW213461   3.772   3.569   5.969
 4188SOL     OW13462   5.193   0.379   4.379
 4188SOL    HW113463   5.158   0.298   4.426
 4188SOL    HW213464   5.292   0.372   4.370
 4189SOL     OW13465   3.829   0.649   5.061
 4189SOL    HW113466   3.888   0.677   5.137
 4189SOL    HW213467   3.793   0.730   5.015
 4190SOL     OW13468   0.495   0.704   0.066
 4190SOL    HW113469   0.437   0.763   0.009
 4190SOL    HW213470   0.544   0.761   0.132
 4191SOL     OW13471   5.235   3.518   3.323
 4191SOL    HW113472   5.164   3.476   3.265
 4191SOL    HW213473   5.263   3.453   3.394
 4192SOL     OW13474   0.683   1.090   4.047
 4192SOL    HW113475   0.615   1.018   4.056
 4192SOL    HW213476   0.721   1.089   3.954
 4193SOL     OW13477   1.883   6.866   3.009
 4193SOL    HW113478   1.797   6.841   3.053
 4193SOL    HW213479   1.916   6.953   3.048
 4194SOL     OW13480   5.753   0.560   5.474
 4194SOL    HW113481   5.760   0.515   5.385
 4194SOL    HW213482   5.845   0.589   5.503
 4195SOL     OW13483   4.221   0.239   2.453
 4195SOL    HW113484   4.197   0.254   2.549
 4195SOL    HW213485   4.321   0.237   2.444
 4196SOL     OW13486   5.781   2.218   3.353
 4196SOL    HW113487   5.822   2.280   3.286
 4196SOL    HW213488   5.853   2.178   3.410
 4197SOL     OW13489   5.049   5.671   5.065
 4197SOL    HW113490   5.119   5.669   5.136
 4197SOL    HW213491   4.960   5.652   5.107
 4198SOL     OW13492   5.420   3.007   6.634
 4198SOL    HW113493   5.445   2.916   6.599
 4198SOL    HW213494   5.323   3.009   6.656
 4199SOL     OW13495   2.148   3.543   6.363
 4199SOL    HW113496   2.184   3.563   6.271
 4199SOL    HW213497   2.219   3.562   6.431
 4200SOL     OW13498   3.006   6.232   4.988
 4200SOL    HW113499   3.029   6.140   4.958
 4200SOL    HW213500   3.020   6.239   5.087
 4201SOL     OW13501   5.903   6.267   3.666
 4201SOL    HW113502   5.935   6.200   3.734
 4201SOL    HW213503   5.851   6.220   3.595
 4202SOL     OW13504   4.178   5.770   5.693
 4202SOL    HW113505   4.103   5.775   5.760
 4202SOL    HW213506   4.212   5.862   5.675
 4203SOL     OW13507   4.852   5.525   0.946
 4203SOL    HW113508   4.790   5.581   1.000
 4203SOL    HW213509   4.891   5.581   0.872
 4204SOL     OW13510   3.837   2.974   2.503
 4204SOL    HW113511   3.804   2.997   2.594
 4204SOL    HW213512   3.914   2.911   2.511
 4205SOL     OW13513   3.766   4.998   3.899
 4205SOL    HW113514   3.866   4.993   3.897
 4205SOL    HW213515   3.730   4.986   3.807
 4206SOL     OW13516   6.058   0.584   5.466
 4206SOL    HW113517   6.039   0.605   5.562
 4206SOL    HW213518   6.151   0.550   5.456
 4207SOL     OW13519   2.220   1.522   1.912
 4207SOL    HW113520   2.133   1.474   1.923
 4207SOL    HW213521   2.236   1.540   1.815
 4208SOL     OW13522   1.121   3.363   6.882
 4208SOL    HW113523   1.052   3.291   6.880
 4208SOL    HW213524   1.150   3.386   6.789
 4209SOL     OW13525   0.489   1.617   5.387
 4209SOL    HW113526   0.493   1.539   5.449
 4209SOL    HW213527   0.582   1.641   5.358
 4210SOL     OW13528   3.376   3.640   2.240
 4210SOL    HW113529   3.344   3.569   2.303
 4210SOL    HW213530   3.462   3.611   2.199
 4211SOL     OW13531   4.028   5.410   5.219
 4211SOL    HW113532   4.127   5.418   5.226
 4211SOL    HW213533   3.992   5.489   5.169
 4212SOL     OW13534   6.291   2.416   2.139
 4212SOL    HW113535   6.333   2.405   2.229
 4212SOL    HW213536   6.357   2.393   2.068
 4213SOL     OW13537   2.734   0.826   2.329
 4213SOL    HW113538   2.665   0.790   2.266
 4213SOL    HW213539   2.782   0.751   2.373
 4214SOL     OW13540   0.977   3.849   5.795
 4214SOL    HW113541   0.938   3.894   5.715
 4214SOL    HW213542   1.077   3.842   5.783
 4215SOL     OW13543   6.731   5.939   4.656
 4215SOL    HW113544   6.740   6.039   4.656
 4215SOL    HW213545   6.738   5.906   4.562
 4216SOL     OW13546   1.413   1.774   3.208
 4216SOL    HW113547   1.474   1.815   3.275
 4216SOL    HW213548   1.428   1.818   3.119
 4217SOL     OW13549   6.723   0.226   2.784
 4217SOL    HW113550   6.632   0.206   2.820
 4217SOL    HW213551   6.735   0.178   2.697
 4218SOL     OW13552   5.310   0.274   1.683
 4218SOL    HW113553   5.235   0.339   1.670
 4218SOL    HW213554   5.312   0.210   1.606
 4219SOL     OW13555   2.993   5.344   3.934
 4219SOL    HW113556   2.982   5.316   3.839
 4219SOL    HW213557   3.024   5.265   3.988
 4220SOL     OW13558   5.646   2.536   3.443
 4220SOL    HW113559   5.744   2.531   3.427
 4220SOL    HW213560   5.620   2.470   3.514
 4221SOL     OW13561   5.857   5.526   6.473
 4221SOL    HW113562   5.906   5.532   6.560
 4221SOL    HW213563   5.879   5.606   6.417
 4222SOL     OW13564   5.920   2.708   2.554
 4222SOL    HW113565   5.999   2.648   2.537
 4222SOL    HW213566   5.950   2.803   2.555
 4223SOL     OW13567   2.868   3.463   4.996
 4223SOL    HW113568   2.771   3.471   4.975
 4223SOL    HW213569   2.879   3.443   5.094
 4224SOL     OW13570   4.913   3.027   3.595
 4224SOL    HW113571   4.867   2.942   3.619
 4224SOL    HW213572   5.009   3.009   3.575
 4225SOL     OW13573   4.493   0.453   5.881
 4225SOL    HW113574   4.414   0.397   5.860
 4225SOL    HW213575   4.512   0.515   5.805
 4226SOL     OW13576   0.754   0.105   3.144
 4226SOL    HW113577   0.676   0.163   3.166
 4226SOL    HW213578   0.814   0.098   3.223
 4227SOL     OW13579   3.799   5.114   6.658
 4227SOL    HW113580   3.759   5.037   6.607
 4227SOL    HW213581   3.820   5.085   6.751
 4228SOL     OW13582   0.792   3.691   3.279
 4228SOL    HW113583   0.762   3.709   3.373
 4228SOL    HW213584   0.875   3.743   3.260
 4229SOL     OW13585   4.579   5.201   6.126
 4229SOL    HW113586   4.499   5.168   6.176
 4229SOL    HW213587   4.550   5.271   6.061
 4230SOL     OW13588   2.357   0.875   4.272
 4230SOL    HW113589   2.298   0.841   4.346
 4230SOL    HW213590   2.307   0.872   4.185
 4231SOL     OW13591   5.211   6.066   4.536
 4231SOL    HW113592   5.170   5.992   4.482
 4231SOL    HW213593   5.281   6.112   4.482
 4232SOL     OW13594   6.725   4.431   1.947
 4232SOL    HW113595   6.635   4.464   1.918
 4232SOL    HW213596   6.787   4.508   1.958
 4233SOL     OW13597   0.045   0.685   6.899
 4233SOL    HW113598   0.041   0.649   6.805
 4233SOL    HW213599   6.985   0.738   6.917
 4234SOL     OW13600   1.584   0.179   5.608
 4234SOL    HW113601   1.615   0.257   5.554
 4234SOL    HW213602   1.612   0.094   5.563
 4235SOL     OW13603   5.555   3.795   5.121
 4235SOL    HW113604   5.616   3.873   5.115
 4235SOL    HW213605   5.482   3.804   5.054
 4236SOL     OW13606   0.581   3.643   3.094
 4236SOL    HW113607   0.548   3.565   3.149
 4236SOL    HW213608   0.632   3.706   3.153
 4237SOL     OW13609   6.352   4.507   4.306
 4237SOL    HW113610   6.311   4.420   4.334
 4237SOL    HW213611   6.313   4.535   4.218
 4238SOL     OW13612   3.770   4.895   3.265
 4238SOL    HW113613   3.845   4.843   3.307
 4238SOL    HW213614   3.747   4.854   3.176
 4239SOL     OW13615   6.220   1.152   3.279
 4239SOL    HW113616   6.122   1.132   3.285
 4239SOL    HW213617   6.253   1.188   3.366
 4240SOL     OW13618   2.057   0.075   0.101
 4240SOL    HW113619   2.104   0.017   0.168
 4240SOL    HW213620   2.079   0.171   0.118
 4241SOL     OW13621   5.450   1.634   1.321
 4241SOL    HW113622   5.459   1.708   1.388
 4241SOL    HW213623   5.533   1.577   1.323
 4242SOL     OW13624   1.995   0.704   3.092
 4242SOL    HW113625   2.010   0.779   3.027
 4242SOL    HW213626   2.083   0.668   3.123
 4243SOL     OW13627   0.618   4.010   3.175
 4243SOL    HW113628   0.627   4.108   3.194
 4243SOL    HW213629   0.704   3.975   3.139
 4244SOL     OW13630   4.630   5.373   0.847
 4244SOL    HW113631   4.541   5.419   0.850
 4244SOL    HW213632   4.703   5.441   0.858
 4245SOL     OW13633   6.394   1.056   6.092
 4245SOL    HW113634   6.426   1.027   6.183
 4245SOL    HW213635   6.472   1.088   6.038
 4246SOL     OW13636   5.557   2.070   3.457
 4246SOL    HW113637   5.620   2.145   3.437
 4246SOL    HW213638   5.584   1.989   3.405
 4247SOL     OW13639   2.051   5.153   3.624
 4247SOL    HW113640   2.140   5.128   3.662
 4247SOL    HW213641   1.980   5.100   3.671
 4248SOL     OW13642   1.287   1.342   3.805
 4248SOL    HW113643   1.386   1.349   3.795
 4248SOL    HW213644   1.265   1.307   3.896
 4249SOL     OW13645   5.998   1.241   3.517
 4249SOL    HW113646   5.970   1.297   3.439
 4249SOL    HW213647   6.095   1.255   3.536
 4250SOL     OW13648   6.384   6.246   4.186
 4250SOL    HW113649   6.419   6.327   4.234
 4250SOL    HW213650   6.431   6.165   4.220
 4251SOL     OW13651   6.425   2.886   0.865
 4251SOL    HW113652   6.385   2.970   0.900
 4251SOL    HW213653   6.487   2.907   0.790
 4252SOL     OW13654   5.031   6.029   6.454
 4252SOL    HW113655   4.996   5.951   6.505
 4252SOL    HW213656   4.990   6.113   6.489
 4253SOL     OW13657   3.296   6.700   1.870
 4253SOL    HW113658   3.207   6.733   1.902
 4253SOL    HW213659   3.315   6.611   1.911
 4254SOL     OW13660   2.177   4.208   1.878
 4254SOL    HW113661   2.204   4.221   1.783
 4254SOL    HW213662   2.083   4.239   1.891
 4255SOL     OW13663   0.445   3.985   3.431
 4255SOL    HW113664   0.518   4.017   3.371
 4255SOL    HW213665   0.410   3.897   3.397
 4256SOL     OW13666   1.153   5.955   0.951
 4256SOL    HW113667   1.227   5.998   1.003
 4256SOL    HW213668   1.068   6.005   0.967
 4257SOL     OW13669   4.982   1.089   4.275
 4257SOL    HW113670   4.909   1.151   4.303
 4257SOL    HW213671   5.071   1.132   4.292
 4258SOL     OW13672   3.399   6.050   1.035
 4258SOL    HW113673   3.429   5.989   1.108
 4258SOL    HW213674   3.299   6.049   1.029
 4259SOL     OW13675   1.672   6.197   0.740
 4259SOL    HW113676   1.637   6.112   0.780
 4259SOL    HW213677   1.670   6.190   0.640
 4260SOL     OW13678   5.662   0.628   3.648
 4260SOL    HW113679   5.753   0.617   3.608
 4260SOL    HW213680   5.593   0.610   3.578
 4261SOL     OW13681   1.628   0.014   2.855
 4261SOL    HW113682   1.616   0.044   2.761
 4261SOL    HW213683   1.716   0.049   2.890
 4262SOL     OW13684   0.969   4.306   6.059
 4262SOL    HW113685   0.977   4.208   6.039
 4262SOL    HW213686   1.059   4.349   6.053
 4263SOL     OW13687   2.415   1.031   3.500
 4263SOL    HW113688   2.351   1.090   3.451
 4263SOL    HW213689   2.492   1.085   3.534
 4264SOL     OW13690   6.280   1.915   4.414
 4264SOL    HW113691   6.373   1.909   4.452
 4264SOL    HW213692   6.281   1.978   4.336
 4265SOL     OW13693   3.549   0.958   1.149
 4265SOL    HW113694   3.567   0.867   1.185
 4265SOL    HW213695   3.490   1.008   1.213
 4266SOL     OW13696   1.879   6.284   6.849
 4266SOL    HW113697   1.812   6.358   6.849
 4266SOL    HW213698   1.971   6.322   6.852
 4267SOL     OW13699   2.128   3.383   4.083
 4267SOL    HW113700   2.162   3.289   4.078
 4267SOL    HW213701   2.109   3.416   3.991
 4268SOL     OW13702   2.131   5.563   6.476
 4268SOL    HW113703   2.174   5.644   6.516
 4268SOL    HW213704   2.116   5.494   6.548
 4269SOL     OW13705   2.869   1.084   3.320
 4269SOL    HW113706   2.867   1.001   3.375
 4269SOL    HW213707   2.828   1.066   3.231
 4270SOL     OW13708   3.331   2.958   2.345
 4270SOL    HW113709   3.391   3.011   2.404
 4270SOL    HW213710   3.352   2.860   2.356
 4271SOL     OW13711   0.148   1.196   0.045
 4271SOL    HW113712   0.139   1.161   6.975
 4271SOL    HW213713   0.058   1.208   0.086
 4272SOL     OW13714   0.069   2.638   4.684
 4272SOL    HW113715   0.001   2.712   4.686
 4272SOL    HW213716   0.069   2.591   4.772
 4273SOL     OW13717   4.967   6.352   5.124
 4273SOL    HW113718   4.944   6.379   5.030
 4273SOL    HW213719   5.063   6.372   5.142
 4274SOL     OW13720   1.105   0.142   1.981
 4274SOL    HW113721   1.094   0.161   2.078
 4274SOL    HW213722   1.132   0.046   1.969
 4275SOL     OW13723   0.287   2.013   4.076
 4275SOL    HW113724   0.247   2.096   4.038
 4275SOL    HW213725   0.305   1.947   4.003
 4276SOL     OW13726   3.178   4.987   3.937
 4276SOL    HW113727   3.150   4.965   3.844
 4276SOL    HW213728   3.278   4.986   3.942
 4277SOL     OW13729   0.271   4.516   2.112
 4277SOL    HW113730   0.224   4.604   2.110
 4277SOL    HW213731   0.229   4.457   2.180
 4278SOL     OW13732   0.802   6.707   4.063
 4278SOL    HW113733   0.817   6.805   4.074
 4278SOL    HW213734   0.733   6.691   3.992
 4279SOL     OW13735   1.547   1.199   2.540
 4279SOL    HW113736   1.557   1.296   2.516
 4279SOL    HW213737   1.451   1.179   2.557
 4280SOL     OW13738   6.586   0.052   6.035
 4280SOL    HW113739   6.487   0.063   6.028
 4280SOL    HW213740   6.628   0.080   5.948
 4281SOL     OW13741   5.281   5.044   3.220
 4281SOL    HW113742   5.276   5.138   3.252
 4281SOL    HW213743   5.192   5.017   3.182
 4282SOL     OW13744   3.155   4.802   0.359
 4282SOL    HW113745   3.089   4.727   0.372
 4282SOL    HW213746   3.111   4.889   0.380
 4283SOL     OW13747   3.640   1.436   3.520
 4283SOL    HW113748   3.631   1.452   3.618
 4283SOL    HW213749   3.661   1.522   3.474
 4284SOL     OW13750   4.308   5.687   0.582
 4284SOL    HW113751   4.264   5.610   0.535
 4284SOL    HW213752   4.407   5.675   0.580
 4285SOL     OW13753   2.183   1.321   5.708
 4285SOL    HW113754   2.135   1.366   5.783
 4285SOL    HW213755   2.282   1.337   5.717
 4286SOL     OW13756   5.946   6.975   5.750
 4286SOL    HW113757   5.914   0.044   5.724
 4286SOL    HW213758   5.868   6.921   5.781
 4287SOL     OW13759   4.928   0.915   5.840
 4287SOL    HW113760   4.877   0.986   5.792
 4287SOL    HW213761   4.866   0.863   5.899
 4288SOL     OW13762   0.855   5.628   3.161
 4288SOL    HW113763   0.756   5.642   3.158
 4288SOL    HW213764   0.882   5.564   3.089
 4289SOL     OW13765   0.984   2.463   6.633
 4289SOL    HW113766   0.942   2.489   6.720
 4289SOL    HW213767   1.059   2.399   6.651
 4290SOL     OW13768   0.637   6.008   5.027
 4290SOL    HW113769   0.600   5.915   5.032
 4290SOL    HW213770   0.590   6.059   4.955
 4291SOL     OW13771   5.136   4.449   6.265
 4291SOL    HW113772   5.186   4.464   6.179
 4291SOL    HW213773   5.189   4.388   6.324
 4292SOL     OW13774   5.894   2.800   0.003
 4292SOL    HW113775   5.896   2.843   0.093
 4292SOL    HW213776   5.955   2.849   6.963
 4293SOL     OW13777   3.611   4.450   6.747
 4293SOL    HW113778   3.630   4.393   6.827
 4293SOL    HW213779   3.665   4.418   6.670
 4294SOL     OW13780   2.149   1.436   6.500
 4294SOL    HW113781   2.136   1.337   6.495
 4294SOL    HW213782   2.198   1.458   6.585
 4295SOL     OW13783   4.641   5.908   3.869
 4295SOL    HW113784   4.589   5.829   3.901
 4295SOL    HW213785   4.601   5.991   3.907
 4296SOL     OW13786   2.958   6.801   0.171
 4296SOL    HW113787   2.880   6.861   0.187
 4296SOL    HW213788   2.944   6.715   0.218
 4297SOL     OW13789   6.600   6.367   2.209
 4297SOL    HW113790   6.697   6.342   2.199
 4297SOL    HW213791   6.575   6.433   2.138
 4298SOL     OW13792   3.261   6.391   1.486
 4298SOL    HW113793   3.176   6.385   1.537
 4298SOL    HW213794   3.323   6.455   1.532
 4299SOL     OW13795   0.889   3.103   0.109
 4299SOL    HW113796   0.887   3.164   0.029
 4299SOL    HW213797   0.810   3.122   0.167
 4300SOL     OW13798   2.514   6.876   0.254
 4300SOL    HW113799   2.604   6.911   0.228
 4300SOL    HW213800   2.445   6.912   0.192
 4301SOL     OW13801   4.251   0.310   1.963
 4301SOL    HW113802   4.187   0.279   2.034
 4301SOL    HW213803   4.261   0.409   1.969
 4302SOL     OW13804   6.826   0.214   6.182
 4302SOL    HW113805   6.862   0.122   6.164
 4302SOL    HW213806   6.731   0.219   6.153
 4303SOL     OW13807   0.217   4.620   3.728
 4303SOL    HW113808   0.218   4.633   3.827
 4303SOL    HW213809   0.305   4.584   3.698
 4304SOL     OW13810   3.480   3.773   2.508
 4304SOL    HW113811   3.454   3.713   2.583
 4304SOL    HW213812   3.462   3.727   2.421
 4305SOL     OW13813   0.473   6.534   6.201
 4305SOL    HW113814   0.430   6.582   6.124
 4305SOL    HW213815   0.423   6.451   6.221
 4306SOL     OW13816   5.246   4.820   4.393
 4306SOL    HW113817   5.218   4.791   4.301
 4306SOL    HW213818   5.237   4.743   4.456
 4307SOL     OW13819   5.247   3.167   5.167
 4307SOL    HW113820   5.287   3.229   5.234
 4307SOL    HW213821   5.285   3.075   5.180
 4308SOL     OW13822   5.503   5.363   1.185
 4308SOL    HW113823   5.438   5.324   1.250
 4308SOL    HW213824   5.466   5.358   1.093
 4309SOL     OW13825   1.323   1.911   0.456
 4309SOL    HW113826   1.404   1.852   0.462
 4309SOL    HW213827   1.345   1.993   0.405
 4310SOL     OW13828   1.870   2.309   1.407
 4310SOL    HW113829   1.950   2.255   1.379
 4310SOL    HW213830   1.900   2.392   1.453
 4311SOL     OW13831   0.583   6.182   2.678
 4311SOL    HW113832   0.575   6.152   2.773
 4311SOL    HW213833   0.599   6.103   2.619
 4312SOL     OW13834   1.781   5.540   3.084
 4312SOL    HW113835   1.736   5.549   3.173
 4312SOL    HW213836   1.878   5.517   3.098
 4313SOL     OW13837   4.110   1.666   0.305
 4313SOL    HW113838   4.105   1.765   0.292
 4313SOL    HW213839   4.088   1.644   0.400
 4314SOL     OW13840   6.295   1.500   4.862
 4314SOL    HW113841   6.378   1.454   4.895
 4314SOL    HW213842   6.307   1.522   4.765
 4315SOL     OW13843   2.261   0.935   3.071
 4315SOL    HW113844   2.330   0.889   3.014
 4315SOL    HW213845   2.178   0.950   3.018
 4316SOL     OW13846   5.389   0.267   2.342
 4316SOL    HW113847   5.379   0.270   2.243
 4316SOL    HW213848   5.352   0.181   2.378
 4317SOL     OW13849   5.252   1.559   5.860
 4317SOL    HW113850   5.259   1.462   5.883
 4317SOL    HW213851   5.344   1.597   5.846
 4318SOL     OW13852   0.974   1.439   4.797
 4318SOL    HW113853   0.877   1.418   4.804
 4318SOL    HW213854   1.024   1.358   4.766
 4319SOL     OW13855   1.168   2.186   1.382
 4319SOL    HW113856   1.185   2.121   1.456
 4319SOL    HW213857   1.255   2.221   1.348
 4320SOL     OW13858   3.516   5.288   1.144
 4320SOL    HW113859   3.494   5.284   1.047
 4320SOL    HW213860   3.544   5.197   1.175
 4321SOL     OW13861   0.030   4.345   3.727
 4321SOL    HW113862   0.094   4.268   3.731
 4321SOL    HW213863   0.076   4.425   3.689
 4322SOL     OW13864   6.475   3.184   6.457
 4322SOL    HW113865   6.395   3.154   6.404
 4322SOL    HW213866   6.549   3.118   6.445
 4323SOL     OW13867   5.003   4.801   0.384
 4323SOL    HW113868   4.939   4.865   0.426
 4323SOL    HW213869   5.060   4.849   0.317
 4324SOL     OW13870   6.623   4.026   5.998
 4324SOL    HW113871   6.668   3.937   6.003
 4324SOL    HW213872   6.524   4.014   6.005
 4325SOL     OW13873   2.956   1.627   2.176
 4325SOL    HW113874   2.965   1.649   2.079
 4325SOL    HW213875   2.862   1.601   2.195
 4326SOL     OW13876   5.199   4.519   1.968
 4326SOL    HW113877   5.128   4.492   2.033
 4326SOL    HW213878   5.271   4.570   2.015
 4327SOL     OW13879   4.616   6.251   2.466
 4327SOL    HW113880   4.627   6.153   2.450
 4327SOL    HW213881   4.549   6.266   2.539
 4328SOL     OW13882   5.695   4.299   5.538
 4328SOL    HW113883   5.770   4.283   5.602
 4328SOL    HW213884   5.730   4.344   5.456
 4329SOL     OW13885   5.650   2.544   5.704
 4329SOL    HW113886   5.695   2.454   5.711
 4329SOL    HW213887   5.716   2.616   5.724
 4330SOL     OW13888   2.087   6.809   4.640
 4330SOL    HW113889   2.033   6.810   4.555
 4330SOL    HW213890   2.035   6.763   4.712
 4331SOL     OW13891   6.233   0.956   1.821
 4331SOL    HW113892   6.312   0.987   1.873
 4331SOL    HW213893   6.219   1.017   1.743
 4332SOL     OW13894   6.384   2.892   3.101
 4332SOL    HW113895   6.401   2.924   3.195
 4332SOL    HW213896   6.332   2.807   3.103
 4333SOL     OW13897   4.545   1.715   4.834
 4333SOL    HW113898   4.521   1.716   4.737
 4333SOL    HW213899   4.639   1.682   4.845
 4334SOL     OW13900   1.626   3.020   2.151
 4334SOL    HW113901   1.605   2.932   2.109
 4334SOL    HW213902   1.562   3.037   2.227
 4335SOL     OW13903   3.595   2.765   1.936
 4335SOL    HW113904   3.626   2.686   1.884
 4335SOL    HW213905   3.497   2.779   1.920
 4336SOL     OW13906   2.653   5.567   5.465
 4336SOL    HW113907   2.566   5.585   5.420
 4336SOL    HW213908   2.726   5.616   5.417
 4337SOL     OW13909   2.237   4.918   1.831
 4337SOL    HW113910   2.196   4.931   1.921
 4337SOL    HW213911   2.226   4.823   1.803
 4338SOL     OW13912   6.345   0.228   6.037
 4338SOL    HW113913   6.323   0.231   5.939
 4338SOL    HW213914   6.409   0.302   6.059
 4339SOL     OW13915   3.482   2.340   6.381
 4339SOL    HW113916   3.435   2.253   6.392
 4339SOL    HW213917   3.501   2.380   6.471
 4340SOL     OW13918   6.083   3.787   1.020
 4340SOL    HW113919   6.106   3.884   1.012
 4340SOL    HW213920   5.987   3.777   1.045
 4341SOL     OW13921   1.299   5.344   1.192
 4341SOL    HW113922   1.254   5.255   1.192
 4341SOL    HW213923   1.322   5.370   1.098
 4342SOL     OW13924   5.506   3.542   3.228
 4342SOL    HW113925   5.575   3.571   3.294
 4342SOL    HW213926   5.415   3.570   3.260
 4343SOL     OW13927   3.409   6.346   4.771
 4343SOL    HW113928   3.506   6.355   4.745
 4343SOL    HW213929   3.387   6.249   4.784
 4344SOL     OW13930   1.300   3.134   2.826
 4344SOL    HW113931   1.298   3.217   2.771
 4344SOL    HW213932   1.279   3.055   2.768
 4345SOL     OW13933   3.060   3.289   4.880
 4345SOL    HW113934   3.005   3.368   4.905
 4345SOL    HW213935   3.086   3.295   4.784
 4346SOL     OW13936   2.137   2.584   2.533
 4346SOL    HW113937   2.178   2.674   2.522
 4346SOL    HW213938   2.071   2.568   2.459
 4347SOL     OW13939   5.591   6.539   2.610
 4347SOL    HW113940   5.660   6.486   2.561
 4347SOL    HW213941   5.636   6.608   2.668
 4348SOL     OW13942   0.519   6.039   4.233
 4348SOL    HW113943   0.605   6.077   4.265
 4348SOL    HW213944   0.460   6.018   4.311
 4349SOL     OW13945   6.592   2.573   4.225
 4349SOL    HW113946   6.549   2.634   4.291
 4349SOL    HW213947   6.625   2.625   4.147
 4350SOL     OW13948   4.567   1.789   4.201
 4350SOL    HW113949   4.622   1.719   4.245
 4350SOL    HW213950   4.471   1.778   4.228
 4351SOL     OW13951   1.313   6.334   1.222
 4351SOL    HW113952   1.341   6.366   1.312
 4351SOL    HW213953   1.346   6.399   1.153
 4352SOL     OW13954   6.559   4.165   1.614
 4352SOL    HW113955   6.492   4.102   1.577
 4352SOL    HW213956   6.623   4.193   1.542
 4353SOL     OW13957   3.356   3.648   0.246
 4353SOL    HW113958   3.311   3.614   0.328
 4353SOL    HW213959   3.345   3.581   0.172
 4354SOL     OW13960   1.351   1.659   6.449
 4354SOL    HW113961   1.374   1.681   6.544
 4354SOL    HW213962   1.327   1.562   6.442
 4355SOL     OW13963   1.920   6.968   2.601
 4355SOL    HW113964   1.902   6.899   2.671
 4355SOL    HW213965   2.018   6.987   2.597
 4356SOL     OW13966   4.511   3.345   5.498
 4356SOL    HW113967   4.492   3.387   5.587
 4356SOL    HW213968   4.432   3.358   5.438
 4357SOL     OW13969   6.578   1.211   1.220
 4357SOL    HW113970   6.533   1.298   1.201
 4357SOL    HW213971   6.603   1.166   1.135
 4358SOL     OW13972   6.773   0.365   0.422
 4358SOL    HW113973   6.802   0.377   0.327
 4358SOL    HW213974   6.704   0.433   0.445
 4359SOL     OW13975   1.256   1.226   6.901
 4359SOL    HW113976   1.271   1.128   6.889
 4359SOL    HW213977   1.181   1.240   6.966
 4360SOL     OW13978   0.652   2.671   4.628
 4360SOL    HW113979   0.591   2.749   4.642
 4360SOL    HW213980   0.735   2.701   4.580
 4361SOL     OW13981   1.888   3.789   1.337
 4361SOL    HW113982   1.916   3.836   1.253
 4361SOL    HW213983   1.967   3.772   1.395
 4362SOL     OW13984   0.109   5.866   4.012
 4362SOL    HW113985   0.029   5.926   4.006
 4362SOL    HW213986   0.136   5.836   3.921
 4363SOL     OW13987   4.684   1.370   1.766
 4363SOL    HW113988   4.658   1.419   1.850
 4363SOL    HW213989   4.646   1.277   1.769
 4364SOL     OW13990   3.312   4.111   3.453
 4364SOL    HW113991   3.271   4.054   3.382
 4364SOL    HW213992   3.404   4.139   3.425
 4365SOL     OW13993   2.891   0.944   2.136
 4365SOL    HW113994   2.988   0.960   2.153
 4365SOL    HW213995   2.844   0.926   2.222
 4366SOL     OW13996   6.090   6.224   6.560
 4366SOL    HW113997   6.185   6.234   6.530
 4366SOL    HW213998   6.045   6.152   6.507
 4367SOL     OW13999   2.689   4.897   3.728
 4367SOL    HW114000   2.589   4.887   3.729
 4367SOL    HW214001   2.714   4.988   3.696
 4368SOL     OW14002   3.724   5.661   1.781
 4368SOL    HW114003   3.669   5.578   1.768
 4368SOL    HW214004   3.667   5.734   1.819
 4369SOL     OW14005   4.778   5.083   3.169
 4369SOL    HW114006   4.727   5.163   3.199
 4369SOL    HW214007   4.715   5.014   3.134
 4370SOL     OW14008   3.503   3.996   1.560
 4370SOL    HW114009   3.476   3.988   1.656
 4370SOL    HW214010   3.571   3.926   1.538
 4371SOL     OW14011   2.277   1.302   2.875
 4371SOL    HW114012   2.233   1.280   2.962
 4371SOL    HW214013   2.354   1.365   2.892
 4372SOL     OW14014   2.361   2.618   4.159
 4372SOL    HW114015   2.410   2.573   4.084
 4372SOL    HW214016   2.420   2.621   4.239
 4373SOL     OW14017   4.360   0.728   6.674
 4373SOL    HW114018   4.368   0.735   6.575
 4373SOL    HW214019   4.439   0.772   6.717
 4374SOL     OW14020   2.213   1.816   1.631
 4374SOL    HW114021   2.287   1.795   1.694
 4374SOL    HW214022   2.225   1.765   1.546
 4375SOL     OW14023   3.992   6.210   2.822
 4375SOL    HW114024   3.970   6.121   2.863
 4375SOL    HW214025   3.985   6.203   2.723
 4376SOL     OW14026   6.583   0.735   1.951
 4376SOL    HW114027   6.656   0.739   1.882
 4376SOL    HW214028   6.535   0.822   1.953
 4377SOL     OW14029   5.858   5.710   0.531
 4377SOL    HW114030   5.765   5.733   0.503
 4377SOL    HW214031   5.858   5.676   0.625
 4378SOL     OW14032   1.665   4.119   2.958
 4378SOL    HW114033   1.673   4.133   2.859
 4378SOL    HW214034   1.663   4.021   2.978
 4379SOL     OW14035   2.298   1.098   1.883
 4379SOL    HW114036   2.208   1.113   1.843
 4379SOL    HW214037   2.331   1.183   1.924
 4380SOL     OW14038   1.614   6.418   3.915
 4380SOL    HW114039   1.665   6.458   3.992
 4380SOL    HW214040   1.542   6.481   3.886
 4381SOL     OW14041   2.091   3.970   4.905
 4381SOL    HW114042   2.106   3.880   4.864
 4381SOL    HW214043   2.172   3.996   4.959
 4382SOL     OW14044   5.965   3.896   6.310
 4382SOL    HW114045   5.999   3.843   6.232
 4382SOL    HW214046   6.038   3.953   6.347
 4383SOL     OW14047   0.440   2.693   5.458
 4383SOL    HW114048   0.424   2.787   5.488
 4383SOL    HW214049   0.526   2.659   5.497
 4384SOL     OW14050   5.503   0.950   6.776
 4384SOL    HW114051   5.446   0.896   6.713
 4384SOL    HW214052   5.539   0.891   6.847
 4385SOL     OW14053   6.599   2.922   4.604
 4385SOL    HW114054   6.649   2.894   4.522
 4385SOL    HW214055   6.501   2.920   4.585
 4386SOL     OW14056   0.909   3.902   6.883
 4386SOL    HW114057   0.990   3.866   6.839
 4386SOL    HW214058   0.853   3.950   6.816
 4387SOL     OW14059   0.985   1.814   1.892
 4387SOL    HW114060   1.081   1.789   1.876
 4387SOL    HW214061   0.943   1.842   1.806
 4388SOL     OW14062   5.056   0.923   6.507
 4388SOL    HW114063   5.005   0.859   6.563
 4388SOL    HW214064   5.030   0.911   6.411
 4389SOL     OW14065   5.110   1.608   0.432
 4389SOL    HW114066   5.067   1.688   0.473
 4389SOL    HW214067   5.139   1.630   0.338
 4390SOL     OW14068   3.854   2.112   2.151
 4390SOL    HW114069   3.823   2.114   2.246
 4390SOL    HW214070   3.775   2.116   2.090
 4391SOL     OW14071   1.753   5.320   6.205
 4391SOL    HW114072   1.759   5.345   6.108
 4391SOL    HW214073   1.810   5.240   6.222
 4392SOL     OW14074   6.265   3.518   4.955
 4392SOL    HW114075   6.359   3.485   4.961
 4392SOL    HW214076   6.238   3.557   5.042
 4393SOL     OW14077   5.304   6.417   2.850
 4393SOL    HW114078   5.381   6.354   2.845
 4393SOL    HW214079   5.324   6.489   2.917
 4394SOL     OW14080   6.148   5.263   2.562
 4394SOL    HW114081   6.150   5.239   2.465
 4394SOL    HW214082   6.186   5.355   2.575
 4395SOL     OW14083   3.939   1.573   2.060
 4395SOL    HW114084   4.022   1.607   2.104
 4395SOL    HW214085   3.962   1.532   1.972
 4396SOL     OW14086   2.796   1.808   4.099
 4396SOL    HW114087   2.696   1.816   4.110
 4396SOL    HW214088   2.825   1.715   4.121
 4397SOL     OW14089   0.681   1.427   4.812
 4397SOL    HW114090   0.712   1.520   4.836
 4397SOL    HW214091   0.585   1.430   4.786
 4398SOL     OW14092   1.462   4.618   5.026
 4398SOL    HW114093   1.472   4.518   5.030
 4398SOL    HW214094   1.461   4.647   4.930
 4399SOL     OW14095   1.967   0.485   2.149
 4399SOL    HW114096   2.031   0.408   2.148
 4399SOL    HW214097   1.987   0.543   2.228
 4400SOL     OW14098   2.187   0.083   4.945
 4400SOL    HW114099   2.127   0.065   4.867
 4400SOL    HW214100   2.261   0.144   4.917
 4401SOL     OW14101   5.301   6.545   6.585
 4401SOL    HW114102   5.299   6.596   6.671
 4401SOL    HW214103   5.262   6.602   6.512
 4402SOL     OW14104   1.908   6.409   2.292
 4402SOL    HW114105   1.925   6.450   2.203
 4402SOL    HW214106   1.974   6.335   2.307
 4403SOL     OW14107   0.295   0.073   3.764
 4403SOL    HW114108   0.369   0.136   3.785
 4403SOL    HW214109   0.302   7.016   3.824
 4404SOL     OW14110   0.863   4.006   5.597
 4404SOL    HW114111   0.775   3.968   5.567
 4404SOL    HW214112   0.893   4.075   5.531
 4405SOL     OW14113   2.670   4.172   0.139
 4405SOL    HW114114   2.754   4.119   0.130
 4405SOL    HW214115   2.598   4.113   0.176
 4406SOL     OW14116   5.742   4.472   1.531
 4406SOL    HW114117   5.677   4.545   1.551
 4406SOL    HW214118   5.809   4.466   1.605
 4407SOL     OW14119   0.116   4.684   0.724
 4407SOL    HW114120   0.070   4.675   0.813
 4407SOL    HW214121   0.172   4.603   0.707
 4408SOL     OW14122   4.544   0.867   1.132
 4408SOL    HW114123   4.510   0.877   1.225
 4408SOL    HW214124   4.642   0.888   1.130
 4409SOL     OW14125   4.124   0.653   2.482
 4409SOL    HW114126   4.193   0.608   2.424
 4409SOL    HW214127   4.064   0.709   2.425
 4410SOL     OW14128   1.879   5.276   0.673
 4410SOL    HW114129   1.842   5.209   0.737
 4410SOL    HW214130   1.971   5.247   0.645
 4411SOL     OW14131   3.980   3.137   3.924
 4411SOL    HW114132   4.024   3.162   4.010
 4411SOL    HW214133   3.892   3.183   3.916
 4412SOL     OW14134   3.400   1.183   4.443
 4412SOL    HW114135   3.326   1.202   4.508
 4412SOL    HW214136   3.469   1.254   4.449
 4413SOL     OW14137   4.588   5.805   4.646
 4413SOL    HW114138   4.659   5.875   4.660
 4413SOL    HW214139   4.630   5.721   4.614
 4414SOL     OW14140   4.214   4.932   2.138
 4414SOL    HW114141   4.206   4.879   2.053
 4414SOL    HW214142   4.134   4.991   2.148
 4415SOL     OW14143   3.876   4.263   6.288
 4415SOL    HW114144   3.927   4.180   6.312
 4415SOL    HW214145   3.783   4.256   6.324
 4416SOL     OW14146   3.225   1.081   3.999
 4416SOL    HW114147   3.289   1.011   3.966
 4416SOL    HW214148   3.227   1.159   3.936
 4417SOL     OW14149   6.562   4.574   3.378
 4417SOL    HW114150   6.629   4.530   3.318
 4417SOL    HW214151   6.594   4.569   3.473
 4418SOL     OW14152   5.657   0.710   3.908
 4418SOL    HW114153   5.665   0.701   3.809
 4418SOL    HW214154   5.728   0.772   3.942
 4419SOL     OW14155   5.819   6.072   0.328
 4419SOL    HW114156   5.756   6.000   0.301
 4419SOL    HW214157   5.884   6.036   0.396
 4420SOL     OW14158   5.055   1.631   1.242
 4420SOL    HW114159   5.056   1.671   1.333
 4420SOL    HW214160   5.125   1.561   1.235
 4421SOL     OW14161   1.863   0.925   3.310
 4421SOL    HW114162   1.777   0.957   3.271
 4421SOL    HW214163   1.914   0.873   3.241
 4422SOL     OW14164   2.291   3.672   6.150
 4422SOL    HW114165   2.323   3.689   6.057
 4422SOL    HW214166   2.242   3.753   6.183
 4423SOL     OW14167   1.375   2.673   5.815
 4423SOL    HW114168   1.312   2.729   5.763
 4423SOL    HW214169   1.412   2.601   5.756
 4424SOL     OW14170   5.410   6.580   3.933
 4424SOL    HW114171   5.387   6.533   4.018
 4424SOL    HW214172   5.482   6.529   3.885
 4425SOL     OW14173   3.407   5.747   5.807
 4425SOL    HW114174   3.344   5.761   5.731
 4425SOL    HW214175   3.440   5.836   5.840
 4426SOL     OW14176   0.147   1.929   5.104
 4426SOL    HW114177   0.079   1.895   5.169
 4426SOL    HW214178   0.224   1.865   5.099
 4427SOL     OW14179   6.865   6.750   3.061
 4427SOL    HW114180   6.906   6.666   3.026
 4427SOL    HW214181   6.778   6.767   3.014
 4428SOL     OW14182   3.165   5.154   2.103
 4428SOL    HW114183   3.216   5.235   2.129
 4428SOL    HW214184   3.184   5.081   2.169
 4429SOL     OW14185   2.583   0.823   3.591
 4429SOL    HW114186   2.585   0.854   3.686
 4429SOL    HW214187   2.513   0.873   3.541
 4430SOL     OW14188   5.543   3.285   4.414
 4430SOL    HW114189   5.598   3.363   4.384
 4430SOL    HW214190   5.485   3.314   4.491
 4431SOL     OW14191   1.421   0.946   2.164
 4431SOL    HW114192   1.450   1.028   2.116
 4431SOL    HW214193   1.323   0.951   2.184
 4432SOL     OW14194   3.321   4.053   3.730
 4432SOL    HW114195   3.401   4.094   3.773
 4432SOL    HW214196   3.316   4.081   3.634
 4433SOL     OW14197   6.025   0.554   4.720
 4433SOL    HW114198   6.036   0.611   4.802
 4433SOL    HW214199   6.016   0.458   4.748
 4434SOL     OW14200   4.053   2.004   3.293
 4434SOL    HW114201   4.144   1.984   3.329
 4434SOL    HW214202   4.055   2.001   3.193
 4435SOL     OW14203   4.155   3.940   0.925
 4435SOL    HW114204   4.097   3.932   1.006
 4435SOL    HW214205   4.183   4.035   0.913
 4436SOL     OW14206   3.373   1.978   0.496
 4436SOL    HW114207   3.422   1.928   0.425
 4436SOL    HW214208   3.313   2.046   0.453
 4437SOL     OW14209   5.513   1.093   3.851
 4437SOL    HW114210   5.474   1.012   3.808
 4437SOL    HW214211   5.583   1.132   3.790
 4438SOL     OW14212   4.071   1.256   6.999
 4438SOL    HW114213   4.165   1.281   6.972
 4438SOL    HW214214   4.036   1.323   0.041
 4439SOL     OW14215   0.572   6.209   1.295
 4439SOL    HW114216   0.548   6.170   1.383
 4439SOL    HW214217   0.539   6.303   1.289
 4440SOL     OW14218   1.914   4.392   0.641
 4440SOL    HW114219   1.937   4.345   0.555
 4440SOL    HW214220   1.970   4.475   0.649
 4441SOL     OW14221   6.488   1.857   2.767
 4441SOL    HW114222   6.535   1.943   2.750
 4441SOL    HW214223   6.511   1.791   2.695
 4442SOL     OW14224   3.022   6.033   4.190
 4442SOL    HW114225   3.080   5.977   4.250
 4442SOL    HW214226   3.075   6.060   4.110
 4443SOL     OW14227   6.922   2.701   0.586
 4443SOL    HW114228   6.920   2.790   0.541
 4443SOL    HW214229   6.962   2.633   0.524
 4444SOL     OW14230   3.683   5.524   6.223
 4444SOL    HW114231   3.612   5.570   6.277
 4444SOL    HW214232   3.640   5.472   6.149
 4445SOL     OW14233   0.020   0.443   0.999
 4445SOL    HW114234   6.965   0.420   0.939
 4445SOL    HW214235   0.093   0.377   0.984
 4446SOL     OW14236   6.145   1.587   1.734
 4446SOL    HW114237   6.100   1.628   1.655
 4446SOL    HW214238   6.170   1.659   1.799
 4447SOL     OW14239   5.805   3.592   6.057
 4447SOL    HW114240   5.740   3.655   6.100
 4447SOL    HW214241   5.838   3.631   5.971
 4448SOL     OW14242   3.369   4.053   0.907
 4448SOL    HW114243   3.346   3.994   0.830
 4448SOL    HW214244   3.286   4.073   0.960
 4449SOL     OW14245   4.142   0.818   6.047
 4449SOL    HW114246   4.200   0.895   6.073
 4449SOL    HW214247   4.191   0.732   6.063
 4450SOL     OW14248   4.048   3.564   4.334
 4450SOL    HW114249   3.967   3.601   4.380
 4450SOL    HW214250   4.033   3.566   4.235
 4451SOL     OW14251   5.609   4.294   3.138
 4451SOL    HW114252   5.650   4.365   3.080
 4451SOL    HW214253   5.509   4.303   3.136
 4452SOL     OW14254   5.786   6.502   4.694
 4452SOL    HW114255   5.717   6.542   4.633
 4452SOL    HW214256   5.812   6.570   4.764
 4453SOL     OW14257   6.515   2.955   1.469
 4453SOL    HW114258   6.555   2.903   1.545
 4453SOL    HW214259   6.442   2.900   1.427
 4454SOL     OW14260   5.484   1.965   6.756
 4454SOL    HW114261   5.543   1.921   6.689
 4454SOL    HW214262   5.539   1.994   6.834
 4455SOL     OW14263   3.975   0.364   5.988
 4455SOL    HW114264   3.895   0.305   5.989
 4455SOL    HW214265   4.002   0.388   6.081
 4456SOL     OW14266   3.248   5.163   2.864
 4456SOL    HW114267   3.248   5.245   2.806
 4456SOL    HW214268   3.205   5.185   2.952
 4457SOL     OW14269   4.333   2.276   0.190
 4457SOL    HW114270   4.234   2.262   0.183
 4457SOL    HW214271   4.369   2.225   0.267
 4458SOL     OW14272   1.273   4.012   0.143
 4458SOL    HW114273   1.239   4.046   0.056
 4458SOL    HW214274   1.299   3.916   0.134
 4459SOL     OW14275   5.088   0.701   3.545
 4459SOL    HW114276   5.044   0.732   3.629
 4459SOL    HW214277   5.162   0.637   3.568
 4460SOL     OW14278   3.065   3.268   5.466
 4460SOL    HW114279   3.077   3.172   5.488
 4460SOL    HW214280   3.047   3.278   5.368
 4461SOL     OW14281   0.751   0.659   2.763
 4461SOL    HW114282   0.814   0.716   2.816
 4461SOL    HW214283   0.761   0.564   2.790
 4462SOL     OW14284   6.859   3.440   1.937
 4462SOL    HW114285   6.911   3.525   1.941
 4462SOL    HW214286   6.843   3.407   2.030
 4463SOL     OW14287   2.923   2.748   6.996
 4463SOL    HW114288   2.893   2.810   0.046
 4463SOL    HW214289   2.991   2.684   0.010
 4464SOL     OW14290   6.223   4.419   6.937
 4464SOL    HW114291   6.142   4.430   6.879
 4464SOL    HW214292   6.206   4.465   0.002
 4465SOL     OW14293   2.343   5.258   3.352
 4465SOL    HW114294   2.270   5.200   3.386
 4465SOL    HW214295   2.339   5.263   3.252
 4466SOL     OW14296   1.044   0.534   2.351
 4466SOL    HW114297   0.976   0.483   2.298
 4466SOL    HW214298   1.095   0.470   2.409
 4467SOL     OW14299   1.597   6.718   3.694
 4467SOL    HW114300   1.604   6.635   3.750
 4467SOL    HW214301   1.519   6.772   3.726
 4468SOL     OW14302   1.393   2.655   0.850
 4468SOL    HW114303   1.447   2.589   0.903
 4468SOL    HW214304   1.378   2.737   0.905
 4469SOL     OW14305   3.741   0.449   1.660
 4469SOL    HW114306   3.724   0.402   1.574
 4469SOL    HW214307   3.709   0.392   1.736
 4470SOL     OW14308   6.189   3.652   2.080
 4470SOL    HW114309   6.103   3.623   2.038
 4470SOL    HW214310   6.263   3.642   2.014
 4471SOL     OW14311   6.786   1.581   0.436
 4471SOL    HW114312   6.882   1.559   0.420
 4471SOL    HW214313   6.764   1.668   0.392
 4472SOL     OW14314   2.062   2.788   3.687
 4472SOL    HW114315   2.031   2.693   3.682
 4472SOL    HW214316   1.999   2.841   3.744
 4473SOL     OW14317   6.723   2.358   3.570
 4473SOL    HW114318   6.780   2.381   3.648
 4473SOL    HW214319   6.780   2.354   3.487
 4474SOL     OW14320   3.597   0.749   2.006
 4474SOL    HW114321   3.643   0.832   2.037
 4474SOL    HW214322   3.623   0.673   2.065
 4475SOL     OW14323   1.855   3.954   2.466
 4475SOL    HW114324   1.853   3.903   2.380
 4475SOL    HW214325   1.937   3.928   2.518
 4476SOL     OW14326   4.790   6.360   3.923
 4476SOL    HW114327   4.823   6.347   4.016
 4476SOL    HW214328   4.818   6.450   3.889
 4477SOL     OW14329   1.415   0.394   5.691
 4477SOL    HW114330   1.428   0.463   5.620
 4477SOL    HW214331   1.480   0.320   5.678
 4478SOL     OW14332   3.512   5.952   2.309
 4478SOL    HW114333   3.472   5.864   2.282
 4478SOL    HW214334   3.449   6.000   2.370
 4479SOL     OW14335   0.413   0.544   1.217
 4479SOL    HW114336   0.397   0.635   1.179
 4479SOL    HW214337   0.510   0.522   1.212
 4480SOL     OW14338   1.613   3.564   5.571
 4480SOL    HW114339   1.688   3.498   5.576
 4480SOL    HW214340   1.615   3.611   5.482
 4481SOL     OW14341   2.765   6.912   4.851
 4481SOL    HW114342   2.858   6.909   4.888
 4481SOL    HW214343   2.756   6.991   4.790
 4482SOL     OW14344   0.411   4.173   4.127
 4482SOL    HW114345   0.346   4.248   4.141
 4482SOL    HW214346   0.487   4.183   4.191
 4483SOL     OW14347   5.224   3.574   1.934
 4483SOL    HW114348   5.273   3.631   2.000
 4483SOL    HW214349   5.269   3.579   1.845
 4484SOL     OW14350   3.331   2.589   5.477
 4484SOL    HW114351   3.279   2.561   5.558
 4484SOL    HW214352   3.359   2.508   5.426
 4485SOL     OW14353   5.260   2.073   5.777
 4485SOL    HW114354   5.212   2.140   5.834
 4485SOL    HW214355   5.317   2.015   5.834
 4486SOL     OW14356   5.371   3.769   4.471
 4486SOL    HW114357   5.293   3.723   4.429
 4486SOL    HW214358   5.407   3.712   4.545
 4487SOL     OW14359   2.401   2.997   6.544
 4487SOL    HW114360   2.361   3.088   6.535
 4487SOL    HW214361   2.482   3.002   6.602
 4488SOL     OW14362   6.121   3.460   5.289
 4488SOL    HW114363   6.130   3.394   5.215
 4488SOL    HW214364   6.133   3.413   5.377
 4489SOL     OW14365   5.528   5.531   4.434
 4489SOL    HW114366   5.466   5.455   4.453
 4489SOL    HW214367   5.521   5.557   4.338
 4490SOL     OW14368   6.147   2.569   2.477
 4490SOL    HW114369   6.220   2.562   2.545
 4490SOL    HW214370   6.177   2.629   2.403
 4491SOL     OW14371   0.304   3.123   4.265
 4491SOL    HW114372   0.288   3.216   4.234
 4491SOL    HW214373   0.275   3.114   4.360
 4492SOL     OW14374   5.040   3.459   0.863
 4492SOL    HW114375   4.943   3.451   0.884
 4492SOL    HW214376   5.093   3.427   0.942
 4493SOL     OW14377   4.877   5.817   5.597
 4493SOL    HW114378   4.865   5.719   5.609
 4493SOL    HW214379   4.789   5.860   5.577
 4494SOL     OW14380   6.703   1.703   5.642
 4494SOL    HW114381   6.676   1.756   5.562
 4494SOL    HW214382   6.779   1.748   5.689
 4495SOL     OW14383   4.814   5.694   4.059
 4495SOL    HW114384   4.867   5.643   4.128
 4495SOL    HW214385   4.778   5.778   4.100
 4496SOL     OW14386   4.090   6.049   1.140
 4496SOL    HW114387   4.001   6.019   1.107
 4496SOL    HW214388   4.159   6.031   1.070
 4497SOL     OW14389   4.819   0.444   6.633
 4497SOL    HW114390   4.895   0.428   6.695
 4497SOL    HW214391   4.815   0.370   6.566
 4498SOL     OW14392   0.274   3.166   6.559
 4498SOL    HW114393   0.176   3.185   6.559
 4498SOL    HW214394   0.303   3.138   6.467
 4499SOL     OW14395   0.427   3.602   3.629
 4499SOL    HW114396   0.328   3.601   3.614
 4499SOL    HW214397   0.449   3.672   3.698
 4500SOL     OW14398   3.027   3.262   4.090
 4500SOL    HW114399   3.016   3.349   4.138
 4500SOL    HW214400   3.044   3.189   4.155
 4501SOL     OW14401   6.812   2.859   5.637
 4501SOL    HW114402   6.860   2.804   5.570
 4501SOL    HW214403   6.870   2.936   5.664
 4502SOL     OW14404   1.546   1.646   0.138
 4502SOL    HW114405   1.619   1.689   0.085
 4502SOL    HW214406   1.544   1.685   0.230
 4503SOL     OW14407   3.482   0.141   2.694
 4503SOL    HW114408   3.454   0.229   2.655
 4503SOL    HW214409   3.553   0.100   2.636
 4504SOL     OW14410   6.917   1.222   4.618
 4504SOL    HW114411   6.918   1.249   4.714
 4504SOL    HW214412   6.917   1.122   4.612
 4505SOL     OW14413   6.361   5.716   3.258
 4505SOL    HW114414   6.271   5.758   3.271
 4505SOL    HW214415   6.431   5.771   3.304
 4506SOL     OW14416   4.337   2.378   4.082
 4506SOL    HW114417   4.264   2.315   4.055
 4506SOL    HW214418   4.339   2.387   4.181
 4507SOL     OW14419   5.320   4.670   2.216
 4507SOL    HW114420   5.327   4.764   2.249
 4507SOL    HW214421   5.407   4.623   2.231
 4508SOL     OW14422   0.890   5.065   5.991
 4508SOL    HW114423   0.897   5.143   6.053
 4508SOL    HW214424   0.925   5.090   5.901
 4509SOL     OW14425   5.210   1.807   3.725
 4509SOL    HW114426   5.281   1.877   3.715
 4509SOL    HW214427   5.131   1.847   3.772
 4510SOL     OW14428   4.684   0.427   4.984
 4510SOL    HW114429   4.732   0.441   4.897
 4510SOL    HW214430   4.744   0.378   5.048
 4511SOL     OW14431   6.829   3.690   6.667
 4511SOL    HW114432   6.736   3.723   6.649
 4511SOL    HW214433   6.824   3.606   6.722
 4512SOL     OW14434   2.677   0.005   5.882
 4512SOL    HW114435   2.650   0.055   5.800
 4512SOL    HW214436   2.714   6.939   5.856
 4513SOL     OW14437   4.900   6.648   0.710
 4513SOL    HW114438   4.982   6.630   0.657
 4513SOL    HW214439   4.849   6.563   0.723
 4514SOL     OW14440   5.127   1.026   5.380
 4514SOL    HW114441   5.218   1.046   5.342
 4514SOL    HW214442   5.103   1.093   5.449
 4515SOL     OW14443   0.305   3.750   5.748
 4515SOL    HW114444   0.352   3.734   5.835
 4515SOL    HW214445   0.240   3.825   5.760
 4516SOL     OW14446   1.830   0.989   6.216
 4516SOL    HW114447   1.749   1.005   6.159
 4516SOL    HW214448   1.869   1.077   6.244
 4517SOL     OW14449   1.804   0.628   6.855
 4517SOL    HW114450   1.829   0.547   6.908
 4517SOL    HW214451   1.876   0.646   6.787
 4518SOL     OW14452   6.876   1.111   3.403
 4518SOL    HW114453   6.782   1.133   3.377
 4518SOL    HW214454   6.890   1.012   3.401
 4519SOL     OW14455   5.701   7.008   2.155
 4519SOL    HW114456   5.696   6.942   2.230
 4519SOL    HW214457   5.622   0.046   2.159
 4520SOL     OW14458   5.596   6.167   3.668
 4520SOL    HW114459   5.675   6.155   3.607
 4520SOL    HW214460   5.515   6.130   3.624
 4521SOL     OW14461   5.522   1.914   4.095
 4521SOL    HW114462   5.472   1.975   4.033
 4521SOL    HW214463   5.620   1.927   4.082
 4522SOL     OW14464   5.695   6.725   3.562
 4522SOL    HW114465   5.740   6.660   3.623
 4522SOL    HW214466   5.750   6.736   3.479
 4523SOL     OW14467   1.341   4.424   0.067
 4523SOL    HW114468   1.360   4.365   0.146
 4523SOL    HW214469   1.309   4.513   0.100
 4524SOL     OW14470   5.423   2.148   4.314
 4524SOL    HW114471   5.333   2.151   4.269
 4524SOL    HW214472   5.421   2.079   4.387
 4525SOL     OW14473   5.716   1.340   2.879
 4525SOL    HW114474   5.787   1.315   2.946
 4525SOL    HW214475   5.742   1.425   2.833
 4526SOL     OW14476   5.376   0.568   0.907
 4526SOL    HW114477   5.303   0.599   0.967
 4526SOL    HW214478   5.426   0.647   0.870
 4527SOL     OW14479   4.663   1.178   3.734
 4527SOL    HW114480   4.735   1.125   3.779
 4527SOL    HW214481   4.646   1.141   3.643
 4528SOL     OW14482   4.392   6.747   6.759
 4528SOL    HW114483   4.407   6.653   6.729
 4528SOL    HW214484   4.422   6.810   6.686
 4529SOL     OW14485   3.292   1.914   4.419
 4529SOL    HW114486   3.346   1.841   4.377
 4529SOL    HW214487   3.207   1.927   4.367
 4530SOL     OW14488   7.002   3.385   5.687
 4530SOL    HW114489   6.920   3.398   5.743
 4530SOL    HW214490   6.976   3.345   5.599
 4531SOL     OW14491   0.547   3.423   3.474
 4531SOL    HW114492   0.512   3.492   3.537
 4531SOL    HW214493   0.618   3.369   3.520
 4532SOL     OW14494   6.541   1.476   3.003
 4532SOL    HW114495   6.538   1.382   3.037
 4532SOL    HW214496   6.503   1.480   2.911
 4533SOL     OW14497   1.151   0.307   2.502
 4533SOL    HW114498   1.111   0.240   2.565
 4533SOL    HW214499   1.210   0.369   2.554
 4534SOL     OW14500   5.661   4.050   5.042
 4534SOL    HW114501   5.672   4.051   4.942
 4534SOL    HW214502   5.594   4.120   5.069
 4535SOL     OW14503   4.864   1.694   2.627
 4535SOL    HW114504   4.871   1.772   2.565
 4535SOL    HW214505   4.809   1.719   2.707
 4536SOL     OW14506   4.453   2.137   3.926
 4536SOL    HW114507   4.527   2.112   3.989
 4536SOL    HW214508   4.458   2.234   3.905
 4537SOL     OW14509   3.785   3.241   6.076
 4537SOL    HW114510   3.797   3.338   6.095
 4537SOL    HW214511   3.849   3.214   6.003
 4538SOL     OW14512   2.743   0.763   3.965
 4538SOL    HW114513   2.773   0.800   4.053
 4538SOL    HW214514   2.667   0.700   3.979
 4539SOL     OW14515   2.185   0.893   4.063
 4539SOL    HW114516   2.126   0.970   4.088
 4539SOL    HW214517   2.165   0.865   3.969
 4540SOL     OW14518   3.113   3.037   4.530
 4540SOL    HW114519   3.051   3.116   4.529
 4540SOL    HW214520   3.143   3.019   4.623
 4541SOL     OW14521   5.376   1.054   0.538
 4541SOL    HW114522   5.356   1.082   0.444
 4541SOL    HW214523   5.429   1.126   0.583
 4542SOL     OW14524   6.508   0.004   1.926
 4542SOL    HW114525   6.448   0.061   1.983
 4542SOL    HW214526   6.490   0.024   1.830
 4543SOL     OW14527   5.073   1.759   0.786
 4543SOL    HW114528   5.023   1.804   0.860
 4543SOL    HW214529   5.016   1.686   0.747
 4544SOL     OW14530   2.963   6.332   6.012
 4544SOL    HW114531   2.973   6.233   6.010
 4544SOL    HW214532   2.965   6.368   5.918
 4545SOL     OW14533   5.919   2.566   4.584
 4545SOL    HW114534   5.884   2.630   4.652
 4545SOL    HW214535   5.952   2.484   4.631
 4546SOL     OW14536   1.296   1.373   6.530
 4546SOL    HW114537   1.227   1.310   6.566
 4546SOL    HW214538   1.344   1.329   6.455
 4547SOL     OW14539   6.665   2.924   3.158
 4547SOL    HW114540   6.658   2.919   3.258
 4547SOL    HW214541   6.586   2.880   3.116
 4548SOL     OW14542   1.251   4.206   4.724
 4548SOL    HW114543   1.266   4.264   4.643
 4548SOL    HW214544   1.222   4.264   4.800
 4549SOL     OW14545   5.827   3.704   2.245
 4549SOL    HW114546   5.905   3.767   2.254
 4549SOL    HW214547   5.746   3.755   2.215
 4550SOL     OW14548   0.691   6.347   3.027
 4550SOL    HW114549   0.610   6.327   2.971
 4550SOL    HW214550   0.753   6.269   3.026
 4551SOL     OW14551   6.200   2.042   6.407
 4551SOL    HW114552   6.212   2.139   6.431
 4551SOL    HW214553   6.286   1.993   6.421
 4552SOL     OW14554   6.645   2.899   0.699
 4552SOL    HW114555   6.661   2.960   0.776
 4552SOL    HW214556   6.724   2.840   0.686
 4553SOL     OW14557   3.893   3.910   6.765
 4553SOL    HW114558   3.942   3.836   6.811
 4553SOL    HW214559   3.824   3.871   6.704
 4554SOL     OW14560   4.415   0.611   1.638
 4554SOL    HW114561   4.323   0.651   1.634
 4554SOL    HW214562   4.447   0.591   1.546
 4555SOL     OW14563   3.438   1.833   5.600
 4555SOL    HW114564   3.519   1.890   5.609
 4555SOL    HW214565   3.364   1.869   5.658
 4556SOL     OW14566   4.638   2.247   3.539
 4556SOL    HW114567   4.625   2.222   3.635
 4556SOL    HW214568   4.556   2.292   3.504
 4557SOL     OW14569   5.317   6.703   5.026
 4557SOL    HW114570   5.258   6.779   5.050
 4557SOL    HW214571   5.411   6.723   5.056
 4558SOL     OW14572   6.792   3.457   5.830
 4558SOL    HW114573   6.738   3.531   5.790
 4558SOL    HW214574   6.806   3.475   5.927
 4559SOL     OW14575   0.695   4.660   1.881
 4559SOL    HW114576   0.636   4.581   1.859
 4559SOL    HW214577   0.677   4.689   1.975
 4560SOL     OW14578   4.601   4.871   3.582
 4560SOL    HW114579   4.516   4.894   3.629
 4560SOL    HW214580   4.651   4.954   3.561
 4561SOL     OW14581   3.026   0.360   1.092
 4561SOL    HW114582   2.995   0.454   1.078
 4561SOL    HW214583   3.003   0.305   1.012
 4562SOL     OW14584   3.062   6.249   5.253
 4562SOL    HW114585   3.076   6.348   5.258
 4562SOL    HW214586   3.112   6.205   5.328
 4563SOL     OW14587   0.192   4.129   0.408
 4563SOL    HW114588   0.189   4.109   0.310
 4563SOL    HW214589   0.214   4.226   0.421
 4564SOL     OW14590   0.471   6.962   1.030
 4564SOL    HW114591   0.523   6.901   0.970
 4564SOL    HW214592   0.373   6.945   1.018
 4565SOL     OW14593   0.379   1.218   5.761
 4565SOL    HW114594   0.389   1.272   5.845
 4565SOL    HW214595   0.296   1.163   5.767
 4566SOL     OW14596   6.640   1.382   0.965
 4566SOL    HW114597   6.658   1.286   0.988
 4566SOL    HW214598   6.711   1.440   1.006
 4567SOL     OW14599   0.301   0.834   6.940
 4567SOL    HW114600   0.230   0.793   6.883
 4567SOL    HW214601   0.258   0.879   7.018
 4568SOL     OW14602   0.823   5.112   5.270
 4568SOL    HW114603   0.834   5.203   5.230
 4568SOL    HW214604   0.803   5.121   5.368
 4569SOL     OW14605   1.663   0.917   3.117
 4569SOL    HW114606   1.706   0.891   3.030
 4569SOL    HW214607   1.569   0.947   3.099
 4570SOL     OW14608   0.400   5.175   3.034
 4570SOL    HW114609   0.392   5.274   3.049
 4570SOL    HW214610   0.315   5.141   2.993
 4571SOL     OW14611   2.939   3.239   5.829
 4571SOL    HW114612   2.876   3.243   5.752
 4571SOL    HW214613   3.007   3.313   5.820
 4572SOL     OW14614   0.947   6.743   6.691
 4572SOL    HW114615   1.042   6.726   6.664
 4572SOL    HW214616   0.898   6.656   6.700
 4573SOL     OW14617   6.255   6.082   0.524
 4573SOL    HW114618   6.323   6.080   0.451
 4573SOL    HW214619   6.289   6.136   0.600
 4574SOL     OW14620   6.545   3.892   1.263
 4574SOL    HW114621   6.485   3.838   1.205
 4574SOL    HW214622   6.514   3.887   1.358
 4575SOL     OW14623   6.361   1.886   6.780
 4575SOL    HW114624   6.420   1.873   6.701
 4575SOL    HW214625   6.345   1.984   6.795
 4576SOL     OW14626   2.127   6.363   6.822
 4576SOL    HW114627   2.217   6.407   6.814
 4576SOL    HW214628   2.137   6.276   6.869
 4577SOL     OW14629   1.001   2.222   3.743
 4577SOL    HW114630   0.950   2.307   3.731
 4577SOL    HW214631   1.064   2.231   3.820
 4578SOL     OW14632   1.152   3.487   4.048
 4578SOL    HW114633   1.183   3.472   4.142
 4578SOL    HW214634   1.226   3.465   3.985
 4579SOL     OW14635   5.356   2.295   2.864
 4579SOL    HW114636   5.260   2.285   2.890
 4579SOL    HW214637   5.368   2.376   2.807
 4580SOL     OW14638   4.978   5.631   0.082
 4580SOL    HW114639   4.976   5.687   0.165
 4580SOL    HW214640   4.948   5.686   0.004
 4581SOL     OW14641   3.423   5.685   2.988
 4581SOL    HW114642   3.369   5.746   2.929
 4581SOL    HW214643   3.445   5.602   2.938
 4582SOL     OW14644   5.421   6.150   4.821
 4582SOL    HW114645   5.475   6.074   4.783
 4582SOL    HW214646   5.347   6.113   4.876
 4583SOL     OW14647   2.904   0.979   4.927
 4583SOL    HW114648   2.847   0.905   4.891
 4583SOL    HW214649   2.860   1.067   4.910
 4584SOL     OW14650   0.187   5.121   5.618
 4584SOL    HW114651   0.256   5.076   5.676
 4584SOL    HW214652   0.126   5.052   5.580
 4585SOL     OW14653   3.307   6.283   2.642
 4585SOL    HW114654   3.402   6.300   2.616
 4585SOL    HW214655   3.273   6.360   2.697
 4586SOL     OW14656   3.818   5.213   0.208
 4586SOL    HW114657   3.720   5.193   0.206
 4586SOL    HW214658   3.870   5.128   0.209
 4587SOL     OW14659   3.999   3.847   2.001
 4587SOL    HW114660   4.006   3.877   2.096
 4587SOL    HW214661   4.088   3.816   1.969
 4588SOL     OW14662   3.922   4.177   5.458
 4588SOL    HW114663   3.903   4.250   5.392
 4588SOL    HW214664   4.010   4.195   5.503
 4589SOL     OW14665   5.502   0.976   1.750
 4589SOL    HW114666   5.502   1.069   1.712
 4589SOL    HW214667   5.570   0.969   1.822
 4590SOL     OW14668   5.197   5.706   1.477
 4590SOL    HW114669   5.161   5.651   1.402
 4590SOL    HW214670   5.123   5.761   1.517
 4591SOL     OW14671   0.380   5.879   5.200
 4591SOL    HW114672   0.382   5.960   5.258
 4591SOL    HW214673   0.323   5.809   5.242
 4592SOL     OW14674   4.118   2.142   2.117
 4592SOL    HW114675   4.019   2.138   2.126
 4592SOL    HW214676   4.158   2.181   2.200
 4593SOL     OW14677   3.684   5.589   4.422
 4593SOL    HW114678   3.595   5.620   4.389
 4593SOL    HW214679   3.743   5.568   4.343
 4594SOL     OW14680   3.132   1.529   1.528
 4594SOL    HW114681   3.217   1.541   1.476
 4594SOL    HW214682   3.059   1.500   1.466
 4595SOL     OW14683   3.818   2.593   6.208
 4595SOL    HW114684   3.776   2.510   6.245
 4595SOL    HW214685   3.752   2.641   6.150
 4596SOL     OW14686   5.983   6.414   2.548
 4596SOL    HW114687   6.071   6.368   2.545
 4596SOL    HW214688   5.946   6.422   2.455
 4597SOL     OW14689   5.145   4.727   6.851
 4597SOL    HW114690   5.158   4.736   6.752
 4597SOL    HW214691   5.052   4.696   6.870
 4598SOL     OW14692   2.239   4.995   6.941
 4598SOL    HW114693   2.273   5.037   6.857
 4598SOL    HW214694   2.311   4.940   6.983
 4599SOL     OW14695   1.809   4.953   0.646
 4599SOL    HW114696   1.842   4.975   0.555
 4599SOL    HW214697   1.855   4.870   0.679
 4600SOL     OW14698   1.570   4.953   5.511
 4600SOL    HW114699   1.529   4.868   5.546
 4600SOL    HW214700   1.548   5.028   5.573
 4601SOL     OW14701   1.740   0.043   5.353
 4601SOL    HW114702   1.806   0.045   5.278
 4601SOL    HW214703   1.739   6.975   5.394
 4602SOL     OW14704   0.899   5.894   0.645
 4602SOL    HW114705   0.942   5.881   0.556
 4602SOL    HW214706   0.951   5.960   0.699
 4603SOL     OW14707   3.433   6.696   1.473
 4603SOL    HW114708   3.457   6.625   1.406
 4603SOL    HW214709   3.485   6.779   1.453
 4604SOL     OW14710   4.288   0.550   2.151
 4604SOL    HW114711   4.320   0.530   2.243
 4604SOL    HW214712   4.345   0.621   2.110
 4605SOL     OW14713   4.425   0.974   3.200
 4605SOL    HW114714   4.341   1.024   3.224
 4605SOL    HW214715   4.405   0.876   3.195
 4606SOL     OW14716   1.401   6.767   1.299
 4606SOL    HW114717   1.367   6.857   1.326
 4606SOL    HW214718   1.446   6.774   1.210
 4607SOL     OW14719   2.389   2.786   1.109
 4607SOL    HW114720   2.358   2.772   1.203
 4607SOL    HW214721   2.310   2.795   1.049
 4608SOL     OW14722   0.537   5.425   3.604
 4608SOL    HW114723   0.560   5.498   3.669
 4608SOL    HW214724   0.602   5.427   3.528
 4609SOL     OW14725   3.926   5.091   6.327
 4609SOL    HW114726   3.958   5.049   6.243
 4609SOL    HW214727   4.004   5.128   6.378
 4610SOL     OW14728   5.177   1.995   0.618
 4610SOL    HW114729   5.140   1.955   0.702
 4610SOL    HW214730   5.155   2.092   0.615
 4611SOL     OW14731   6.455   6.088   5.676
 4611SOL    HW114732   6.425   6.066   5.583
 4611SOL    HW214733   6.498   6.008   5.717
 4612SOL     OW14734   0.928   5.898   0.057
 4612SOL    HW114735   0.997   5.905   0.129
 4612SOL    HW214736   0.876   5.813   0.070
 4613SOL     OW14737   2.888   5.748   2.478
 4613SOL    HW114738   2.812   5.770   2.418
 4613SOL    HW214739   2.956   5.821   2.474
 4614SOL     OW14740   1.034   4.255   5.063
 4614SOL    HW114741   1.032   4.351   5.093
 4614SOL    HW214742   1.033   4.251   4.963
 4615SOL     OW14743   1.547   0.544   0.102
 4615SOL    HW114744   1.621   0.476   0.108
 4615SOL    HW214745   1.502   0.535   0.014
 4616SOL     OW14746   5.674   0.286   5.826
 4616SOL    HW114747   5.714   0.239   5.747
 4616SOL    HW214748   5.691   0.385   5.818
 4617SOL     OW14749   1.164   2.377   2.265
 4617SOL    HW114750   1.163   2.369   2.165
 4617SOL    HW214751   1.257   2.396   2.296
 4618SOL     OW14752   1.779   2.605   5.185
 4618SOL    HW114753   1.720   2.570   5.257
 4618SOL    HW214754   1.799   2.702   5.203
 4619SOL     OW14755   3.718   6.212   3.104
 4619SOL    HW114756   3.804   6.177   3.141
 4619SOL    HW214757   3.708   6.309   3.127
 4620SOL     OW14758   3.510   4.092   0.012
 4620SOL    HW114759   3.588   4.037   7.006
 4620SOL    HW214760   3.437   4.032   0.046
 4621SOL     OW14761   5.130   1.725   3.014
 4621SOL    HW114762   5.093   1.747   2.924
 4621SOL    HW214763   5.098   1.635   3.043
 4622SOL     OW14764   1.885   3.946   0.363
 4622SOL    HW114765   1.816   4.007   0.402
 4622SOL    HW214766   1.847   3.854   0.351
 4623SOL     OW14767   6.708   6.703   0.767
 4623SOL    HW114768   6.703   6.802   0.751
 4623SOL    HW214769   6.626   6.673   0.814
 4624SOL     OW14770   5.334   0.072   3.343
 4624SOL    HW114771   5.385   0.043   3.424
 4624SOL    HW214772   5.395   0.072   3.264
 4625SOL     OW14773   1.600   4.831   0.365
 4625SOL    HW114774   1.613   4.764   0.438
 4625SOL    HW214775   1.567   4.785   0.283
 4626SOL     OW14776   5.971   5.482   2.347
 4626SOL    HW114777   5.975   5.567   2.295
 4626SOL    HW214778   6.045   5.479   2.414
 4627SOL     OW14779   3.409   5.343   3.879
 4627SOL    HW114780   3.461   5.325   3.796
 4627SOL    HW214781   3.376   5.438   3.878
 4628SOL     OW14782   5.631   3.717   3.689
 4628SOL    HW114783   5.534   3.742   3.683
 4628SOL    HW214784   5.658   3.670   3.605
 4629SOL     OW14785   2.350   4.893   4.738
 4629SOL    HW114786   2.330   4.881   4.836
 4629SOL    HW214787   2.349   4.991   4.716
 4630SOL     OW14788   3.846   5.585   2.346
 4630SOL    HW114789   3.813   5.666   2.396
 4630SOL    HW214790   3.866   5.512   2.412
 4631SOL     OW14791   2.370   6.444   3.773
 4631SOL    HW114792   2.446   6.380   3.758
 4631SOL    HW214793   2.283   6.395   3.764
 4632SOL     OW14794   4.248   5.210   2.762
 4632SOL    HW114795   4.175   5.154   2.802
 4632SOL    HW214796   4.314   5.151   2.717
 4633SOL     OW14797   6.094   1.553   3.534
 4633SOL    HW114798   6.193   1.563   3.545
 4633SOL    HW214799   6.071   1.556   3.437
 4634SOL     OW14800   1.986   4.770   6.831
 4634SOL    HW114801   1.946   4.762   6.740
 4634SOL    HW214802   2.044   4.851   6.835
 4635SOL     OW14803   5.509   3.576   2.164
 4635SOL    HW114804   5.426   3.624   2.191
 4635SOL    HW214805   5.584   3.642   2.152
 4636SOL     OW14806   2.148   5.315   6.886
 4636SOL    HW114807   2.066   5.359   6.849
 4636SOL    HW214808   2.229   5.369   6.861
 4637SOL     OW14809   1.139   0.361   0.110
 4637SOL    HW114810   1.150   0.449   0.065
 4637SOL    HW214811   1.167   0.287   0.049
 4638SOL     OW14812   4.120   2.751   7.006
 4638SOL    HW114813   4.184   2.828   6.997
 4638SOL    HW214814   4.096   2.717   6.915
 4639SOL     OW14815   2.100   4.438   4.920
 4639SOL    HW114816   2.146   4.408   4.837
 4639SOL    HW214817   2.107   4.537   4.929
 4640SOL     OW14818   5.042   5.179   4.063
 4640SOL    HW114819   5.038   5.079   4.071
 4640SOL    HW214820   5.064   5.219   4.151
 4641SOL     OW14821   2.954   6.374   4.589
 4641SOL    HW114822   2.860   6.405   4.603
 4641SOL    HW214823   2.961   6.326   4.501
 4642SOL     OW14824   0.875   6.110   4.906
 4642SOL    HW114825   0.891   6.043   4.833
 4642SOL    HW214826   0.786   6.093   4.947
 4643SOL     OW14827   5.099   2.811   1.006
 4643SOL    HW114828   5.028   2.828   0.939
 4643SOL    HW214829   5.115   2.894   1.060
 4644SOL     OW14830   1.005   5.001   5.131
 4644SOL    HW114831   0.917   5.029   5.171
 4644SOL    HW214832   1.074   5.070   5.152
 4645SOL     OW14833   0.990   0.793   4.539
 4645SOL    HW114834   0.891   0.786   4.543
 4645SOL    HW214835   1.031   0.702   4.546
 4646SOL     OW14836   2.792   6.136   3.465
 4646SOL    HW114837   2.889   6.128   3.444
 4646SOL    HW214838   2.741   6.065   3.417
 4647SOL     OW14839   1.546   0.159   3.577
 4647SOL    HW114840   1.611   0.151   3.652
 4647SOL    HW214841   1.567   0.239   3.522
 4648SOL     OW14842   4.039   0.626   1.882
 4648SOL    HW114843   3.993   0.713   1.863
 4648SOL    HW214844   4.020   0.599   1.976
 4649SOL     OW14845   5.241   6.854   5.968
 4649SOL    HW114846   5.264   6.806   5.884
 4649SOL    HW214847   5.325   6.876   6.018
 4650SOL     OW14848   4.619   5.543   3.911
 4650SOL    HW114849   4.674   5.596   3.976
 4650SOL    HW214850   4.533   5.517   3.955
 4651SOL     OW14851   0.036   1.473   1.284
 4651SOL    HW114852   6.972   1.437   1.317
 4651SOL    HW214853   0.036   1.573   1.289
 4652SOL     OW14854   0.517   0.042   4.340
 4652SOL    HW114855   0.528   6.970   4.370
 4652SOL    HW214856   0.592   0.097   4.378
 4653SOL     OW14857   6.070   5.203   6.859
 4653SOL    HW114858   6.150   5.143   6.865
 4653SOL    HW214859   6.025   5.208   6.948
 4654SOL     OW14860   0.363   6.534   0.219
 4654SOL    HW114861   0.397   6.442   0.201
 4654SOL    HW214862   0.438   6.593   0.247
 4655SOL     OW14863   6.581   5.713   1.680
 4655SOL    HW114864   6.604   5.768   1.760
 4655SOL    HW214865   6.482   5.703   1.673
 4656SOL     OW14866   1.173   0.463   3.495
 4656SOL    HW114867   1.132   0.380   3.459
 4656SOL    HW214868   1.169   0.462   3.595
 4657SOL     OW14869   4.819   6.290   1.436
 4657SOL    HW114870   4.811   6.190   1.442
 4657SOL    HW214871   4.730   6.331   1.453
 4658SOL     OW14872   4.293   1.575   2.555
 4658SOL    HW114873   4.386   1.541   2.548
 4658SOL    HW214874   4.276   1.608   2.648
 4659SOL     OW14875   2.626   4.087   5.551
 4659SOL    HW114876   2.536   4.108   5.512
 4659SOL    HW214877   2.633   4.125   5.643
 4660SOL     OW14878   1.414   2.996   5.538
 4660SOL    HW114879   1.509   2.968   5.551
 4660SOL    HW214880   1.411   3.091   5.507
 4661SOL     OW14881   3.673   3.791   5.431
 4661SOL    HW114882   3.705   3.882   5.457
 4661SOL    HW214883   3.718   3.763   5.346
 4662SOL     OW14884   4.314   0.817   4.899
 4662SOL    HW114885   4.237   0.868   4.860
 4662SOL    HW214886   4.350   0.867   4.978
 4663SOL     OW14887   0.796   2.071   2.514
 4663SOL    HW114888   0.735   2.015   2.459
 4663SOL    HW214889   0.851   2.129   2.453
 4664SOL     OW14890   2.103   2.177   0.692
 4664SOL    HW114891   2.200   2.177   0.718
 4664SOL    HW214892   2.063   2.266   0.714
 4665SOL     OW14893   4.218   0.184   0.677
 4665SOL    HW114894   4.244   0.192   0.580
 4665SOL    HW214895   4.140   0.123   0.685
 4666SOL     OW14896   1.478   2.320   1.007
 4666SOL    HW114897   1.389   2.363   0.992
 4666SOL    HW214898   1.546   2.391   1.026
 4667SOL     OW14899   6.154   4.363   1.201
 4667SOL    HW114900   6.153   4.388   1.105
 4667SOL    HW214901   6.061   4.368   1.238
 4668SOL     OW14902   5.628   2.659   3.015
 4668SOL    HW114903   5.568   2.665   2.935
 4668SOL    HW214904   5.587   2.600   3.084
 4669SOL     OW14905   3.465   6.926   0.237
 4669SOL    HW114906   3.373   6.886   0.228
 4669SOL    HW214907   3.522   6.895   0.161
 4670SOL     OW14908   3.038   2.266   5.415
 4670SOL    HW114909   3.053   2.299   5.322
 4670SOL    HW214910   2.944   2.286   5.443
 4671SOL     OW14911   6.451   2.352   2.389
 4671SOL    HW114912   6.485   2.436   2.431
 4671SOL    HW214913   6.503   2.274   2.424
 4672SOL     OW14914   2.893   4.887   5.957
 4672SOL    HW114915   2.830   4.810   5.947
 4672SOL    HW214916   2.841   4.972   5.959
 4673SOL     OW14917   4.942   6.313   0.979
 4673SOL    HW114918   4.891   6.363   1.049
 4673SOL    HW214919   5.029   6.284   1.017
 4674SOL     OW14920   4.818   0.177   6.910
 4674SOL    HW114921   4.871   0.094   6.926
 4674SOL    HW214922   4.881   0.252   6.889
 4675SOL     OW14923   0.358   2.933   6.743
 4675SOL    HW114924   0.315   2.972   6.662
 4675SOL    HW214925   0.444   2.980   6.761
 4676SOL     OW14926   6.753   5.702   3.433
 4676SOL    HW114927   6.730   5.618   3.385
 4676SOL    HW214928   6.674   5.735   3.484
 4677SOL     OW14929   2.747   1.524   0.552
 4677SOL    HW114930   2.817   1.546   0.484
 4677SOL    HW214931   2.664   1.492   0.507
 4678SOL     OW14932   2.166   4.582   3.126
 4678SOL    HW114933   2.178   4.483   3.113
 4678SOL    HW214934   2.120   4.621   3.046
 4679SOL     OW14935   4.264   6.939   1.715
 4679SOL    HW114936   4.296   6.885   1.793
 4679SOL    HW214937   4.338   6.946   1.648
 4680SOL     OW14938   3.879   1.272   6.347
 4680SOL    HW114939   3.888   1.176   6.373
 4680SOL    HW214940   3.799   1.282   6.287
 4681SOL     OW14941   5.215   4.474   0.172
 4681SOL    HW114942   5.288   4.447   0.235
 4681SOL    HW214943   5.253   4.536   0.103
 4682SOL     OW14944   4.881   4.762   5.736
 4682SOL    HW114945   4.834   4.674   5.724
 4682SOL    HW214946   4.914   4.793   5.647
 4683SOL     OW14947   5.440   5.566   3.021
 4683SOL    HW114948   5.533   5.577   2.987
 4683SOL    HW214949   5.385   5.519   2.952
 4684SOL     OW14950   4.556   6.972   5.731
 4684SOL    HW114951   4.628   6.992   5.664
 4684SOL    HW214952   4.471   6.950   5.684
 4685SOL     OW14953   1.927   4.706   6.520
 4685SOL    HW114954   1.900   4.681   6.427
 4685SOL    HW214955   2.001   4.774   6.516
 4686SOL     OW14956   4.236   5.800   6.626
 4686SOL    HW114957   4.189   5.888   6.638
 4686SOL    HW214958   4.187   5.729   6.678
 4687SOL     OW14959   4.947   3.037   4.029
 4687SOL    HW114960   4.960   3.094   3.948
 4687SOL    HW214961   5.019   2.967   4.032
 4688SOL     OW14962   5.831   3.208   5.078
 4688SOL    HW114963   5.879   3.223   5.164
 4688SOL    HW214964   5.859   3.275   5.011
 4689SOL     OW14965   4.776   0.794   0.250
 4689SOL    HW114966   4.801   0.717   0.308
 4689SOL    HW214967   4.808   0.879   0.291
 4690SOL     OW14968   1.218   0.236   0.846
 4690SOL    HW114969   1.126   0.249   0.807
 4690SOL    HW214970   1.283   0.295   0.798
 4691SOL     OW14971   3.035   3.526   0.678
 4691SOL    HW114972   3.040   3.521   0.778
 4691SOL    HW214973   2.955   3.474   0.646
 4692SOL     OW14974   5.538   5.358   2.785
 4692SOL    HW114975   5.601   5.422   2.829
 4692SOL    HW214976   5.452   5.404   2.763
 4693SOL     OW14977   0.890   1.327   2.905
 4693SOL    HW114978   0.810   1.285   2.862
 4693SOL    HW214979   0.930   1.263   2.970
 4694SOL     OW14980   2.436   1.147   0.095
 4694SOL    HW114981   2.389   1.109   0.174
 4694SOL    HW214982   2.469   1.239   0.117
 4695SOL     OW14983   1.510   4.800   0.841
 4695SOL    HW114984   1.502   4.718   0.897
 4695SOL    HW214985   1.515   4.880   0.899
 4696SOL     OW14986   6.897   5.193   6.694
 4696SOL    HW114987   6.935   5.158   6.609
 4696SOL    HW214988   6.951   5.271   6.726
 4697SOL     OW14989   1.157   3.872   1.410
 4697SOL    HW114990   1.135   3.853   1.314
 4697SOL    HW214991   1.072   3.886   1.461
 4698SOL     OW14992   4.524   6.007   2.989
 4698SOL    HW114993   4.499   6.102   2.972
 4698SOL    HW214994   4.466   5.970   3.063
 4699SOL     OW14995   0.601   6.455   2.022
 4699SOL    HW114996   0.548   6.468   1.938
 4699SOL    HW214997   0.641   6.364   2.023
 4700SOL     OW14998   6.975   2.019   2.645
 4700SOL    HW114999   0.029   1.965   2.611
 4700SOL    HW215000   6.975   2.017   2.745
 4701SOL     OW15001   2.874   1.983   0.246
 4701SOL    HW115002   2.966   2.010   0.274
 4701SOL    HW215003   2.859   2.011   0.151
 4702SOL     OW15004   4.797   4.966   0.449
 4702SOL    HW115005   4.773   5.062   0.431
 4702SOL    HW215006   4.794   4.949   0.548
 4703SOL     OW15007   0.588   0.230   2.782
 4703SOL    HW115008   0.516   0.298   2.801
 4703SOL    HW215009   0.549   0.138   2.784
 4704SOL     OW15010   6.535   5.984   6.450
 4704SOL    HW115011   6.465   5.916   6.429
 4704SOL    HW215012   6.617   5.939   6.486
 4705SOL     OW15013   4.177   2.547   1.233
 4705SOL    HW115014   4.112   2.591   1.295
 4705SOL    HW215015   4.150   2.452   1.218
 4706SOL     OW15016   2.857   0.497   0.169
 4706SOL    HW115017   2.870   0.412   0.220
 4706SOL    HW215018   2.810   0.564   0.227
 4707SOL     OW15019   0.892   6.762   0.995
 4707SOL    HW115020   0.966   6.694   0.989
 4707SOL    HW215021   0.930   6.854   0.982
 4708SOL     OW15022   1.223   2.079   6.099
 4708SOL    HW115023   1.135   2.051   6.060
 4708SOL    HW215024   1.218   2.075   6.199
 4709SOL     OW15025   4.587   5.489   5.411
 4709SOL    HW115026   4.602   5.479   5.313
 4709SOL    HW215027   4.501   5.444   5.436
 4710SOL     OW15028   4.912   0.162   5.828
 4710SOL    HW115029   4.899   0.068   5.860
 4710SOL    HW215030   4.958   0.215   5.898
 4711SOL     OW15031   6.013   1.731   1.545
 4711SOL    HW115032   6.005   1.746   1.446
 4711SOL    HW215033   5.924   1.748   1.588
 4712SOL     OW15034   3.031   4.730   6.184
 4712SOL    HW115035   2.949   4.781   6.156
 4712SOL    HW215036   3.085   4.706   6.103
 4713SOL     OW15037   3.525   4.365   0.573
 4713SOL    HW115038   3.597   4.411   0.624
 4713SOL    HW215039   3.544   4.267   0.568
 4714SOL     OW15040   0.933   1.220   6.293
 4714SOL    HW115041   0.965   1.309   6.322
 4714SOL    HW215042   0.997   1.181   6.227
 4715SOL     OW15043   5.760   3.399   1.767
 4715SOL    HW115044   5.802   3.339   1.699
 4715SOL    HW215045   5.779   3.364   1.859
 4716SOL     OW15046   3.662   6.569   5.637
 4716SOL    HW115047   3.670   6.504   5.561
 4716SOL    HW215048   3.644   6.518   5.722
 4717SOL     OW15049   1.003   5.949   3.856
 4717SOL    HW115050   1.084   5.891   3.865
 4717SOL    HW215051   1.023   6.041   3.891
 4718SOL     OW15052   5.943   1.609   1.117
 4718SOL    HW115053   5.929   1.631   1.021
 4718SOL    HW215054   5.925   1.690   1.173
 4719SOL     OW15055   4.919   3.249   1.876
 4719SOL    HW115056   4.877   3.173   1.924
 4719SOL    HW215057   4.937   3.323   1.941
 4720SOL     OW15058   2.397   5.402   5.523
 4720SOL    HW115059   2.392   5.384   5.621
 4720SOL    HW215060   2.358   5.325   5.473
 4721SOL     OW15061   0.092   1.953   2.248
 4721SOL    HW115062   0.036   1.953   2.166
 4721SOL    HW215063   0.069   2.033   2.304
 4722SOL     OW15064   1.281   5.769   6.749
 4722SOL    HW115065   1.324   5.810   6.668
 4722SOL    HW215066   1.352   5.732   6.809
 4723SOL     OW15067   2.177   3.378   5.588
 4723SOL    HW115068   2.082   3.407   5.594
 4723SOL    HW215069   2.231   3.450   5.544
 4724SOL     OW15070   6.669   0.351   4.592
 4724SOL    HW115071   6.585   0.297   4.585
 4724SOL    HW215072   6.715   0.330   4.678
 4725SOL     OW15073   6.360   5.084   0.714
 4725SOL    HW115074   6.412   5.044   0.639
 4725SOL    HW215075   6.306   5.012   0.759
 4726SOL     OW15076   1.675   3.186   6.171
 4726SOL    HW115077   1.717   3.129   6.242
 4726SOL    HW215078   1.714   3.162   6.082
 4727SOL     OW15079   0.813   6.434   1.222
 4727SOL    HW115080   0.829   6.373   1.300
 4727SOL    HW215081   0.821   6.529   1.252
 4728SOL     OW15082   5.785   1.343   2.052
 4728SOL    HW115083   5.820   1.436   2.042
 4728SOL    HW215084   5.686   1.345   2.060
 4729SOL     OW15085   4.451   0.980   0.649
 4729SOL    HW115086   4.489   1.071   0.631
 4729SOL    HW215087   4.480   0.917   0.577
 4730SOL     OW15088   3.123   6.163   4.666
 4730SOL    HW115089   3.082   6.254   4.671
 4730SOL    HW215090   3.217   6.169   4.634
 4731SOL     OW15091   2.912   0.843   0.445
 4731SOL    HW115092   2.929   0.746   0.461
 4731SOL    HW215093   2.993   0.884   0.401
 4732SOL     OW15094   0.757   3.522   5.259
 4732SOL    HW115095   0.794   3.544   5.350
 4732SOL    HW215096   0.672   3.574   5.245
 4733SOL     OW15097   1.569   3.723   3.940
 4733SOL    HW115098   1.484   3.776   3.937
 4733SOL    HW215099   1.564   3.656   4.014
 4734SOL     OW15100   4.155   3.171   0.375
 4734SOL    HW115101   4.229   3.106   0.355
 4734SOL    HW215102   4.152   3.240   0.303
 4735SOL     OW15103   0.018   5.409   4.450
 4735SOL    HW115104   7.010   5.314   4.453
 4735SOL    HW215105   0.080   5.427   4.527
 4736SOL     OW15106   6.114   1.413   5.941
 4736SOL    HW115107   6.145   1.495   5.988
 4736SOL    HW215108   6.015   1.417   5.927
 4737SOL     OW15109   3.164   4.107   1.508
 4737SOL    HW115110   3.147   4.051   1.589
 4737SOL    HW215111   3.099   4.082   1.436
 4738SOL     OW15112   2.012   6.569   3.055
 4738SOL    HW115113   2.042   6.664   3.048
 4738SOL    HW215114   1.916   6.562   3.030
 4739SOL     OW15115   5.065   1.465   3.130
 4739SOL    HW115116   5.021   1.427   3.048
 4739SOL    HW215117   5.164   1.462   3.118
 4740SOL     OW15118   0.540   1.556   0.785
 4740SOL    HW115119   0.579   1.639   0.826
 4740SOL    HW215120   0.448   1.541   0.821
 4741SOL     OW15121   4.842   3.411   1.397
 4741SOL    HW115122   4.894   3.407   1.482
 4741SOL    HW215123   4.853   3.325   1.347
 4742SOL     OW15124   2.715   7.014   0.163
 4742SOL    HW115125   2.765   0.047   0.095
 4742SOL    HW215126   2.666   0.052   0.225
 4743SOL     OW15127   1.658   3.248   5.322
 4743SOL    HW115128   1.679   3.237   5.225
 4743SOL    HW215129   1.739   3.224   5.376
 4744SOL     OW15130   3.001   3.671   6.161
 4744SOL    HW115131   3.007   3.697   6.065
 4744SOL    HW215132   2.954   3.743   6.212
 4745SOL     OW15133   2.965   5.963   5.451
 4745SOL    HW115134   2.939   5.872   5.418
 4745SOL    HW215135   2.883   6.020   5.461
 4746SOL     OW15136   5.397   6.589   2.423
 4746SOL    HW115137   5.334   6.514   2.444
 4746SOL    HW215138   5.456   6.606   2.502
 4747SOL     OW15139   1.648   3.905   6.599
 4747SOL    HW115140   1.663   4.001   6.576
 4747SOL    HW215141   1.620   3.897   6.694
 4748SOL     OW15142   0.992   4.955   0.633
 4748SOL    HW115143   0.946   5.013   0.567
 4748SOL    HW215144   1.079   4.924   0.596
 4749SOL     OW15145   2.872   6.732   5.249
 4749SOL    HW115146   2.839   6.662   5.185
 4749SOL    HW215147   2.847   6.822   5.214
 4750SOL     OW15148   0.251   3.590   3.357
 4750SOL    HW115149   0.277   3.494   3.356
 4750SOL    HW215150   0.204   3.611   3.443
 4751SOL     OW15151   2.641   2.774   0.983
 4751SOL    HW115152   2.549   2.781   1.021
 4751SOL    HW215153   2.706   2.757   1.056
 4752SOL     OW15154   2.851   0.312   6.773
 4752SOL    HW115155   2.925   0.298   6.708
 4752SOL    HW215156   2.768   0.337   6.723
 4753SOL     OW15157   5.575   0.759   4.431
 4753SOL    HW115158   5.514   0.828   4.392
 4753SOL    HW215159   5.593   0.688   4.363
 4754SOL     OW15160   6.291   0.409   4.830
 4754SOL    HW115161   6.247   0.475   4.891
 4754SOL    HW215162   6.261   0.426   4.736
 4755SOL     OW15163   2.430   0.461   0.573
 4755SOL    HW115164   2.404   0.475   0.668
 4755SOL    HW215165   2.421   0.364   0.550
 4756SOL     OW15166   5.511   3.426   1.133
 4756SOL    HW115167   5.558   3.485   1.067
 4756SOL    HW215168   5.520   3.331   1.104
 4757SOL     OW15169   1.731   2.352   1.178
 4757SOL    HW115170   1.797   2.329   1.249
 4757SOL    HW215171   1.779   2.364   1.091
 4758SOL     OW15172   2.083   6.329   4.267
 4758SOL    HW115173   2.089   6.339   4.168
 4758SOL    HW215174   2.059   6.235   4.290
 4759SOL     OW15175   5.307   5.413   4.603
 4759SOL    HW115176   5.285   5.321   4.635
 4759SOL    HW215177   5.285   5.479   4.675
 4760SOL     OW15178   3.270   1.525   0.312
 4760SOL    HW115179   3.319   1.461   0.252
 4760SOL    HW215180   3.183   1.484   0.341
 4761SOL     OW15181   0.636   6.249   6.659
 4761SOL    HW115182   0.728   6.234   6.622
 4761SOL    HW215183   0.587   6.162   6.665
 4762SOL     OW15184   1.908   5.900   2.867
 4762SOL    HW115185   1.996   5.872   2.905
 4762SOL    HW215186   1.909   5.999   2.851
 4763SOL     OW15187   6.474   6.630   3.481
 4763SOL    HW115188   6.446   6.587   3.566
 4763SOL    HW215189   6.503   6.560   3.416
 4764SOL     OW15190   5.069   3.942   5.462
 4764SOL    HW115191   4.996   4.003   5.432
 4764SOL    HW215192   5.142   3.941   5.394
 4765SOL     OW15193   5.159   1.078   4.640
 4765SOL    HW115194   5.092   1.151   4.658
 4765SOL    HW215195   5.249   1.118   4.628
 4766SOL     OW15196   4.584   6.171   3.974
 4766SOL    HW115197   4.653   6.232   3.934
 4766SOL    HW215198   4.628   6.109   4.039
 4767SOL     OW15199   3.883   4.962   5.921
 4767SOL    HW115200   3.869   4.863   5.925
 4767SOL    HW215201   3.953   4.983   5.852
 4768SOL     OW15202   4.420   2.069   5.550
 4768SOL    HW115203   4.425   2.046   5.452
 4768SOL    HW215204   4.402   1.986   5.603
 4769SOL     OW15205   5.037   4.542   0.370
 4769SOL    HW115206   5.088   4.508   0.291
 4769SOL    HW215207   5.044   4.642   0.373
 4770SOL     OW15208   1.568   0.710   4.607
 4770SOL    HW115209   1.580   0.709   4.706
 4770SOL    HW215210   1.474   0.686   4.584
 4771SOL     OW15211   2.987   5.289   5.614
 4771SOL    HW115212   2.890   5.313   5.617
 4771SOL    HW215213   3.042   5.371   5.603
 4772SOL     OW15214   3.313   4.643   0.983
 4772SOL    HW115215   3.289   4.699   1.062
 4772SOL    HW215216   3.408   4.614   0.990
 4773SOL     OW15217   0.014   5.647   4.785
 4773SOL    HW115218   7.009   5.656   4.690
 4773SOL    HW215219   0.002   5.735   4.832
 4774SOL     OW15220   1.293   2.454   1.564
 4774SOL    HW115221   1.348   2.493   1.638
 4774SOL    HW215222   1.257   2.365   1.593
 4775SOL     OW15223   5.189   6.814   2.536
 4775SOL    HW115224   5.182   6.757   2.618
 4775SOL    HW215225   5.116   6.790   2.473
 4776SOL     OW15226   1.466   6.270   5.253
 4776SOL    HW115227   1.448   6.348   5.314
 4776SOL    HW215228   1.396   6.200   5.266
 4777SOL     OW15229   3.050   4.438   0.950
 4777SOL    HW115230   2.982   4.512   0.944
 4777SOL    HW215231   3.142   4.477   0.943
 4778SOL     OW15232   6.304   2.752   2.762
 4778SOL    HW115233   6.382   2.792   2.712
 4778SOL    HW215234   6.298   2.655   2.740
 4779SOL     OW15235   6.399   6.185   2.201
 4779SOL    HW115236   6.464   6.258   2.224
 4779SOL    HW215237   6.355   6.206   2.114
 4780SOL     OW15238   6.719   0.772   0.460
 4780SOL    HW115239   6.686   0.724   0.378
 4780SOL    HW215240   6.641   0.798   0.517
 4781SOL     OW15241   2.225   5.941   1.917
 4781SOL    HW115242   2.237   5.842   1.907
 4781SOL    HW215243   2.240   5.967   2.012
 4782SOL     OW15244   3.707   6.354   0.047
 4782SOL    HW115245   3.630   6.300   0.011
 4782SOL    HW215246   3.792   6.305   0.030
 4783SOL     OW15247   4.878   4.636   6.984
 4783SOL    HW115248   4.807   4.623   6.915
 4783SOL    HW215249   4.836   4.655   0.050
 4784SOL     OW15250   5.911   4.105   6.651
 4784SOL    HW115251   5.968   4.054   6.715
 4784SOL    HW215252   5.861   4.176   6.700
 4785SOL     OW15253   6.319   5.596   1.787
 4785SOL    HW115254   6.392   5.608   1.853
 4785SOL    HW215255   6.233   5.629   1.826
 4786SOL     OW15256   2.306   1.912   0.883
 4786SOL    HW115257   2.378   1.844   0.901
 4786SOL    HW215258   2.298   1.973   0.962
 4787SOL     OW15259   3.971   1.467   3.065
 4787SOL    HW115260   4.053   1.508   3.105
 4787SOL    HW215261   3.933   1.529   2.996
 4788SOL     OW15262   1.188   5.239   5.626
 4788SOL    HW115263   1.234   5.327   5.635
 4788SOL    HW215264   1.217   5.178   5.699
 4789SOL     OW15265   4.886   0.788   0.842
 4789SOL    HW115266   4.984   0.793   0.861
 4789SOL    HW215267   4.840   0.735   0.913
 4790SOL     OW15268   6.954   2.650   5.436
 4790SOL    HW115269   7.002   2.731   5.401
 4790SOL    HW215270   6.895   2.614   5.364
 4791SOL     OW15271   5.978   2.362   1.308
 4791SOL    HW115272   6.067   2.331   1.273
 4791SOL    HW215273   5.931   2.414   1.236
 4792SOL     OW15274   2.146   3.320   3.051
 4792SOL    HW115275   2.129   3.405   3.100
 4792SOL    HW215276   2.102   3.324   2.961
 4793SOL     OW15277   1.936   2.851   6.059
 4793SOL    HW115278   2.004   2.848   6.133
 4793SOL    HW215279   1.859   2.791   6.082
 4794SOL     OW15280   4.642   0.389   3.345
 4794SOL    HW115281   4.716   0.413   3.282
 4794SOL    HW215282   4.642   0.290   3.360
 4795SOL     OW15283   6.648   1.925   4.118
 4795SOL    HW115284   6.664   1.907   4.216
 4795SOL    HW215285   6.666   2.021   4.099
 4796SOL     OW15286   5.102   1.920   5.619
 4796SOL    HW115287   5.170   1.975   5.667
 4796SOL    HW215288   5.093   1.952   5.525
 4797SOL     OW15289   1.700   6.245   6.065
 4797SOL    HW115290   1.693   6.344   6.062
 4797SOL    HW215291   1.766   6.218   6.135
 4798SOL     OW15292   0.009   3.314   4.966
 4798SOL    HW115293   7.005   3.408   4.947
 4798SOL    HW215294   6.978   3.252   4.909
 4799SOL     OW15295   4.972   2.695   0.026
 4799SOL    HW115296   4.896   2.704   6.984
 4799SOL    HW215297   5.056   2.727   7.006
 4800SOL     OW15298   3.024   3.410   6.145
 4800SOL    HW115299   2.970   3.358   6.079
 4800SOL    HW215300   3.023   3.507   6.119
 4801SOL     OW15301   3.091   1.840   0.797
 4801SOL    HW115302   3.156   1.788   0.742
 4801SOL    HW215303   3.109   1.938   0.788
 4802SOL     OW15304   1.025   6.393   2.033
 4802SOL    HW115305   1.058   6.433   1.948
 4802SOL    HW215306   1.000   6.297   2.018
 4803SOL     OW15307   1.342   5.386   0.925
 4803SOL    HW115308   1.374   5.308   0.871
 4803SOL    HW215309   1.325   5.464   0.864
 4804SOL     OW15310   5.279   5.660   6.648
 4804SOL    HW115311   5.325   5.619   6.568
 4804SOL    HW215312   5.286   5.759   6.643
 4805SOL     OW15313   6.228   0.696   1.707
 4805SOL    HW115314   6.206   0.773   1.767
 4805SOL    HW215315   6.156   0.684   1.639
 4806SOL     OW15316   0.898   4.730   3.463
 4806SOL    HW115317   0.913   4.665   3.537
 4806SOL    HW215318   0.849   4.810   3.498
 4807SOL     OW15319   0.881   4.650   0.452
 4807SOL    HW115320   0.870   4.665   0.550
 4807SOL    HW215321   0.806   4.595   0.418
 4808SOL     OW15322   6.037   3.514   6.474
 4808SOL    HW115323   6.114   3.452   6.488
 4808SOL    HW215324   6.057   3.603   6.515
 4809SOL     OW15325   3.666   3.841   6.966
 4809SOL    HW115326   3.630   3.759   6.920
 4809SOL    HW215327   3.640   3.839   0.039
 4810SOL     OW15328   0.708   5.021   2.547
 4810SOL    HW115329   0.779   5.092   2.552
 4810SOL    HW215330   0.687   4.989   2.639
 4811SOL     OW15331   2.235   4.672   1.719
 4811SOL    HW115332   2.194   4.671   1.628
 4811SOL    HW215333   2.309   4.605   1.723
 4812SOL     OW15334   6.508   4.834   4.149
 4812SOL    HW115335   6.597   4.857   4.110
 4812SOL    HW215336   6.440   4.827   4.076
 4813SOL     OW15337   4.908   1.553   0.710
 4813SOL    HW115338   4.933   1.466   0.752
 4813SOL    HW215339   4.905   1.543   0.611
 4814SOL     OW15340   5.948   3.852   0.172
 4814SOL    HW115341   5.950   3.803   0.259
 4814SOL    HW215342   6.021   3.920   0.170
 4815SOL     OW15343   5.351   4.602   3.023
 4815SOL    HW115344   5.390   4.620   2.933
 4815SOL    HW215345   5.415   4.633   3.094
 4816SOL     OW15346   1.255   5.403   1.452
 4816SOL    HW115347   1.263   5.383   1.355
 4816SOL    HW215348   1.180   5.350   1.491
 4817SOL     OW15349   0.352   2.282   6.943
 4817SOL    HW115350   0.367   2.185   6.959
 4817SOL    HW215351   0.260   2.297   6.908
 4818SOL     OW15352   1.503   0.378   5.228
 4818SOL    HW115353   1.587   0.426   5.254
 4818SOL    HW215354   1.424   0.424   5.269
 4819SOL     OW15355   0.875   2.026   0.448
 4819SOL    HW115356   0.825   2.072   0.375
 4819SOL    HW215357   0.968   2.005   0.415
 4820SOL     OW15358   6.020   2.959   1.126
 4820SOL    HW115359   6.103   2.974   1.180
 4820SOL    HW215360   6.041   2.895   1.052
 4821SOL     OW15361   1.046   5.909   2.722
 4821SOL    HW115362   1.017   6.002   2.701
 4821SOL    HW215363   0.978   5.865   2.781
 4822SOL     OW15364   2.150   2.405   4.438
 4822SOL    HW115365   2.138   2.428   4.342
 4822SOL    HW215366   2.234   2.353   4.450
 4823SOL     OW15367   2.252   1.206   4.206
 4823SOL    HW115368   2.260   1.277   4.136
 4823SOL    HW215369   2.166   1.158   4.194
 4824SOL     OW15370   5.102   3.000   5.347
 4824SOL    HW115371   5.052   3.075   5.304
 4824SOL    HW215372   5.182   3.037   5.395
 4825SOL     OW15373   1.457   2.867   4.829
 4825SOL    HW115374   1.498   2.874   4.920
 4825SOL    HW215375   1.470   2.775   4.793
 4826SOL     OW15376   5.719   0.923   0.225
 4826SOL    HW115377   5.700   0.921   0.324
 4826SOL    HW215378   5.640   0.960   0.177
 4827SOL     OW15379   6.238   1.587   0.685
 4827SOL    HW115380   6.191   1.499   0.686
 4827SOL    HW215381   6.230   1.630   0.776
 4828SOL     OW15382   4.722   1.757   0.817
 4828SOL    HW115383   4.657   1.780   0.745
 4828SOL    HW215384   4.783   1.683   0.785
 4829SOL     OW15385   4.077   0.496   5.027
 4829SOL    HW115386   3.992   0.540   4.999
 4829SOL    HW215387   4.056   0.412   5.077
 4830SOL     OW15388   3.978   6.116   4.914
 4830SOL    HW115389   3.980   6.109   5.013
 4830SOL    HW215390   4.036   6.044   4.874
 4831SOL     OW15391   0.750   4.481   5.989
 4831SOL    HW115392   0.789   4.399   6.031
 4831SOL    HW215393   0.821   4.529   5.938
 4832SOL     OW15394   3.629   4.090   3.724
 4832SOL    HW115395   3.704   4.102   3.789
 4832SOL    HW215396   3.642   4.006   3.672
 4833SOL     OW15397   6.165   1.258   2.960
 4833SOL    HW115398   6.151   1.330   2.892
 4833SOL    HW215399   6.237   1.196   2.930
 4834SOL     OW15400   2.667   6.287   1.790
 4834SOL    HW115401   2.747   6.229   1.773
 4834SOL    HW215402   2.697   6.375   1.826
 4835SOL     OW15403   5.668   2.276   6.308
 4835SOL    HW115404   5.584   2.312   6.267
 4835SOL    HW215405   5.662   2.283   6.408
 4836SOL     OW15406   5.342   2.199   4.678
 4836SOL    HW115407   5.413   2.240   4.620
 4836SOL    HW215408   5.383   2.167   4.764
 4837SOL     OW15409   6.921   3.800   2.794
 4837SOL    HW115410   6.876   3.715   2.765
 4837SOL    HW215411   6.917   3.866   2.720
 4838SOL     OW15412   2.280   5.753   6.895
 4838SOL    HW115413   2.184   5.764   6.872
 4838SOL    HW215414   2.288   5.713   6.987
 4839SOL     OW15415   1.047   3.927   0.580
 4839SOL    HW115416   1.023   4.021   0.557
 4839SOL    HW215417   0.972   3.866   0.555
 4840SOL     OW15418   6.444   4.718   6.269
 4840SOL    HW115419   6.420   4.644   6.207
 4840SOL    HW215420   6.362   4.767   6.297
 4841SOL     OW15421   2.696   5.258   3.342
 4841SOL    HW115422   2.661   5.352   3.348
 4841SOL    HW215423   2.628   5.200   3.296
 4842SOL     OW15424   3.395   4.915   2.950
 4842SOL    HW115425   3.312   4.947   2.996
 4842SOL    HW215426   3.375   4.834   2.896
 4843SOL     OW15427   6.029   2.771   0.895
 4843SOL    HW115428   5.940   2.760   0.851
 4843SOL    HW215429   6.100   2.729   0.838
 4844SOL     OW15430   0.056   3.323   5.961
 4844SOL    HW115431   0.024   3.353   5.872
 4844SOL    HW215432   0.131   3.258   5.950
 4845SOL     OW15433   5.082   5.000   6.405
 4845SOL    HW115434   4.987   4.992   6.374
 4845SOL    HW215435   5.101   5.095   6.430
 4846SOL     OW15436   0.307   2.567   3.969
 4846SOL    HW115437   0.274   2.590   3.878
 4846SOL    HW215438   0.386   2.624   3.991
 4847SOL     OW15439   2.472   0.788   6.294
 4847SOL    HW115440   2.394   0.850   6.300
 4847SOL    HW215441   2.449   0.700   6.336
 4848SOL     OW15442   2.276   0.713   4.854
 4848SOL    HW115443   2.321   0.701   4.765
 4848SOL    HW215444   2.314   0.794   4.899
 4849SOL     OW15445   1.555   5.731   0.833
 4849SOL    HW115446   1.462   5.713   0.865
 4849SOL    HW215447   1.594   5.647   0.795
 4850SOL     OW15448   4.294   1.246   1.561
 4850SOL    HW115449   4.321   1.310   1.633
 4850SOL    HW215450   4.249   1.297   1.488
 4851SOL     OW15451   3.163   6.151   5.493
 4851SOL    HW115452   3.110   6.066   5.489
 4851SOL    HW215453   3.154   6.192   5.584
 4852SOL     OW15454   1.776   5.706   4.662
 4852SOL    HW115455   1.763   5.782   4.600
 4852SOL    HW215456   1.778   5.620   4.611
 4853SOL     OW15457   3.841   1.140   3.738
 4853SOL    HW115458   3.799   1.196   3.809
 4853SOL    HW215459   3.906   1.195   3.686
 4854SOL     OW15460   4.648   6.747   2.072
 4854SOL    HW115461   4.630   6.787   2.162
 4854SOL    HW215462   4.668   6.650   2.082
 4855SOL     OW15463   5.915   2.307   5.005
 4855SOL    HW115464   5.951   2.278   5.094
 4855SOL    HW215465   5.872   2.397   5.015
 4856SOL     OW15466   1.848   3.387   2.965
 4856SOL    HW115467   1.836   3.287   2.962
 4856SOL    HW215468   1.893   3.413   3.050
 4857SOL     OW15469   2.919   2.151   3.538
 4857SOL    HW115470   3.009   2.169   3.579
 4857SOL    HW215471   2.847   2.173   3.604
 4858SOL     OW15472   6.898   6.338   5.047
 4858SOL    HW115473   6.991   6.352   5.013
 4858SOL    HW215474   6.883   6.241   5.066
 4859SOL     OW15475   0.399   5.034   2.608
 4859SOL    HW115476   0.388   5.096   2.530
 4859SOL    HW215477   0.457   4.957   2.580
 4860SOL     OW15478   4.145   3.989   0.336
 4860SOL    HW115479   4.204   3.965   0.259
 4860SOL    HW215480   4.200   4.027   0.410
 4861SOL     OW15481   5.941   5.385   6.714
 4861SOL    HW115482   5.846   5.416   6.709
 4861SOL    HW215483   5.943   5.290   6.746
 4862SOL     OW15484   2.137   4.688   5.018
 4862SOL    HW115485   2.090   4.712   5.103
 4862SOL    HW215486   2.220   4.744   5.010
 4863SOL     OW15487   5.378   3.223   2.093
 4863SOL    HW115488   5.369   3.126   2.118
 4863SOL    HW215489   5.304   3.248   2.030
 4864SOL     OW15490   2.890   1.153   1.942
 4864SOL    HW115491   2.915   1.215   2.016
 4864SOL    HW215492   2.870   1.062   1.979
 4865SOL     OW15493   1.705   6.011   4.606
 4865SOL    HW115494   1.692   6.077   4.680
 4865SOL    HW215495   1.802   6.009   4.580
 4866SOL     OW15496   5.685   4.793   1.474
 4866SOL    HW115497   5.678   4.825   1.379
 4866SOL    HW215498   5.778   4.760   1.491
 4867SOL     OW15499   5.216   5.707   3.115
 4867SOL    HW115500   5.305   5.682   3.076
 4867SOL    HW215501   5.146   5.646   3.078
 4868SOL     OW15502   0.154   5.436   1.577
 4868SOL    HW115503   0.100   5.377   1.518
 4868SOL    HW215504   0.237   5.388   1.605
 4869SOL     OW15505   0.386   2.266   1.629
 4869SOL    HW115506   0.340   2.352   1.606
 4869SOL    HW215507   0.318   2.197   1.654
 4870SOL     OW15508   6.032   5.637   1.841
 4870SOL    HW115509   6.020   5.544   1.806
 4870SOL    HW215510   6.038   5.701   1.765
 4871SOL     OW15511   0.294   1.478   5.206
 4871SOL    HW115512   0.356   1.538   5.255
 4871SOL    HW215513   0.249   1.415   5.270
 4872SOL     OW15514   0.511   6.314   4.348
 4872SOL    HW115515   0.585   6.270   4.297
 4872SOL    HW215516   0.548   6.393   4.398
 4873SOL     OW15517   6.697   4.739   3.886
 4873SOL    HW115518   6.710   4.710   3.981
 4873SOL    HW215519   6.778   4.789   3.855
 4874SOL     OW15520   6.384   4.047   2.787
 4874SOL    HW115521   6.416   4.115   2.722
 4874SOL    HW215522   6.288   4.065   2.811
 4875SOL     OW15523   4.681   2.525   0.872
 4875SOL    HW115524   4.679   2.435   0.827
 4875SOL    HW215525   4.588   2.555   0.890
 4876SOL     OW15526   6.173   0.900   4.859
 4876SOL    HW115527   6.262   0.898   4.815
 4876SOL    HW215528   6.160   0.989   4.904
 4877SOL     OW15529   6.214   1.606   0.417
 4877SOL    HW115530   6.214   1.604   0.517
 4877SOL    HW215531   6.308   1.608   0.383
 4878SOL     OW15532   6.738   1.662   2.401
 4878SOL    HW115533   6.836   1.649   2.390
 4878SOL    HW215534   6.696   1.678   2.312
 4879SOL     OW15535   4.296   5.304   3.484
 4879SOL    HW115536   4.247   5.223   3.517
 4879SOL    HW215537   4.394   5.287   3.487
 4880SOL     OW15538   6.208   3.323   6.579
 4880SOL    HW115539   6.289   3.310   6.521
 4880SOL    HW215540   6.231   3.304   6.674
 4881SOL     OW15541   2.354   6.717   6.526
 4881SOL    HW115542   2.370   6.630   6.479
 4881SOL    HW215543   2.279   6.706   6.590
 4882SOL     OW15544   5.693   1.375   4.131
 4882SOL    HW115545   5.639   1.403   4.051
 4882SOL    HW215546   5.782   1.419   4.127
 4883SOL     OW15547   5.101   4.971   2.265
 4883SOL    HW115548   5.093   4.917   2.349
 4883SOL    HW215549   5.198   4.984   2.243
 4884SOL     OW15550   4.693   0.219   1.076
 4884SOL    HW115551   4.760   0.268   1.132
 4884SOL    HW215552   4.601   0.246   1.103
 4885SOL     OW15553   2.761   6.326   2.176
 4885SOL    HW115554   2.673   6.325   2.128
 4885SOL    HW215555   2.825   6.265   2.129
 4886SOL     OW15556   6.771   5.389   6.050
 4886SOL    HW115557   6.712   5.449   6.104
 4886SOL    HW215558   6.828   5.334   6.111
 4887SOL     OW15559   7.005   1.029   2.925
 4887SOL    HW115560   0.073   1.022   2.964
 4887SOL    HW215561   7.006   0.992   2.832
 4888SOL     OW15562   1.930   6.728   4.363
 4888SOL    HW115563   1.859   6.658   4.362
 4888SOL    HW215564   2.011   6.695   4.314
 4889SOL     OW15565   6.666   0.952   6.652
 4889SOL    HW115566   6.631   1.041   6.624
 4889SOL    HW215567   6.640   0.883   6.584
 4890SOL     OW15568   0.716   2.169   5.612
 4890SOL    HW115569   0.784   2.181   5.540
 4890SOL    HW215570   0.688   2.073   5.616
 4891SOL     OW15571   1.278   5.940   0.462
 4891SOL    HW115572   1.373   5.960   0.438
 4891SOL    HW215573   1.263   5.960   0.558
 4892SOL     OW15574   2.455   5.854   2.497
 4892SOL    HW115575   2.363   5.816   2.488
 4892SOL    HW215576   2.451   5.937   2.553
 4893SOL     OW15577   6.426   4.373   0.395
 4893SOL    HW115578   6.398   4.440   0.326
 4893SOL    HW215579   6.417   4.280   0.357
 4894SOL     OW15580   2.535   1.367   1.598
 4894SOL    HW115581   2.609   1.338   1.658
 4894SOL    HW215582   2.556   1.342   1.504
 4895SOL     OW15583   0.521   5.135   2.083
 4895SOL    HW115584   0.459   5.079   2.027
 4895SOL    HW215585   0.544   5.086   2.167
 4896SOL     OW15586   2.496   5.281   2.789
 4896SOL    HW115587   2.436   5.312   2.715
 4896SOL    HW215588   2.583   5.251   2.750
 4897SOL     OW15589   2.635   5.472   6.050
 4897SOL    HW115590   2.706   5.476   5.979
 4897SOL    HW215591   2.602   5.379   6.059
 4898SOL     OW15592   5.928   1.515   5.137
 4898SOL    HW115593   5.951   1.463   5.055
 4898SOL    HW215594   5.877   1.597   5.111
 4899SOL     OW15595   6.280   4.593   3.393
 4899SOL    HW115596   6.379   4.594   3.408
 4899SOL    HW215597   6.258   4.532   3.317
 4900SOL     OW15598   2.155   6.117   5.669
 4900SOL    HW115599   2.119   6.210   5.667
 4900SOL    HW215600   2.190   6.093   5.579
 4901SOL     OW15601   3.088   0.148   5.040
 4901SOL    HW115602   3.031   0.222   5.006
 4901SOL    HW215603   3.061   0.125   5.134
 4902SOL     OW15604   2.848   2.295   4.941
 4902SOL    HW115605   2.945   2.281   4.957
 4902SOL    HW215606   2.834   2.322   4.845
 4903SOL     OW15607   3.214   6.821   6.386
 4903SOL    HW115608   3.293   6.842   6.443
 4903SOL    HW215609   3.160   6.904   6.372
 4904SOL     OW15610   1.477   0.328   3.873
 4904SOL    HW115611   1.507   0.423   3.881
 4904SOL    HW215612   1.558   0.269   3.865
 4905SOL     OW15613   4.388   1.849   2.205
 4905SOL    HW115614   4.470   1.837   2.261
 4905SOL    HW215615   4.330   1.767   2.213
 4906SOL     OW15616   3.511   1.071   6.506
 4906SOL    HW115617   3.507   0.985   6.455
 4906SOL    HW215618   3.495   1.148   6.444
 4907SOL     OW15619   4.502   6.587   1.805
 4907SOL    HW115620   4.509   6.548   1.713
 4907SOL    HW215621   4.577   6.652   1.820
 4908SOL     OW15622   4.722   5.098   6.675
 4908SOL    HW115623   4.716   5.038   6.755
 4908SOL    HW215624   4.704   5.192   6.703
 4909SOL     OW15625   6.292   0.367   5.784
 4909SOL    HW115626   6.367   0.431   5.796
 4909SOL    HW215627   6.230   0.373   5.862
 4910SOL     OW15628   5.860   6.805   4.498
 4910SOL    HW115629   5.801   6.727   4.474
 4910SOL    HW215630   5.921   6.778   4.573
 4911SOL     OW15631   6.834   2.589   6.027
 4911SOL    HW115632   6.790   2.503   5.998
 4911SOL    HW215633   6.892   2.622   5.953
 4912SOL     OW15634   5.629   2.107   1.545
 4912SOL    HW115635   5.588   2.133   1.632
 4912SOL    HW215636   5.562   2.116   1.472
 4913SOL     OW15637   3.804   3.427   3.643
 4913SOL    HW115638   3.809   3.486   3.724
 4913SOL    HW215639   3.775   3.482   3.564
 4914SOL     OW15640   3.513   0.339   4.763
 4914SOL    HW115641   3.506   0.255   4.818
 4914SOL    HW215642   3.502   0.316   4.666
 4915SOL     OW15643   4.702   0.542   4.699
 4915SOL    HW115644   4.630   0.604   4.668
 4915SOL    HW215645   4.769   0.593   4.753
 4916SOL     OW15646   2.089   1.167   3.164
 4916SOL    HW115647   2.105   1.076   3.125
 4916SOL    HW215648   2.151   1.182   3.241
 4917SOL     OW15649   1.584   4.665   0.607
 4917SOL    HW115650   1.485   4.659   0.615
 4917SOL    HW215651   1.620   4.718   0.684
 4918SOL     OW15652   3.176   0.046   2.731
 4918SOL    HW115653   3.233   0.060   2.811
 4918SOL    HW215654   3.233   0.023   2.652
 4919SOL     OW15655   2.126   1.848   1.174
 4919SOL    HW115656   2.084   1.798   1.099
 4919SOL    HW215657   2.156   1.783   1.245
 4920SOL     OW15658   4.449   0.211   6.364
 4920SOL    HW115659   4.520   0.172   6.305
 4920SOL    HW215660   4.471   0.307   6.382
 4921SOL     OW15661   1.740   4.272   1.297
 4921SOL    HW115662   1.802   4.350   1.289
 4921SOL    HW215663   1.728   4.229   1.208
 4922SOL     OW15664   1.648   3.470   4.892
 4922SOL    HW115665   1.599   3.555   4.911
 4922SOL    HW215666   1.736   3.491   4.849
 4923SOL     OW15667   4.093   1.270   1.363
 4923SOL    HW115668   4.055   1.316   1.443
 4923SOL    HW215669   4.040   1.292   1.282
 4924SOL     OW15670   2.151   2.582   6.001
 4924SOL    HW115671   2.104   2.587   5.913
 4924SOL    HW215672   2.099   2.635   6.069
 4925SOL     OW15673   6.276   6.639   0.775
 4925SOL    HW115674   6.204   6.682   0.829
 4925SOL    HW215675   6.348   6.605   0.836
 4926SOL     OW15676   4.601   2.344   1.236
 4926SOL    HW115677   4.543   2.280   1.286
 4926SOL    HW215678   4.548   2.426   1.213
 4927SOL     OW15679   3.991   3.810   4.138
 4927SOL    HW115680   3.987   3.714   4.113
 4927SOL    HW215681   3.971   3.820   4.236
 4928SOL     OW15682   0.181   6.959   6.316
 4928SOL    HW115683   0.195   6.880   6.376
 4928SOL    HW215684   0.219   0.018   6.358
 4929SOL     OW15685   1.350   4.346   5.068
 4929SOL    HW115686   1.437   4.296   5.056
 4929SOL    HW215687   1.322   4.341   5.163
 4930SOL     OW15688   6.639   0.425   1.800
 4930SOL    HW115689   6.720   0.431   1.741
 4930SOL    HW215690   6.657   0.362   1.876
 4931SOL     OW15691   0.241   6.694   0.722
 4931SOL    HW115692   0.277   6.601   0.709
 4931SOL    HW215693   0.142   6.694   0.708
 4932SOL     OW15694   2.144   3.313   1.743
 4932SOL    HW115695   2.180   3.361   1.823
 4932SOL    HW215696   2.044   3.308   1.749
 4933SOL     OW15697   2.842   0.015   4.538
 4933SOL    HW115698   2.908   0.078   4.499
 4933SOL    HW215699   2.872   6.943   4.521
 4934SOL     OW15700   1.741   5.049   2.870
 4934SOL    HW115701   1.680   4.970   2.867
 4934SOL    HW215702   1.717   5.108   2.947
 4935SOL     OW15703   0.774   1.517   6.942
 4935SOL    HW115704   0.769   1.517   6.842
 4935SOL    HW215705   0.812   1.605   6.973
 4936SOL     OW15706   2.190   5.164   2.339
 4936SOL    HW115707   2.217   5.241   2.397
 4936SOL    HW215708   2.248   5.161   2.258
 4937SOL     OW15709   7.006   3.164   6.201
 4937SOL    HW115710   7.019   3.196   6.107
 4937SOL    HW215711   6.911   3.139   6.216
 4938SOL     OW15712   3.206   5.076   1.323
 4938SOL    HW115713   3.164   4.992   1.356
 4938SOL    HW215714   3.284   5.054   1.264
 4939SOL     OW15715   1.058   1.855   3.719
 4939SOL    HW115716   0.973   1.838   3.668
 4939SOL    HW215717   1.132   1.802   3.679
 4940SOL     OW15718   0.777   1.763   5.878
 4940SOL    HW115719   0.743   1.776   5.785
 4940SOL    HW215720   0.869   1.724   5.875
 4941SOL     OW15721   4.117   2.707   5.455
 4941SOL    HW115722   4.056   2.685   5.530
 4941SOL    HW215723   4.120   2.631   5.391
 4942SOL     OW15724   5.428   3.379   4.638
 4942SOL    HW115725   5.425   3.473   4.670
 4942SOL    HW215726   5.359   3.325   4.685
 4943SOL     OW15727   5.001   4.071   5.866
 4943SOL    HW115728   5.044   4.010   5.800
 4943SOL    HW215729   4.906   4.044   5.880
 4944SOL     OW15730   2.470   4.388   1.703
 4944SOL    HW115731   2.410   4.338   1.641
 4944SOL    HW215732   2.562   4.351   1.698
 4945SOL     OW15733   1.094   6.873   5.139
 4945SOL    HW115734   1.051   6.887   5.050
 4945SOL    HW215735   1.143   6.956   5.165
 4946SOL     OW15736   0.589   5.267   6.819
 4946SOL    HW115737   0.611   5.247   6.915
 4946SOL    HW215738   0.672   5.255   6.763
 4947SOL     OW15739   2.547   0.712   1.025
 4947SOL    HW115740   2.574   0.618   1.004
 4947SOL    HW215741   2.591   0.775   0.960
 4948SOL     OW15742   2.349   2.776   2.758
 4948SOL    HW115743   2.376   2.693   2.805
 4948SOL    HW215744   2.372   2.768   2.661
 4949SOL     OW15745   6.840   4.089   4.901
 4949SOL    HW115746   6.905   4.161   4.878
 4949SOL    HW215747   6.815   4.096   4.997
 4950SOL     OW15748   1.953   4.077   5.571
 4950SOL    HW115749   1.878   4.032   5.619
 4950SOL    HW215750   1.991   4.015   5.502
 4951SOL     OW15751   6.466   0.499   4.401
 4951SOL    HW115752   6.399   0.425   4.405
 4951SOL    HW215753   6.431   0.578   4.453
 4952SOL     OW15754   0.518   6.694   5.936
 4952SOL    HW115755   0.539   6.778   5.987
 4952SOL    HW215756   0.423   6.667   5.954
 4953SOL     OW15757   1.376   6.704   3.292
 4953SOL    HW115758   1.332   6.792   3.275
 4953SOL    HW215759   1.456   6.717   3.351
 4954SOL     OW15760   3.297   3.502   0.024
 4954SOL    HW115761   3.225   3.439   0.053
 4954SOL    HW215762   3.262   3.562   6.975
 4955SOL     OW15763   2.661   6.773   0.011
 4955SOL    HW115764   2.620   6.757   6.944
 4955SOL    HW215765   2.723   6.851   0.005
 4956SOL     OW15766   3.238   0.415   4.908
 4956SOL    HW115767   3.251   0.483   4.835
 4956SOL    HW215768   3.191   0.335   4.870
 4957SOL     OW15769   5.459   2.565   1.179
 4957SOL    HW115770   5.415   2.630   1.241
 4957SOL    HW215771   5.395   2.540   1.106
 4958SOL     OW15772   1.103   5.563   6.286
 4958SOL    HW115773   1.039   5.638   6.306
 4958SOL    HW215774   1.188   5.602   6.250
 4959SOL     OW15775   5.709   1.634   0.646
 4959SOL    HW115776   5.636   1.567   0.634
 4959SOL    HW215777   5.786   1.610   0.587
 4960SOL     OW15778   4.379   4.623   4.269
 4960SOL    HW115779   4.326   4.612   4.185
 4960SOL    HW215780   4.316   4.635   4.346
 4961SOL     OW15781   3.143   0.889   6.005
 4961SOL    HW115782   3.118   0.806   5.955
 4961SOL    HW215783   3.061   0.944   6.020
 4962SOL     OW15784   5.701   2.657   0.296
 4962SOL    HW115785   5.622   2.596   0.296
 4962SOL    HW215786   5.688   2.728   0.227
 4963SOL     OW15787   0.602   5.920   0.562
 4963SOL    HW115788   0.674   5.931   0.494
 4963SOL    HW215789   0.623   5.843   0.622
 4964SOL     OW15790   2.118   0.183   4.595
 4964SOL    HW115791   2.106   0.116   4.522
 4964SOL    HW215792   2.051   0.168   4.667
 4965SOL     OW15793   0.462   6.914   2.028
 4965SOL    HW115794   0.457   6.990   2.093
 4965SOL    HW215795   0.555   6.879   2.024
 4966SOL     OW15796   3.241   0.089   4.778
 4966SOL    HW115797   3.311   0.020   4.759
 4966SOL    HW215798   3.188   0.060   4.858
 4967SOL     OW15799   3.329   4.763   6.030
 4967SOL    HW115800   3.263   4.689   6.020
 4967SOL    HW215801   3.387   4.767   5.948
 4968SOL     OW15802   0.277   1.321   3.014
 4968SOL    HW115803   0.367   1.340   3.052
 4968SOL    HW215804   0.226   1.262   3.077
 4969SOL     OW15805   2.119   6.126   2.611
 4969SOL    HW115806   2.198   6.186   2.615
 4969SOL    HW215807   2.056   6.148   2.686
 4970SOL     OW15808   2.286   1.701   1.348
 4970SOL    HW115809   2.306   1.647   1.266
 4970SOL    HW215810   2.363   1.695   1.411
 4971SOL     OW15811   6.069   5.650   2.802
 4971SOL    HW115812   6.022   5.711   2.739
 4971SOL    HW215813   6.066   5.688   2.894
 4972SOL     OW15814   0.545   3.780   0.825
 4972SOL    HW115815   0.610   3.718   0.781
 4972SOL    HW215816   0.586   3.870   0.836
 4973SOL     OW15817   1.310   6.678   1.657
 4973SOL    HW115818   1.242   6.711   1.592
 4973SOL    HW215819   1.402   6.691   1.619
 4974SOL     OW15820   5.902   5.007   0.654
 4974SOL    HW115821   5.869   5.098   0.682
 4974SOL    HW215822   5.887   4.942   0.728
 4975SOL     OW15823   5.810   4.113   6.370
 4975SOL    HW115824   5.856   4.031   6.338
 4975SOL    HW215825   5.829   4.127   6.468
 4976SOL     OW15826   2.132   1.979   4.202
 4976SOL    HW115827   2.091   1.903   4.252
 4976SOL    HW215828   2.231   1.977   4.211
 4977SOL     OW15829   4.492   4.967   0.249
 4977SOL    HW115830   4.433   5.026   0.194
 4977SOL    HW215831   4.440   4.931   0.326
 4978SOL     OW15832   6.129   4.447   5.207
 4978SOL    HW115833   6.070   4.399   5.142
 4978SOL    HW215834   6.125   4.545   5.189
 4979SOL     OW15835   6.632   6.791   5.992
 4979SOL    HW115836   6.603   6.884   6.013
 4979SOL    HW215837   6.730   6.782   6.008
 4980SOL     OW15838   5.317   5.408   3.834
 4980SOL    HW115839   5.229   5.362   3.822
 4980SOL    HW215840   5.349   5.394   3.927
 4981SOL     OW15841   3.882   5.041   0.939
 4981SOL    HW115842   3.931   4.955   0.920
 4981SOL    HW215843   3.948   5.114   0.953
 4982SOL     OW15844   3.350   2.069   5.949
 4982SOL    HW115845   3.324   2.165   5.955
 4982SOL    HW215846   3.326   2.023   6.035
 4983SOL     OW15847   5.994   3.914   5.962
 4983SOL    HW115848   6.022   3.831   6.010
 4983SOL    HW215849   5.999   3.899   5.863
 4984SOL     OW15850   5.349   3.693   2.925
 4984SOL    HW115851   5.402   3.610   2.942
 4984SOL    HW215852   5.251   3.672   2.926
 4985SOL     OW15853   6.078   6.772   3.215
 4985SOL    HW115854   6.067   6.796   3.118
 4985SOL    HW215855   6.122   6.848   3.263
 4986SOL     OW15856   6.766   4.966   0.273
 4986SOL    HW115857   6.797   4.884   0.322
 4986SOL    HW215858   6.733   5.034   0.338
 4987SOL     OW15859   0.387   6.305   2.533
 4987SOL    HW115860   0.326   6.251   2.474
 4987SOL    HW215861   0.444   6.243   2.587
 4988SOL     OW15862   5.292   0.958   2.124
 4988SOL    HW115863   5.294   0.866   2.163
 4988SOL    HW215864   5.197   0.988   2.113
 4989SOL     OW15865   5.440   6.622   1.014
 4989SOL    HW115866   5.392   6.584   0.935
 4989SOL    HW215867   5.527   6.574   1.026
 4990SOL     OW15868   2.713   1.625   5.971
 4990SOL    HW115869   2.643   1.666   6.029
 4990SOL    HW215870   2.802   1.666   5.992
 4991SOL     OW15871   6.241   5.696   4.048
 4991SOL    HW115872   6.280   5.696   4.140
 4991SOL    HW215873   6.216   5.602   4.022
 4992SOL     OW15874   4.989   0.278   2.261
 4992SOL    HW115875   5.019   0.299   2.354
 4992SOL    HW215876   4.939   0.357   2.224
 4993SOL     OW15877   3.399   6.383   5.324
 4993SOL    HW115878   3.449   6.303   5.359
 4993SOL    HW215879   3.388   6.375   5.225
 4994SOL     OW15880   1.612   6.983   4.411
 4994SOL    HW115881   1.641   0.041   4.463
 4994SOL    HW215882   1.605   6.905   4.472
 4995SOL     OW15883   1.148   2.108   5.118
 4995SOL    HW115884   1.150   2.054   5.202
 4995SOL    HW215885   1.125   2.049   5.041
 4996SOL     OW15886   0.010   1.731   3.564
 4996SOL    HW115887   0.089   1.766   3.514
 4996SOL    HW215888   6.949   1.767   3.524
 4997SOL     OW15889   4.593   2.540   2.323
 4997SOL    HW115890   4.523   2.551   2.394
 4997SOL    HW215891   4.644   2.456   2.340
 4998SOL     OW15892   2.082   3.233   4.830
 4998SOL    HW115893   2.095   3.312   4.891
 4998SOL    HW215894   2.097   3.149   4.882
 4999SOL     OW15895   6.631   3.405   5.120
 4999SOL    HW115896   6.594   3.438   5.033
 4999SOL    HW215897   6.680   3.479   5.165
 5000SOL     OW15898   3.448   0.363   3.129
 5000SOL    HW115899   3.504   0.443   3.110
 5000SOL    HW215900   3.453   0.300   3.052
 5001SOL     OW15901   1.731   5.003   1.967
 5001SOL    HW115902   1.816   5.052   1.987
 5001SOL    HW215903   1.719   4.929   2.032
 5002SOL     OW15904   1.189   3.623   2.186
 5002SOL    HW115905   1.102   3.607   2.139
 5002SOL    HW215906   1.205   3.722   2.192
 5003SOL     OW15907   3.700   5.602   2.818
 5003SOL    HW115908   3.636   5.529   2.794
 5003SOL    HW215909   3.649   5.684   2.845
 5004SOL     OW15910   2.334   4.894   5.023
 5004SOL    HW115911   2.432   4.882   5.037
 5004SOL    HW215912   2.298   4.959   5.090
 5005SOL     OW15913   3.242   2.870   0.195
 5005SOL    HW115914   3.261   2.917   0.108
 5005SOL    HW215915   3.327   2.858   0.246
 5006SOL     OW15916   5.118   0.510   1.698
 5006SOL    HW115917   5.079   0.594   1.660
 5006SOL    HW215918   5.060   0.476   1.772
 5007SOL     OW15919   0.498   6.495   1.017
 5007SOL    HW115920   0.547   6.568   0.970
 5007SOL    HW215921   0.542   6.407   0.998
 5008SOL     OW15922   5.147   6.356   1.658
 5008SOL    HW115923   5.185   6.417   1.728
 5008SOL    HW215924   5.149   6.402   1.569
 5009SOL     OW15925   0.081   2.020   0.826
 5009SOL    HW115926   0.147   2.053   0.759
 5009SOL    HW215927   0.071   1.921   0.818
 5010SOL     OW15928   4.280   3.269   1.540
 5010SOL    HW115929   4.232   3.317   1.614
 5010SOL    HW215930   4.362   3.320   1.515
 5011SOL     OW15931   1.680   4.844   2.174
 5011SOL    HW115932   1.669   4.767   2.237
 5011SOL    HW215933   1.656   4.929   2.221
 5012SOL     OW15934   5.357   3.571   5.515
 5012SOL    HW115935   5.435   3.609   5.564
 5012SOL    HW215936   5.349   3.615   5.425
 5013SOL     OW15937   5.310   1.713   6.960
 5013SOL    HW115938   5.409   1.706   6.963
 5013SOL    HW215939   5.276   1.742   0.027
 5014SOL     OW15940   5.729   4.634   1.087
 5014SOL    HW115941   5.826   4.614   1.074
 5014SOL    HW215942   5.720   4.718   1.141
 5015SOL     OW15943   5.087   1.799   4.902
 5015SOL    HW115944   5.132   1.720   4.862
 5015SOL    HW215945   5.064   1.864   4.830
 5016SOL     OW15946   2.342   2.854   5.748
 5016SOL    HW115947   2.407   2.822   5.818
 5016SOL    HW215948   2.255   2.877   5.791
 5017SOL     OW15949   2.583   2.480   1.331
 5017SOL    HW115950   2.591   2.464   1.233
 5017SOL    HW215951   2.602   2.395   1.381
 5018SOL     OW15952   1.221   4.796   2.999
 5018SOL    HW115953   1.242   4.721   2.937
 5018SOL    HW215954   1.126   4.790   3.028
 5019SOL     OW15955   1.280   5.490   5.664
 5019SOL    HW115956   1.367   5.479   5.618
 5019SOL    HW215957   1.247   5.584   5.652
 5020SOL     OW15958   5.143   0.032   6.847
 5020SOL    HW115959   5.167   0.114   6.796
 5020SOL    HW215960   5.212   6.984   6.831
 5021SOL     OW15961   0.548   1.284   0.009
 5021SOL    HW115962   0.496   1.287   0.094
 5021SOL    HW215963   0.559   1.377   6.995
 5022SOL     OW15964   1.845   1.794   1.437
 5022SOL    HW115965   1.784   1.761   1.509
 5022SOL    HW215966   1.824   1.746   1.352
 5023SOL     OW15967   0.091   3.311   1.794
 5023SOL    HW115968   0.108   3.216   1.821
 5023SOL    HW215969   0.005   3.342   1.834
 5024SOL     OW15970   5.907   5.123   1.647
 5024SOL    HW115971   5.931   5.131   1.550
 5024SOL    HW215972   5.834   5.187   1.668
 5025SOL     OW15973   4.181   1.649   3.153
 5025SOL    HW115974   4.177   1.679   3.249
 5025SOL    HW215975   4.270   1.608   3.135
 5026SOL     OW15976   6.184   5.982   5.123
 5026SOL    HW115977   6.219   5.899   5.168
 5026SOL    HW215978   6.183   6.057   5.189
 5027SOL     OW15979   0.103   6.352   1.772
 5027SOL    HW115980   0.122   6.440   1.816
 5027SOL    HW215981   0.045   6.297   1.832
 5028SOL     OW15982   0.225   2.484   2.372
 5028SOL    HW115983   0.285   2.426   2.425
 5028SOL    HW215984   0.222   2.575   2.412
 5029SOL     OW15985   6.653   2.211   2.565
 5029SOL    HW115986   6.715   2.289   2.572
 5029SOL    HW215987   6.698   2.136   2.516
 5030SOL     OW15988   0.015   6.256   6.427
 5030SOL    HW115989   6.982   6.223   6.503
 5030SOL    HW215990   0.074   6.331   6.459
 5031SOL     OW15991   6.474   0.775   5.973
 5031SOL    HW115992   6.533   0.806   6.048
 5031SOL    HW215993   6.473   0.845   5.901
 5032SOL     OW15994   1.821   2.389   6.678
 5032SOL    HW115995   1.840   2.324   6.752
 5032SOL    HW215996   1.894   2.457   6.674
 5033SOL     OW15997   2.590   6.850   5.658
 5033SOL    HW115998   2.577   6.949   5.652
 5033SOL    HW215999   2.674   6.825   5.609
 5034SOL     OW16000   5.986   0.198   3.498
 5034SOL    HW116001   5.991   0.162   3.405
 5034SOL    HW216002   6.061   0.159   3.552
 5035SOL     OW16003   0.616   3.935   5.982
 5035SOL    HW116004   0.702   3.887   5.971
 5035SOL    HW216005   0.545   3.871   6.011
 5036SOL     OW16006   0.611   4.845   7.019
 5036SOL    HW116007   0.538   4.853   6.952
 5036SOL    HW216008   0.620   4.930   0.047
 5037SOL     OW16009   5.755   3.934   1.885
 5037SOL    HW116010   5.672   3.975   1.847
 5037SOL    HW216011   5.751   3.835   1.873
 5038SOL     OW16012   3.383   3.990   5.848
 5038SOL    HW116013   3.368   3.927   5.772
 5038SOL    HW216014   3.475   3.975   5.886
 5039SOL     OW16015   2.716   4.614   6.031
 5039SOL    HW116016   2.743   4.575   6.118
 5039SOL    HW216017   2.617   4.633   6.032
 5040SOL     OW16018   1.751   6.360   5.708
 5040SOL    HW116019   1.788   6.271   5.736
 5040SOL    HW216020   1.729   6.414   5.789
 5041SOL     OW16021   1.734   1.749   2.539
 5041SOL    HW116022   1.787   1.672   2.576
 5041SOL    HW216023   1.644   1.751   2.584
 5042SOL     OW16024   6.220   3.017   0.279
 5042SOL    HW116025   6.319   3.017   0.287
 5042SOL    HW216026   6.185   2.925   0.297
 5043SOL     OW16027   3.201   0.202   6.010
 5043SOL    HW116028   3.241   0.259   5.938
 5043SOL    HW216029   3.269   0.186   6.082
 5044SOL     OW16030   0.578   6.577   7.012
 5044SOL    HW116031   0.596   6.606   0.083
 5044SOL    HW216032   0.523   6.494   7.011
 5045SOL     OW16033   5.512   0.176   6.234
 5045SOL    HW116034   5.592   0.235   6.244
 5045SOL    HW216035   5.442   0.202   6.299
 5046SOL     OW16036   3.540   4.148   2.862
 5046SOL    HW116037   3.634   4.171   2.886
 5046SOL    HW216038   3.481   4.166   2.941
 5047SOL     OW16039   1.045   4.403   2.706
 5047SOL    HW116040   0.970   4.393   2.771
 5047SOL    HW216041   1.013   4.452   2.625
 5048SOL     OW16042   0.898   1.501   2.693
 5048SOL    HW116043   0.882   1.424   2.755
 5048SOL    HW216044   0.888   1.471   2.598
 5049SOL     OW16045   5.456   1.873   6.371
 5049SOL    HW116046   5.513   1.942   6.416
 5049SOL    HW216047   5.368   1.866   6.419
 5050SOL     OW16048   2.415   0.833   1.489
 5050SOL    HW116049   2.406   0.924   1.529
 5050SOL    HW216050   2.494   0.787   1.529
 5051SOL     OW16051   4.032   4.537   0.848
 5051SOL    HW116052   3.944   4.574   0.879
 5051SOL    HW216053   4.017   4.450   0.802
 5052SOL     OW16054   2.410   1.142   5.867
 5052SOL    HW116055   2.455   1.210   5.810
 5052SOL    HW216056   2.414   1.171   5.963
 5053SOL     OW16057   2.203   3.942   3.649
 5053SOL    HW116058   2.132   3.964   3.583
 5053SOL    HW216059   2.209   3.843   3.660
 5054SOL     OW16060   3.313   5.224   4.568
 5054SOL    HW116061   3.325   5.323   4.578
 5054SOL    HW216062   3.377   5.189   4.500
 5055SOL     OW16063   2.053   2.255   5.577
 5055SOL    HW116064   2.121   2.318   5.541
 5055SOL    HW216065   2.015   2.291   5.662
 5056SOL     OW16066   5.789   4.305   6.771
 5056SOL    HW116067   5.804   4.399   6.741
 5056SOL    HW216068   5.811   4.297   6.868
 5057SOL     OW16069   6.628   5.921   3.769
 5057SOL    HW116070   6.690   5.869   3.828
 5057SOL    HW216071   6.623   6.015   3.802
 5058SOL     OW16072   2.772   3.257   5.615
 5058SOL    HW116073   2.817   3.328   5.560
 5058SOL    HW216074   2.686   3.230   5.571
 5059SOL     OW16075   6.462   1.214   3.078
 5059SOL    HW116076   6.476   1.119   3.050
 5059SOL    HW216077   6.382   1.221   3.137
 5060SOL     OW16078   0.816   2.354   5.778
 5060SOL    HW116079   0.784   2.262   5.754
 5060SOL    HW216080   0.874   2.390   5.705
 5061SOL     OW16081   4.308   2.791   1.604
 5061SOL    HW116082   4.221   2.753   1.637
 5061SOL    HW216083   4.347   2.729   1.536
 5062SOL     OW16084   5.611   0.918   3.063
 5062SOL    HW116085   5.664   0.836   3.041
 5062SOL    HW216086   5.632   0.990   2.996
 5063SOL     OW16087   0.737   6.876   2.045
 5063SOL    HW116088   0.787   6.935   2.109
 5063SOL    HW216089   0.774   6.783   2.050
 5064SOL     OW16090   4.938   3.825   1.327
 5064SOL    HW116091   4.964   3.909   1.281
 5064SOL    HW216092   4.889   3.765   1.264
 5065SOL     OW16093   1.999   0.529   3.436
 5065SOL    HW116094   2.061   0.532   3.358
 5065SOL    HW216095   2.044   0.484   3.513
 5066SOL     OW16096   4.787   5.089   2.221
 5066SOL    HW116097   4.692   5.078   2.250
 5066SOL    HW216098   4.823   5.176   2.256
 5067SOL     OW16099   4.875   0.912   1.799
 5067SOL    HW116100   4.934   0.992   1.787
 5067SOL    HW216101   4.780   0.942   1.812
 5068SOL     OW16102   3.649   4.456   1.069
 5068SOL    HW116103   3.597   4.371   1.058
 5068SOL    HW216104   3.622   4.521   0.998
 5069SOL     OW16105   1.972   3.743   5.727
 5069SOL    HW116106   1.879   3.751   5.763
 5069SOL    HW216107   1.970   3.692   5.640
 5070SOL     OW16108   4.873   4.154   4.191
 5070SOL    HW116109   4.819   4.180   4.271
 5070SOL    HW216110   4.878   4.054   4.186
 5071SOL     OW16111   4.263   2.238   3.525
 5071SOL    HW116112   4.316   2.314   3.563
 5071SOL    HW216113   4.230   2.262   3.434
 5072SOL     OW16114   1.137   0.103   1.208
 5072SOL    HW116115   1.060   0.077   1.150
 5072SOL    HW216116   1.151   0.202   1.204
 5073SOL     OW16117   0.092   5.644   2.249
 5073SOL    HW116118   0.131   5.688   2.330
 5073SOL    HW216119   0.138   5.680   2.167
 5074SOL     OW16120   3.290   3.040   1.147
 5074SOL    HW116121   3.306   3.092   1.232
 5074SOL    HW216122   3.240   3.098   1.082
 5075SOL     OW16123   0.934   2.152   0.017
 5075SOL    HW116124   0.935   2.213   0.096
 5075SOL    HW216125   0.854   2.093   0.022
 5076SOL     OW16126   3.536   1.225   1.019
 5076SOL    HW116127   3.581   1.158   1.079
 5076SOL    HW216128   3.571   1.214   0.926
 5077SOL     OW16129   1.333   4.234   5.471
 5077SOL    HW116130   1.428   4.249   5.499
 5077SOL    HW216131   1.285   4.322   5.466
 5078SOL     OW16132   2.262   1.268   3.720
 5078SOL    HW116133   2.328   1.323   3.669
 5078SOL    HW216134   2.175   1.267   3.670
 5079SOL     OW16135   2.556   3.157   6.080
 5079SOL    HW116136   2.523   3.201   5.996
 5079SOL    HW216137   2.656   3.155   6.079
 5080SOL     OW16138   6.081   6.404   6.251
 5080SOL    HW116139   6.101   6.459   6.332
 5080SOL    HW216140   6.099   6.459   6.169
 5081SOL     OW16141   3.376   3.036   4.405
 5081SOL    HW116142   3.288   3.004   4.441
 5081SOL    HW216143   3.447   3.017   4.473
 5082SOL     OW16144   4.745   5.999   6.657
 5082SOL    HW116145   4.768   6.089   6.621
 5082SOL    HW216146   4.813   5.932   6.626
 5083SOL     OW16147   2.481   0.039   3.118
 5083SOL    HW116148   2.577   0.052   3.145
 5083SOL    HW216149   2.446   6.978   3.161
 5084SOL     OW16150   0.181   4.767   4.588
 5084SOL    HW116151   0.159   4.849   4.536
 5084SOL    HW216152   0.126   4.690   4.555
 5085SOL     OW16153   4.754   3.587   6.249
 5085SOL    HW116154   4.739   3.612   6.345
 5085SOL    HW216155   4.725   3.663   6.190
 5086SOL     OW16156   0.100   5.175   3.415
 5086SOL    HW116157   0.047   5.238   3.473
 5086SOL    HW216158   0.100   5.209   3.321
 5087SOL     OW16159   0.925   5.020   2.046
 5087SOL    HW116160   0.972   4.998   2.131
 5087SOL    HW216161   0.905   4.936   1.996
 5088SOL     OW16162   6.533   1.447   5.329
 5088SOL    HW116163   6.462   1.444   5.259
 5088SOL    HW216164   6.623   1.449   5.285
 5089SOL     OW16165   5.122   3.368   4.274
 5089SOL    HW116166   5.040   3.312   4.287
 5089SOL    HW216167   5.176   3.331   4.199
 5090SOL     OW16168   2.118   3.651   2.916
 5090SOL    HW116169   2.052   3.722   2.894
 5090SOL    HW216170   2.159   3.616   2.831
 5091SOL     OW16171   0.696   6.846   2.422
 5091SOL    HW116172   0.681   6.778   2.350
 5091SOL    HW216173   0.673   6.805   2.511
 5092SOL     OW16174   3.676   3.233   1.431
 5092SOL    HW116175   3.727   3.185   1.503
 5092SOL    HW216176   3.674   3.331   1.452
 5093SOL     OW16177   2.566   1.492   1.240
 5093SOL    HW116178   2.499   1.532   1.177
 5093SOL    HW216179   2.523   1.416   1.289
 5094SOL     OW16180   2.161   6.028   5.393
 5094SOL    HW116181   2.225   5.984   5.331
 5094SOL    HW216182   2.121   6.108   5.349
 5095SOL     OW16183   6.753   2.683   4.779
 5095SOL    HW116184   6.674   2.683   4.841
 5095SOL    HW216185   6.725   2.652   4.688
 5096SOL     OW16186   4.450   4.239   0.754
 5096SOL    HW116187   4.464   4.338   0.753
 5096SOL    HW216188   4.394   4.213   0.675
 5097SOL     OW16189   1.375   0.521   6.922
 5097SOL    HW116190   1.408   0.528   6.828
 5097SOL    HW216191   1.349   0.427   6.942
 5098SOL     OW16192   1.528   0.795   1.590
 5098SOL    HW116193   1.434   0.764   1.600
 5098SOL    HW216194   1.547   0.867   1.657
 5099SOL     OW16195   0.446   6.352   6.946
 5099SOL    HW116196   0.495   6.335   6.861
 5099SOL    HW216197   0.435   6.265   6.996
 5100SOL     OW16198   3.913   5.785   5.489
 5100SOL    HW116199   3.994   5.727   5.492
 5100SOL    HW216200   3.878   5.799   5.582
 5101SOL     OW16201   4.481   6.831   0.511
 5101SOL    HW116202   4.456   6.872   0.599
 5101SOL    HW216203   4.443   6.739   0.504
 5102SOL     OW16204   5.916   0.827   4.626
 5102SOL    HW116205   5.830   0.874   4.646
 5102SOL    HW216206   5.906   0.730   4.647
 5103SOL     OW16207   0.834   1.366   4.318
 5103SOL    HW116208   0.781   1.394   4.238
 5103SOL    HW216209   0.772   1.348   4.395
 5104SOL     OW16210   1.975   6.742   2.794
 5104SOL    HW116211   1.930   6.654   2.811
 5104SOL    HW216212   1.945   6.809   2.861
 5105SOL     OW16213   3.182   2.357   0.226
 5105SOL    HW116214   3.137   2.408   0.298
 5105SOL    HW216215   3.172   2.405   0.139
 5106SOL     OW16216   3.320   1.051   0.631
 5106SOL    HW116217   3.282   1.142   0.650
 5106SOL    HW216218   3.351   1.010   0.717
 5107SOL     OW16219   3.803   0.826   0.852
 5107SOL    HW116220   3.718   0.797   0.808
 5107SOL    HW216221   3.874   0.758   0.835
 5108SOL     OW16222   2.946   3.760   4.453
 5108SOL    HW116223   2.962   3.858   4.461
 5108SOL    HW216224   2.963   3.731   4.359
 5109SOL     OW16225   1.362   0.986   0.895
 5109SOL    HW116226   1.357   0.888   0.915
 5109SOL    HW216227   1.336   1.038   0.977
 5110SOL     OW16228   0.612   0.511   6.176
 5110SOL    HW116229   0.687   0.535   6.115
 5110SOL    HW216230   0.531   0.564   6.149
 5111SOL     OW16231   2.399   1.172   5.292
 5111SOL    HW116232   2.431   1.105   5.359
 5111SOL    HW216233   2.411   1.134   5.200
 5112SOL     OW16234   0.376   6.644   2.675
 5112SOL    HW116235   0.292   6.593   2.657
 5112SOL    HW216236   0.398   6.639   2.772
 5113SOL     OW16237   2.288   6.849   1.873
 5113SOL    HW116238   2.335   6.895   1.797
 5113SOL    HW216239   2.329   6.760   1.889
 5114SOL     OW16240   2.752   2.218   0.398
 5114SOL    HW116241   2.674   2.159   0.420
 5114SOL    HW216242   2.832   2.162   0.379
 5115SOL     OW16243   2.108   4.814   4.651
 5115SOL    HW116244   2.039   4.866   4.702
 5115SOL    HW216245   2.199   4.831   4.691
 5116SOL     OW16246   5.777   6.507   6.737
 5116SOL    HW116247   5.784   6.421   6.788
 5116SOL    HW216248   5.857   6.564   6.755
 5117SOL     OW16249   2.700   4.683   4.708
 5117SOL    HW116250   2.612   4.660   4.665
 5117SOL    HW216251   2.732   4.604   4.760
 5118SOL     OW16252   4.822   0.573   0.418
 5118SOL    HW116253   4.738   0.524   0.396
 5118SOL    HW216254   4.825   0.590   0.517
 5119SOL     OW16255   5.560   0.800   1.564
 5119SOL    HW116256   5.551   0.873   1.632
 5119SOL    HW216257   5.496   0.726   1.586
 5120SOL     OW16258   4.237   1.332   4.050
 5120SOL    HW116259   4.321   1.384   4.031
 5120SOL    HW216260   4.174   1.343   3.973
 5121SOL     OW16261   2.386   2.408   0.543
 5121SOL    HW116262   2.463   2.432   0.602
 5121SOL    HW216263   2.301   2.442   0.583
 5122SOL     OW16264   2.823   0.294   3.476
 5122SOL    HW116265   2.837   0.195   3.467
 5122SOL    HW216266   2.851   0.324   3.567
 5123SOL     OW16267   6.049   2.176   5.211
 5123SOL    HW116268   6.051   2.076   5.208
 5123SOL    HW216269   6.137   2.211   5.179
 5124SOL     OW16270   3.128   5.251   5.101
 5124SOL    HW116271   3.121   5.152   5.093
 5124SOL    HW216272   3.037   5.292   5.090
 5125SOL     OW16273   6.058   2.845   4.190
 5125SOL    HW116274   6.056   2.746   4.179
 5125SOL    HW216275   6.123   2.869   4.263
 5126SOL     OW16276   6.273   5.422   5.839
 5126SOL    HW116277   6.184   5.394   5.875
 5126SOL    HW216278   6.273   5.415   5.739
 5127SOL     OW16279   6.918   3.947   0.516
 5127SOL    HW116280   6.949   3.964   0.609
 5127SOL    HW216281   6.994   3.912   0.461
 5128SOL     OW16282   0.384   0.169   6.417
 5128SOL    HW116283   0.350   0.203   6.330
 5128SOL    HW216284   0.432   0.083   6.402
 5129SOL     OW16285   4.996   6.990   2.656
 5129SOL    HW116286   4.901   6.964   2.635
 5129SOL    HW216287   5.058   6.918   2.625
 5130SOL     OW16288   1.556   5.928   4.253
 5130SOL    HW116289   1.537   5.987   4.175
 5130SOL    HW216290   1.496   5.954   4.329
 5131SOL     OW16291   2.939   4.789   3.689
 5131SOL    HW116292   2.862   4.853   3.700
 5131SOL    HW216293   2.965   4.753   3.778
 5132SOL     OW16294   3.371   1.480   6.106
 5132SOL    HW116295   3.323   1.472   6.193
 5132SOL    HW216296   3.309   1.456   6.031
 5133SOL     OW16297   2.569   5.376   6.452
 5133SOL    HW116298   2.650   5.327   6.419
 5133SOL    HW216299   2.555   5.458   6.397
 5134SOL     OW16300   6.695   0.921   2.235
 5134SOL    HW116301   6.689   0.833   2.187
 5134SOL    HW216302   6.602   0.952   2.257
 5135SOL     OW16303   5.131   3.508   3.929
 5135SOL    HW116304   5.080   3.460   3.858
 5135SOL    HW216305   5.154   3.444   4.002
 5136SOL     OW16306   5.271   0.397   6.348
 5136SOL    HW116307   5.275   0.490   6.385
 5136SOL    HW216308   5.178   0.362   6.358
 5137SOL     OW16309   5.319   3.498   5.037
 5137SOL    HW116310   5.253   3.453   5.097
 5137SOL    HW216311   5.271   3.550   4.967
 5138SOL     OW16312   3.230   4.078   4.537
 5138SOL    HW116313   3.196   4.086   4.630
 5138SOL    HW216314   3.153   4.066   4.474
 5139SOL     OW16315   0.655   6.897   4.878
 5139SOL    HW116316   0.665   6.951   4.795
 5139SOL    HW216317   0.663   6.800   4.856
 5140SOL     OW16318   3.848   1.918   5.421
 5140SOL    HW116319   3.767   1.959   5.464
 5140SOL    HW216320   3.920   1.908   5.489
 5141SOL     OW16321   6.778   3.762   1.363
 5141SOL    HW116322   6.724   3.686   1.400
 5141SOL    HW216323   6.716   3.832   1.328
 5142SOL     OW16324   5.403   6.805   4.779
 5142SOL    HW116325   5.361   6.893   4.756
 5142SOL    HW216326   5.349   6.760   4.849
 5143SOL     OW16327   0.641   4.247   4.601
 5143SOL    HW116328   0.588   4.329   4.623
 5143SOL    HW216329   0.739   4.268   4.607
 5144SOL     OW16330   1.811   4.467   5.876
 5144SOL    HW116331   1.792   4.415   5.959
 5144SOL    HW216332   1.730   4.466   5.817
 5145SOL     OW16333   4.012   6.026   6.054
 5145SOL    HW116334   3.918   6.028   6.018
 5145SOL    HW216335   4.011   5.986   6.146
 5146SOL     OW16336   3.572   3.952   5.235
 5146SOL    HW116337   3.594   3.889   5.310
 5146SOL    HW216338   3.480   3.933   5.201
 5147SOL     OW16339   5.986   5.236   3.800
 5147SOL    HW116340   5.901   5.268   3.758
 5147SOL    HW216341   6.027   5.166   3.741
 5148SOL     OW16342   0.181   1.084   2.104
 5148SOL    HW116343   0.169   1.176   2.067
 5148SOL    HW216344   0.111   1.023   2.067
 5149SOL     OW16345   6.020   5.718   4.969
 5149SOL    HW116346   5.939   5.765   4.935
 5149SOL    HW216347   6.103   5.765   4.937
 5150SOL     OW16348   1.937   4.402   3.970
 5150SOL    HW116349   1.882   4.485   3.975
 5150SOL    HW216350   1.955   4.369   4.063
 5151SOL     OW16351   6.851   4.407   2.205
 5151SOL    HW116352   6.857   4.388   2.107
 5151SOL    HW216353   6.763   4.375   2.240
 5152SOL     OW16354   2.325   5.495   6.789
 5152SOL    HW116355   2.305   5.588   6.818
 5152SOL    HW216356   2.422   5.487   6.767
 5153SOL     OW16357   0.432   2.139   1.083
 5153SOL    HW116358   0.406   2.172   1.174
 5153SOL    HW216359   0.429   2.215   1.018
 5154SOL     OW16360   1.025   2.701   5.678
 5154SOL    HW116361   1.095   2.772   5.677
 5154SOL    HW216362   0.937   2.742   5.701
 5155SOL     OW16363   4.121   0.234   2.211
 5155SOL    HW116364   4.135   0.141   2.176
 5155SOL    HW216365   4.167   0.244   2.299
 5156SOL     OW16366   5.742   4.362   5.246
 5156SOL    HW116367   5.710   4.456   5.244
 5156SOL    HW216368   5.821   4.352   5.186
 5157SOL     OW16369   3.213   2.035   2.382
 5157SOL    HW116370   3.199   1.939   2.358
 5157SOL    HW216371   3.142   2.091   2.340
 5158SOL     OW16372   4.139   2.412   0.875
 5158SOL    HW116373   4.099   2.439   0.787
 5158SOL    HW216374   4.231   2.451   0.882
 5159SOL     OW16375   5.941   3.252   5.810
 5159SOL    HW116376   5.926   3.187   5.735
 5159SOL    HW216377   5.853   3.289   5.840
 5160SOL     OW16378   6.991   4.808   3.367
 5160SOL    HW116379   0.061   4.785   3.337
 5160SOL    HW216380   6.962   4.894   3.323
 5161SOL     OW16381   1.555   3.837   0.258
 5161SOL    HW116382   1.512   3.830   0.348
 5161SOL    HW216383   1.573   3.933   0.237
 5162SOL     OW16384   1.015   5.544   2.733
 5162SOL    HW116385   0.978   5.618   2.677
 5162SOL    HW216386   1.112   5.533   2.713
 5163SOL     OW16387   3.650   6.511   0.494
 5163SOL    HW116388   3.597   6.440   0.539
 5163SOL    HW216389   3.607   6.535   0.407
 5164SOL     OW16390   3.110   2.625   0.115
 5164SOL    HW116391   3.065   2.590   0.197
 5164SOL    HW216392   3.167   2.703   0.138
 5165SOL     OW16393   0.359   4.258   5.907
 5165SOL    HW116394   0.268   4.229   5.935
 5165SOL    HW216395   0.371   4.239   5.809
 5166SOL     OW16396   2.559   4.952   2.692
 5166SOL    HW116397   2.616   5.033   2.675
 5166SOL    HW216398   2.466   4.982   2.715
 5167SOL     OW16399   6.378   4.294   5.313
 5167SOL    HW116400   6.415   4.376   5.358
 5167SOL    HW216401   6.283   4.310   5.287
 5168SOL     OW16402   5.195   3.214   3.175
 5168SOL    HW116403   5.220   3.229   3.079
 5168SOL    HW216404   5.105   3.173   3.180
 5169SOL     OW16405   4.198   2.286   3.250
 5169SOL    HW116406   4.229   2.293   3.155
 5169SOL    HW216407   4.120   2.224   3.255
 5170SOL     OW16408   1.486   3.641   5.014
 5170SOL    HW116409   1.499   3.609   5.108
 5170SOL    HW216410   1.388   3.653   4.997
 5171SOL     OW16411   6.970   4.285   6.111
 5171SOL    HW116412   0.042   4.297   6.143
 5171SOL    HW216413   6.970   4.273   6.012
 5172SOL     OW16414   1.677   3.842   2.969
 5172SOL    HW116415   1.750   3.795   2.919
 5172SOL    HW216416   1.672   3.805   3.062
 5173SOL     OW16417   4.360   5.269   5.277
 5173SOL    HW116418   4.287   5.234   5.217
 5173SOL    HW216419   4.376   5.366   5.256
 5174SOL     OW16420   2.249   4.989   3.784
 5174SOL    HW116421   2.197   4.919   3.735
 5174SOL    HW216422   2.346   4.981   3.761
 5175SOL     OW16423   2.495   3.719   6.720
 5175SOL    HW116424   2.417   3.781   6.709
 5175SOL    HW216425   2.513   3.706   6.818
 5176SOL     OW16426   5.231   4.749   6.316
 5176SOL    HW116427   5.156   4.727   6.253
 5176SOL    HW216428   5.207   4.830   6.369
 5177SOL     OW16429   5.292   6.842   0.683
 5177SOL    HW116430   5.233   6.778   0.733
 5177SOL    HW216431   5.236   6.902   0.626
 5178SOL     OW16432   1.465   4.384   1.720
 5178SOL    HW116433   1.417   4.468   1.744
 5178SOL    HW216434   1.515   4.396   1.635
 5179SOL     OW16435   4.847   4.692   4.069
 5179SOL    HW116436   4.766   4.749   4.056
 5179SOL    HW216437   4.844   4.649   4.160
 5180SOL     OW16438   3.921   1.103   1.834
 5180SOL    HW116439   3.883   1.161   1.762
 5180SOL    HW216440   3.869   1.117   1.918
 5181SOL     OW16441   6.450   0.706   2.462
 5181SOL    HW116442   6.466   0.804   2.477
 5181SOL    HW216443   6.506   0.675   2.386
 5182SOL     OW16444   4.434   4.503   2.378
 5182SOL    HW116445   4.367   4.567   2.340
 5182SOL    HW216446   4.393   4.455   2.456
 5183SOL     OW16447   3.870   1.825   3.007
 5183SOL    HW116448   3.805   1.750   2.996
 5183SOL    HW216449   3.844   1.880   3.087
 5184SOL     OW16450   1.876   2.228   3.410
 5184SOL    HW116451   1.954   2.286   3.388
 5184SOL    HW216452   1.791   2.273   3.380
 5185SOL     OW16453   4.868   0.898   2.904
 5185SOL    HW116454   4.813   0.981   2.893
 5185SOL    HW216455   4.819   0.821   2.865
 5186SOL     OW16456   5.818   2.077   6.197
 5186SOL    HW116457   5.752   2.148   6.222
 5186SOL    HW216458   5.889   2.117   6.138
 5187SOL     OW16459   1.185   5.792   5.582
 5187SOL    HW116460   1.132   5.829   5.505
 5187SOL    HW216461   1.250   5.861   5.613
 5188SOL     OW16462   6.302   6.144   1.595
 5188SOL    HW116463   6.278   6.122   1.500
 5188SOL    HW216464   6.231   6.202   1.634
 5189SOL     OW16465   4.596   6.179   0.258
 5189SOL    HW116466   4.497   6.193   0.264
 5189SOL    HW216467   4.615   6.082   0.246
 5190SOL     OW16468   0.569   3.626   3.966
 5190SOL    HW116469   0.566   3.530   3.939
 5190SOL    HW216470   0.490   3.674   3.926
 5191SOL     OW16471   3.265   6.147   2.077
 5191SOL    HW116472   3.256   6.208   2.155
 5191SOL    HW216473   3.362   6.131   2.058
 5192SOL     OW16474   1.913   6.145   1.328
 5192SOL    HW116475   1.953   6.220   1.381
 5192SOL    HW216476   1.848   6.094   1.384
 5193SOL     OW16477   5.294   5.941   5.575
 5193SOL    HW116478   5.385   5.908   5.550
 5193SOL    HW216479   5.227   5.868   5.562
 5194SOL     OW16480   3.548   2.449   6.631
 5194SOL    HW116481   3.641   2.430   6.663
 5194SOL    HW216482   3.521   2.541   6.661
 5195SOL     OW16483   0.391   0.487   4.147
 5195SOL    HW116484   0.330   0.417   4.186
 5195SOL    HW216485   0.339   0.546   4.085
 5196SOL     OW16486   5.315   6.802   2.256
 5196SOL    HW116487   5.348   6.718   2.300
 5196SOL    HW216488   5.321   6.792   2.157
 5197SOL     OW16489   2.243   3.845   6.708
 5197SOL    HW116490   2.236   3.796   6.621
 5197SOL    HW216491   2.184   3.926   6.705
 5198SOL     OW16492   4.598   5.868   2.696
 5198SOL    HW116493   4.615   5.912   2.785
 5198SOL    HW216494   4.552   5.781   2.711
 5199SOL     OW16495   1.225   6.027   0.713
 5199SOL    HW116496   1.176   5.987   0.790
 5199SOL    HW216497   1.215   6.127   0.715
 5200SOL     OW16498   6.822   3.800   4.841
 5200SOL    HW116499   6.722   3.809   4.849
 5200SOL    HW216500   6.865   3.882   4.879
 5201SOL     OW16501   0.816   6.612   3.029
 5201SOL    HW116502   0.852   6.628   2.938
 5201SOL    HW216503   0.769   6.523   3.031
 5202SOL     OW16504   4.919   2.825   6.586
 5202SOL    HW116505   4.909   2.915   6.543
 5202SOL    HW216506   5.012   2.792   6.574
 5203SOL     OW16507   2.333   1.996   6.237
 5203SOL    HW116508   2.398   1.969   6.166
 5203SOL    HW216509   2.320   2.095   6.236
 5204SOL     OW16510   3.568   5.120   0.264
 5204SOL    HW116511   3.535   5.049   0.203
 5204SOL    HW216512   3.545   5.097   0.359
 5205SOL     OW16513   1.174   6.592   0.198
 5205SOL    HW116514   1.187   6.585   0.297
 5205SOL    HW216515   1.246   6.541   0.151
 5206SOL     OW16516   0.367   4.619   4.938
 5206SOL    HW116517   0.300   4.684   4.904
 5206SOL    HW216518   0.436   4.667   4.993
 5207SOL     OW16519   1.362   6.061   3.717
 5207SOL    HW116520   1.428   6.136   3.708
 5207SOL    HW216521   1.269   6.098   3.718
 5208SOL     OW16522   3.636   1.870   6.591
 5208SOL    HW116523   3.732   1.886   6.614
 5208SOL    HW216524   3.611   1.776   6.614
 5209SOL     OW16525   5.784   6.108   3.483
 5209SOL    HW116526   5.754   6.013   3.481
 5209SOL    HW216527   5.796   6.142   3.390
 5210SOL     OW16528   5.426   2.438   5.803
 5210SOL    HW116529   5.391   2.531   5.795
 5210SOL    HW216530   5.525   2.438   5.788
 5211SOL     OW16531   3.875   2.944   4.899
 5211SOL    HW116532   3.776   2.947   4.906
 5211SOL    HW216533   3.915   2.937   4.991
 5212SOL     OW16534   5.996   1.170   0.177
 5212SOL    HW116535   6.079   1.224   0.171
 5212SOL    HW216536   5.974   1.154   0.274
 5213SOL     OW16537   4.695   3.678   6.484
 5213SOL    HW116538   4.692   3.610   6.557
 5213SOL    HW216539   4.680   3.769   6.522
 5214SOL     OW16540   5.025   1.649   5.979
 5214SOL    HW116541   5.111   1.609   5.948
 5214SOL    HW216542   5.000   1.608   6.067
 5215SOL     OW16543   5.731   4.955   3.536
 5215SOL    HW116544   5.787   5.033   3.507
 5215SOL    HW216545   5.648   4.951   3.479
 5216SOL     OW16546   4.082   5.672   1.885
 5216SOL    HW116547   4.100   5.771   1.877
 5216SOL    HW216548   4.061   5.649   1.980
 5217SOL     OW16549   3.298   5.249   4.118
 5217SOL    HW116550   3.328   5.286   4.030
 5217SOL    HW216551   3.227   5.181   4.102
 5218SOL     OW16552   0.725   1.263   3.281
 5218SOL    HW116553   0.729   1.313   3.368
 5218SOL    HW216554   0.808   1.209   3.270
 5219SOL     OW16555   4.253   0.529   5.675
 5219SOL    HW116556   4.349   0.518   5.649
 5219SOL    HW216557   4.196   0.533   5.593
 5220SOL     OW16558   1.329   6.296   2.629
 5220SOL    HW116559   1.331   6.201   2.598
 5220SOL    HW216560   1.299   6.355   2.555
 5221SOL     OW16561   5.692   1.941   3.680
 5221SOL    HW116562   5.684   1.871   3.609
 5221SOL    HW216563   5.658   2.029   3.645
 5222SOL     OW16564   3.060   6.405   3.594
 5222SOL    HW116565   3.074   6.395   3.495
 5222SOL    HW216566   2.991   6.339   3.625
 5223SOL     OW16567   5.436   1.260   0.795
 5223SOL    HW116568   5.512   1.196   0.806
 5223SOL    HW216569   5.446   1.335   0.860
 5224SOL     OW16570   0.003   2.490   4.168
 5224SOL    HW116571   0.102   2.479   4.178
 5224SOL    HW216572   6.983   2.399   4.168
 5225SOL     OW16573   0.524   0.159   3.402
 5225SOL    HW116574   0.439   0.158   3.455
 5225SOL    HW216575   0.504   0.192   3.310
 5226SOL     OW16576   0.665   5.462   4.705
 5226SOL    HW116577   0.617   5.537   4.752
 5226SOL    HW216578   0.619   5.376   4.725
 5227SOL     OW16579   1.409   4.545   4.118
 5227SOL    HW116580   1.413   4.506   4.026
 5227SOL    HW216581   1.416   4.645   4.112
 5228SOL     OW16582   6.410   2.094   1.060
 5228SOL    HW116583   6.471   2.087   0.981
 5228SOL    HW216584   6.457   2.139   1.136
 5229SOL     OW16585   1.779   4.676   7.013
 5229SOL    HW116586   1.860   4.710   6.965
 5229SOL    HW216587   1.804   4.650   0.083
 5230SOL     OW16588   0.557   6.208   0.922
 5230SOL    HW116589   0.633   6.180   0.981
 5230SOL    HW216590   0.591   6.268   0.850
 5231SOL     OW16591   3.944   3.639   4.823
 5231SOL    HW116592   3.972   3.672   4.733
 5231SOL    HW216593   4.024   3.632   4.882
 5232SOL     OW16594   3.223   1.938   5.727
 5232SOL    HW116595   3.145   1.998   5.712
 5232SOL    HW216596   3.288   1.982   5.789
 5233SOL     OW16597   5.921   0.322   1.850
 5233SOL    HW116598   6.020   0.334   1.856
 5233SOL    HW216599   5.876   0.409   1.867
 5234SOL     OW16600   2.140   0.710   7.019
 5234SOL    HW116601   2.115   0.707   6.922
 5234SOL    HW216602   2.065   0.672   0.051
 5235SOL     OW16603   1.847   3.129   1.346
 5235SOL    HW116604   1.795   3.215   1.348
 5235SOL    HW216605   1.896   3.122   1.260
 5236SOL     OW16606   6.014   3.899   2.258
 5236SOL    HW116607   6.070   3.979   2.237
 5236SOL    HW216608   6.068   3.834   2.311
 5237SOL     OW16609   2.310   0.623   5.643
 5237SOL    HW116610   2.301   0.666   5.733
 5237SOL    HW216611   2.221   0.620   5.599
 5238SOL     OW16612   1.317   4.703   0.667
 5238SOL    HW116613   1.352   4.744   0.752
 5238SOL    HW216614   1.232   4.654   0.687
 5239SOL     OW16615   3.868   3.784   4.384
 5239SOL    HW116616   3.776   3.797   4.346
 5239SOL    HW216617   3.894   3.866   4.436
 5240SOL     OW16618   3.203   1.835   6.456
 5240SOL    HW116619   3.103   1.832   6.458
 5240SOL    HW216620   3.236   1.887   6.535
 5241SOL     OW16621   0.696   5.175   6.311
 5241SOL    HW116622   0.629   5.206   6.378
 5241SOL    HW216623   0.695   5.075   6.306
 5242SOL     OW16624   0.397   6.266   5.500
 5242SOL    HW116625   0.362   6.341   5.556
 5242SOL    HW216626   0.383   6.287   5.403
 5243SOL     OW16627   1.226   5.808   2.086
 5243SOL    HW116628   1.219   5.876   2.013
 5243SOL    HW216629   1.307   5.751   2.071
 5244SOL     OW16630   3.147   4.004   5.987
 5244SOL    HW116631   3.106   4.096   5.987
 5244SOL    HW216632   3.235   4.008   5.940
 5245SOL     OW16633   4.780   4.435   0.307
 5245SOL    HW116634   4.874   4.468   0.304
 5245SOL    HW216635   4.718   4.507   0.275
 5246SOL     OW16636   5.592   4.554   2.263
 5246SOL    HW116637   5.616   4.457   2.254
 5246SOL    HW216638   5.657   4.598   2.325
 5247SOL     OW16639   1.152   6.470   0.515
 5247SOL    HW116640   1.136   6.488   0.612
 5247SOL    HW216641   1.070   6.429   0.475
 5248SOL     OW16642   5.960   0.305   4.790
 5248SOL    HW116643   5.974   0.268   4.882
 5248SOL    HW216644   5.964   0.231   4.723
 5249SOL     OW16645   0.434   4.852   4.672
 5249SOL    HW116646   0.347   4.826   4.631
 5249SOL    HW216647   0.418   4.896   4.760
 5250SOL     OW16648   1.030   0.889   5.348
 5250SOL    HW116649   0.934   0.880   5.374
 5250SOL    HW216650   1.051   0.986   5.332
 5251SOL     OW16651   0.567   3.475   0.722
 5251SOL    HW116652   0.539   3.391   0.769
 5251SOL    HW216653   0.498   3.500   0.654
 5252SOL     OW16654   2.225   5.477   1.201
 5252SOL    HW116655   2.321   5.504   1.206
 5252SOL    HW216656   2.192   5.486   1.107
 5253SOL     OW16657   5.851   3.761   4.873
 5253SOL    HW116658   5.771   3.805   4.831
 5253SOL    HW216659   5.860   3.668   4.837
 5254SOL     OW16660   5.327   0.736   3.096
 5254SOL    HW116661   5.351   0.639   3.095
 5254SOL    HW216662   5.393   0.787   3.152
 5255SOL     OW16663   4.651   0.135   6.203
 5255SOL    HW116664   4.732   0.077   6.197
 5255SOL    HW216665   4.639   0.184   6.117
 5256SOL     OW16666   4.507   0.603   3.448
 5256SOL    HW116667   4.572   0.537   3.412
 5256SOL    HW216668   4.531   0.695   3.416
 5257SOL     OW16669   4.757   6.979   2.513
 5257SOL    HW116670   4.703   0.027   2.559
 5257SOL    HW216671   4.806   7.019   2.436
 5258SOL     OW16672   5.144   3.366   1.109
 5258SOL    HW116673   5.143   3.302   1.186
 5258SOL    HW216674   5.120   3.458   1.140
 5259SOL     OW16675   4.279   5.966   1.336
 5259SOL    HW116676   4.239   5.983   1.426
 5259SOL    HW216677   4.215   5.997   1.265
 5260SOL     OW16678   5.490   3.802   1.226
 5260SOL    HW116679   5.419   3.871   1.238
 5260SOL    HW216680   5.507   3.788   1.128
 5261SOL     OW16681   1.625   3.138   6.745
 5261SOL    HW116682   1.624   3.112   6.648
 5261SOL    HW216683   1.662   3.063   6.800
 5262SOL     OW16684   2.616   0.390   2.933
 5262SOL    HW116685   2.706   0.347   2.924
 5262SOL    HW216686   2.548   0.335   2.884
 5263SOL     OW16687   1.441   0.903   5.385
 5263SOL    HW116688   1.431   0.990   5.336
 5263SOL    HW216689   1.360   0.887   5.442
 5264SOL     OW16690   6.405   0.723   2.770
 5264SOL    HW116691   6.389   0.780   2.690
 5264SOL    HW216692   6.495   0.681   2.764
 5265SOL     OW16693   5.065   4.592   3.136
 5265SOL    HW116694   5.160   4.614   3.112
 5265SOL    HW216695   5.042   4.502   3.099
 5266SOL     OW16696   2.584   0.466   2.437
 5266SOL    HW116697   2.509   0.415   2.395
 5266SOL    HW216698   2.547   0.527   2.508
 5267SOL     OW16699   4.647   4.748   6.223
 5267SOL    HW116700   4.640   4.773   6.126
 5267SOL    HW216701   4.563   4.774   6.270
 5268SOL     OW16702   6.299   6.483   5.800
 5268SOL    HW116703   6.386   6.531   5.791
 5268SOL    HW216704   6.240   6.506   5.722
 5269SOL     OW16705   2.020   7.003   4.391
 5269SOL    HW116706   1.982   6.911   4.381
 5269SOL    HW216707   2.018   0.026   4.302
 5270SOL     OW16708   5.354   1.576   2.400
 5270SOL    HW116709   5.264   1.553   2.363
 5270SOL    HW216710   5.363   1.537   2.491
 5271SOL     OW16711   5.195   5.006   5.147
 5271SOL    HW116712   5.279   5.060   5.140
 5271SOL    HW216713   5.216   4.910   5.129
 5272SOL     OW16714   1.675   6.138   2.702
 5272SOL    HW116715   1.680   6.038   2.694
 5272SOL    HW216716   1.629   6.161   2.788
 5273SOL     OW16717   6.816   3.517   2.788
 5273SOL    HW116718   6.723   3.488   2.813
 5273SOL    HW216719   6.879   3.441   2.800
 5274SOL     OW16720   6.187   5.532   2.551
 5274SOL    HW116721   6.199   5.610   2.490
 5274SOL    HW216722   6.122   5.556   2.623
 5275SOL     OW16723   3.790   1.710   6.311
 5275SOL    HW116724   3.720   1.638   6.304
 5275SOL    HW216725   3.822   1.714   6.406
 5276SOL     OW16726   1.270   0.457   1.110
 5276SOL    HW116727   1.310   0.385   1.054
 5276SOL    HW216728   1.198   0.418   1.168
 5277SOL     OW16729   1.849   2.674   2.973
 5277SOL    HW116730   1.761   2.676   3.020
 5277SOL    HW216731   1.922   2.694   3.039
 5278SOL     OW16732   5.443   0.293   4.425
 5278SOL    HW116733   5.432   0.220   4.358
 5278SOL    HW216734   5.522   0.349   4.401
 5279SOL     OW16735   1.796   5.366   6.524
 5279SOL    HW116736   1.809   5.312   6.441
 5279SOL    HW216737   1.815   5.310   6.604
 5280SOL     OW16738   2.808   6.400   5.768
 5280SOL    HW116739   2.875   6.409   5.693
 5280SOL    HW216740   2.716   6.416   5.732
 5281SOL     OW16741   0.611   1.810   3.471
 5281SOL    HW116742   0.688   1.871   3.492
 5281SOL    HW216743   0.543   1.816   3.544
 5282SOL     OW16744   1.941   1.485   3.206
 5282SOL    HW116745   1.928   1.386   3.209
 5282SOL    HW216746   1.904   1.521   3.121
 5283SOL     OW16747   2.904   0.266   2.073
 5283SOL    HW116748   2.889   0.223   1.984
 5283SOL    HW216749   3.002   0.285   2.085
 5284SOL     OW16750   5.101   2.965   2.696
 5284SOL    HW116751   5.063   2.989   2.607
 5284SOL    HW216752   5.201   2.958   2.689
 5285SOL     OW16753   1.414   4.347   4.517
 5285SOL    HW116754   1.470   4.407   4.460
 5285SOL    HW216755   1.376   4.273   4.461
 5286SOL     OW16756   0.287   3.871   1.432
 5286SOL    HW116757   0.194   3.835   1.435
 5286SOL    HW216758   0.305   3.925   1.514
 5287SOL     OW16759   1.494   5.918   1.636
 5287SOL    HW116760   1.563   5.951   1.571
 5287SOL    HW216761   1.456   5.996   1.687
 5288SOL     OW16762   3.843   0.879   2.545
 5288SOL    HW116763   3.905   0.867   2.468
 5288SOL    HW216764   3.757   0.918   2.512
 5289SOL     OW16765   1.699   5.328   5.943
 5289SOL    HW116766   1.745   5.262   5.884
 5289SOL    HW216767   1.601   5.309   5.946
 5290SOL     OW16768   1.687   3.966   5.636
 5290SOL    HW116769   1.689   3.894   5.705
 5290SOL    HW216770   1.672   3.925   5.546
 5291SOL     OW16771   3.141   4.876   5.810
 5291SOL    HW116772   3.054   4.881   5.858
 5291SOL    HW216773   3.153   4.959   5.755
 5292SOL     OW16774   6.237   4.835   6.785
 5292SOL    HW116775   6.237   4.909   6.852
 5292SOL    HW216776   6.331   4.817   6.756
 5293SOL     OW16777   1.218   0.383   4.426
 5293SOL    HW116778   1.244   0.480   4.428
 5293SOL    HW216779   1.291   0.327   4.464
 5294SOL     OW16780   6.012   2.819   4.515
 5294SOL    HW116781   6.097   2.871   4.510
 5294SOL    HW216782   6.028   2.724   4.489
 5295SOL     OW16783   4.175   1.167   2.716
 5295SOL    HW116784   4.184   1.206   2.808
 5295SOL    HW216785   4.242   1.093   2.705
 5296SOL     OW16786   2.659   4.966   6.781
 5296SOL    HW116787   2.737   4.978   6.719
 5296SOL    HW216788   2.632   5.055   6.818
 5297SOL     OW16789   2.843   2.780   0.779
 5297SOL    HW116790   2.772   2.790   0.849
 5297SOL    HW216791   2.810   2.718   0.708
 5298SOL     OW16792   1.069   5.642   0.154
 5298SOL    HW116793   1.168   5.628   0.143
 5298SOL    HW216794   1.052   5.704   0.231
 5299SOL     OW16795   2.295   3.197   0.887
 5299SOL    HW116796   2.210   3.239   0.855
 5299SOL    HW216797   2.294   3.100   0.867
 5300SOL     OW16798   1.028   6.332   1.078
 5300SOL    HW116799   0.948   6.370   1.125
 5300SOL    HW216800   1.100   6.315   1.145
 5301SOL     OW16801   3.375   2.711   6.605
 5301SOL    HW116802   3.381   2.703   6.505
 5301SOL    HW216803   3.280   2.726   6.631
 5302SOL     OW16804   5.756   5.476   4.068
 5302SOL    HW116805   5.705   5.552   4.027
 5302SOL    HW216806   5.730   5.391   4.022
 5303SOL     OW16807   6.595   5.527   3.288
 5303SOL    HW116808   6.501   5.550   3.311
 5303SOL    HW216809   6.619   5.569   3.200
 5304SOL     OW16810   5.262   1.086   6.494
 5304SOL    HW116811   5.249   1.169   6.547
 5304SOL    HW216812   5.200   1.015   6.526
 5305SOL     OW16813   0.949   5.418   2.966
 5305SOL    HW116814   0.891   5.341   2.940
 5305SOL    HW216815   0.981   5.464   2.883
 5306SOL     OW16816   0.915   4.254   4.602
 5306SOL    HW116817   0.913   4.163   4.643
 5306SOL    HW216818   0.995   4.263   4.544
 5307SOL     OW16819   4.473   1.286   0.234
 5307SOL    HW116820   4.521   1.334   0.307
 5307SOL    HW216821   4.376   1.280   0.256
 5308SOL     OW16822   0.900   5.671   3.515
 5308SOL    HW116823   0.980   5.642   3.463
 5308SOL    HW216824   0.858   5.591   3.558
 5309SOL     OW16825   4.254   4.695   1.636
 5309SOL    HW116826   4.179   4.761   1.631
 5309SOL    HW216827   4.298   4.688   1.546
 5310SOL     OW16828   6.184   3.696   2.372
 5310SOL    HW116829   6.260   3.742   2.419
 5310SOL    HW216830   6.209   3.682   2.276
 5311SOL     OW16831   6.333   5.696   0.005
 5311SOL    HW116832   6.283   5.636   6.964
 5311SOL    HW216833   6.361   5.644   0.085
 5312SOL     OW16834   0.249   5.347   1.888
 5312SOL    HW116835   0.185   5.281   1.849
 5312SOL    HW216836   0.333   5.299   1.915
 5313SOL     OW16837   1.535   3.691   6.419
 5313SOL    HW116838   1.570   3.598   6.430
 5313SOL    HW216839   1.561   3.747   6.497
 5314SOL     OW16840   3.296   6.491   0.243
 5314SOL    HW116841   3.267   6.396   0.235
 5314SOL    HW216842   3.394   6.494   0.263
 5315SOL     OW16843   4.685   3.235   1.706
 5315SOL    HW116844   4.645   3.166   1.766
 5315SOL    HW216845   4.785   3.230   1.712
 5316SOL     OW16846   0.968   4.047   4.793
 5316SOL    HW116847   0.920   3.994   4.863
 5316SOL    HW216848   1.066   4.045   4.812
 5317SOL     OW16849   6.776   6.876   5.068
 5317SOL    HW116850   6.872   6.900   5.087
 5317SOL    HW216851   6.772   6.783   5.033
 5318SOL     OW16852   0.246   2.568   6.579
 5318SOL    HW116853   0.228   2.660   6.543
 5318SOL    HW216854   0.312   2.574   6.653
 5319SOL     OW16855   3.682   6.857   0.090
 5319SOL    HW116856   3.669   6.887   7.018
 5319SOL    HW216857   3.735   6.773   0.091
 5320SOL     OW16858   5.813   4.951   0.281
 5320SOL    HW116859   5.898   4.993   0.311
 5320SOL    HW216860   5.813   4.941   0.181
 5321SOL     OW16861   1.005   4.211   3.611
 5321SOL    HW116862   0.962   4.121   3.616
 5321SOL    HW216863   1.057   4.228   3.695
 5322SOL     OW16864   4.105   6.240   6.519
 5322SOL    HW116865   4.154   6.169   6.570
 5322SOL    HW216866   4.072   6.310   6.582
 5323SOL     OW16867   3.664   2.128   6.859
 5323SOL    HW116868   3.713   2.200   6.909
 5323SOL    HW216869   3.730   2.061   6.825
 5324SOL     OW16870   4.146   1.860   0.798
 5324SOL    HW116871   4.084   1.809   0.858
 5324SOL    HW216872   4.131   1.958   0.809
 5325SOL     OW16873   4.956   0.621   4.789
 5325SOL    HW116874   5.006   0.672   4.859
 5325SOL    HW216875   4.983   0.655   4.699
 5326SOL     OW16876   0.350   5.261   3.636
 5326SOL    HW116877   0.391   5.184   3.587
 5326SOL    HW216878   0.398   5.345   3.613
 5327SOL     OW16879   5.588   3.230   4.909
 5327SOL    HW116880   5.640   3.314   4.894
 5327SOL    HW216881   5.625   3.182   4.988
 5328SOL     OW16882   4.582   2.563   5.443
 5328SOL    HW116883   4.540   2.540   5.356
 5328SOL    HW216884   4.519   2.540   5.518
 5329SOL     OW16885   6.512   4.844   6.730
 5329SOL    HW116886   6.564   4.929   6.717
 5329SOL    HW216887   6.566   4.766   6.700
 5330SOL     OW16888   3.357   4.032   5.503
 5330SOL    HW116889   3.424   4.085   5.451
 5330SOL    HW216890   3.280   4.091   5.528
 5331SOL     OW16891   4.874   1.072   0.829
 5331SOL    HW116892   4.831   1.105   0.913
 5331SOL    HW216893   4.825   0.991   0.797
 5332SOL     OW16894   0.534   3.815   1.283
 5332SOL    HW116895   0.580   3.904   1.279
 5332SOL    HW216896   0.448   3.824   1.333
 5333SOL     OW16897   1.014   1.190   3.100
 5333SOL    HW116898   1.072   1.109   3.091
 5333SOL    HW216899   1.028   1.231   3.190
 5334SOL     OW16900   4.123   6.893   4.157
 5334SOL    HW116901   4.161   6.911   4.248
 5334SOL    HW216902   4.131   6.975   4.100
 5335SOL     OW16903   6.222   5.473   2.166
 5335SOL    HW116904   6.292   5.403   2.181
 5335SOL    HW216905   6.136   5.445   2.209
 5336SOL     OW16906   2.584   1.997   3.189
 5336SOL    HW116907   2.539   2.021   3.275
 5336SOL    HW216908   2.680   2.028   3.192
 5337SOL     OW16909   5.278   4.022   2.056
 5337SOL    HW116910   5.243   4.023   1.962
 5337SOL    HW216911   5.373   4.053   2.057
 5338SOL     OW16912   6.042   1.015   5.567
 5338SOL    HW116913   5.951   1.007   5.525
 5338SOL    HW216914   6.041   0.972   5.657
 5339SOL     OW16915   6.646   2.183   4.020
 5339SOL    HW116916   6.552   2.218   4.018
 5339SOL    HW216917   6.678   2.167   3.926
 5340SOL     OW16918   5.393   2.327   0.785
 5340SOL    HW116919   5.350   2.409   0.824
 5340SOL    HW216920   5.468   2.298   0.844
 5341SOL     OW16921   3.668   4.183   6.436
 5341SOL    HW116922   3.587   4.241   6.424
 5341SOL    HW216923   3.654   4.095   6.390
 5342SOL     OW16924   4.064   7.010   3.621
 5342SOL    HW116925   4.012   0.071   3.601
 5342SOL    HW216926   4.152   7.014   3.574
 5343SOL     OW16927   3.696   3.174   4.609
 5343SOL    HW116928   3.794   3.191   4.621
 5343SOL    HW216929   3.648   3.196   4.694
 5344SOL     OW16930   1.812   2.307   1.967
 5344SOL    HW116931   1.852   2.251   1.894
 5344SOL    HW216932   1.847   2.401   1.959
 5345SOL     OW16933   3.460   6.363   0.635
 5345SOL    HW116934   3.462   6.347   0.734
 5345SOL    HW216935   3.372   6.403   0.610
 5346SOL     OW16936   3.436   5.925   4.472
 5346SOL    HW116937   3.532   5.904   4.450
 5346SOL    HW216938   3.408   5.872   4.552
 5347SOL     OW16939   6.901   2.882   1.717
 5347SOL    HW116940   6.931   2.820   1.789
 5347SOL    HW216941   6.980   2.929   1.678
 5348SOL     OW16942   6.783   1.914   0.967
 5348SOL    HW116943   6.857   1.965   1.013
 5348SOL    HW216944   6.726   1.978   0.916
 5349SOL     OW16945   2.011   2.907   0.511
 5349SOL    HW116946   1.994   2.973   0.437
 5349SOL    HW216947   2.080   2.841   0.481
 5350SOL     OW16948   1.581   6.742   5.350
 5350SOL    HW116949   1.539   6.656   5.379
 5350SOL    HW216950   1.680   6.731   5.348
 5351SOL     OW16951   6.626   5.116   2.098
 5351SOL    HW116952   6.719   5.153   2.100
 5351SOL    HW216953   6.628   5.018   2.117
 5352SOL     OW16954   2.304   4.940   3.340
 5352SOL    HW116955   2.287   4.842   3.337
 5352SOL    HW216956   2.216   4.989   3.339
 5353SOL     OW16957   3.709   4.908   4.278
 5353SOL    HW116958   3.704   4.847   4.357
 5353SOL    HW216959   3.731   5.001   4.309
 5354SOL     OW16960   2.451   5.060   1.926
 5354SOL    HW116961   2.494   5.009   2.000
 5354SOL    HW216962   2.372   5.011   1.892
 5355SOL     OW16963   6.804   4.219   4.286
 5355SOL    HW116964   6.737   4.243   4.357
 5355SOL    HW216965   6.801   4.121   4.268
 5356SOL     OW16966   5.723   4.630   2.509
 5356SOL    HW116967   5.741   4.550   2.566
 5356SOL    HW216968   5.807   4.684   2.499
 5357SOL     OW16969   3.427   6.092   0.352
 5357SOL    HW116970   3.523   6.105   0.374
 5357SOL    HW216971   3.403   5.995   0.363
 5358SOL     OW16972   4.722   1.263   6.937
 5358SOL    HW116973   4.801   1.262   6.875
 5358SOL    HW216974   4.729   1.187   7.001
 5359SOL     OW16975   1.445   1.400   5.373
 5359SOL    HW116976   1.522   1.380   5.313
 5359SOL    HW216977   1.377   1.453   5.323
 5360SOL     OW16978   4.065   6.258   4.292
 5360SOL    HW116979   3.970   6.227   4.293
 5360SOL    HW216980   4.112   6.221   4.373
 5361SOL     OW16981   2.552   0.733   5.157
 5361SOL    HW116982   2.598   0.817   5.130
 5361SOL    HW216983   2.505   0.747   5.244
 5362SOL     OW16984   6.644   6.273   3.182
 5362SOL    HW116985   6.699   6.296   3.102
 5362SOL    HW216986   6.627   6.356   3.235
 5363SOL     OW16987   0.300   0.273   5.651
 5363SOL    HW116988   0.374   0.339   5.637
 5363SOL    HW216989   0.325   0.185   5.610
 5364SOL     OW16990   6.759   6.546   2.763
 5364SOL    HW116991   6.677   6.594   2.734
 5364SOL    HW216992   6.833   6.564   2.698
 5365SOL     OW16993   3.704   2.898   0.395
 5365SOL    HW116994   3.707   2.981   0.339
 5365SOL    HW216995   3.797   2.861   0.404
 5366SOL     OW16996   5.801   5.761   1.476
 5366SOL    HW116997   5.870   5.754   1.549
 5366SOL    HW216998   5.847   5.775   1.388
 5367SOL     OW16999   0.548   6.729   0.879
 5367SOL    HW117000   0.611   6.694   0.810
 5367SOL    HW217001   0.454   6.714   0.849
 5368SOL     OW17002   5.757   0.574   2.506
 5368SOL    HW117003   5.707   0.630   2.572
 5368SOL    HW217004   5.815   0.508   2.556
 5369SOL     OW17005   2.763   6.618   1.343
 5369SOL    HW117006   2.689   6.563   1.380
 5369SOL    HW217007   2.734   6.660   1.257
 5370SOL     OW17008   4.544   2.435   1.695
 5370SOL    HW117009   4.622   2.480   1.738
 5370SOL    HW217010   4.565   2.338   1.681
 5371SOL     OW17011   0.543   3.662   5.204
 5371SOL    HW117012   0.548   3.656   5.105
 5371SOL    HW217013   0.575   3.752   5.234
 5372SOL     OW17014   1.830   6.244   3.175
 5372SOL    HW117015   1.757   6.181   3.147
 5372SOL    HW217016   1.846   6.235   3.273
 5373SOL     OW17017   3.676   7.014   4.444
 5373SOL    HW117018   3.731   6.953   4.387
 5373SOL    HW217019   3.735   0.038   4.509
 5374SOL     OW17020   1.964   4.221   0.416
 5374SOL    HW117021   1.970   4.124   0.396
 5374SOL    HW217022   1.996   4.274   0.338
 5375SOL     OW17023   0.602   5.568   4.181
 5375SOL    HW117024   0.608   5.531   4.274
 5375SOL    HW217025   0.641   5.660   4.179
 5376SOL     OW17026   1.733   2.890   0.957
 5376SOL    HW117027   1.702   2.837   1.036
 5376SOL    HW217028   1.779   2.973   0.988
 5377SOL     OW17029   6.771   6.761   2.479
 5377SOL    HW117030   6.851   6.816   2.501
 5377SOL    HW217031   6.727   6.797   2.397
 5378SOL     OW17032   0.065   0.396   2.483
 5378SOL    HW117033   0.054   0.443   2.395
 5378SOL    HW217034   0.084   0.299   2.467
 5379SOL     OW17035   1.029   4.787   4.968
 5379SOL    HW117036   1.000   4.821   4.878
 5379SOL    HW217037   1.035   4.863   5.032
 5380SOL     OW17038   2.685   1.243   2.529
 5380SOL    HW117039   2.740   1.162   2.506
 5380SOL    HW217040   2.619   1.260   2.456
 5381SOL     OW17041   6.431   4.645   2.097
 5381SOL    HW117042   6.464   4.595   2.177
 5381SOL    HW217043   6.445   4.588   2.015
 5382SOL     OW17044   2.748   1.254   1.738
 5382SOL    HW117045   2.804   1.334   1.718
 5382SOL    HW217046   2.788   1.204   1.815
 5383SOL     OW17047   2.058   2.167   5.071
 5383SOL    HW117048   2.110   2.222   5.137
 5383SOL    HW217049   2.066   2.208   4.980
 5384SOL     OW17050   6.119   6.543   5.595
 5384SOL    HW117051   6.148   6.484   5.520
 5384SOL    HW217052   6.078   6.626   5.557
 5385SOL     OW17053   3.306   3.293   4.061
 5385SOL    HW117054   3.328   3.389   4.042
 5385SOL    HW217055   3.207   3.281   4.064
 5386SOL     OW17056   5.327   1.448   4.267
 5386SOL    HW117057   5.395   1.428   4.337
 5386SOL    HW217058   5.353   1.532   4.219
 5387SOL     OW17059   2.380   0.202   3.632
 5387SOL    HW117060   2.444   0.140   3.679
 5387SOL    HW217061   2.362   0.168   3.540
 5388SOL     OW17062   0.301   1.648   3.931
 5388SOL    HW117063   0.280   1.662   3.835
 5388SOL    HW217064   0.216   1.645   3.984
 5389SOL     OW17065   4.029   1.298   3.608
 5389SOL    HW117066   3.996   1.352   3.531
 5389SOL    HW217067   4.095   1.231   3.575
 5390SOL     OW17068   4.829   4.076   3.418
 5390SOL    HW117069   4.791   3.986   3.395
 5390SOL    HW217070   4.907   4.096   3.359
 5391SOL     OW17071   2.046   1.857   0.818
 5391SOL    HW117072   2.041   1.957   0.817
 5391SOL    HW217073   2.127   1.828   0.869
 5392SOL     OW17074   5.140   3.603   1.259
 5392SOL    HW117075   5.096   3.603   1.349
 5392SOL    HW217076   5.155   3.698   1.230
 5393SOL     OW17077   4.575   6.807   5.935
 5393SOL    HW117078   4.574   6.881   5.868
 5393SOL    HW217079   4.509   6.736   5.907
 5394SOL     OW17080   0.265   5.392   0.432
 5394SOL    HW117081   0.353   5.429   0.461
 5394SOL    HW217082   0.242   5.311   0.486
 5395SOL     OW17083   4.209   0.834   1.335
 5395SOL    HW117084   4.186   0.896   1.410
 5395SOL    HW217085   4.127   0.787   1.304
 5396SOL     OW17086   5.320   4.184   1.652
 5396SOL    HW117087   5.244   4.217   1.708
 5396SOL    HW217088   5.366   4.261   1.608
 5397SOL     OW17089   0.430   2.949   1.259
 5397SOL    HW117090   0.344   2.919   1.217
 5397SOL    HW217091   0.449   2.895   1.340
 5398SOL     OW17092   3.549   2.107   3.187
 5398SOL    HW117093   3.589   2.114   3.279
 5398SOL    HW217094   3.449   2.102   3.194
 5399SOL     OW17095   2.732   6.352   1.094
 5399SOL    HW117096   2.737   6.437   1.043
 5399SOL    HW217097   2.781   6.362   1.181
 5400SOL     OW17098   3.194   3.689   6.849
 5400SOL    HW117099   3.113   3.648   6.806
 5400SOL    HW217100   3.166   3.768   6.904
 5401SOL     OW17101   5.955   3.857   1.602
 5401SOL    HW117102   5.946   3.928   1.672
 5401SOL    HW217103   5.931   3.895   1.513
 5402SOL     OW17104   2.549   5.744   1.928
 5402SOL    HW117105   2.632   5.774   1.975
 5402SOL    HW217106   2.570   5.663   1.872
 5403SOL     OW17107   5.833   2.532   5.974
 5403SOL    HW117108   5.770   2.607   5.960
 5403SOL    HW217109   5.861   2.529   6.071
 5404SOL     OW17110   0.761   0.357   2.444
 5404SOL    HW117111   0.747   0.258   2.454
 5404SOL    HW217112   0.748   0.383   2.349
 5405SOL     OW17113   6.081   6.210   0.214
 5405SOL    HW117114   6.064   6.291   0.271
 5405SOL    HW217115   6.044   6.129   0.260
 5406SOL     OW17116   2.285   0.184   5.850
 5406SOL    HW117117   2.307   0.233   5.766
 5406SOL    HW217118   2.272   0.087   5.830
 5407SOL     OW17119   3.847   1.667   1.566
 5407SOL    HW117120   3.837   1.727   1.488
 5407SOL    HW217121   3.940   1.673   1.602
 5408SOL     OW17122   3.283   1.068   5.250
 5408SOL    HW117123   3.297   1.138   5.180
 5408SOL    HW217124   3.212   1.005   5.220
 5409SOL     OW17125   6.839   1.881   3.465
 5409SOL    HW117126   6.796   1.892   3.375
 5409SOL    HW217127   6.801   1.948   3.529
 5410SOL     OW17128   1.213   2.878   6.836
 5410SOL    HW117129   1.157   2.894   6.755
 5410SOL    HW217130   1.256   2.963   6.864
 5411SOL     OW17131   6.071   4.510   5.490
 5411SOL    HW117132   6.033   4.438   5.432
 5411SOL    HW217133   6.067   4.598   5.443
 5412SOL     OW17134   3.820   1.147   6.928
 5412SOL    HW117135   3.779   1.100   7.006
 5412SOL    HW217136   3.894   1.206   6.959
 5413SOL     OW17137   0.832   0.111   1.441
 5413SOL    HW117138   0.857   0.017   1.465
 5413SOL    HW217139   0.768   0.109   1.363
 5414SOL     OW17140   6.532   3.179   5.514
 5414SOL    HW117141   6.453   3.227   5.553
 5414SOL    HW217142   6.543   3.207   5.418
 5415SOL     OW17143   1.024   6.144   1.893
 5415SOL    HW117144   1.020   6.147   1.793
 5415SOL    HW217145   1.118   6.127   1.922
 5416SOL     OW17146   3.560   4.707   6.455
 5416SOL    HW117147   3.614   4.791   6.466
 5416SOL    HW217148   3.607   4.645   6.392
 5417SOL     OW17149   4.528   6.854   4.287
 5417SOL    HW117150   4.550   6.943   4.246
 5417SOL    HW217151   4.480   6.798   4.220
 5418SOL     OW17152   5.152   0.841   4.368
 5418SOL    HW117153   5.106   0.912   4.421
 5418SOL    HW217154   5.098   0.818   4.288
 5419SOL     OW17155   2.986   5.382   0.455
 5419SOL    HW117156   2.903   5.350   0.408
 5419SOL    HW217157   2.970   5.475   0.489
 5420SOL     OW17158   1.975   2.954   1.787
 5420SOL    HW117159   1.990   3.050   1.767
 5420SOL    HW217160   1.890   2.923   1.744
 5421SOL     OW17161   2.378   4.340   3.242
 5421SOL    HW117162   2.431   4.425   3.241
 5421SOL    HW217163   2.381   4.298   3.151
 5422SOL     OW17164   1.372   5.983   5.640
 5422SOL    HW117165   1.379   5.989   5.740
 5422SOL    HW217166   1.464   5.985   5.600
 5423SOL     OW17167   5.629   3.464   6.779
 5423SOL    HW117168   5.706   3.479   6.840
 5423SOL    HW217169   5.543   3.480   6.828
 5424SOL     OW17170   6.104   3.566   4.097
 5424SOL    HW117171   6.128   3.661   4.114
 5424SOL    HW217172   6.023   3.542   4.151
 5425SOL     OW17173   5.451   1.726   4.268
 5425SOL    HW117174   5.476   1.788   4.193
 5425SOL    HW217175   5.451   1.776   4.354
 5426SOL     OW17176   6.327   4.862   3.938
 5426SOL    HW117177   6.328   4.820   3.847
 5426SOL    HW217178   6.357   4.957   3.931
 5427SOL     OW17179   5.198   4.974   0.805
 5427SOL    HW117180   5.206   4.882   0.766
 5427SOL    HW217181   5.275   4.991   0.866
 5428SOL     OW17182   6.307   6.912   2.342
 5428SOL    HW117183   6.348   6.825   2.314
 5428SOL    HW217184   6.244   6.943   2.271
 5429SOL     OW17185   1.504   0.690   5.173
 5429SOL    HW117186   1.419   0.742   5.165
 5429SOL    HW217187   1.561   0.729   5.245
 5430SOL     OW17188   2.395   2.507   5.895
 5430SOL    HW117189   2.421   2.438   5.962
 5430SOL    HW217190   2.307   2.548   5.921
 5431SOL     OW17191   3.490   5.119   6.672
 5431SOL    HW117192   3.546   5.190   6.714
 5431SOL    HW217193   3.487   5.133   6.573
 5432SOL     OW17194   3.669   6.012   5.614
 5432SOL    HW117195   3.696   6.020   5.710
 5432SOL    HW217196   3.750   5.998   5.558
 5433SOL     OW17197   0.258   1.504   2.509
 5433SOL    HW117198   0.198   1.566   2.458
 5433SOL    HW217199   0.206   1.423   2.537
 5434SOL     OW17200   4.377   1.510   4.918
 5434SOL    HW117201   4.352   1.450   4.842
 5434SOL    HW217202   4.447   1.575   4.888
 5435SOL     OW17203   6.011   1.848   1.295
 5435SOL    HW117204   5.961   1.920   1.344
 5435SOL    HW217205   6.096   1.885   1.259
 5436SOL     OW17206   5.605   4.350   4.595
 5436SOL    HW117207   5.509   4.323   4.603
 5436SOL    HW217208   5.645   4.310   4.513
 5437SOL     OW17209   2.571   5.122   5.590
 5437SOL    HW117210   2.621   5.036   5.599
 5437SOL    HW217211   2.502   5.128   5.663
 5438SOL     OW17212   5.915   3.983   2.571
 5438SOL    HW117213   5.836   3.985   2.633
 5438SOL    HW217214   5.973   3.905   2.592
 5439SOL     OW17215   6.963   2.149   0.329
 5439SOL    HW117216   6.871   2.186   0.317
 5439SOL    HW217217   0.000   2.183   0.257
 5440SOL     OW17218   6.861   0.389   3.230
 5440SOL    HW117219   6.840   0.320   3.300
 5440SOL    HW217220   6.780   0.403   3.173
 5441SOL     OW17221   4.782   2.780   3.577
 5441SOL    HW117222   4.705   2.721   3.552
 5441SOL    HW217223   4.867   2.729   3.571
 5442SOL     OW17224   3.257   6.565   3.693
 5442SOL    HW117225   3.163   6.534   3.681
 5442SOL    HW217226   3.260   6.640   3.759
 5443SOL     OW17227   3.333   5.839   4.051
 5443SOL    HW117228   3.249   5.792   4.079
 5443SOL    HW217229   3.411   5.796   4.096
 5444SOL     OW17230   0.225   1.024   3.045
 5444SOL    HW117231   0.192   1.038   3.139
 5444SOL    HW217232   0.277   0.939   3.040
 5445SOL     OW17233   6.542   4.125   3.798
 5445SOL    HW117234   6.628   4.092   3.836
 5445SOL    HW217235   6.480   4.048   3.782
 5446SOL     OW17236   5.779   5.071   4.613
 5446SOL    HW117237   5.865   5.113   4.582
 5446SOL    HW217238   5.726   5.139   4.664
 5447SOL     OW17239   1.378   1.901   0.980
 5447SOL    HW117240   1.385   1.958   1.062
 5447SOL    HW217241   1.283   1.898   0.949
 5448SOL     OW17242   5.998   4.064   4.336
 5448SOL    HW117243   6.050   4.121   4.273
 5448SOL    HW217244   6.006   4.100   4.429
 5449SOL     OW17245   1.737   1.248   0.888
 5449SOL    HW117246   1.761   1.294   0.974
 5449SOL    HW217247   1.723   1.151   0.905
 5450SOL     OW17248   2.899   6.979   1.104
 5450SOL    HW117249   2.880   6.956   1.009
 5450SOL    HW217250   2.853   0.041   1.129
 5451SOL     OW17251   2.160   5.742   3.681
 5451SOL    HW117252   2.080   5.686   3.660
 5451SOL    HW217253   2.207   5.766   3.596
 5452SOL     OW17254   2.827   4.349   0.323
 5452SOL    HW117255   2.741   4.336   0.274
 5452SOL    HW217256   2.836   4.278   0.393
 5453SOL     OW17257   5.525   4.206   1.247
 5453SOL    HW117258   5.540   4.304   1.236
 5453SOL    HW217259   5.611   4.162   1.272
 5454SOL     OW17260   5.847   5.071   5.284
 5454SOL    HW117261   5.836   4.985   5.234
 5454SOL    HW217262   5.901   5.055   5.367
 5455SOL     OW17263   6.861   2.382   2.905
 5455SOL    HW117264   6.792   2.310   2.907
 5455SOL    HW217265   6.936   2.356   2.845
 5456SOL     OW17266   2.563   0.170   0.278
 5456SOL    HW117267   2.506   0.221   0.213
 5456SOL    HW217268   2.518   0.170   0.368
 5457SOL     OW17269   0.142   2.213   1.443
 5457SOL    HW117270   0.102   2.124   1.423
 5457SOL    HW217271   0.081   2.264   1.504
 5458SOL     OW17272   0.536   5.025   0.325
 5458SOL    HW117273   0.514   4.933   0.357
 5458SOL    HW217274   0.454   5.066   0.285
 5459SOL     OW17275   2.958   3.557   6.734
 5459SOL    HW117276   2.872   3.518   6.704
 5459SOL    HW217277   3.028   3.485   6.740
 5460SOL     OW17278   3.899   6.557   2.909
 5460SOL    HW117279   3.940   6.644   2.883
 5460SOL    HW217280   3.928   6.532   3.001
 5461SOL     OW17281   0.711   0.806   5.719
 5461SOL    HW117282   0.663   0.893   5.715
 5461SOL    HW217283   0.749   0.793   5.811
 5462SOL     OW17284   6.333   0.027   1.227
 5462SOL    HW117285   6.259   0.004   1.164
 5462SOL    HW217286   6.346   0.127   1.228
 5463SOL     OW17287   0.232   1.453   6.993
 5463SOL    HW117288   0.253   1.355   6.996
 5463SOL    HW217289   0.216   1.481   6.898
 5464SOL     OW17290   6.910   0.258   4.463
 5464SOL    HW117291   6.905   0.159   4.450
 5464SOL    HW217292   6.818   0.293   4.483
 5465SOL     OW17293   4.901   0.963   4.830
 5465SOL    HW117294   4.978   0.913   4.870
 5465SOL    HW217295   4.929   1.056   4.808
 5466SOL     OW17296   5.319   3.255   4.863
 5466SOL    HW117297   5.247   3.269   4.930
 5466SOL    HW217298   5.408   3.275   4.905
 5467SOL     OW17299   4.890   4.359   3.241
 5467SOL    HW117300   4.861   4.424   3.311
 5467SOL    HW217301   4.820   4.288   3.230
 5468SOL     OW17302   6.673   2.650   3.976
 5468SOL    HW117303   6.600   2.622   3.914
 5468SOL    HW217304   6.686   2.749   3.971
 5469SOL     OW17305   3.007   6.449   5.575
 5469SOL    HW117306   3.103   6.443   5.603
 5469SOL    HW217307   3.002   6.450   5.475
 5470SOL     OW17308   3.929   5.480   2.972
 5470SOL    HW117309   3.918   5.460   3.070
 5470SOL    HW217310   3.839   5.499   2.932
 5471SOL     OW17311   6.076   0.258   3.170
 5471SOL    HW117312   6.024   0.330   3.215
 5471SOL    HW217313   6.037   0.169   3.195
 5472SOL     OW17314   2.447   4.027   6.920
 5472SOL    HW117315   2.446   3.929   6.939
 5472SOL    HW217316   2.353   4.060   6.911
 5473SOL     OW17317   1.236   3.476   1.833
 5473SOL    HW117318   1.286   3.507   1.913
 5473SOL    HW217319   1.296   3.419   1.776
 5474SOL     OW17320   0.865   4.666   4.030
 5474SOL    HW117321   0.877   4.749   4.085
 5474SOL    HW217322   0.906   4.588   4.078
 5475SOL     OW17323   2.157   2.881   0.943
 5475SOL    HW117324   2.182   2.916   0.853
 5475SOL    HW217325   2.096   2.802   0.932
 5476SOL     OW17326   2.406   4.112   5.375
 5476SOL    HW117327   2.433   4.034   5.319
 5476SOL    HW217328   2.322   4.152   5.338
 5477SOL     OW17329   2.337   4.742   2.097
 5477SOL    HW117330   2.254   4.794   2.073
 5477SOL    HW217331   2.342   4.660   2.040
 5478SOL     OW17332   2.954   6.261   4.344
 5478SOL    HW117333   3.016   6.331   4.309
 5478SOL    HW217334   2.976   6.173   4.302
 5479SOL     OW17335   5.758   0.649   6.400
 5479SOL    HW117336   5.830   0.581   6.387
 5479SOL    HW217337   5.705   0.627   6.482
 5480SOL     OW17338   5.793   5.361   4.370
 5480SOL    HW117339   5.706   5.337   4.414
 5480SOL    HW217340   5.775   5.388   4.275
 5481SOL     OW17341   4.843   1.428   4.622
 5481SOL    HW117342   4.875   1.478   4.703
 5481SOL    HW217343   4.754   1.388   4.640
 5482SOL     OW17344   3.531   4.389   1.720
 5482SOL    HW117345   3.540   4.486   1.743
 5482SOL    HW217346   3.554   4.375   1.624
 5483SOL     OW17347   6.935   2.168   5.388
 5483SOL    HW117348   6.838   2.187   5.399
 5483SOL    HW217349   6.962   2.183   5.293
 5484SOL     OW17350   4.246   1.104   3.857
 5484SOL    HW117351   4.181   1.167   3.901
 5484SOL    HW217352   4.222   1.095   3.760
 5485SOL     OW17353   4.278   7.018   4.387
 5485SOL    HW117354   4.332   6.935   4.376
 5485SOL    HW217355   4.296   0.036   4.476
 5486SOL     OW17356   2.360   6.323   5.149
 5486SOL    HW117357   2.362   6.331   5.249
 5486SOL    HW217358   2.348   6.414   5.109
 5487SOL     OW17359   5.666   2.562   6.767
 5487SOL    HW117360   5.731   2.542   6.840
 5487SOL    HW217361   5.696   2.644   6.717
 5488SOL     OW17362   6.281   0.281   1.471
 5488SOL    HW117363   6.232   0.368   1.463
 5488SOL    HW217364   6.355   0.278   1.403
 5489SOL     OW17365   0.189   4.317   1.905
 5489SOL    HW117366   0.219   4.393   1.963
 5489SOL    HW217367   0.238   4.234   1.930
 5490SOL     OW17368   3.134   0.393   1.607
 5490SOL    HW117369   3.080   0.309   1.611
 5490SOL    HW217370   3.190   0.393   1.524
 5491SOL     OW17371   0.801   4.033   0.810
 5491SOL    HW117372   0.895   4.000   0.823
 5491SOL    HW217373   0.776   4.094   0.885
 5492SOL     OW17374   0.279   3.442   6.077
 5492SOL    HW117375   0.282   3.422   6.175
 5492SOL    HW217376   0.222   3.374   6.030
 5493SOL     OW17377   3.237   3.689   4.260
 5493SOL    HW117378   3.275   3.758   4.321
 5493SOL    HW217379   3.178   3.732   4.192
 5494SOL     OW17380   0.580   3.306   5.939
 5494SOL    HW117381   0.653   3.241   5.958
 5494SOL    HW217382   0.528   3.325   6.023
 5495SOL     OW17383   4.464   1.179   1.027
 5495SOL    HW117384   4.464   1.279   1.030
 5495SOL    HW217385   4.381   1.144   1.070
 5496SOL     OW17386   4.085   0.935   3.296
 5496SOL    HW117387   3.986   0.941   3.302
 5496SOL    HW217388   4.116   0.844   3.323
 5497SOL     OW17389   6.986   1.239   4.873
 5497SOL    HW117390   0.025   1.166   4.902
 5497SOL    HW217391   0.001   1.328   4.901
 5498SOL     OW17392   6.465   6.123   1.012
 5498SOL    HW117393   6.423   6.077   1.090
 5498SOL    HW217394   6.530   6.062   0.967
 5499SOL     OW17395   0.381   0.796   4.874
 5499SOL    HW117396   0.339   0.755   4.955
 5499SOL    HW217397   0.417   0.724   4.815
 5500SOL     OW17398   0.795   0.563   0.378
 5500SOL    HW117399   0.878   0.586   0.327
 5500SOL    HW217400   0.755   0.480   0.341
 5501SOL     OW17401   2.972   1.691   0.037
 5501SOL    HW117402   3.018   1.624   7.001
 5501SOL    HW217403   3.033   1.769   0.053
 5502SOL     OW17404   5.164   3.703   6.963
 5502SOL    HW117405   5.153   3.800   6.986
 5502SOL    HW217406   5.140   3.647   0.020
 5503SOL     OW17407   0.003   4.522   1.920
 5503SOL    HW117408   0.063   4.442   1.916
 5503SOL    HW217409   0.014   4.567   2.009
 5504SOL     OW17410   4.650   1.585   5.623
 5504SOL    HW117411   4.561   1.623   5.596
 5504SOL    HW217412   4.676   1.622   5.712
 5505SOL     OW17413   2.144   5.183   4.428
 5505SOL    HW117414   2.188   5.240   4.359
 5505SOL    HW217415   2.152   5.086   4.402
 5506SOL     OW17416   0.853   3.690   0.530
 5506SOL    HW117417   0.796   3.773   0.531
 5506SOL    HW217418   0.845   3.643   0.618
 5507SOL     OW17419   4.108   1.050   4.516
 5507SOL    HW117420   4.204   1.055   4.488
 5507SOL    HW217421   4.056   0.998   4.447
 5508SOL     OW17422   1.031   1.264   0.087
 5508SOL    HW117423   1.029   1.211   0.172
 5508SOL    HW217424   0.961   1.228   0.025
 5509SOL     OW17425   0.385   6.136   6.649
 5509SOL    HW117426   0.363   6.225   6.609
 5509SOL    HW217427   0.438   6.082   6.584
 5510SOL     OW17428   4.574   5.606   0.566
 5510SOL    HW117429   4.654   5.568   0.611
 5510SOL    HW217430   4.602   5.684   0.509
 5511SOL     OW17431   1.469   0.951   3.480
 5511SOL    HW117432   1.535   0.924   3.551
 5511SOL    HW217433   1.390   0.891   3.484
 5512SOL     OW17434   5.029   2.331   0.857
 5512SOL    HW117435   4.931   2.346   0.852
 5512SOL    HW217436   5.051   2.279   0.940
 5513SOL     OW17437   3.826   4.474   6.055
 5513SOL    HW117438   3.763   4.429   5.992
 5513SOL    HW217439   3.911   4.422   6.061
 5514SOL     OW17440   3.908   0.127   4.272
 5514SOL    HW117441   3.998   0.085   4.287
 5514SOL    HW217442   3.886   0.187   4.348
 5515SOL     OW17443   0.667   5.675   2.183
 5515SOL    HW117444   0.657   5.692   2.281
 5515SOL    HW217445   0.729   5.598   2.168
 5516SOL     OW17446   1.788   3.616   6.242
 5516SOL    HW117447   1.755   3.522   6.236
 5516SOL    HW217448   1.710   3.678   6.247
 5517SOL     OW17449   2.113   3.270   2.137
 5517SOL    HW117450   2.017   3.257   2.112
 5517SOL    HW217451   2.158   3.324   2.065
 5518SOL     OW17452   5.783   6.265   6.842
 5518SOL    HW117453   5.877   6.237   6.821
 5518SOL    HW217454   5.780   6.309   6.932
 5519SOL     OW17455   5.725   3.682   3.390
 5519SOL    HW117456   5.654   3.741   3.352
 5519SOL    HW217457   5.796   3.737   3.433
 5520SOL     OW17458   6.441   6.691   2.239
 5520SOL    HW117459   6.398   6.601   2.244
 5520SOL    HW217460   6.424   6.731   2.149
 5521SOL     OW17461   5.607   6.559   2.249
 5521SOL    HW117462   5.536   6.581   2.316
 5521SOL    HW217463   5.604   6.624   2.174
 5522SOL     OW17464   5.900   5.287   0.654
 5522SOL    HW117465   5.916   5.302   0.751
 5522SOL    HW217466   5.832   5.353   0.621
 5523SOL     OW17467   3.969   1.330   2.178
 5523SOL    HW117468   4.015   1.327   2.267
 5523SOL    HW217469   3.947   1.425   2.155
 5524SOL     OW17470   4.761   0.472   4.222
 5524SOL    HW117471   4.699   0.399   4.251
 5524SOL    HW217472   4.736   0.557   4.269
 5525SOL     OW17473   0.273   2.332   0.699
 5525SOL    HW117474   0.254   2.240   0.666
 5525SOL    HW217475   0.293   2.392   0.622
 5526SOL     OW17476   4.665   5.537   3.126
 5526SOL    HW117477   4.724   5.601   3.176
 5526SOL    HW217478   4.713   5.505   3.045
 5527SOL     OW17479   5.231   3.269   4.050
 5527SOL    HW117480   5.317   3.225   4.074
 5527SOL    HW217481   5.171   3.203   4.005
 5528SOL     OW17482   1.008   0.678   0.203
 5528SOL    HW117483   1.100   0.667   0.165
 5528SOL    HW217484   1.014   0.728   0.289
 5529SOL     OW17485   3.837   6.968   4.042
 5529SOL    HW117486   3.741   6.951   4.018
 5529SOL    HW217487   3.846   6.973   4.142
 5530SOL     OW17488   5.581   2.203   0.964
 5530SOL    HW117489   5.640   2.122   0.968
 5530SOL    HW217490   5.582   2.250   1.052
 5531SOL     OW17491   3.671   3.843   2.154
 5531SOL    HW117492   3.726   3.825   2.072
 5531SOL    HW217493   3.642   3.938   2.155
 5532SOL     OW17494   1.111   3.458   1.015
 5532SOL    HW117495   1.193   3.457   1.072
 5532SOL    HW217496   1.122   3.392   0.940
 5533SOL     OW17497   3.980   2.203   2.836
 5533SOL    HW117498   4.015   2.147   2.911
 5533SOL    HW217499   3.880   2.200   2.836
 5534SOL     OW17500   0.625   1.595   6.579
 5534SOL    HW117501   0.662   1.681   6.545
 5534SOL    HW217502   0.700   1.539   6.617
 5535SOL     OW17503   0.377   2.324   3.442
 5535SOL    HW117504   0.340   2.243   3.396
 5535SOL    HW217505   0.475   2.312   3.456
 5536SOL     OW17506   3.581   1.356   3.996
 5536SOL    HW117507   3.642   1.414   4.050
 5536SOL    HW217508   3.504   1.326   4.053
 5537SOL     OW17509   2.596   1.398   2.097
 5537SOL    HW117510   2.652   1.449   2.032
 5537SOL    HW217511   2.505   1.382   2.058
 5538SOL     OW17512   2.834   5.736   5.297
 5538SOL    HW117513   2.923   5.702   5.267
 5538SOL    HW217514   2.790   5.783   5.221
 5539SOL     OW17515   0.978   3.886   1.615
 5539SOL    HW117516   0.904   3.853   1.674
 5539SOL    HW217517   1.066   3.868   1.660
 5540SOL     OW17518   4.662   4.340   4.002
 5540SOL    HW117519   4.729   4.363   3.931
 5540SOL    HW217520   4.631   4.245   3.988
 5541SOL     OW17521   5.200   6.734   6.391
 5541SOL    HW117522   5.145   6.695   6.317
 5541SOL    HW217523   5.161   6.822   6.419
 5542SOL     OW17524   4.591   3.484   6.017
 5542SOL    HW117525   4.643   3.481   6.102
 5542SOL    HW217526   4.523   3.558   6.022
 5543SOL     OW17527   3.296   4.181   6.183
 5543SOL    HW117528   3.273   4.088   6.214
 5543SOL    HW217529   3.223   4.215   6.124
 5544SOL     OW17530   5.086   5.377   0.056
 5544SOL    HW117531   5.086   5.331   0.145
 5544SOL    HW217532   5.055   5.471   0.068
 5545SOL     OW17533   4.765   1.006   2.302
 5545SOL    HW117534   4.812   1.051   2.379
 5545SOL    HW217535   4.682   0.962   2.335
 5546SOL     OW17536   0.376   4.672   4.222
 5546SOL    HW117537   0.383   4.634   4.314
 5546SOL    HW217538   0.362   4.771   4.228
 5547SOL     OW17539   3.023   6.863   5.010
 5547SOL    HW117540   3.048   6.949   5.057
 5547SOL    HW217541   3.010   6.791   5.078
 5548SOL     OW17542   6.610   2.044   5.597
 5548SOL    HW117543   6.675   2.096   5.654
 5548SOL    HW217544   6.529   2.023   5.651
 5549SOL     OW17545   4.968   4.914   6.681
 5549SOL    HW117546   4.988   4.920   6.584
 5549SOL    HW217547   4.958   5.006   6.719
 5550SOL     OW17548   3.180   5.191   2.483
 5550SOL    HW117549   3.273   5.189   2.444
 5550SOL    HW217550   3.158   5.101   2.520
 5551SOL     OW17551   2.092   0.440   2.508
 5551SOL    HW117552   2.041   0.365   2.465
 5551SOL    HW217553   2.088   0.521   2.449
 5552SOL     OW17554   6.693   0.477   6.776
 5552SOL    HW117555   6.613   0.537   6.775
 5552SOL    HW217556   6.733   0.476   6.868
 5553SOL     OW17557   3.823   6.906   0.325
 5553SOL    HW117558   3.821   6.836   0.397
 5553SOL    HW217559   3.762   6.878   0.250
 5554SOL     OW17560   2.947   1.929   4.916
 5554SOL    HW117561   2.851   1.902   4.911
 5554SOL    HW217562   2.970   1.955   5.010
 5555SOL     OW17563   0.256   4.397   4.180
 5555SOL    HW117564   0.324   4.451   4.131
 5555SOL    HW217565   0.165   4.418   4.146
 5556SOL     OW17566   0.246   2.520   4.333
 5556SOL    HW117567   0.263   2.603   4.385
 5556SOL    HW217568   0.314   2.451   4.358
 5557SOL     OW17569   3.798   5.146   3.000
 5557SOL    HW117570   3.794   5.046   3.002
 5557SOL    HW217571   3.891   5.175   2.976
 5558SOL     OW17572   5.370   3.700   6.275
 5558SOL    HW117573   5.387   3.602   6.261
 5558SOL    HW217574   5.313   3.712   6.356
 5559SOL     OW17575   2.342   6.575   2.400
 5559SOL    HW117576   2.423   6.550   2.454
 5559SOL    HW217577   2.285   6.637   2.454
 5560SOL     OW17578   0.566   6.783   3.642
 5560SOL    HW117579   0.471   6.778   3.672
 5560SOL    HW217580   0.592   6.879   3.632
 5561SOL     OW17581   2.498   1.464   4.151
 5561SOL    HW117582   2.415   1.444   4.098
 5561SOL    HW217583   2.576   1.418   4.109
 5562SOL     OW17584   2.117   2.691   7.005
 5562SOL    HW117585   2.109   2.694   0.082
 5562SOL    HW217586   2.174   2.613   6.979
 5563SOL     OW17587   4.905   6.512   2.236
 5563SOL    HW117588   4.857   6.500   2.149
 5563SOL    HW217589   4.870   6.447   2.303
 5564SOL     OW17590   4.873   1.972   1.521
 5564SOL    HW117591   4.777   1.953   1.501
 5564SOL    HW217592   4.896   2.065   1.493
 5565SOL     OW17593   4.493   1.185   6.203
 5565SOL    HW117594   4.437   1.185   6.286
 5565SOL    HW217595   4.521   1.278   6.181
 5566SOL     OW17596   1.856   5.619   1.364
 5566SOL    HW117597   1.828   5.544   1.424
 5566SOL    HW217598   1.955   5.627   1.365
 5567SOL     OW17599   1.001   4.726   1.278
 5567SOL    HW117600   0.966   4.632   1.277
 5567SOL    HW217601   0.929   4.788   1.310
 5568SOL     OW17602   4.992   2.689   2.454
 5568SOL    HW117603   4.942   2.603   2.462
 5568SOL    HW217604   4.929   2.763   2.430
 5569SOL     OW17605   3.519   1.954   1.573
 5569SOL    HW117606   3.527   1.862   1.611
 5569SOL    HW217607   3.571   2.018   1.629
 5570SOL     OW17608   6.122   4.297   4.719
 5570SOL    HW117609   6.130   4.345   4.806
 5570SOL    HW217610   6.164   4.353   4.647
 5571SOL     OW17611   0.286   6.632   6.728
 5571SOL    HW117612   0.248   6.717   6.690
 5571SOL    HW217613   0.299   6.643   6.827
 5572SOL     OW17614   2.273   3.049   6.152
 5572SOL    HW117615   2.364   3.048   6.110
 5572SOL    HW217616   2.248   3.143   6.174
 5573SOL     OW17617   1.113   3.056   0.240
 5573SOL    HW117618   1.198   3.092   0.201
 5573SOL    HW217619   1.040   3.063   0.173
 5574SOL     OW17620   0.111   1.201   4.230
 5574SOL    HW117621   0.148   1.195   4.137
 5574SOL    HW217622   0.163   1.268   4.283
 5575SOL     OW17623   1.299   1.042   1.842
 5575SOL    HW117624   1.223   0.990   1.802
 5575SOL    HW217625   1.377   0.982   1.856
 5576SOL     OW17626   6.473   6.201   1.830
 5576SOL    HW117627   6.409   6.169   1.760
 5576SOL    HW217628   6.493   6.127   1.894
 5577SOL     OW17629   2.796   2.827   6.053
 5577SOL    HW117630   2.816   2.773   6.135
 5577SOL    HW217631   2.879   2.871   6.021
 5578SOL     OW17632   4.026   2.796   0.955
 5578SOL    HW117633   4.030   2.703   0.990
 5578SOL    HW217634   3.930   2.824   0.944
 5579SOL     OW17635   6.551   3.657   6.026
 5579SOL    HW117636   6.580   3.711   6.106
 5579SOL    HW217637   6.456   3.629   6.038
 5580SOL     OW17638   4.645   1.691   6.846
 5580SOL    HW117639   4.718   1.672   6.781
 5580SOL    HW217640   4.652   1.627   6.923
 5581SOL     OW17641   2.577   6.936   0.957
 5581SOL    HW117642   2.509   6.947   0.884
 5581SOL    HW217643   2.533   6.895   1.037
 5582SOL     OW17644   3.495   3.206   3.834
 5582SOL    HW117645   3.510   3.108   3.819
 5582SOL    HW217646   3.430   3.219   3.909
 5583SOL     OW17647   4.055   6.741   2.573
 5583SOL    HW117648   4.063   6.823   2.516
 5583SOL    HW217649   4.129   6.740   2.640
 5584SOL     OW17650   5.319   4.173   4.133
 5584SOL    HW117651   5.392   4.232   4.166
 5584SOL    HW217652   5.251   4.160   4.206
 5585SOL     OW17653   5.290   0.670   4.227
 5585SOL    HW117654   5.379   0.716   4.231
 5585SOL    HW217655   5.234   0.699   4.304
 5586SOL     OW17656   1.198   2.327   6.932
 5586SOL    HW117657   1.158   2.392   6.997
 5586SOL    HW217658   1.163   2.235   6.950
 5587SOL     OW17659   4.143   6.731   2.263
 5587SOL    HW117660   4.218   6.668   2.288
 5587SOL    HW217661   4.138   6.804   2.331
 5588SOL     OW17662   1.570   6.807   4.617
 5588SOL    HW117663   1.593   6.710   4.631
 5588SOL    HW217664   1.607   6.861   4.692
 5589SOL     OW17665   5.162   3.120   6.644
 5589SOL    HW117666   5.168   3.218   6.625
 5589SOL    HW217667   5.152   3.105   6.742
 5590SOL     OW17668   6.648   5.436   2.855
 5590SOL    HW117669   6.670   5.414   2.760
 5590SOL    HW217670   6.632   5.352   2.906
 5591SOL     OW17671   5.980   0.279   6.813
 5591SOL    HW117672   5.883   0.278   6.839
 5591SOL    HW217673   5.987   0.272   6.714
 5592SOL     OW17674   2.209   4.049   2.769
 5592SOL    HW117675   2.268   4.092   2.838
 5592SOL    HW217676   2.114   4.056   2.797
 5593SOL     OW17677   6.967   2.717   5.825
 5593SOL    HW117678   0.032   2.732   5.780
 5593SOL    HW217679   6.895   2.764   5.773
 5594SOL     OW17680   2.122   1.497   0.189
 5594SOL    HW117681   2.058   1.569   0.164
 5594SOL    HW217682   2.210   1.513   0.144
 5595SOL     OW17683   6.538   0.384   5.432
 5595SOL    HW117684   6.484   0.331   5.498
 5595SOL    HW217685   6.542   0.335   5.345
 5596SOL     OW17686   5.551   0.089   3.182
 5596SOL    HW117687   5.610   0.010   3.199
 5596SOL    HW217688   5.539   0.100   3.083
 5597SOL     OW17689   5.321   2.715   5.444
 5597SOL    HW117690   5.329   2.810   5.476
 5597SOL    HW217691   5.224   2.693   5.433
 5598SOL     OW17692   5.113   2.189   3.746
 5598SOL    HW117693   5.146   2.268   3.797
 5598SOL    HW217694   5.093   2.215   3.652
 5599SOL     OW17695   5.605   3.847   2.179
 5599SOL    HW117696   5.558   3.845   2.090
 5599SOL    HW217697   5.549   3.896   2.245
 5600SOL     OW17698   2.523   0.297   2.671
 5600SOL    HW117699   2.501   0.201   2.688
 5600SOL    HW217700   2.473   0.330   2.591
 5601SOL     OW17701   4.543   2.718   5.858
 5601SOL    HW117702   4.464   2.657   5.852
 5601SOL    HW217703   4.522   2.803   5.808
 5602SOL     OW17704   0.271   1.620   3.104
 5602SOL    HW117705   0.309   1.607   3.196
 5602SOL    HW217706   0.206   1.547   3.084
 5603SOL     OW17707   4.491   2.574   5.209
 5603SOL    HW117708   4.393   2.589   5.196
 5603SOL    HW217709   4.541   2.656   5.183
 5604SOL     OW17710   1.090   1.398   4.430
 5604SOL    HW117711   1.023   1.413   4.357
 5604SOL    HW217712   1.068   1.314   4.479
 5605SOL     OW17713   1.265   0.462   5.341
 5605SOL    HW117714   1.183   0.510   5.309
 5605SOL    HW217715   1.310   0.516   5.412
 5606SOL     OW17716   4.106   1.572   0.572
 5606SOL    HW117717   4.077   1.477   0.570
 5606SOL    HW217718   4.036   1.628   0.615
 5607SOL     OW17719   6.125   2.307   3.086
 5607SOL    HW117720   6.033   2.347   3.086
 5607SOL    HW217721   6.180   2.348   3.159
 5608SOL     OW17722   6.476   0.952   3.079
 5608SOL    HW117723   6.560   0.900   3.064
 5608SOL    HW217724   6.400   0.889   3.092
 5609SOL     OW17725   4.590   6.433   0.354
 5609SOL    HW117726   4.670   6.490   0.336
 5609SOL    HW217727   4.603   6.343   0.311
 5610SOL     OW17728   5.521   4.058   0.395
 5610SOL    HW117729   5.493   4.153   0.400
 5610SOL    HW217730   5.487   4.017   0.310
 5611SOL     OW17731   0.560   4.982   2.303
 5611SOL    HW117732   0.490   4.914   2.324
 5611SOL    HW217733   0.617   4.997   2.384
 5612SOL     OW17734   3.079   2.818   0.897
 5612SOL    HW117735   3.063   2.747   0.966
 5612SOL    HW217736   3.009   2.812   0.826
 5613SOL     OW17737   6.615   4.230   4.491
 5613SOL    HW117738   6.556   4.266   4.564
 5613SOL    HW217739   6.696   4.189   4.532
 5614SOL     OW17740   6.526   1.999   4.546
 5614SOL    HW117741   6.595   1.983   4.475
 5614SOL    HW217742   6.567   2.047   4.623
 5615SOL     OW17743   0.200   1.690   2.285
 5615SOL    HW117744   0.285   1.666   2.238
 5615SOL    HW217745   0.166   1.777   2.250
 5616SOL     OW17746   2.503   1.756   5.181
 5616SOL    HW117747   2.558   1.735   5.100
 5616SOL    HW217748   2.456   1.844   5.167
 5617SOL     OW17749   1.452   4.825   4.383
 5617SOL    HW117750   1.484   4.800   4.292
 5617SOL    HW217751   1.530   4.831   4.445
 5618SOL     OW17752   6.186   5.426   3.279
 5618SOL    HW117753   6.282   5.439   3.253
 5618SOL    HW217754   6.179   5.349   3.342
 5619SOL     OW17755   3.806   2.930   3.853
 5619SOL    HW117756   3.837   2.835   3.858
 5619SOL    HW217757   3.882   2.990   3.877
 5620SOL     OW17758   4.562   4.374   5.577
 5620SOL    HW117759   4.553   4.294   5.518
 5620SOL    HW217760   4.473   4.395   5.618
 5621SOL     OW17761   1.563   3.038   6.486
 5621SOL    HW117762   1.488   2.979   6.459
 5621SOL    HW217763   1.639   3.028   6.422
 5622SOL     OW17764   4.536   6.243   5.505
 5622SOL    HW117765   4.529   6.289   5.593
 5622SOL    HW217766   4.479   6.291   5.438
 5623SOL     OW17767   4.796   6.678   4.883
 5623SOL    HW117768   4.851   6.596   4.862
 5623SOL    HW217769   4.838   6.726   4.960
 5624SOL     OW17770   0.870   5.236   3.225
 5624SOL    HW117771   0.870   5.195   3.134
 5624SOL    HW217772   0.800   5.191   3.281
 5625SOL     OW17773   1.142   5.129   4.743
 5625SOL    HW117774   1.163   5.137   4.645
 5625SOL    HW217775   1.196   5.196   4.794
 5626SOL     OW17776   2.170   4.442   4.430
 5626SOL    HW117777   2.138   4.392   4.510
 5626SOL    HW217778   2.239   4.509   4.457
 5627SOL     OW17779   0.289   5.602   5.824
 5627SOL    HW117780   0.356   5.556   5.882
 5627SOL    HW217781   0.207   5.545   5.816
 5628SOL     OW17782   2.995   3.046   0.800
 5628SOL    HW117783   2.901   3.024   0.776
 5628SOL    HW217784   3.037   2.968   0.847
 5629SOL     OW17785   3.843   3.088   1.270
 5629SOL    HW117786   3.769   3.141   1.312
 5629SOL    HW217787   3.928   3.102   1.321
 5630SOL     OW17788   1.491   3.725   6.000
 5630SOL    HW117789   1.548   3.785   6.056
 5630SOL    HW217790   1.472   3.641   6.051
 5631SOL     OW17791   5.382   1.435   1.867
 5631SOL    HW117792   5.388   1.524   1.823
 5631SOL    HW217793   5.287   1.418   1.894
 5632SOL     OW17794   5.169   1.333   6.363
 5632SOL    HW117795   5.249   1.284   6.328
 5632SOL    HW217796   5.088   1.306   6.310
 5633SOL     OW17797   0.231   5.251   4.634
 5633SOL    HW117798   0.236   5.266   4.733
 5633SOL    HW217799   0.278   5.326   4.587
 5634SOL     OW17800   2.040   5.435   4.574
 5634SOL    HW117801   2.037   5.486   4.488
 5634SOL    HW217802   2.089   5.349   4.560
 5635SOL     OW17803   2.828   6.619   6.714
 5635SOL    HW117804   2.734   6.645   6.736
 5635SOL    HW217805   2.862   6.676   6.639
 5636SOL     OW17806   5.925   1.286   5.650
 5636SOL    HW117807   5.959   1.334   5.569
 5636SOL    HW217808   5.983   1.207   5.669
 5637SOL     OW17809   5.679   6.714   4.194
 5637SOL    HW117810   5.698   6.695   4.290
 5637SOL    HW217811   5.679   6.813   4.178
 5638SOL     OW17812   5.610   5.671   1.229
 5638SOL    HW117813   5.553   5.597   1.193
 5638SOL    HW217814   5.635   5.732   1.154
 5639SOL     OW17815   1.252   0.780   1.611
 5639SOL    HW117816   1.236   0.691   1.569
 5639SOL    HW217817   1.165   0.826   1.627
 5640SOL     OW17818   2.584   6.606   2.558
 5640SOL    HW117819   2.588   6.510   2.586
 5640SOL    HW217820   2.632   6.618   2.472
 5641SOL     OW17821   0.449   4.754   5.854
 5641SOL    HW117822   0.376   4.686   5.849
 5641SOL    HW217823   0.507   4.734   5.933
 5642SOL     OW17824   1.277   5.093   5.835
 5642SOL    HW117825   1.293   4.996   5.817
 5642SOL    HW217826   1.302   5.113   5.930
 5643SOL     OW17827   3.191   0.908   4.843
 5643SOL    HW117828   3.195   0.950   4.752
 5643SOL    HW217829   3.096   0.892   4.869
 5644SOL     OW17830   4.949   0.737   3.791
 5644SOL    HW117831   4.946   0.644   3.828
 5644SOL    HW217832   4.956   0.802   3.867
 5645SOL     OW17833   6.361   4.701   2.709
 5645SOL    HW117834   6.277   4.711   2.762
 5645SOL    HW217835   6.398   4.791   2.687
 5646SOL     OW17836   2.103   5.386   3.498
 5646SOL    HW117837   2.088   5.302   3.551
 5646SOL    HW217838   2.055   5.462   3.540
 5647SOL     OW17839   6.164   6.508   6.723
 5647SOL    HW117840   6.264   6.508   6.717
 5647SOL    HW217841   6.128   6.421   6.688
 5648SOL     OW17842   1.759   0.832   2.866
 5648SOL    HW117843   1.750   0.879   2.778
 5648SOL    HW217844   1.734   0.736   2.856
 5649SOL     OW17845   1.390   6.325   5.762
 5649SOL    HW117846   1.345   6.293   5.679
 5649SOL    HW217847   1.443   6.250   5.802
 5650SOL     OW17848   0.649   5.182   1.070
 5650SOL    HW117849   0.594   5.100   1.087
 5650SOL    HW217850   0.608   5.234   0.995
 5651SOL     OW17851   6.793   1.409   1.358
 5651SOL    HW117852   6.789   1.311   1.341
 5651SOL    HW217853   6.715   1.454   1.313
 5652SOL     OW17854   5.646   6.305   2.101
 5652SOL    HW117855   5.614   6.400   2.105
 5652SOL    HW217856   5.639   6.272   2.007
 5653SOL     OW17857   0.413   6.428   6.613
 5653SOL    HW117858   0.383   6.511   6.659
 5653SOL    HW217859   0.512   6.420   6.619
 5654SOL     OW17860   0.129   6.392   5.954
 5654SOL    HW117861   0.222   6.361   5.938
 5654SOL    HW217862   0.065   6.327   5.913
 5655SOL     OW17863   1.449   3.152   4.395
 5655SOL    HW117864   1.350   3.168   4.401
 5655SOL    HW217865   1.475   3.079   4.459
 5656SOL     OW17866   2.297   4.362   0.170
 5656SOL    HW117867   2.375   4.360   0.108
 5656SOL    HW217868   2.313   4.300   0.246
 5657SOL     OW17869   5.469   0.267   1.224
 5657SOL    HW117870   5.400   0.306   1.163
 5657SOL    HW217871   5.509   0.186   1.181
 5658SOL     OW17872   3.432   6.225   5.692
 5658SOL    HW117873   3.430   6.174   5.606
 5658SOL    HW217874   3.397   6.167   5.766
 5659SOL     OW17875   3.234   3.982   3.185
 5659SOL    HW117876   3.280   3.894   3.179
 5659SOL    HW217877   3.138   3.971   3.157
 5660SOL     OW17878   5.423   0.573   5.830
 5660SOL    HW117879   5.334   0.615   5.810
 5660SOL    HW217880   5.412   0.508   5.905
 5661SOL     OW17881   6.869   4.838   6.467
 5661SOL    HW117882   6.796   4.893   6.426
 5661SOL    HW217883   6.858   4.743   6.440
 5662SOL     OW17884   2.781   4.990   4.097
 5662SOL    HW117885   2.775   4.968   4.194
 5662SOL    HW217886   2.798   4.906   4.045
 5663SOL     OW17887   1.428   4.216   6.817
 5663SOL    HW117888   1.514   4.175   6.848
 5663SOL    HW217889   1.378   4.251   6.896
 5664SOL     OW17890   0.048   3.690   3.947
 5664SOL    HW117891   0.010   3.765   3.893
 5664SOL    HW217892   0.024   3.602   3.905
 5665SOL     OW17893   2.005   1.751   0.064
 5665SOL    HW117894   2.060   1.830   0.089
 5665SOL    HW217895   2.027   1.723   6.993
 5666SOL     OW17896   5.283   6.131   0.537
 5666SOL    HW117897   5.301   6.032   0.539
 5666SOL    HW217898   5.282   6.166   0.631
 5667SOL     OW17899   0.716   4.924   3.620
 5667SOL    HW117900   0.668   4.866   3.686
 5667SOL    HW217901   0.795   4.966   3.664
 5668SOL     OW17902   5.074   2.413   6.111
 5668SOL    HW117903   5.001   2.366   6.162
 5668SOL    HW217904   5.054   2.511   6.109
 5669SOL     OW17905   0.720   3.358   6.532
 5669SOL    HW117906   0.638   3.311   6.566
 5669SOL    HW217907   0.693   3.424   6.462
 5670SOL     OW17908   0.419   3.150   3.604
 5670SOL    HW117909   0.515   3.169   3.583
 5670SOL    HW217910   0.399   3.178   3.698
 5671SOL     OW17911   0.882   6.193   6.487
 5671SOL    HW117912   0.810   6.194   6.418
 5671SOL    HW217913   0.959   6.249   6.456
 5672SOL     OW17914   4.355   4.687   6.783
 5672SOL    HW117915   4.272   4.742   6.791
 5672SOL    HW217916   4.344   4.621   6.708
 5673SOL     OW17917   0.973   6.466   2.403
 5673SOL    HW117918   0.978   6.414   2.318
 5673SOL    HW217919   1.057   6.518   2.416
 5674SOL     OW17920   0.013   3.925   3.536
 5674SOL    HW117921   0.025   3.912   3.438
 5674SOL    HW217922   6.996   4.015   3.553
 5675SOL     OW17923   4.332   1.646   6.356
 5675SOL    HW117924   4.397   1.691   6.419
 5675SOL    HW217925   4.365   1.656   6.262
 5676SOL     OW17926   1.931   1.769   1.838
 5676SOL    HW117927   1.958   1.794   1.745
 5676SOL    HW217928   1.981   1.825   1.903
 5677SOL     OW17929   0.709   2.292   2.673
 5677SOL    HW117930   0.743   2.379   2.637
 5677SOL    HW217931   0.753   2.216   2.626
 5678SOL     OW17932   2.581   6.703   2.991
 5678SOL    HW117933   2.607   6.726   2.897
 5678SOL    HW217934   2.656   6.726   3.053
 5679SOL     OW17935   1.119   0.490   3.167
 5679SOL    HW117936   1.049   0.437   3.119
 5679SOL    HW217937   1.184   0.427   3.210
 5680SOL     OW17938   1.490   5.347   0.679
 5680SOL    HW117939   1.399   5.326   0.642
 5680SOL    HW217940   1.548   5.266   0.672
 5681SOL     OW17941   0.703   3.539   6.327
 5681SOL    HW117942   0.766   3.530   6.251
 5681SOL    HW217943   0.691   3.636   6.349
 5682SOL     OW17944   1.990   4.795   5.230
 5682SOL    HW117945   2.019   4.888   5.207
 5682SOL    HW217946   1.895   4.797   5.261
 5683SOL     OW17947   4.181   1.752   6.805
 5683SOL    HW117948   4.273   1.726   6.835
 5683SOL    HW217949   4.184   1.776   6.708
 5684SOL     OW17950   3.951   3.045   4.629
 5684SOL    HW117951   3.943   3.019   4.726
 5684SOL    HW217952   4.038   3.012   4.593
 5685SOL     OW17953   1.315   3.907   1.885
 5685SOL    HW117954   1.392   3.875   1.942
 5685SOL    HW217955   1.338   3.995   1.844
 5686SOL     OW17956   3.119   0.151   6.564
 5686SOL    HW117957   3.066   0.093   6.502
 5686SOL    HW217958   3.212   0.114   6.574
 5687SOL     OW17959   6.764   4.033   4.660
 5687SOL    HW117960   6.737   3.941   4.632
 5687SOL    HW217961   6.772   4.037   4.760
 5688SOL     OW17962   6.766   1.430   0.033
 5688SOL    HW117963   6.818   1.515   0.028
 5688SOL    HW217964   6.818   1.363   0.086
 5689SOL     OW17965   4.060   0.951   7.005
 5689SOL    HW117966   3.985   0.895   0.019
 5689SOL    HW217967   4.052   1.044   0.016
 5690SOL     OW17968   2.204   6.089   0.807
 5690SOL    HW117969   2.251   6.155   0.865
 5690SOL    HW217970   2.106   6.091   0.825
 5691SOL     OW17971   2.473   6.126   1.904
 5691SOL    HW117972   2.540   6.186   1.860
 5691SOL    HW217973   2.492   6.031   1.879
 5692SOL     OW17974   6.752   3.083   6.105
 5692SOL    HW117975   6.750   3.095   6.006
 5692SOL    HW217976   6.697   3.156   6.148
 5693SOL     OW17977   6.011   3.001   2.247
 5693SOL    HW117978   6.061   2.952   2.175
 5693SOL    HW217979   5.915   3.007   2.222
 5694SOL     OW17980   0.745   1.587   3.774
 5694SOL    HW117981   0.833   1.574   3.819
 5694SOL    HW217982   0.709   1.678   3.798
 5695SOL     OW17983   0.772   2.657   2.940
 5695SOL    HW117984   0.850   2.627   2.995
 5695SOL    HW217985   0.723   2.578   2.905
 5696SOL     OW17986   1.692   6.794   3.182
 5696SOL    HW117987   1.662   6.817   3.275
 5696SOL    HW217988   1.618   6.746   3.134
 5697SOL     OW17989   5.729   1.931   0.981
 5697SOL    HW117990   5.732   1.883   1.068
 5697SOL    HW217991   5.822   1.947   0.948
 5698SOL     OW17992   0.407   3.134   2.033
 5698SOL    HW117993   0.456   3.201   1.976
 5698SOL    HW217994   0.411   3.163   2.128
 5699SOL     OW17995   6.268   2.646   3.157
 5699SOL    HW117996   6.204   2.676   3.086
 5699SOL    HW217997   6.224   2.578   3.216
 5700SOL     OW17998   6.468   6.552   4.596
 5700SOL    HW117999   6.444   6.484   4.665
 5700SOL    HW218000   6.513   6.507   4.519
 5701SOL     OW18001   1.602   5.929   3.601
 5701SOL    HW118002   1.506   5.940   3.627
 5701SOL    HW218003   1.618   5.971   3.512
 5702SOL     OW18004   1.441   0.600   5.524
 5702SOL    HW118005   1.375   0.669   5.495
 5702SOL    HW218006   1.531   0.622   5.486
 5703SOL     OW18007   5.227   4.239   0.819
 5703SOL    HW118008   5.271   4.207   0.903
 5703SOL    HW218009   5.190   4.330   0.833
 5704SOL     OW18010   4.390   5.331   2.170
 5704SOL    HW118011   4.486   5.310   2.150
 5704SOL    HW218012   4.377   5.430   2.169
 5705SOL     OW18013   5.243   1.064   0.287
 5705SOL    HW118014   5.206   1.156   0.276
 5705SOL    HW218015   5.171   1.002   0.316
 5706SOL     OW18016   0.900   2.232   0.713
 5706SOL    HW118017   0.925   2.139   0.685
 5706SOL    HW218018   0.971   2.296   0.683
 5707SOL     OW18019   0.843   6.737   0.301
 5707SOL    HW118020   0.854   6.835   0.287
 5707SOL    HW218021   0.884   6.687   0.224
 5708SOL     OW18022   5.184   6.301   1.125
 5708SOL    HW118023   5.227   6.260   1.044
 5708SOL    HW218024   5.180   6.234   1.198
 5709SOL     OW18025   1.162   0.011   3.606
 5709SOL    HW118026   1.139   6.938   3.623
 5709SOL    HW218027   1.211   0.047   3.686
 5710SOL     OW18028   2.825   3.148   6.077
 5710SOL    HW118029   2.899   3.108   6.131
 5710SOL    HW218030   2.860   3.178   5.989
 5711SOL     OW18031   4.765   0.172   3.126
 5711SOL    HW118032   4.758   0.271   3.139
 5711SOL    HW218033   4.698   0.143   3.057
 5712SOL     OW18034   0.729   5.776   5.944
 5712SOL    HW118035   0.828   5.772   5.958
 5712SOL    HW218036   0.709   5.762   5.847
 5713SOL     OW18037   1.311   2.522   1.275
 5713SOL    HW118038   1.345   2.613   1.251
 5713SOL    HW218039   1.384   2.470   1.319
 5714SOL     OW18040   1.063   5.911   6.845
 5714SOL    HW118041   1.029   5.882   6.935
 5714SOL    HW218042   1.145   5.859   6.823
 5715SOL     OW18043   1.345   6.447   3.373
 5715SOL    HW118044   1.348   6.546   3.361
 5715SOL    HW218045   1.259   6.412   3.339
 5716SOL     OW18046   1.134   4.037   6.250
 5716SOL    HW118047   1.228   4.006   6.264
 5716SOL    HW218048   1.112   4.035   6.152
 5717SOL     OW18049   2.185   5.617   0.419
 5717SOL    HW118050   2.245   5.685   0.377
 5717SOL    HW218051   2.152   5.554   0.348
 5718SOL     OW18052   0.899   3.954   6.344
 5718SOL    HW118053   0.983   4.004   6.323
 5718SOL    HW218054   0.828   4.019   6.373
 5719SOL     OW18055   2.090   1.369   6.059
 5719SOL    HW118056   2.166   1.407   6.111
 5719SOL    HW218057   2.113   1.277   6.028
 5720SOL     OW18058   1.194   4.792   4.503
 5720SOL    HW118059   1.285   4.783   4.463
 5720SOL    HW218060   1.125   4.775   4.433
 5721SOL     OW18061   6.880   3.737   0.997
 5721SOL    HW118062   6.847   3.660   1.052
 5721SOL    HW218063   6.832   3.738   0.909
 5722SOL     OW18064   5.688   1.925   4.902
 5722SOL    HW118065   5.763   1.879   4.854
 5722SOL    HW218066   5.698   2.024   4.894
 5723SOL     OW18067   4.132   3.382   0.192
 5723SOL    HW118068   4.091   3.394   0.101
 5723SOL    HW218069   4.081   3.437   0.258
 5724SOL     OW18070   3.914   2.428   5.339
 5724SOL    HW118071   3.853   2.362   5.295
 5724SOL    HW218072   3.991   2.447   5.278
 5725SOL     OW18073   5.901   5.599   3.614
 5725SOL    HW118074   5.813   5.556   3.596
 5725SOL    HW218075   5.954   5.603   3.529
 5726SOL     OW18076   6.605   3.484   4.170
 5726SOL    HW118077   6.526   3.528   4.211
 5726SOL    HW218078   6.600   3.492   4.071
 5727SOL     OW18079   0.874   2.375   4.024
 5727SOL    HW118080   0.970   2.359   4.000
 5727SOL    HW218081   0.821   2.389   3.940
 5728SOL     OW18082   4.523   1.386   6.479
 5728SOL    HW118083   4.436   1.339   6.462
 5728SOL    HW218084   4.523   1.423   6.572
 5729SOL     OW18085   0.817   1.545   0.475
 5729SOL    HW118086   0.806   1.520   0.378
 5729SOL    HW218087   0.791   1.640   0.487
 5730SOL     OW18088   4.104   5.049   5.791
 5730SOL    HW118089   4.131   4.957   5.760
 5730SOL    HW218090   4.177   5.088   5.846
 5731SOL     OW18091   1.993   6.554   3.781
 5731SOL    HW118092   1.927   6.588   3.715
 5731SOL    HW218093   2.086   6.576   3.751
 5732SOL     OW18094   6.644   4.587   5.208
 5732SOL    HW118095   6.576   4.660   5.200
 5732SOL    HW218096   6.694   4.579   5.122
 5733SOL     OW18097   3.299   0.623   5.449
 5733SOL    HW118098   3.389   0.608   5.490
 5733SOL    HW218099   3.264   0.537   5.412
 5734SOL     OW18100   1.750   6.158   6.464
 5734SOL    HW118101   1.719   6.065   6.441
 5734SOL    HW218102   1.670   6.216   6.480
 5735SOL     OW18103   3.969   1.125   3.031
 5735SOL    HW118104   3.902   1.108   3.103
 5735SOL    HW218105   3.959   1.056   2.959
 5736SOL     OW18106   5.450   4.343   0.373
 5736SOL    HW118107   5.528   4.401   0.349
 5736SOL    HW218108   5.403   4.383   0.452
 5737SOL     OW18109   5.726   5.981   6.912
 5737SOL    HW118110   5.747   6.079   6.913
 5737SOL    HW218111   5.627   5.968   6.908
 5738SOL     OW18112   3.412   2.211   6.783
 5738SOL    HW118113   3.502   2.184   6.817
 5738SOL    HW218114   3.423   2.281   6.712
 5739SOL     OW18115   0.908   6.046   5.725
 5739SOL    HW118116   0.887   5.949   5.710
 5739SOL    HW218117   1.007   6.058   5.730
 5740SOL     OW18118   4.234   4.211   0.960
 5740SOL    HW118119   4.308   4.230   0.895
 5740SOL    HW218120   4.257   4.249   1.049
 5741SOL     OW18121   0.068   4.103   4.266
 5741SOL    HW118122   6.991   4.101   4.265
 5741SOL    HW218123   0.103   4.072   4.177
 5742SOL     OW18124   4.337   6.175   2.322
 5742SOL    HW118125   4.280   6.172   2.404
 5742SOL    HW218126   4.330   6.087   2.273
 5743SOL     OW18127   2.226   5.817   5.569
 5743SOL    HW118128   2.239   5.740   5.506
 5743SOL    HW218129   2.179   5.891   5.521
 5744SOL     OW18130   5.119   1.362   1.946
 5744SOL    HW118131   5.117   1.306   1.864
 5744SOL    HW218132   5.128   1.304   2.027
 5745SOL     OW18133   1.882   0.764   3.553
 5745SOL    HW118134   1.856   0.836   3.489
 5745SOL    HW218135   1.906   0.681   3.503
 5746SOL     OW18136   5.086   6.714   1.508
 5746SOL    HW118137   5.054   6.719   1.603
 5746SOL    HW218138   5.038   6.641   1.461
 5747SOL     OW18139   1.435   4.972   1.945
 5747SOL    HW118140   1.524   5.018   1.936
 5747SOL    HW218141   1.388   4.975   1.856
 5748SOL     OW18142   1.510   0.116   1.499
 5748SOL    HW118143   1.518   0.216   1.504
 5748SOL    HW218144   1.571   0.075   1.567
 5749SOL     OW18145   1.853   6.701   5.343
 5749SOL    HW118146   1.887   6.715   5.250
 5749SOL    HW218147   1.901   6.763   5.406
 5750SOL     OW18148   6.246   6.303   5.030
 5750SOL    HW118149   6.272   6.211   5.057
 5750SOL    HW218150   6.162   6.329   5.077
 5751SOL     OW18151   2.529   2.541   5.006
 5751SOL    HW118152   2.595   2.489   5.061
 5751SOL    HW218153   2.574   2.576   4.924
 5752SOL     OW18154   5.341   0.154   0.357
 5752SOL    HW118155   5.273   0.148   0.284
 5752SOL    HW218156   5.294   0.172   0.444
 5753SOL     OW18157   3.387   3.926   4.378
 5753SOL    HW118158   3.340   3.954   4.294
 5753SOL    HW218159   3.349   3.975   4.456
 5754SOL     OW18160   0.438   5.331   1.322
 5754SOL    HW118161   0.506   5.335   1.249
 5754SOL    HW218162   0.424   5.422   1.361
 5755SOL     OW18163   1.490   1.929   6.170
 5755SOL    HW118164   1.402   1.968   6.143
 5755SOL    HW218165   1.561   1.961   6.107
 5756SOL     OW18166   0.416   0.430   2.842
 5756SOL    HW118167   0.415   0.505   2.908
 5756SOL    HW218168   0.322   0.408   2.816
 5757SOL     OW18169   0.135   5.304   3.837
 5757SOL    HW118170   0.175   5.393   3.858
 5757SOL    HW218171   0.176   5.267   3.754
 5758SOL     OW18172   2.179   1.028   2.733
 5758SOL    HW118173   2.156   1.056   2.640
 5758SOL    HW218174   2.237   1.098   2.775
 5759SOL     OW18175   4.737   0.627   6.825
 5759SOL    HW118176   4.754   0.569   6.746
 5759SOL    HW218177   4.763   0.578   6.909
 5760SOL     OW18178   6.246   2.019   0.590
 5760SOL    HW118179   6.254   2.113   0.623
 5760SOL    HW218180   6.155   2.005   0.551
 5761SOL     OW18181   6.214   4.592   5.893
 5761SOL    HW118182   6.118   4.616   5.887
 5761SOL    HW218183   6.256   4.598   5.802
 5762SOL     OW18184   4.971   4.370   1.247
 5762SOL    HW118185   4.934   4.387   1.156
 5762SOL    HW218186   4.987   4.456   1.294
 5763SOL     OW18187   6.470   5.686   0.906
 5763SOL    HW118188   6.447   5.606   0.963
 5763SOL    HW218189   6.386   5.727   0.872
 5764SOL     OW18190   5.037   4.845   4.835
 5764SOL    HW118191   4.995   4.818   4.922
 5764SOL    HW218192   4.981   4.916   4.791
 5765SOL     OW18193   6.533   3.269   0.526
 5765SOL    HW118194   6.629   3.242   0.525
 5765SOL    HW218195   6.501   3.283   0.433
 5766SOL     OW18196   1.693   2.086   5.726
 5766SOL    HW118197   1.678   2.183   5.707
 5766SOL    HW218198   1.735   2.042   5.647
 5767SOL     OW18199   2.133   0.276   0.766
 5767SOL    HW118200   2.126   0.177   0.753
 5767SOL    HW218201   2.046   0.319   0.742
 5768SOL     OW18202   0.949   6.613   4.265
 5768SOL    HW118203   1.036   6.651   4.297
 5768SOL    HW218204   0.910   6.673   4.195
 5769SOL     OW18205   2.469   5.640   4.198
 5769SOL    HW118206   2.445   5.646   4.101
 5769SOL    HW218207   2.394   5.677   4.253
 5770SOL     OW18208   6.693   6.023   6.231
 5770SOL    HW118209   6.664   6.023   6.135
 5770SOL    HW218210   6.613   6.017   6.290
 5771SOL     OW18211   1.244   0.066   4.667
 5771SOL    HW118212   1.267   0.028   4.578
 5771SOL    HW218213   1.245   7.016   4.736
 5772SOL     OW18214   5.237   0.971   1.647
 5772SOL    HW118215   5.227   0.924   1.559
 5772SOL    HW218216   5.327   0.950   1.686
 5773SOL     OW18217   4.429   0.431   3.148
 5773SOL    HW118218   4.487   0.448   3.228
 5773SOL    HW218219   4.371   0.352   3.166
 5774SOL     OW18220   3.089   6.486   4.307
 5774SOL    HW118221   3.153   6.513   4.235
 5774SOL    HW218222   3.118   6.525   4.394
 5775SOL     OW18223   1.380   0.340   2.968
 5775SOL    HW118224   1.306   0.406   2.984
 5775SOL    HW218225   1.448   0.349   3.041
 5776SOL     OW18226   0.488   0.850   4.027
 5776SOL    HW118227   0.449   0.867   3.937
 5776SOL    HW218228   0.538   0.764   4.026
 5777SOL     OW18229   6.871   0.131   5.032
 5777SOL    HW118230   6.780   0.103   5.002
 5777SOL    HW218231   6.871   0.145   5.130
 5778SOL     OW18232   1.367   0.268   0.273
 5778SOL    HW118233   1.312   0.344   0.239
 5778SOL    HW218234   1.438   0.303   0.334
 5779SOL     OW18235   4.440   2.575   1.206
 5779SOL    HW118236   4.341   2.580   1.220
 5779SOL    HW218237   4.482   2.659   1.240
 5780SOL     OW18238   6.069   6.195   4.160
 5780SOL    HW118239   6.148   6.240   4.202
 5780SOL    HW218240   6.098   6.109   4.118
 5781SOL     OW18241   6.703   5.053   4.357
 5781SOL    HW118242   6.675   4.997   4.435
 5781SOL    HW218243   6.639   5.129   4.346
 5782SOL     OW18244   1.544   1.789   1.376
 5782SOL    HW118245   1.451   1.813   1.347
 5782SOL    HW218246   1.573   1.705   1.330
 5783SOL     OW18247   1.261   0.464   1.568
 5783SOL    HW118248   1.166   0.438   1.580
 5783SOL    HW218249   1.309   0.457   1.656
 5784SOL     OW18250   0.139   5.811   5.859
 5784SOL    HW118251   0.143   5.824   5.958
 5784SOL    HW218252   0.186   5.727   5.835
 5785SOL     OW18253   1.964   1.767   0.366
 5785SOL    HW118254   1.929   1.860   0.356
 5785SOL    HW218255   2.062   1.766   0.347
 5786SOL     OW18256   0.518   4.189   0.801
 5786SOL    HW118257   0.529   4.268   0.861
 5786SOL    HW218258   0.606   4.142   0.792
 5787SOL     OW18259   3.314   2.038   4.647
 5787SOL    HW118260   3.294   1.983   4.565
 5787SOL    HW218261   3.228   2.065   4.690
 5788SOL     OW18262   2.968   1.164   1.190
 5788SOL    HW118263   2.938   1.165   1.285
 5788SOL    HW218264   3.051   1.219   1.181
 5789SOL     OW18265   3.458   4.367   7.007
 5789SOL    HW118266   3.405   4.409   6.933
 5789SOL    HW218267   3.463   4.268   6.992
 5790SOL     OW18268   1.222   4.470   4.835
 5790SOL    HW118269   1.266   4.447   4.922
 5790SOL    HW218270   1.138   4.521   4.853
 5791SOL     OW18271   3.683   1.772   2.477
 5791SOL    HW118272   3.731   1.859   2.461
 5791SOL    HW218273   3.707   1.738   2.568
 5792SOL     OW18274   6.328   3.508   2.708
 5792SOL    HW118275   6.310   3.601   2.676
 5792SOL    HW218276   6.297   3.442   2.639
 5793SOL     OW18277   5.270   1.187   4.176
 5793SOL    HW118278   5.271   1.193   4.077
 5793SOL    HW218279   5.295   1.276   4.216
 5794SOL     OW18280   2.302   0.870   0.418
 5794SOL    HW118281   2.335   0.807   0.347
 5794SOL    HW218282   2.206   0.892   0.399
 5795SOL     OW18283   6.345   0.353   6.418
 5795SOL    HW118284   6.432   0.319   6.454
 5795SOL    HW218285   6.360   0.441   6.372
 5796SOL     OW18286   4.812   1.340   6.086
 5796SOL    HW118287   4.734   1.388   6.126
 5796SOL    HW218288   4.863   1.294   6.158
 5797SOL     OW18289   4.844   2.322   6.264
 5797SOL    HW118290   4.860   2.375   6.347
 5797SOL    HW218291   4.746   2.323   6.243
 5798SOL     OW18292   0.599   4.542   5.258
 5798SOL    HW118293   0.610   4.591   5.345
 5798SOL    HW218294   0.650   4.456   5.261
 5799SOL     OW18295   0.658   0.493   3.396
 5799SOL    HW118296   0.663   0.485   3.296
 5799SOL    HW218297   0.751   0.487   3.434
 5800SOL     OW18298   6.250   6.055   1.973
 5800SOL    HW118299   6.212   6.118   1.905
 5800SOL    HW218300   6.305   5.986   1.928
 5801SOL     OW18301   2.138   2.604   3.347
 5801SOL    HW118302   2.111   2.508   3.334
 5801SOL    HW218303   2.234   2.609   3.373
 5802SOL     OW18304   1.006   3.851   2.373
 5802SOL    HW118305   1.072   3.908   2.422
 5802SOL    HW218306   0.991   3.767   2.425
 5803SOL     OW18307   2.531   5.275   2.341
 5803SOL    HW118308   2.509   5.329   2.422
 5803SOL    HW218309   2.457   5.284   2.274
 5804SOL     OW18310   0.641   5.680   3.696
 5804SOL    HW118311   0.665   5.767   3.652
 5804SOL    HW218312   0.630   5.694   3.795
 5805SOL     OW18313   2.348   3.465   0.043
 5805SOL    HW118314   2.265   3.467   0.098
 5805SOL    HW218315   2.327   3.492   6.972
 5806SOL     OW18316   6.849   5.269   4.777
 5806SOL    HW118317   6.897   5.190   4.814
 5806SOL    HW218318   6.866   5.275   4.679
 5807SOL     OW18319   0.672   4.101   2.060
 5807SOL    HW118320   0.701   4.186   2.017
 5807SOL    HW218321   0.667   4.029   1.991
 5808SOL     OW18322   5.825   5.943   4.890
 5808SOL    HW118323   5.871   6.014   4.943
 5808SOL    HW218324   5.865   5.938   4.799
 5809SOL     OW18325   5.713   2.040   4.349
 5809SOL    HW118326   5.758   1.950   4.348
 5809SOL    HW218327   5.618   2.030   4.319
 5810SOL     OW18328   3.994   1.627   4.837
 5810SOL    HW118329   4.014   1.623   4.936
 5810SOL    HW218330   4.001   1.535   4.799
 5811SOL     OW18331   3.318   1.183   4.997
 5811SOL    HW118332   3.298   1.262   4.939
 5811SOL    HW218333   3.292   1.099   4.950
 5812SOL     OW18334   6.324   2.647   4.228
 5812SOL    HW118335   6.349   2.625   4.322
 5812SOL    HW218336   6.406   2.673   4.177
 5813SOL     OW18337   1.826   2.360   0.918
 5813SOL    HW118338   1.839   2.265   0.892
 5813SOL    HW218339   1.886   2.419   0.864
 5814SOL     OW18340   6.206   4.585   1.664
 5814SOL    HW118341   6.208   4.646   1.744
 5814SOL    HW218342   6.299   4.562   1.637
 5815SOL     OW18343   3.858   1.955   4.092
 5815SOL    HW118344   3.780   1.986   4.147
 5815SOL    HW218345   3.836   1.966   3.995
 5816SOL     OW18346   4.355   5.179   0.143
 5816SOL    HW118347   4.320   5.271   0.121
 5816SOL    HW218348   4.331   5.116   0.069
 5817SOL     OW18349   5.498   3.664   5.937
 5817SOL    HW118350   5.575   3.636   5.994
 5817SOL    HW218351   5.468   3.756   5.963
 5818SOL     OW18352   6.410   6.097   4.715
 5818SOL    HW118353   6.374   6.034   4.784
 5818SOL    HW218354   6.494   6.140   4.751
 5819SOL     OW18355   3.392   6.722   6.577
 5819SOL    HW118356   3.468   6.726   6.512
 5819SOL    HW218357   3.398   6.638   6.630
 5820SOL     OW18358   4.375   5.325   3.802
 5820SOL    HW118359   4.424   5.379   3.733
 5820SOL    HW218360   4.364   5.379   3.885
 5821SOL     OW18361   0.231   6.707   1.456
 5821SOL    HW118362   0.291   6.636   1.494
 5821SOL    HW218363   0.138   6.693   1.490
 5822SOL     OW18364   1.674   2.526   1.543
 5822SOL    HW118365   1.615   2.506   1.621
 5822SOL    HW218366   1.768   2.538   1.575
 5823SOL     OW18367   2.074   0.863   5.819
 5823SOL    HW118368   2.099   0.939   5.759
 5823SOL    HW218369   2.000   0.811   5.778
 5824SOL     OW18370   6.552   5.538   2.289
 5824SOL    HW118371   6.649   5.555   2.273
 5824SOL    HW218372   6.533   5.545   2.386
 5825SOL     OW18373   1.187   1.827   5.529
 5825SOL    HW118374   1.274   1.849   5.573
 5825SOL    HW218375   1.120   1.800   5.598
 5826SOL     OW18376   6.735   5.138   5.741
 5826SOL    HW118377   6.805   5.068   5.749
 5826SOL    HW218378   6.774   5.220   5.699
 5827SOL     OW18379   2.189   4.451   5.276
 5827SOL    HW118380   2.107   4.490   5.233
 5827SOL    HW218381   2.198   4.355   5.249
 5828SOL     OW18382   6.236   1.941   1.200
 5828SOL    HW118383   6.308   1.997   1.160
 5828SOL    HW218384   6.274   1.883   1.272
 5829SOL     OW18385   1.321   0.744   3.232
 5829SOL    HW118386   1.272   0.657   3.221
 5829SOL    HW218387   1.370   0.765   3.147
 5830SOL     OW18388   5.102   6.653   5.767
 5830SOL    HW118389   5.003   6.670   5.767
 5830SOL    HW218390   5.148   6.723   5.712
 5831SOL     OW18391   0.881   1.145   5.154
 5831SOL    HW118392   0.809   1.154   5.086
 5831SOL    HW218393   0.879   1.052   5.193
 5832SOL     OW18394   2.953   4.777   6.861
 5832SOL    HW118395   2.960   4.761   6.763
 5832SOL    HW218396   2.941   4.689   6.909
 5833SOL     OW18397   3.207   3.390   4.644
 5833SOL    HW118398   3.232   3.486   4.657
 5833SOL    HW218399   3.265   3.350   4.573
 5834SOL     OW18400   0.117   3.214   6.782
 5834SOL    HW118401   0.191   3.172   6.728
 5834SOL    HW218402   0.037   3.156   6.780
 5835SOL     OW18403   5.175   3.044   3.827
 5835SOL    HW118404   5.250   2.979   3.840
 5835SOL    HW218405   5.163   3.062   3.729
 5836SOL     OW18406   2.723   6.552   2.314
 5836SOL    HW118407   2.729   6.467   2.262
 5836SOL    HW218408   2.681   6.623   2.258
 5837SOL     OW18409   4.050   3.874   5.944
 5837SOL    HW118410   3.952   3.894   5.941
 5837SOL    HW218411   4.072   3.804   5.876
 5838SOL     OW18412   2.620   2.393   0.684
 5838SOL    HW118413   2.659   2.333   0.614
 5838SOL    HW218414   2.647   2.360   0.774
 5839SOL     OW18415   0.682   1.696   2.179
 5839SOL    HW118416   0.686   1.780   2.125
 5839SOL    HW218417   0.750   1.631   2.146
 5840SOL     OW18418   0.367   5.273   6.156
 5840SOL    HW118419   0.376   5.313   6.247
 5840SOL    HW218420   0.429   5.195   6.147
 5841SOL     OW18421   5.150   1.873   2.609
 5841SOL    HW118422   5.064   1.923   2.610
 5841SOL    HW218423   5.219   1.925   2.659
 5842SOL     OW18424   4.561   3.220   1.444
 5842SOL    HW118425   4.485   3.160   1.421
 5842SOL    HW218426   4.576   3.217   1.543
 5843SOL     OW18427   1.953   3.998   3.036
 5843SOL    HW118428   1.920   3.983   2.943
 5843SOL    HW218429   1.882   3.970   3.101
 5844SOL     OW18430   2.045   6.364   5.723
 5844SOL    HW118431   2.066   6.383   5.819
 5844SOL    HW218432   1.973   6.426   5.691
 5845SOL     OW18433   0.247   0.648   2.188
 5845SOL    HW118434   0.159   0.627   2.231
 5845SOL    HW218435   0.281   0.735   2.223
 5846SOL     OW18436   6.956   2.887   4.710
 5846SOL    HW118437   6.918   2.949   4.642
 5846SOL    HW218438   6.882   2.834   4.752
 5847SOL     OW18439   2.453   2.420   1.978
 5847SOL    HW118440   2.358   2.425   2.010
 5847SOL    HW218441   2.455   2.438   1.879
 5848SOL     OW18442   2.337   5.976   3.346
 5848SOL    HW118443   2.295   6.002   3.259
 5848SOL    HW218444   2.366   6.058   3.395
 5849SOL     OW18445   0.483   0.452   5.822
 5849SOL    HW118446   0.394   0.458   5.867
 5849SOL    HW218447   0.519   0.359   5.830
 5850SOL     OW18448   6.902   3.068   1.973
 5850SOL    HW118449   6.806   3.054   1.950
 5850SOL    HW218450   6.959   3.046   1.894
 5851SOL     OW18451   4.855   3.866   3.176
 5851SOL    HW118452   4.944   3.909   3.188
 5851SOL    HW218453   4.855   3.775   3.218
 5852SOL     OW18454   6.465   5.812   2.973
 5852SOL    HW118455   6.399   5.743   3.003
 5852SOL    HW218456   6.455   5.894   3.029
 5853SOL     OW18457   3.785   6.168   4.248
 5853SOL    HW118458   3.787   6.128   4.156
 5853SOL    HW218459   3.813   6.100   4.315
 5854SOL     OW18460   5.336   4.725   5.874
 5854SOL    HW118461   5.236   4.721   5.875
 5854SOL    HW218462   5.365   4.816   5.845
 5855SOL     OW18463   0.322   1.259   5.016
 5855SOL    HW118464   0.320   1.290   4.921
 5855SOL    HW218465   0.343   1.336   5.076
 5856SOL     OW18466   1.953   5.542   3.657
 5856SOL    HW118467   1.872   5.598   3.672
 5856SOL    HW218468   1.998   5.524   3.744
 5857SOL     OW18469   6.594   2.005   6.107
 5857SOL    HW118470   6.593   1.928   6.172
 5857SOL    HW218471   6.540   1.980   6.026
 5858SOL     OW18472   2.752   2.101   2.323
 5858SOL    HW118473   2.795   2.047   2.250
 5858SOL    HW218474   2.711   2.183   2.283
 5859SOL     OW18475   5.706   6.237   1.219
 5859SOL    HW118476   5.767   6.188   1.156
 5859SOL    HW218477   5.618   6.254   1.175
 5860SOL     OW18478   0.835   3.471   1.912
 5860SOL    HW118479   0.878   3.510   1.994
 5860SOL    HW218480   0.906   3.435   1.851
 5861SOL     OW18481   4.498   1.980   4.448
 5861SOL    HW118482   4.487   1.895   4.500
 5861SOL    HW218483   4.434   1.980   4.371
 5862SOL     OW18484   5.063   5.224   1.198
 5862SOL    HW118485   5.015   5.204   1.284
 5862SOL    HW218486   5.128   5.150   1.179
 5863SOL     OW18487   2.940   1.402   4.910
 5863SOL    HW118488   3.009   1.414   4.982
 5863SOL    HW218489   2.982   1.420   4.821
 5864SOL     OW18490   4.118   3.663   1.733
 5864SOL    HW118491   4.196   3.599   1.734
 5864SOL    HW218492   4.045   3.628   1.792
 5865SOL     OW18493   5.851   0.453   5.241
 5865SOL    HW118494   5.800   0.462   5.156
 5865SOL    HW218495   5.936   0.505   5.236
 5866SOL     OW18496   4.258   4.158   0.100
 5866SOL    HW118497   4.309   4.215   0.164
 5866SOL    HW218498   4.160   4.169   0.117
 5867SOL     OW18499   1.294   3.669   0.854
 5867SOL    HW118500   1.277   3.685   0.757
 5867SOL    HW218501   1.298   3.757   0.902
 5868SOL     OW18502   1.023   1.706   5.712
 5868SOL    HW118503   1.036   1.615   5.673
 5868SOL    HW218504   1.109   1.737   5.752
 5869SOL     OW18505   1.871   6.186   3.483
 5869SOL    HW118506   1.877   6.092   3.516
 5869SOL    HW218507   1.783   6.226   3.509
 5870SOL     OW18508   5.244   5.904   4.734
 5870SOL    HW118509   5.309   5.946   4.797
 5870SOL    HW218510   5.236   5.960   4.652
 5871SOL     OW18511   3.927   2.784   1.349
 5871SOL    HW118512   3.845   2.829   1.313
 5871SOL    HW218513   3.975   2.848   1.410
 5872SOL     OW18514   3.723   6.362   1.276
 5872SOL    HW118515   3.746   6.348   1.180
 5872SOL    HW218516   3.796   6.326   1.333
 5873SOL     OW18517   2.813   2.179   1.605
 5873SOL    HW118518   2.832   2.081   1.613
 5873SOL    HW218519   2.891   2.231   1.639
 5874SOL     OW18520   2.846   4.050   6.881
 5874SOL    HW118521   2.881   4.091   6.964
 5874SOL    HW218522   2.761   4.096   6.854
 5875SOL     OW18523   4.359   0.799   6.390
 5875SOL    HW118524   4.278   0.857   6.384
 5875SOL    HW218525   4.441   0.853   6.368
 5876SOL     OW18526   3.335   3.854   0.698
 5876SOL    HW118527   3.376   3.839   0.607
 5876SOL    HW218528   3.292   3.770   0.729
 5877SOL     OW18529   0.327   0.388   1.030
 5877SOL    HW118530   0.345   0.455   1.102
 5877SOL    HW218531   0.413   0.343   1.004
 5878SOL     OW18532   6.075   5.426   4.438
 5878SOL    HW118533   6.114   5.335   4.453
 5878SOL    HW218534   5.981   5.417   4.406
 5879SOL     OW18535   1.845   3.871   6.899
 5879SOL    HW118536   1.812   3.800   6.836
 5879SOL    HW218537   1.932   3.842   6.939
 5880SOL     OW18538   5.395   4.704   6.957
 5880SOL    HW118539   5.309   4.715   6.908
 5880SOL    HW218540   5.442   4.792   6.962
 5881SOL     OW18541   1.200   6.914   1.997
 5881SOL    HW118542   1.159   6.846   2.058
 5881SOL    HW218543   1.285   6.879   1.960
 5882SOL     OW18544   0.383   5.370   6.398
 5882SOL    HW118545   0.362   5.308   6.474
 5882SOL    HW218546   0.453   5.435   6.426
 5883SOL     OW18547   0.377   1.651   6.670
 5883SOL    HW118548   0.304   1.584   6.685
 5883SOL    HW218549   0.464   1.603   6.658
 5884SOL     OW18550   4.625   0.951   4.367
 5884SOL    HW118551   4.559   0.966   4.294
 5884SOL    HW218552   4.606   1.013   4.443
 5885SOL     OW18553   0.209   5.783   2.452
 5885SOL    HW118554   0.161   5.809   2.536
 5885SOL    HW218555   0.276   5.853   2.428
 5886SOL     OW18556   0.782   2.045   3.779
 5886SOL    HW118557   0.862   2.104   3.771
 5886SOL    HW218558   0.777   2.010   3.873
 5887SOL     OW18559   2.312   2.342   1.497
 5887SOL    HW118560   2.398   2.295   1.475
 5887SOL    HW218561   2.331   2.415   1.562
 5888SOL     OW18562   1.812   0.103   0.818
 5888SOL    HW118563   1.794   0.153   0.903
 5888SOL    HW218564   1.754   0.141   0.745
 5889SOL     OW18565   6.600   1.572   6.734
 5889SOL    HW118566   6.529   1.527   6.789
 5889SOL    HW218567   6.560   1.649   6.685
 5890SOL     OW18568   2.350   0.587   2.597
 5890SOL    HW118569   2.332   0.600   2.695
 5890SOL    HW218570   2.274   0.538   2.555
 5891SOL     OW18571   2.730   3.656   0.109
 5891SOL    HW118572   2.751   3.719   0.184
 5891SOL    HW218573   2.808   3.651   0.047
 5892SOL     OW18574   1.166   5.362   2.221
 5892SOL    HW118575   1.114   5.330   2.142
 5892SOL    HW218576   1.225   5.288   2.254
 5893SOL     OW18577   2.358   4.516   1.930
 5893SOL    HW118578   2.321   4.451   1.996
 5893SOL    HW218579   2.419   4.468   1.866
 5894SOL     OW18580   0.881   5.576   4.589
 5894SOL    HW118581   0.808   5.516   4.624
 5894SOL    HW218582   0.842   5.664   4.563
 5895SOL     OW18583   5.366   3.627   3.976
 5895SOL    HW118584   5.444   3.569   3.951
 5895SOL    HW218585   5.281   3.583   3.949
 5896SOL     OW18586   4.569   1.634   1.226
 5896SOL    HW118587   4.550   1.731   1.209
 5896SOL    HW218588   4.665   1.622   1.250
 5897SOL     OW18589   3.933   0.853   1.752
 5897SOL    HW118590   3.841   0.861   1.713
 5897SOL    HW218591   3.966   0.943   1.779
 5898SOL     OW18592   2.683   0.711   4.880
 5898SOL    HW118593   2.760   0.674   4.828
 5898SOL    HW218594   2.641   0.639   4.934
 5899SOL     OW18595   6.007   5.924   6.819
 5899SOL    HW118596   5.984   5.850   6.882
 5899SOL    HW218597   5.948   5.920   6.739
 5900SOL     OW18598   6.917   4.584   3.046
 5900SOL    HW118599   7.008   4.543   3.050
 5900SOL    HW218600   6.856   4.534   3.107
 5901SOL     OW18601   3.369   0.671   0.963
 5901SOL    HW118602   3.290   0.670   0.902
 5901SOL    HW218603   3.348   0.619   1.046
 5902SOL     OW18604   6.146   3.532   5.818
 5902SOL    HW118605   6.171   3.583   5.736
 5902SOL    HW218606   6.167   3.435   5.805
 5903SOL     OW18607   4.800   4.237   6.104
 5903SOL    HW118608   4.782   4.153   6.054
 5903SOL    HW218609   4.794   4.315   6.042
 5904SOL     OW18610   0.767   4.252   1.001
 5904SOL    HW118611   0.719   4.320   1.057
 5904SOL    HW218612   0.863   4.277   0.993
 5905SOL     OW18613   6.827   0.207   3.431
 5905SOL    HW118614   6.728   0.212   3.441
 5905SOL    HW218615   6.866   0.155   3.506
 5906SOL     OW18616   4.466   1.826   3.900
 5906SOL    HW118617   4.518   1.796   3.980
 5906SOL    HW218618   4.525   1.881   3.841
 5907SOL     OW18619   0.846   6.131   0.324
 5907SOL    HW118620   0.773   6.146   0.257
 5907SOL    HW218621   0.851   6.034   0.347
 5908SOL     OW18622   6.301   3.742   0.231
 5908SOL    HW118623   6.266   3.785   0.315
 5908SOL    HW218624   6.330   3.649   0.251
 5909SOL     OW18625   6.195   5.026   6.540
 5909SOL    HW118626   6.220   5.120   6.563
 5909SOL    HW218627   6.170   4.976   6.623
 5910SOL     OW18628   0.233   4.329   1.620
 5910SOL    HW118629   0.237   4.332   1.719
 5910SOL    HW218630   0.138   4.330   1.590
 5911SOL     OW18631   6.510   4.479   6.637
 5911SOL    HW118632   6.598   4.521   6.613
 5911SOL    HW218633   6.436   4.534   6.600
 5912SOL     OW18634   5.810   2.798   6.720
 5912SOL    HW118635   5.798   2.895   6.744
 5912SOL    HW218636   5.885   2.760   6.773
 5913SOL     OW18637   3.128   3.331   6.709
 5913SOL    HW118638   3.089   3.240   6.719
 5913SOL    HW218639   3.162   3.343   6.615
 5914SOL     OW18640   2.688   5.781   6.370
 5914SOL    HW118641   2.689   5.851   6.299
 5914SOL    HW218642   2.631   5.704   6.341
 5915SOL     OW18643   5.456   4.387   1.504
 5915SOL    HW118644   5.541   4.335   1.510
 5915SOL    HW218645   5.457   4.459   1.573
 5916SOL     OW18646   4.620   5.957   5.517
 5916SOL    HW118647   4.612   5.911   5.429
 5916SOL    HW218648   4.614   6.056   5.504
 5917SOL     OW18649   3.776   3.609   3.849
 5917SOL    HW118650   3.845   3.600   3.921
 5917SOL    HW218651   3.690   3.642   3.888
 5918SOL     OW18652   2.109   3.125   5.449
 5918SOL    HW118653   2.156   3.209   5.477
 5918SOL    HW218654   2.011   3.135   5.467
 5919SOL     OW18655   3.963   2.528   1.030
 5919SOL    HW118656   4.029   2.480   0.971
 5919SOL    HW218657   3.923   2.462   1.094
 5920SOL     OW18658   3.787   0.412   0.320
 5920SOL    HW118659   3.694   0.425   0.354
 5920SOL    HW218660   3.797   0.318   0.287
 5921SOL     OW18661   3.678   5.201   5.853
 5921SOL    HW118662   3.742   5.151   5.910
 5921SOL    HW218663   3.620   5.137   5.803
 5922SOL     OW18664   6.717   5.318   3.426
 5922SOL    HW118665   6.702   5.224   3.394
 5922SOL    HW218666   6.658   5.381   3.375
 5923SOL     OW18667   5.560   0.733   0.754
 5923SOL    HW118668   5.621   0.654   0.750
 5923SOL    HW218669   5.589   0.795   0.827
 5924SOL     OW18670   0.413   1.482   4.487
 5924SOL    HW118671   0.374   1.573   4.473
 5924SOL    HW218672   0.423   1.437   4.399
 5925SOL     OW18673   4.125   5.558   2.535
 5925SOL    HW118674   4.117   5.464   2.502
 5925SOL    HW218675   4.062   5.572   2.611
 5926SOL     OW18676   3.969   5.074   2.128
 5926SOL    HW118677   3.877   5.050   2.156
 5926SOL    HW218678   3.981   5.055   2.030
 5927SOL     OW18679   1.628   4.309   3.142
 5927SOL    HW118680   1.552   4.274   3.197
 5927SOL    HW218681   1.642   4.248   3.063
 5928SOL     OW18682   3.499   0.307   1.081
 5928SOL    HW118683   3.422   0.345   1.133
 5928SOL    HW218684   3.534   0.377   1.019
 5929SOL     OW18685   0.792   6.113   6.100
 5929SOL    HW118686   0.761   6.170   6.176
 5929SOL    HW218687   0.714   6.086   6.044
 5930SOL     OW18688   0.096   2.238   3.521
 5930SOL    HW118689   0.108   2.156   3.465
 5930SOL    HW218690   0.029   2.220   3.593
 5931SOL     OW18691   6.235   5.541   3.685
 5931SOL    HW118692   6.271   5.490   3.607
 5931SOL    HW218693   6.150   5.587   3.658
 5932SOL     OW18694   1.958   6.800   0.643
 5932SOL    HW118695   2.006   6.725   0.597
 5932SOL    HW218696   1.873   6.820   0.594
 5933SOL     OW18697   0.649   5.955   3.623
 5933SOL    HW118698   0.681   6.046   3.649
 5933SOL    HW218699   0.691   5.928   3.536
 5934SOL     OW18700   3.760   4.112   4.182
 5934SOL    HW118701   3.803   4.101   4.272
 5934SOL    HW218702   3.666   4.145   4.194
 5935SOL     OW18703   4.017   3.667   5.752
 5935SOL    HW118704   3.977   3.676   5.660
 5935SOL    HW218705   3.956   3.612   5.809
 5936SOL     OW18706   4.291   4.064   0.547
 5936SOL    HW118707   4.374   4.024   0.585
 5936SOL    HW218708   4.211   4.019   0.589
 5937SOL     OW18709   0.720   4.831   2.744
 5937SOL    HW118710   0.684   4.856   2.834
 5937SOL    HW218711   0.715   4.732   2.732
 5938SOL     OW18712   0.980   5.027   4.075
 5938SOL    HW118713   0.923   5.029   3.993
 5938SOL    HW218714   0.948   5.097   4.139
 5939SOL     OW18715   3.099   6.922   3.439
 5939SOL    HW118716   3.039   6.878   3.505
 5939SOL    HW218717   3.142   7.002   3.482
 5940SOL     OW18718   4.222   5.656   1.215
 5940SOL    HW118719   4.261   5.747   1.222
 5940SOL    HW218720   4.135   5.653   1.265
 5941SOL     OW18721   6.110   3.177   1.958
 5941SOL    HW118722   6.101   3.268   1.997
 5941SOL    HW218723   6.207   3.154   1.947
 5942SOL     OW18724   4.805   2.810   0.216
 5942SOL    HW118725   4.883   2.777   0.163
 5942SOL    HW218726   4.720   2.789   0.167
 5943SOL     OW18727   3.623   5.257   0.569
 5943SOL    HW118728   3.567   5.311   0.632
 5943SOL    HW218729   3.675   5.189   0.622
 5944SOL     OW18730   5.873   2.543   1.135
 5944SOL    HW118731   5.786   2.538   1.086
 5944SOL    HW218732   5.946   2.568   1.071
 5945SOL     OW18733   6.211   5.082   5.351
 5945SOL    HW118734   6.173   5.148   5.285
 5945SOL    HW218735   6.142   5.062   5.421
 5946SOL     OW18736   3.095   3.440   5.825
 5946SOL    HW118737   3.156   3.470   5.752
 5946SOL    HW218738   3.067   3.519   5.880
 5947SOL     OW18739   4.069   3.556   2.060
 5947SOL    HW118740   4.097   3.590   2.150
 5947SOL    HW218741   4.128   3.481   2.032
 5948SOL     OW18742   3.943   5.123   3.329
 5948SOL    HW118743   3.991   5.200   3.287
 5948SOL    HW218744   3.882   5.080   3.262
 5949SOL     OW18745   3.946   3.653   1.506
 5949SOL    HW118746   4.008   3.672   1.582
 5949SOL    HW218747   3.999   3.632   1.424
 5950SOL     OW18748   5.083   2.543   5.554
 5950SOL    HW118749   5.099   2.543   5.653
 5950SOL    HW218750   4.985   2.551   5.536
 5951SOL     OW18751   6.938   5.649   4.524
 5951SOL    HW118752   6.997   5.705   4.466
 5951SOL    HW218753   6.950   5.553   4.501
 5952SOL     OW18754   5.412   5.061   4.028
 5952SOL    HW118755   5.373   5.138   4.077
 5952SOL    HW218756   5.413   5.081   3.930
 5953SOL     OW18757   6.248   2.895   5.055
 5953SOL    HW118758   6.181   2.880   5.128
 5953SOL    HW218759   6.332   2.931   5.093
 5954SOL     OW18760   6.976   4.185   5.828
 5954SOL    HW118761   6.968   4.251   5.754
 5954SOL    HW218762   6.927   4.100   5.804
 5955SOL     OW18763   5.105   5.696   2.767
 5955SOL    HW118764   5.029   5.695   2.831
 5955SOL    HW218765   5.079   5.746   2.684
 5956SOL     OW18766   3.590   1.426   5.759
 5956SOL    HW118767   3.522   1.492   5.793
 5956SOL    HW218768   3.681   1.464   5.773
 5957SOL     OW18769   4.532   0.742   5.743
 5957SOL    HW118770   4.592   0.808   5.698
 5957SOL    HW218771   4.482   0.690   5.674
 5958SOL     OW18772   6.398   5.934   2.261
 5958SOL    HW118773   6.455   5.902   2.185
 5958SOL    HW218774   6.375   6.030   2.248
 5959SOL     OW18775   3.898   2.308   5.820
 5959SOL    HW118776   3.940   2.377   5.879
 5959SOL    HW218777   3.947   2.305   5.733
 5960SOL     OW18778   3.760   5.781   4.864
 5960SOL    HW118779   3.717   5.862   4.825
 5960SOL    HW218780   3.796   5.723   4.790
 5961SOL     OW18781   5.311   1.116   2.915
 5961SOL    HW118782   5.242   1.062   2.865
 5961SOL    HW218783   5.400   1.104   2.871
 5962SOL     OW18784   4.851   5.991   1.177
 5962SOL    HW118785   4.824   5.983   1.273
 5962SOL    HW218786   4.817   6.076   1.139
 5963SOL     OW18787   3.590   2.890   4.902
 5963SOL    HW118788   3.649   2.809   4.906
 5963SOL    HW218789   3.510   2.870   4.846
 5964SOL     OW18790   6.982   5.254   5.683
 5964SOL    HW118791   6.959   5.306   5.601
 5964SOL    HW218792   0.037   5.194   5.663
 5965SOL     OW18793   0.975   2.327   0.233
 5965SOL    HW118794   1.068   2.311   0.267
 5965SOL    HW218795   0.950   2.423   0.248
 5966SOL     OW18796   2.086   5.871   4.824
 5966SOL    HW118797   2.038   5.784   4.839
 5966SOL    HW218798   2.044   5.942   4.881
 5967SOL     OW18799   3.914   6.167   0.309
 5967SOL    HW118800   3.891   6.238   0.376
 5967SOL    HW218801   4.013   6.153   0.307
 5968SOL     OW18802   4.940   0.721   1.597
 5968SOL    HW118803   4.903   0.779   1.670
 5968SOL    HW218804   4.882   0.640   1.586
 5969SOL     OW18805   6.913   0.792   6.535
 5969SOL    HW118806   6.874   0.851   6.606
 5969SOL    HW218807   6.922   0.699   6.571
 5970SOL     OW18808   0.722   4.243   2.517
 5970SOL    HW118809   0.786   4.319   2.501
 5970SOL    HW218810   0.742   4.168   2.454
 5971SOL     OW18811   1.430   1.310   3.250
 5971SOL    HW118812   1.408   1.231   3.192
 5971SOL    HW218813   1.361   1.381   3.238
 5972SOL     OW18814   5.161   6.376   6.853
 5972SOL    HW118815   5.084   6.344   6.909
 5972SOL    HW218816   5.224   6.300   6.836
 5973SOL     OW18817   1.847   3.736   2.283
 5973SOL    HW118818   1.914   3.731   2.210
 5973SOL    HW218819   1.755   3.742   2.244
 5974SOL     OW18820   5.549   4.769   6.520
 5974SOL    HW118821   5.500   4.715   6.451
 5974SOL    HW218822   5.625   4.715   6.556
 5975SOL     OW18823   3.483   2.168   0.827
 5975SOL    HW118824   3.517   2.117   0.748
 5975SOL    HW218825   3.509   2.264   0.819
 5976SOL     OW18826   3.006   3.674   5.042
 5976SOL    HW118827   2.950   3.604   4.998
 5976SOL    HW218828   3.103   3.657   5.022
 5977SOL     OW18829   2.467   5.235   1.209
 5977SOL    HW118830   2.398   5.163   1.221
 5977SOL    HW218831   2.493   5.240   1.113
 5978SOL     OW18832   4.996   5.898   3.303
 5978SOL    HW118833   4.938   5.979   3.306
 5978SOL    HW218834   5.088   5.922   3.332
 5979SOL     OW18835   6.406   6.929   2.780
 5979SOL    HW118836   6.331   6.939   2.714
 5979SOL    HW218837   6.401   7.001   2.848
 5980SOL     OW18838   3.625   3.388   0.329
 5980SOL    HW118839   3.706   3.332   0.344
 5980SOL    HW218840   3.649   3.466   0.270
 5981SOL     OW18841   6.018   1.153   1.909
 5981SOL    HW118842   6.052   1.193   1.824
 5981SOL    HW218843   5.919   1.142   1.904
 5982SOL     OW18844   6.889   2.585   1.583
 5982SOL    HW118845   6.967   2.647   1.576
 5982SOL    HW218846   6.845   2.576   1.494
 5983SOL     OW18847   1.888   0.908   4.345
 5983SOL    HW118848   1.928   0.965   4.417
 5983SOL    HW218849   1.841   0.830   4.387
 5984SOL     OW18850   6.597   6.618   5.265
 5984SOL    HW118851   6.586   6.621   5.165
 5984SOL    HW218852   6.694   6.630   5.288
 5985SOL     OW18853   6.475   3.184   4.324
 5985SOL    HW118854   6.443   3.232   4.242
 5985SOL    HW218855   6.482   3.248   4.400
 5986SOL     OW18856   3.381   3.567   4.017
 5986SOL    HW118857   3.429   3.574   4.104
 5986SOL    HW218858   3.366   3.659   3.980
 5987SOL     OW18859   4.506   0.748   4.685
 5987SOL    HW118860   4.455   0.756   4.770
 5987SOL    HW218861   4.445   0.772   4.608
 5988SOL     OW18862   5.520   6.968   5.594
 5988SOL    HW118863   5.567   6.889   5.634
 5988SOL    HW218864   5.499   0.012   5.666
 5989SOL     OW18865   2.716   5.993   0.336
 5989SOL    HW118866   2.763   6.008   0.249
 5989SOL    HW218867   2.651   5.917   0.326
 5990SOL     OW18868   3.753   4.492   0.696
 5990SOL    HW118869   3.686   4.519   0.766
 5990SOL    HW218870   3.796   4.574   0.658
 5991SOL     OW18871   3.562   5.392   5.993
 5991SOL    HW118872   3.585   5.471   5.936
 5991SOL    HW218873   3.580   5.308   5.942
 5992SOL     OW18874   3.471   0.722   2.750
 5992SOL    HW118875   3.452   0.819   2.764
 5992SOL    HW218876   3.449   0.672   2.833
 5993SOL     OW18877   3.331   5.819   6.161
 5993SOL    HW118878   3.260   5.752   6.184
 5993SOL    HW218879   3.294   5.911   6.169
 5994SOL     OW18880   6.731   2.412   2.178
 5994SOL    HW118881   6.773   2.411   2.269
 5994SOL    HW218882   6.632   2.418   2.187
 5995SOL     OW18883   5.904   5.048   2.545
 5995SOL    HW118884   5.902   5.120   2.476
 5995SOL    HW218885   5.950   5.082   2.628
 5996SOL     OW18886   1.195   6.215   0.284
 5996SOL    HW118887   1.122   6.215   0.215
 5996SOL    HW218888   1.167   6.160   0.363
 5997SOL     OW18889   0.892   5.796   2.898
 5997SOL    HW118890   0.977   5.770   2.943
 5997SOL    HW218891   0.815   5.748   2.939
 5998SOL     OW18892   6.279   2.150   1.805
 5998SOL    HW118893   6.270   2.192   1.715
 5998SOL    HW218894   6.189   2.123   1.839
 5999SOL     OW18895   1.553   1.486   2.520
 5999SOL    HW118896   1.653   1.491   2.518
 5999SOL    HW218897   1.516   1.532   2.439
 6000SOL     OW18898   3.995   0.017   1.813
 6000SOL    HW118899   3.921   0.072   1.852
 6000SOL    HW218900   4.056   0.076   1.759
 6001SOL     OW18901   0.417   4.108   6.365
 6001SOL    HW118902   0.497   4.103   6.305
 6001SOL    HW218903   0.417   4.029   6.426
 6002SOL     OW18904   6.709   0.399   1.312
 6002SOL    HW118905   6.675   0.340   1.239
 6002SOL    HW218906   6.799   0.435   1.287
 6003SOL     OW18907   0.192   2.263   3.994
 6003SOL    HW118908   0.101   2.234   4.023
 6003SOL    HW218909   0.196   2.363   3.991
 6004SOL     OW18910   0.496   4.435   3.059
 6004SOL    HW118911   0.502   4.369   2.985
 6004SOL    HW218912   0.484   4.527   3.021
 6005SOL     OW18913   4.666   5.250   4.520
 6005SOL    HW118914   4.648   5.291   4.431
 6005SOL    HW218915   4.738   5.181   4.511
 6006SOL     OW18916   2.459   0.775   6.690
 6006SOL    HW118917   2.480   0.756   6.786
 6006SOL    HW218918   2.539   0.752   6.634
 6007SOL     OW18919   4.998   3.704   5.212
 6007SOL    HW118920   5.055   3.631   5.250
 6007SOL    HW218921   4.935   3.665   5.145
 6008SOL     OW18922   1.887   4.774   5.699
 6008SOL    HW118923   1.899   4.769   5.600
 6008SOL    HW218924   1.812   4.715   5.727
 6009SOL     OW18925   4.222   0.773   4.223
 6009SOL    HW118926   4.125   0.776   4.245
 6009SOL    HW218927   4.240   0.697   4.161
 6010SOL     OW18928   1.454   3.859   3.577
 6010SOL    HW118929   1.425   3.765   3.557
 6010SOL    HW218930   1.386   3.904   3.635
 6011SOL     OW18931   4.938   2.680   2.941
 6011SOL    HW118932   4.933   2.780   2.944
 6011SOL    HW218933   4.902   2.642   3.026
 6012SOL     OW18934   5.303   0.895   0.058
 6012SOL    HW118935   5.342   0.805   0.078
 6012SOL    HW218936   5.259   0.931   0.141
 6013SOL     OW18937   6.003   2.958   2.536
 6013SOL    HW118938   5.930   3.023   2.557
 6013SOL    HW218939   6.028   2.967   2.439
 6014SOL     OW18940   4.173   3.081   0.774
 6014SOL    HW118941   4.181   2.991   0.732
 6014SOL    HW218942   4.194   3.074   0.872
 6015SOL     OW18943   5.720   2.181   4.842
 6015SOL    HW118944   5.703   2.254   4.776
 6015SOL    HW218945   5.792   2.209   4.905
 6016SOL     OW18946   6.617   1.551   6.147
 6016SOL    HW118947   6.573   1.609   6.079
 6016SOL    HW218948   6.654   1.469   6.103
 6017SOL     OW18949   0.351   4.554   2.658
 6017SOL    HW118950   0.267   4.503   2.677
 6017SOL    HW218951   0.401   4.509   2.584
 6018SOL     OW18952   3.232   0.982   6.832
 6018SOL    HW118953   3.322   0.977   6.788
 6018SOL    HW218954   3.196   0.889   6.842
 6019SOL     OW18955   6.487   1.792   3.942
 6019SOL    HW118956   6.532   1.830   4.022
 6019SOL    HW218957   6.552   1.783   3.867
 6020SOL     OW18958   2.172   5.027   1.585
 6020SOL    HW118959   2.219   5.114   1.571
 6020SOL    HW218960   2.194   4.991   1.676
 6021SOL     OW18961   4.089   1.212   2.446
 6021SOL    HW118962   4.148   1.148   2.397
 6021SOL    HW218963   4.109   1.207   2.544
 6022SOL     OW18964   5.147   2.023   4.632
 6022SOL    HW118965   5.211   2.091   4.666
 6022SOL    HW218966   5.058   2.035   4.678
 6023SOL     OW18967   5.740   1.042   1.874
 6023SOL    HW118968   5.718   1.086   1.961
 6023SOL    HW218969   5.773   0.950   1.890
 6024SOL     OW18970   0.591   4.846   3.005
 6024SOL    HW118971   0.555   4.920   3.061
 6024SOL    HW218972   0.664   4.799   3.055
 6025SOL     OW18973   3.751   1.812   2.748
 6025SOL    HW118974   3.786   1.817   2.842
 6025SOL    HW218975   3.652   1.828   2.749
 6026SOL     OW18976   0.032   4.115   4.608
 6026SOL    HW118977   0.054   4.086   4.514
 6026SOL    HW218978   6.964   4.082   4.632
 6027SOL     OW18979   1.266   3.518   6.243
 6027SOL    HW118980   1.213   3.501   6.326
 6027SOL    HW218981   1.226   3.594   6.192
 6028SOL     OW18982   1.001   4.206   0.646
 6028SOL    HW118983   0.917   4.230   0.696
 6028SOL    HW218984   1.078   4.203   0.710
 6029SOL     OW18985   2.182   6.546   4.915
 6029SOL    HW118986   2.209   6.540   4.819
 6029SOL    HW218987   2.218   6.631   4.954
 6030SOL     OW18988   4.160   6.446   2.703
 6030SOL    HW118989   4.136   6.455   2.607
 6030SOL    HW218990   4.093   6.388   2.749
 6031SOL     OW18991   3.717   5.353   3.179
 6031SOL    HW118992   3.729   5.260   3.146
 6031SOL    HW218993   3.620   5.375   3.187
 6032SOL     OW18994   2.207   3.987   3.162
 6032SOL    HW118995   2.132   4.023   3.108
 6032SOL    HW218996   2.293   3.999   3.112
 6033SOL     OW18997   2.875   1.753   2.437
 6033SOL    HW118998   2.962   1.736   2.390
 6033SOL    HW218999   2.801   1.707   2.387
 6034SOL     OW19000   1.249   5.363   4.541
 6034SOL    HW119001   1.316   5.289   4.541
 6034SOL    HW219002   1.254   5.413   4.627
 6035SOL     OW19003   0.140   0.316   2.765
 6035SOL    HW119004   0.136   0.364   2.677
 6035SOL    HW219005   0.084   0.364   2.832
 6036SOL     OW19006   6.378   6.021   4.475
 6036SOL    HW119007   6.309   5.950   4.492
 6036SOL    HW219008   6.410   6.057   4.563
 6037SOL     OW19009   4.360   5.003   6.172
 6037SOL    HW119010   4.376   4.922   6.227
 6037SOL    HW219011   4.341   5.081   6.232
 6038SOL     OW19012   1.199   2.886   6.151
 6038SOL    HW119013   1.211   2.788   6.132
 6038SOL    HW219014   1.226   2.905   6.246
 6039SOL     OW19015   3.158   2.984   2.726
 6039SOL    HW119016   3.159   3.067   2.670
 6039SOL    HW219017   3.073   2.980   2.778
 6040SOL     OW19018   0.413   2.190   6.467
 6040SOL    HW119019   0.390   2.104   6.514
 6040SOL    HW219020   0.329   2.235   6.437
 6041SOL     OW19021   2.095   0.692   5.297
 6041SOL    HW119022   2.121   0.778   5.340
 6041SOL    HW219023   2.172   0.656   5.245
 6042SOL     OW19024   5.248   5.678   2.163
 6042SOL    HW119025   5.288   5.714   2.248
 6042SOL    HW219026   5.298   5.715   2.085
 6043SOL     OW19027   0.830   4.339   5.549
 6043SOL    HW119028   0.771   4.345   5.630
 6043SOL    HW219029   0.916   4.296   5.575
 6044SOL     OW19030   1.695   2.018   1.251
 6044SOL    HW119031   1.622   2.085   1.264
 6044SOL    HW219032   1.666   1.929   1.286
 6045SOL     OW19033   6.590   4.973   0.862
 6045SOL    HW119034   6.600   5.033   0.942
 6045SOL    HW219035   6.494   4.968   0.835
 6046SOL     OW19036   3.116   1.983   6.919
 6046SOL    HW119037   3.143   1.955   7.011
 6046SOL    HW219038   3.131   1.907   6.855
 6047SOL     OW19039   5.887   2.561   2.288
 6047SOL    HW119040   5.901   2.609   2.375
 6047SOL    HW219041   5.958   2.586   2.223
 6048SOL     OW19042   4.670   5.886   4.185
 6048SOL    HW119043   4.708   5.916   4.272
 6048SOL    HW219044   4.575   5.859   4.197
 6049SOL     OW19045   5.968   3.338   6.152
 6049SOL    HW119046   5.896   3.400   6.183
 6049SOL    HW219047   6.018   3.380   6.076
 6050SOL     OW19048   2.876   5.325   5.066
 6050SOL    HW119049   2.884   5.317   4.966
 6050SOL    HW219050   2.780   5.316   5.092
 6051SOL     OW19051   2.259   1.714   4.465
 6051SOL    HW119052   2.342   1.769   4.469
 6051SOL    HW219053   2.277   1.630   4.413
 6052SOL     OW19054   6.311   6.831   0.572
 6052SOL    HW119055   6.326   6.761   0.641
 6052SOL    HW219056   6.224   6.815   0.525
 6053SOL     OW19057   3.375   0.912   6.313
 6053SOL    HW119058   3.365   0.999   6.264
 6053SOL    HW219059   3.387   0.838   6.247
 6054SOL     OW19060   2.542   3.980   0.311
 6054SOL    HW119061   2.494   3.893   0.302
 6054SOL    HW219062   2.627   3.965   0.362
 6055SOL     OW19063   5.373   1.235   5.536
 6055SOL    HW119064   5.391   1.174   5.459
 6055SOL    HW219065   5.459   1.275   5.567
 6056SOL     OW19066   4.965   2.958   4.813
 6056SOL    HW119067   4.977   2.863   4.842
 6056SOL    HW219068   5.003   3.019   4.883
 6057SOL     OW19069   5.231   3.026   4.717
 6057SOL    HW119070   5.264   3.105   4.768
 6057SOL    HW219071   5.139   3.002   4.748
 6058SOL     OW19072   4.959   2.661   1.838
 6058SOL    HW119073   5.044   2.614   1.860
 6058SOL    HW219074   4.979   2.745   1.787
 6059SOL     OW19075   4.985   5.311   4.729
 6059SOL    HW119076   5.059   5.283   4.790
 6059SOL    HW219077   4.957   5.232   4.674
 6060SOL     OW19078   3.422   4.288   6.413
 6060SOL    HW119079   3.389   4.381   6.431
 6060SOL    HW219080   3.370   4.249   6.337
 6061SOL     OW19081   3.893   2.026   1.499
 6061SOL    HW119082   3.819   2.005   1.563
 6061SOL    HW219083   3.978   1.982   1.530
 6062SOL     OW19084   1.740   1.805   4.611
 6062SOL    HW119085   1.822   1.814   4.666
 6062SOL    HW219086   1.659   1.806   4.671
 6063SOL     OW19087   3.455   1.417   6.738
 6063SOL    HW119088   3.373   1.418   6.681
 6063SOL    HW219089   3.525   1.361   6.694
 6064SOL     OW19090   2.403   6.176   1.579
 6064SOL    HW119091   2.494   6.209   1.554
 6064SOL    HW219092   2.411   6.087   1.625
 6065SOL     OW19093   5.892   6.698   2.313
 6065SOL    HW119094   5.944   6.741   2.239
 6065SOL    HW219095   5.898   6.599   2.304
 6066SOL     OW19096   4.734   1.901   6.452
 6066SOL    HW119097   4.821   1.927   6.412
 6066SOL    HW219098   4.718   1.953   6.536
 6067SOL     OW19099   5.457   1.662   6.034
 6067SOL    HW119100   5.532   1.631   5.976
 6067SOL    HW219101   5.447   1.600   6.112
 6068SOL     OW19102   5.678   2.976   4.714
 6068SOL    HW119103   5.613   2.910   4.676
 6068SOL    HW219104   5.630   3.037   4.777
 6069SOL     OW19105   6.809   3.142   5.083
 6069SOL    HW119106   6.786   3.125   4.987
 6069SOL    HW219107   6.781   3.235   5.108
 6070SOL     OW19108   2.198   2.246   0.069
 6070SOL    HW119109   2.264   2.306   0.113
 6070SOL    HW219110   2.181   2.277   6.998
 6071SOL     OW19111   5.856   4.632   4.785
 6071SOL    HW119112   5.766   4.613   4.745
 6071SOL    HW219113   5.889   4.549   4.831
 6072SOL     OW19114   0.139   0.095   2.318
 6072SOL    HW119115   0.126   0.008   2.270
 6072SOL    HW219116   0.206   0.082   2.391
 6073SOL     OW19117   6.182   4.056   0.748
 6073SOL    HW119118   6.249   4.129   0.731
 6073SOL    HW219119   6.105   4.068   0.685
 6074SOL     OW19120   1.298   6.413   4.501
 6074SOL    HW119121   1.247   6.486   4.547
 6074SOL    HW219122   1.242   6.373   4.430
 6075SOL     OW19123   6.975   2.168   0.035
 6075SOL    HW119124   0.010   2.093   0.002
 6075SOL    HW219125   6.880   2.150   0.012
 6076SOL     OW19126   2.172   6.058   4.347
 6076SOL    HW119127   2.244   6.050   4.416
 6076SOL    HW219128   2.206   6.026   4.259
 6077SOL     OW19129   4.939   6.035   2.012
 6077SOL    HW119130   5.018   6.077   1.967
 6077SOL    HW219131   4.898   6.100   2.075
 6078SOL     OW19132   3.846   5.048   1.417
 6078SOL    HW119133   3.898   5.132   1.434
 6078SOL    HW219134   3.774   5.038   1.486
 6079SOL     OW19135   3.010   2.829   6.365
 6079SOL    HW119136   2.910   2.832   6.363
 6079SOL    HW219137   3.047   2.884   6.290
 6080SOL     OW19138   6.874   0.886   1.624
 6080SOL    HW119139   6.828   0.842   1.547
 6080SOL    HW219140   6.824   0.968   1.652
 6081SOL     OW19141   6.156   3.178   5.104
 6081SOL    HW119142   6.255   3.165   5.100
 6081SOL    HW219143   6.110   3.089   5.107
 6082SOL     OW19144   2.461   2.088   3.426
 6082SOL    HW119145   2.537   2.052   3.481
 6082SOL    HW219146   2.401   2.013   3.400
 6083SOL     OW19147   0.417   5.186   6.623
 6083SOL    HW119148   0.475   5.222   6.696
 6083SOL    HW219149   0.340   5.135   6.662
 6084SOL     OW19150   0.118   5.504   3.603
 6084SOL    HW119151   0.160   5.488   3.692
 6084SOL    HW219152   0.054   5.430   3.582
 6085SOL     OW19153   0.288   4.396   0.399
 6085SOL    HW119154   0.346   4.417   0.321
 6085SOL    HW219155   0.213   4.462   0.405
 6086SOL     OW19156   3.127   1.696   5.478
 6086SOL    HW119157   3.126   1.779   5.423
 6086SOL    HW219158   3.220   1.676   5.508
 6087SOL     OW19159   4.023   5.908   0.554
 6087SOL    HW119160   4.083   5.968   0.500
 6087SOL    HW219161   4.000   5.828   0.499
 6088SOL     OW19162   6.055   6.462   4.656
 6088SOL    HW119163   6.098   6.401   4.723
 6088SOL    HW219164   5.956   6.459   4.666
 6089SOL     OW19165   6.831   3.370   1.316
 6089SOL    HW119166   6.829   3.420   1.402
 6089SOL    HW219167   6.772   3.290   1.321
 6090SOL     OW19168   2.296   6.466   5.618
 6090SOL    HW119169   2.209   6.427   5.648
 6090SOL    HW219170   2.281   6.560   5.587
 6091SOL     OW19171   2.282   1.698   2.295
 6091SOL    HW119172   2.255   1.675   2.202
 6091SOL    HW219173   2.238   1.784   2.322
 6092SOL     OW19174   3.286   0.432   3.361
 6092SOL    HW119175   3.328   0.424   3.270
 6092SOL    HW219176   3.193   0.465   3.351
 6093SOL     OW19177   1.016   3.393   3.123
 6093SOL    HW119178   1.104   3.440   3.136
 6093SOL    HW219179   0.950   3.430   3.188
 6094SOL     OW19180   4.147   1.012   1.527
 6094SOL    HW119181   4.053   1.038   1.506
 6094SOL    HW219182   4.200   1.094   1.548
 6095SOL     OW19183   4.182   3.711   6.819
 6095SOL    HW119184   4.173   3.765   6.736
 6095SOL    HW219185   4.234   3.764   6.887
 6096SOL     OW19186   5.949   0.694   4.199
 6096SOL    HW119187   5.944   0.614   4.140
 6096SOL    HW219188   6.001   0.672   4.282
 6097SOL     OW19189   1.756   0.266   2.234
 6097SOL    HW119190   1.678   0.298   2.288
 6097SOL    HW219191   1.815   0.344   2.211
 6098SOL     OW19192   1.332   2.430   6.681
 6098SOL    HW119193   1.422   2.456   6.716
 6098SOL    HW219194   1.269   2.414   6.757
 6099SOL     OW19195   0.082   5.902   0.566
 6099SOL    HW119196   0.108   5.998   0.567
 6099SOL    HW219197   0.159   5.846   0.596
 6100SOL     OW19198   4.808   3.662   0.154
 6100SOL    HW119199   4.850   3.593   0.095
 6100SOL    HW219200   4.875   3.693   0.222
 6101SOL     OW19201   6.557   2.079   4.824
 6101SOL    HW119202   6.528   2.174   4.840
 6101SOL    HW219203   6.479   2.018   4.838
 6102SOL     OW19204   3.489   0.198   3.405
 6102SOL    HW119205   3.491   0.265   3.331
 6102SOL    HW219206   3.527   0.240   3.488
 6103SOL     OW19207   0.660   2.598   2.286
 6103SOL    HW119208   0.649   2.533   2.210
 6103SOL    HW219209   0.745   2.649   2.274
 6104SOL     OW19210   5.998   1.770   5.742
 6104SOL    HW119211   5.954   1.794   5.656
 6104SOL    HW219212   5.981   1.842   5.809
 6105SOL     OW19213   1.847   0.855   5.517
 6105SOL    HW119214   1.845   0.810   5.606
 6105SOL    HW219215   1.791   0.938   5.521
 6106SOL     OW19216   1.680   3.739   5.787
 6106SOL    HW119217   1.652   3.684   5.708
 6106SOL    HW219218   1.616   3.724   5.862
 6107SOL     OW19219   2.518   4.703   4.142
 6107SOL    HW119220   2.479   4.733   4.055
 6107SOL    HW219221   2.477   4.617   4.170
 6108SOL     OW19222   0.885   2.743   2.165
 6108SOL    HW119223   0.807   2.749   2.104
 6108SOL    HW219224   0.957   2.805   2.133
 6109SOL     OW19225   4.946   3.066   6.436
 6109SOL    HW119226   4.998   3.107   6.511
 6109SOL    HW219227   4.974   3.108   6.350
 6110SOL     OW19228   3.543   2.885   6.855
 6110SOL    HW119229   3.445   2.863   6.861
 6110SOL    HW219230   3.561   2.931   6.769
 6111SOL     OW19231   2.462   4.414   2.257
 6111SOL    HW119232   2.469   4.396   2.355
 6111SOL    HW219233   2.377   4.376   2.221
 6112SOL     OW19234   3.224   0.095   3.600
 6112SOL    HW119235   3.181   0.155   3.667
 6112SOL    HW219236   3.259   0.150   3.524
 6113SOL     OW19237   0.975   1.291   5.586
 6113SOL    HW119238   0.978   1.299   5.685
 6113SOL    HW219239   0.997   1.379   5.544
 6114SOL     OW19240   4.792   5.109   0.909
 6114SOL    HW119241   4.828   5.126   1.001
 6114SOL    HW219242   4.744   5.190   0.877
 6115SOL     OW19243   5.279   6.842   3.637
 6115SOL    HW119244   5.272   6.860   3.735
 6115SOL    HW219245   5.342   6.909   3.596
 6116SOL     OW19246   2.670   0.776   0.210
 6116SOL    HW119247   2.645   0.821   0.295
 6116SOL    HW219248   2.590   0.729   0.172
 6117SOL     OW19249   0.006   0.627   5.846
 6117SOL    HW119250   6.982   0.572   5.914
 6117SOL    HW219251   0.056   0.568   5.783
 6118SOL     OW19252   6.441   0.924   1.524
 6118SOL    HW119253   6.363   0.876   1.485
 6118SOL    HW219254   6.470   0.879   1.609
 6119SOL     OW19255   0.290   3.651   5.101
 6119SOL    HW119256   0.241   3.730   5.139
 6119SOL    HW219257   0.355   3.617   5.169
 6120SOL     OW19258   4.537   6.914   3.886
 6120SOL    HW119259   4.606   6.941   3.953
 6120SOL    HW219260   4.482   6.993   3.861
 6121SOL     OW19261   0.468   3.389   4.810
 6121SOL    HW119262   0.560   3.401   4.771
 6121SOL    HW219263   0.421   3.477   4.810
 6122SOL     OW19264   3.808   0.012   1.584
 6122SOL    HW119265   3.804   0.063   1.670
 6122SOL    HW219266   3.898   6.993   1.574
 6123SOL     OW19267   6.975   0.265   6.619
 6123SOL    HW119268   0.033   0.216   6.652
 6123SOL    HW219269   6.907   0.198   6.587
 6124SOL     OW19270   1.738   1.225   0.282
 6124SOL    HW119271   1.664   1.183   0.335
 6124SOL    HW219272   1.762   1.313   0.321
 6125SOL     OW19273   2.546   5.769   0.258
 6125SOL    HW119274   2.616   5.727   0.200
 6125SOL    HW219275   2.474   5.808   0.201
 6126SOL     OW19276   6.816   6.467   4.290
 6126SOL    HW119277   6.768   6.388   4.252
 6126SOL    HW219278   6.897   6.487   4.234
 6127SOL     OW19279   2.658   0.302   2.180
 6127SOL    HW119280   2.753   0.286   2.151
 6127SOL    HW219281   2.657   0.324   2.277
 6128SOL     OW19282   6.101   3.385   0.204
 6128SOL    HW119283   6.053   3.467   0.174
 6128SOL    HW219284   6.076   3.364   0.299
 6129SOL     OW19285   6.572   3.932   3.064
 6129SOL    HW119286   6.660   3.949   3.107
 6129SOL    HW219287   6.587   3.895   2.972
 6130SOL     OW19288   6.256   2.088   4.210
 6130SOL    HW119289   6.304   2.127   4.131
 6130SOL    HW219290   6.201   2.159   4.253
 6131SOL     OW19291   6.772   1.734   5.317
 6131SOL    HW119292   6.867   1.725   5.346
 6131SOL    HW219293   6.744   1.650   5.271
 6132SOL     OW19294   4.801   1.137   0.324
 6132SOL    HW119295   4.842   1.154   0.414
 6132SOL    HW219296   4.785   1.225   0.278
 6133SOL     OW19297   0.792   2.525   2.526
 6133SOL    HW119298   0.731   2.541   2.449
 6133SOL    HW219299   0.884   2.507   2.493
 6134SOL     OW19300   3.933   4.427   6.629
 6134SOL    HW119301   3.886   4.339   6.635
 6134SOL    HW219302   3.999   4.434   6.704
 6135SOL     OW19303   0.355   0.148   1.698
 6135SOL    HW119304   0.262   0.166   1.665
 6135SOL    HW219305   0.358   0.159   1.797
 6136SOL     OW19306   0.918   2.487   2.259
 6136SOL    HW119307   1.009   2.444   2.260
 6136SOL    HW219308   0.928   2.586   2.246
 6137SOL     OW19309   5.817   1.964   4.026
 6137SOL    HW119310   5.891   1.908   4.061
 6137SOL    HW219311   5.855   2.040   3.972
 6138SOL     OW19312   4.321   6.193   1.922
 6138SOL    HW119313   4.417   6.173   1.939
 6138SOL    HW219314   4.303   6.290   1.938
 6139SOL     OW19315   2.540   2.092   5.571
 6139SOL    HW119316   2.540   2.192   5.560
 6139SOL    HW219317   2.447   2.061   5.590
 6140SOL     OW19318   0.551   6.048   1.771
 6140SOL    HW119319   0.482   6.063   1.842
 6140SOL    HW219320   0.640   6.079   1.805
 6141SOL     OW19321   5.803   5.921   6.072
 6141SOL    HW119322   5.718   5.928   6.124
 6141SOL    HW219323   5.808   5.996   6.005
 6142SOL     OW19324   6.856   5.316   0.877
 6142SOL    HW119325   6.759   5.338   0.870
 6142SOL    HW219326   6.879   5.245   0.810
 6143SOL     OW19327   6.183   4.691   0.638
 6143SOL    HW119328   6.267   4.664   0.591
 6143SOL    HW219329   6.205   4.752   0.714
 6144SOL     OW19330   6.117   4.824   2.884
 6144SOL    HW119331   6.077   4.873   2.962
 6144SOL    HW219332   6.136   4.888   2.810
 6145SOL     OW19333   4.860   5.524   4.278
 6145SOL    HW119334   4.851   5.588   4.354
 6145SOL    HW219335   4.786   5.457   4.281
 6146SOL     OW19336   3.486   0.526   3.766
 6146SOL    HW119337   3.387   0.511   3.770
 6146SOL    HW219338   3.529   0.454   3.712
 6147SOL     OW19339   1.461   4.101   4.238
 6147SOL    HW119340   1.553   4.095   4.199
 6147SOL    HW219341   1.457   4.047   4.322
 6148SOL     OW19342   0.040   6.929   4.911
 6148SOL    HW119343   6.997   6.891   4.847
 6148SOL    HW219344   7.017   6.996   4.970
 6149SOL     OW19345   3.731   5.127   1.821
 6149SOL    HW119346   3.821   5.096   1.851
 6149SOL    HW219347   3.725   5.227   1.831
 6150SOL     OW19348   3.925   4.708   6.665
 6150SOL    HW119349   3.923   4.608   6.663
 6150SOL    HW219350   3.869   4.741   6.741
 6151SOL     OW19351   6.177   3.668   5.572
 6151SOL    HW119352   6.214   3.750   5.616
 6151SOL    HW219353   6.142   3.692   5.482
 6152SOL     OW19354   5.785   5.522   5.290
 6152SOL    HW119355   5.743   5.479   5.370
 6152SOL    HW219356   5.822   5.611   5.316
 6153SOL     OW19357   4.851   3.559   1.808
 6153SOL    HW119358   4.755   3.585   1.812
 6153SOL    HW219359   4.888   3.554   1.901
 6154SOL     OW19360   6.120   1.719   2.869
 6154SOL    HW119361   6.155   1.772   2.947
 6154SOL    HW219362   6.072   1.780   2.806
 6155SOL     OW19363   1.879   2.112   4.184
 6155SOL    HW119364   1.976   2.095   4.202
 6155SOL    HW219365   1.827   2.107   4.269
 6156SOL     OW19366   4.548   5.111   2.376
 6156SOL    HW119367   4.553   5.035   2.441
 6156SOL    HW219368   4.527   5.196   2.426
 6157SOL     OW19369   1.526   1.584   4.166
 6157SOL    HW119370   1.583   1.503   4.152
 6157SOL    HW219371   1.475   1.605   4.083
 6158SOL     OW19372   4.399   0.992   5.704
 6158SOL    HW119373   4.411   0.893   5.716
 6158SOL    HW219374   4.450   1.040   5.776
 6159SOL     OW19375   4.948   2.245   1.545
 6159SOL    HW119376   4.881   2.231   1.618
 6159SOL    HW219377   4.958   2.343   1.527
 6160SOL     OW19378   4.431   6.641   6.329
 6160SOL    HW119379   4.438   6.703   6.407
 6160SOL    HW219380   4.384   6.688   6.254
 6161SOL     OW19381   6.104   1.643   5.288
 6161SOL    HW119382   6.045   1.599   5.220
 6161SOL    HW219383   6.195   1.658   5.249
 6162SOL     OW19384   1.433   6.339   3.602
 6162SOL    HW119385   1.421   6.398   3.522
 6162SOL    HW219386   1.392   6.383   3.682
 6163SOL     OW19387   5.612   6.043   1.414
 6163SOL    HW119388   5.662   6.119   1.373
 6163SOL    HW219389   5.676   5.987   1.468
 6164SOL     OW19390   3.037   3.066   1.548
 6164SOL    HW119391   2.992   2.985   1.586
 6164SOL    HW219392   3.047   3.056   1.449
 6165SOL     OW19393   4.791   0.207   6.474
 6165SOL    HW119394   4.712   0.197   6.413
 6165SOL    HW219395   4.773   0.159   6.560
 6166SOL     OW19396   4.111   0.443   6.235
 6166SOL    HW119397   4.175   0.508   6.194
 6166SOL    HW219398   4.031   0.492   6.269
 6167SOL     OW19399   1.289   4.171   3.004
 6167SOL    HW119400   1.353   4.174   3.081
 6167SOL    HW219401   1.304   4.087   2.952
 6168SOL     OW19402   0.654   3.152   1.271
 6168SOL    HW119403   0.653   3.226   1.203
 6168SOL    HW219404   0.560   3.131   1.299
 6169SOL     OW19405   1.425   3.212   1.391
 6169SOL    HW119406   1.458   3.123   1.358
 6169SOL    HW219407   1.495   3.282   1.373
 6170SOL     OW19408   1.040   3.852   5.459
 6170SOL    HW119409   1.040   3.889   5.366
 6170SOL    HW219410   1.031   3.927   5.524
 6171SOL     OW19411   0.680   2.535   0.484
 6171SOL    HW119412   0.680   2.503   0.579
 6171SOL    HW219413   0.665   2.458   0.422
 6172SOL     OW19414   1.468   2.822   2.455
 6172SOL    HW119415   1.553   2.874   2.444
 6172SOL    HW219416   1.431   2.800   2.365
 6173SOL     OW19417   6.518   5.142   2.823
 6173SOL    HW119418   6.457   5.194   2.882
 6173SOL    HW219419   6.550   5.060   2.871
 6174SOL     OW19420   5.651   6.014   3.898
 6174SOL    HW119421   5.639   6.083   3.826
 6174SOL    HW219422   5.749   5.997   3.910
 6175SOL     OW19423   4.286   0.583   3.964
 6175SOL    HW119424   4.327   0.593   3.873
 6175SOL    HW219425   4.216   0.511   3.960
 6176SOL     OW19426   5.658   3.949   5.761
 6176SOL    HW119427   5.667   3.969   5.858
 6176SOL    HW219428   5.572   3.900   5.745
 6177SOL     OW19429   5.893   1.621   1.885
 6177SOL    HW119430   5.849   1.691   1.827
 6177SOL    HW219431   5.954   1.566   1.828
 6178SOL     OW19432   5.310   5.130   1.984
 6178SOL    HW119433   5.332   5.157   2.078
 6178SOL    HW219434   5.340   5.036   1.969
 6179SOL     OW19435   6.770   4.765   2.875
 6179SOL    HW119436   6.818   4.710   2.943
 6179SOL    HW219437   6.834   4.798   2.806
 6180SOL     OW19438   2.690   4.919   0.909
 6180SOL    HW119439   2.756   4.964   0.848
 6180SOL    HW219440   2.736   4.849   0.963
 6181SOL     OW19441   4.887   6.516   6.003
 6181SOL    HW119442   4.879   6.417   5.997
 6181SOL    HW219443   4.866   6.557   5.914
 6182SOL     OW19444   4.176   2.935   6.171
 6182SOL    HW119445   4.220   2.906   6.256
 6182SOL    HW219446   4.078   2.915   6.175
 6183SOL     OW19447   1.769   2.107   3.112
 6183SOL    HW119448   1.808   2.199   3.112
 6183SOL    HW219449   1.703   2.099   3.187
 6184SOL     OW19450   3.109   6.574   6.340
 6184SOL    HW119451   3.150   6.663   6.360
 6184SOL    HW219452   3.024   6.587   6.289
 6185SOL     OW19453   0.437   3.849   6.470
 6185SOL    HW119454   0.528   3.809   6.480
 6185SOL    HW219455   0.387   3.839   6.556
 6186SOL     OW19456   5.760   1.078   0.563
 6186SOL    HW119457   5.715   1.105   0.478
 6186SOL    HW219458   5.702   1.103   0.641
 6187SOL     OW19459   5.185   2.877   4.133
 6187SOL    HW119460   5.208   2.933   4.213
 6187SOL    HW219461   5.183   2.781   4.159
 6188SOL     OW19462   1.771   1.725   6.213
 6188SOL    HW119463   1.729   1.816   6.219
 6188SOL    HW219464   1.782   1.687   6.305
 6189SOL     OW19465   4.009   4.783   3.028
 6189SOL    HW119466   4.076   4.738   3.087
 6189SOL    HW219467   3.936   4.823   3.083
 6190SOL     OW19468   0.122   3.895   4.847
 6190SOL    HW119469   0.207   3.939   4.875
 6190SOL    HW219470   0.100   3.921   4.753
 6191SOL     OW19471   2.719   2.762   6.365
 6191SOL    HW119472   2.632   2.749   6.319
 6191SOL    HW219473   2.707   2.748   6.464
 6192SOL     OW19474   2.625   2.069   6.518
 6192SOL    HW119475   2.707   2.014   6.500
 6192SOL    HW219476   2.545   2.009   6.525
 6193SOL     OW19477   4.541   6.037   1.285
 6193SOL    HW119478   4.447   6.004   1.295
 6193SOL    HW219479   4.562   6.048   1.188
 6194SOL     OW19480   6.836   0.417   6.387
 6194SOL    HW119481   6.887   0.384   6.466
 6194SOL    HW219482   6.832   0.346   6.318
 6195SOL     OW19483   5.089   6.088   4.043
 6195SOL    HW119484   5.158   6.136   3.989
 6195SOL    HW219485   5.012   6.064   3.984
 6196SOL     OW19486   5.042   4.007   2.556
 6196SOL    HW119487   5.111   4.070   2.520
 6196SOL    HW219488   4.964   4.003   2.492
 6197SOL     OW19489   2.248   5.676   1.845
 6197SOL    HW119490   2.225   5.639   1.755
 6197SOL    HW219491   2.346   5.665   1.862
 6198SOL     OW19492   4.654   7.004   0.892
 6198SOL    HW119493   4.670   0.060   0.951
 6198SOL    HW219494   4.730   6.939   0.903
 6199SOL     OW19495   0.251   0.834   0.398
 6199SOL    HW119496   0.153   0.814   0.394
 6199SOL    HW219497   0.284   0.859   0.307
 6200SOL     OW19498   0.759   1.687   5.260
 6200SOL    HW119499   0.853   1.675   5.228
 6200SOL    HW219500   0.731   1.782   5.246
 6201SOL     OW19501   0.462   3.339   5.415
 6201SOL    HW119502   0.532   3.357   5.345
 6201SOL    HW219503   0.486   3.386   5.499
 6202SOL     OW19504   5.024   0.998   2.174
 6202SOL    HW119505   4.938   0.998   2.225
 6202SOL    HW219506   5.024   0.922   2.110
 6203SOL     OW19507   6.070   5.959   2.191
 6203SOL    HW119508   6.118   5.988   2.109
 6203SOL    HW219509   6.009   6.032   2.222
 6204SOL     OW19510   1.175   5.894   5.017
 6204SOL    HW119511   1.093   5.866   5.066
 6204SOL    HW219512   1.220   5.814   4.977
 6205SOL     OW19513   6.297   4.717   1.204
 6205SOL    HW119514   6.214   4.698   1.256
 6205SOL    HW219515   6.374   4.731   1.266
 6206SOL     OW19516   6.187   1.565   2.097
 6206SOL    HW119517   6.126   1.488   2.114
 6206SOL    HW219518   6.144   1.628   2.032
 6207SOL     OW19519   2.379   6.295   5.427
 6207SOL    HW119520   2.366   6.197   5.415
 6207SOL    HW219521   2.326   6.326   5.506
 6208SOL     OW19522   3.751   2.219   5.210
 6208SOL    HW119523   3.719   2.165   5.287
 6208SOL    HW219524   3.731   2.170   5.125
 6209SOL     OW19525   3.155   5.959   0.098
 6209SOL    HW119526   3.202   5.912   0.025
 6209SOL    HW219527   3.178   6.056   0.096
 6210SOL     OW19528   4.726   4.096   2.965
 6210SOL    HW119529   4.793   4.117   2.894
 6210SOL    HW219530   4.768   4.037   3.034
 6211SOL     OW19531   3.118   6.504   5.325
 6211SOL    HW119532   3.067   6.569   5.269
 6211SOL    HW219533   3.202   6.547   5.357
 6212SOL     OW19534   2.395   4.899   4.292
 6212SOL    HW119535   2.445   4.982   4.314
 6212SOL    HW219536   2.440   4.850   4.218
 6213SOL     OW19537   4.405   7.018   0.278
 6213SOL    HW119538   4.308   6.995   0.273
 6213SOL    HW219539   4.446   6.969   0.355
 6214SOL     OW19540   5.738   5.885   5.554
 6214SOL    HW119541   5.710   5.981   5.560
 6214SOL    HW219542   5.763   5.852   5.645
 6215SOL     OW19543   3.211   2.893   6.872
 6215SOL    HW119544   3.170   2.818   6.924
 6215SOL    HW219545   3.144   2.930   6.808
 6216SOL     OW19546   5.997   2.004   1.945
 6216SOL    HW119547   5.907   2.047   1.949
 6216SOL    HW219548   6.046   2.021   2.030
 6217SOL     OW19549   0.836   4.433   2.898
 6217SOL    HW119550   0.872   4.465   2.985
 6217SOL    HW219551   0.792   4.344   2.911
 6218SOL     OW19552   3.623   0.178   0.036
 6218SOL    HW119553   3.657   0.104   7.001
 6218SOL    HW219554   3.623   0.148   0.132
 6219SOL     OW19555   1.439   1.225   4.837
 6219SOL    HW119556   1.354   1.221   4.785
 6219SOL    HW219557   1.436   1.157   4.910
 6220SOL     OW19558   3.197   1.288   5.481
 6220SOL    HW119559   3.217   1.201   5.436
 6220SOL    HW219560   3.283   1.335   5.502
 6221SOL     OW19561   5.959   0.103   0.013
 6221SOL    HW119562   5.985   0.178   6.975
 6221SOL    HW219563   6.015   0.107   0.096
 6222SOL     OW19564   0.598   0.701   2.545
 6222SOL    HW119565   0.559   0.625   2.493
 6222SOL    HW219566   0.649   0.665   2.623
 6223SOL     OW19567   1.671   5.204   3.093
 6223SOL    HW119568   1.654   5.244   3.183
 6223SOL    HW219569   1.676   5.278   3.025
 6224SOL     OW19570   3.576   1.113   5.783
 6224SOL    HW119571   3.563   1.212   5.783
 6224SOL    HW219572   3.661   1.090   5.736
 6225SOL     OW19573   3.817   2.406   6.699
 6225SOL    HW119574   3.799   2.341   6.774
 6225SOL    HW219575   3.887   2.368   6.639
 6226SOL     OW19576   1.355   1.652   3.975
 6226SOL    HW119577   1.351   1.742   3.932
 6226SOL    HW219578   1.375   1.583   3.905
 6227SOL     OW19579   3.774   5.278   5.326
 6227SOL    HW119580   3.774   5.309   5.420
 6227SOL    HW219581   3.868   5.255   5.298
 6228SOL     OW19582   0.769   2.755   2.679
 6228SOL    HW119583   0.790   2.675   2.623
 6228SOL    HW219584   0.789   2.735   2.774
 6229SOL     OW19585   0.541   3.152   4.978
 6229SOL    HW119586   0.616   3.104   4.933
 6229SOL    HW219587   0.503   3.220   4.915
 6230SOL     OW19588   1.028   2.104   3.381
 6230SOL    HW119589   1.000   2.198   3.360
 6230SOL    HW219590   1.127   2.100   3.395
 6231SOL     OW19591   5.807   5.276   0.318
 6231SOL    HW119592   5.868   5.208   0.358
 6231SOL    HW219593   5.838   5.368   0.343
 6232SOL     OW19594   6.806   1.020   0.086
 6232SOL    HW119595   6.798   1.085   0.010
 6232SOL    HW219596   6.757   1.056   0.165
 6233SOL     OW19597   5.983   2.749   1.719
 6233SOL    HW119598   5.926   2.784   1.645
 6233SOL    HW219599   6.006   2.823   1.782
 6234SOL     OW19600   0.368   7.019   5.229
 6234SOL    HW119601   0.315   0.080   5.226
 6234SOL    HW219602   0.464   0.016   5.206
 6235SOL     OW19603   0.124   0.519   1.610
 6235SOL    HW119604   0.196   0.514   1.542
 6235SOL    HW219605   0.106   0.615   1.633
 6236SOL     OW19606   0.175   5.129   0.539
 6236SOL    HW119607   0.096   5.190   0.529
 6236SOL    HW219608   0.149   5.036   0.514
 6237SOL     OW19609   3.726   0.433   6.922
 6237SOL    HW119610   3.795   0.474   6.983
 6237SOL    HW219611   3.654   0.391   6.977
 6238SOL     OW19612   4.476   6.503   3.114
 6238SOL    HW119613   4.564   6.539   3.084
 6238SOL    HW219614   4.481   6.479   3.212
 6239SOL     OW19615   3.990   0.791   1.107
 6239SOL    HW119616   4.080   0.823   1.079
 6239SOL    HW219617   3.932   0.870   1.128
 6240SOL     OW19618   3.193   3.786   5.554
 6240SOL    HW119619   3.100   3.823   5.561
 6240SOL    HW219620   3.256   3.859   5.529
 6241SOL     OW19621   4.117   0.666   3.401
 6241SOL    HW119622   4.023   0.666   3.437
 6241SOL    HW219623   4.174   0.606   3.457
 6242SOL     OW19624   3.282   0.541   2.937
 6242SOL    HW119625   3.226   0.598   2.877
 6242SOL    HW219626   3.285   0.582   3.028
 6243SOL     OW19627   0.230   0.116   5.907
 6243SOL    HW119628   0.287   0.195   5.885
 6243SOL    HW219629   0.158   0.107   5.837
 6244SOL     OW19630   5.133   3.621   3.573
 6244SOL    HW119631   5.158   3.574   3.489
 6244SOL    HW219632   5.160   3.717   3.567
 6245SOL     OW19633   1.196   4.404   1.922
 6245SOL    HW119634   1.102   4.427   1.945
 6245SOL    HW219635   1.201   4.377   1.826
 6246SOL     OW19636   0.903   0.914   4.827
 6246SOL    HW119637   0.940   1.005   4.844
 6246SOL    HW219638   0.929   0.884   4.735
 6247SOL     OW19639   1.847   6.525   3.520
 6247SOL    HW119640   1.814   6.439   3.557
 6247SOL    HW219641   1.808   6.541   3.430
 6248SOL     OW19642   3.366   3.878   0.098
 6248SOL    HW119643   3.271   3.891   0.068
 6248SOL    HW219644   3.378   3.784   0.130
 6249SOL     OW19645   6.750   2.644   0.823
 6249SOL    HW119646   6.805   2.678   0.899
 6249SOL    HW219647   6.799   2.658   0.737
 6250SOL     OW19648   6.813   6.735   0.451
 6250SOL    HW119649   6.850   6.723   0.543
 6250SOL    HW219650   6.883   6.775   0.392
 6251SOL     OW19651   3.880   6.380   4.930
 6251SOL    HW119652   3.936   6.297   4.936
 6251SOL    HW219653   3.925   6.445   4.869
 6252SOL     OW19654   2.751   4.563   6.952
 6252SOL    HW119655   2.814   4.500   6.996
 6252SOL    HW219656   2.708   4.518   6.873
 6253SOL     OW19657   2.306   5.171   4.699
 6253SOL    HW119658   2.369   5.244   4.670
 6253SOL    HW219659   2.217   5.184   4.654
 6254SOL     OW19660   6.701   0.074   0.551
 6254SOL    HW119661   6.620   0.027   0.514
 6254SOL    HW219662   6.721   0.154   0.494
 6255SOL     OW19663   2.248   1.978   0.596
 6255SOL    HW119664   2.258   1.939   0.687
 6255SOL    HW219665   2.187   2.057   0.600
 6256SOL     OW19666   4.490   5.316   2.558
 6256SOL    HW119667   4.445   5.305   2.647
 6256SOL    HW219668   4.581   5.355   2.570
 6257SOL     OW19669   3.902   2.937   0.127
 6257SOL    HW119670   3.970   2.878   0.170
 6257SOL    HW219671   3.914   3.031   0.161
 6258SOL     OW19672   3.512   6.905   4.719
 6258SOL    HW119673   3.589   6.860   4.675
 6258SOL    HW219674   3.435   6.842   4.725
 6259SOL     OW19675   2.199   0.893   6.309
 6259SOL    HW119676   2.166   0.830   6.380
 6259SOL    HW219677   2.177   0.855   6.219
 6260SOL     OW19678   3.383   0.269   0.492
 6260SOL    HW119679   3.426   0.180   0.507
 6260SOL    HW219680   3.322   0.290   0.569
 6261SOL     OW19681   4.401   6.575   0.547
 6261SOL    HW119682   4.432   6.534   0.461
 6261SOL    HW219683   4.456   6.540   0.623
 6262SOL     OW19684   1.631   6.061   2.240
 6262SOL    HW119685   1.703   5.996   2.264
 6262SOL    HW219686   1.637   6.141   2.300
 6263SOL     OW19687   0.852   6.618   5.265
 6263SOL    HW119688   0.781   6.569   5.215
 6263SOL    HW219689   0.831   6.716   5.265
 6264SOL     OW19690   1.884   0.276   1.787
 6264SOL    HW119691   1.845   0.235   1.870
 6264SOL    HW219692   1.984   0.278   1.796
 6265SOL     OW19693   4.226   3.401   0.905
 6265SOL    HW119694   4.210   3.470   0.834
 6265SOL    HW219695   4.324   3.387   0.916
 6266SOL     OW19696   4.423   6.283   2.933
 6266SOL    HW119697   4.497   6.269   2.866
 6266SOL    HW219698   4.446   6.359   2.993
 6267SOL     OW19699   1.979   0.031   4.772
 6267SOL    HW119700   2.014   6.966   4.740
 6267SOL    HW219701   1.910   0.016   4.843
 6268SOL     OW19702   3.022   0.813   1.742
 6268SOL    HW119703   2.939   0.815   1.797
 6268SOL    HW219704   3.101   0.836   1.799
 6269SOL     OW19705   6.175   0.031   2.151
 6269SOL    HW119706   6.093   0.087   2.159
 6269SOL    HW219707   6.254   0.089   2.131
 6270SOL     OW19708   0.539   0.104   6.931
 6270SOL    HW119709   0.540   0.016   6.882
 6270SOL    HW219710   0.497   0.091   7.021
 6271SOL     OW19711   6.308   2.733   6.484
 6271SOL    HW119712   6.320   2.822   6.527
 6271SOL    HW219713   6.397   2.698   6.454
 6272SOL     OW19714   0.547   1.509   0.489
 6272SOL    HW119715   0.490   1.543   0.564
 6272SOL    HW219716   0.630   1.469   0.526
 6273SOL     OW19717   0.541   5.600   3.039
 6273SOL    HW119718   0.496   5.667   2.980
 6273SOL    HW219719   0.483   5.519   3.049
 6274SOL     OW19720   3.153   0.087   4.463
 6274SOL    HW119721   3.198   0.135   4.538
 6274SOL    HW219722   3.218   0.027   4.417
 6275SOL     OW19723   2.247   5.921   0.569
 6275SOL    HW119724   2.240   5.977   0.651
 6275SOL    HW219725   2.302   5.840   0.589
 6276SOL     OW19726   3.371   5.594   3.421
 6276SOL    HW119727   3.358   5.670   3.357
 6276SOL    HW219728   3.455   5.607   3.474
 6277SOL     OW19729   4.941   2.055   1.145
 6277SOL    HW119730   5.040   2.042   1.143
 6277SOL    HW219731   4.897   1.978   1.191
 6278SOL     OW19732   4.094   0.930   4.771
 6278SOL    HW119733   4.078   0.982   4.687
 6278SOL    HW219734   4.087   0.833   4.752
 6279SOL     OW19735   3.973   6.170   0.772
 6279SOL    HW119736   3.962   6.076   0.739
 6279SOL    HW219737   4.051   6.212   0.727
 6280SOL     OW19738   7.021   1.436   6.429
 6280SOL    HW119739   6.938   1.435   6.484
 6280SOL    HW219740   0.069   1.382   6.476
 6281SOL     OW19741   6.638   4.461   3.987
 6281SOL    HW119742   6.715   4.406   3.956
 6281SOL    HW219743   6.617   4.531   3.919
 6282SOL     OW19744   5.902   2.950   5.055
 6282SOL    HW119745   5.882   2.903   4.969
 6282SOL    HW219746   5.881   3.047   5.046
 6283SOL     OW19747   0.925   4.450   4.204
 6283SOL    HW119748   0.856   4.466   4.275
 6283SOL    HW219749   1.009   4.499   4.229
 6284SOL     OW19750   1.471   5.485   6.247
 6284SOL    HW119751   1.552   5.426   6.238
 6284SOL    HW219752   1.391   5.428   6.265
 6285SOL     OW19753   0.991   2.978   3.588
 6285SOL    HW119754   1.083   2.955   3.620
 6285SOL    HW219755   0.994   2.999   3.490
 6286SOL     OW19756   0.549   3.560   4.225
 6286SOL    HW119757   0.558   3.583   4.129
 6286SOL    HW219758   0.477   3.615   4.266
 6287SOL     OW19759   3.572   4.889   5.230
 6287SOL    HW119760   3.475   4.869   5.216
 6287SOL    HW219761   3.610   4.826   5.297
 6288SOL     OW19762   5.032   4.591   1.591
 6288SOL    HW119763   4.988   4.511   1.630
 6288SOL    HW219764   5.015   4.596   1.493
 6289SOL     OW19765   2.460   4.895   6.594
 6289SOL    HW119766   2.441   4.981   6.548
 6289SOL    HW219767   2.499   4.914   6.685
 6290SOL     OW19768   6.104   5.362   6.405
 6290SOL    HW119769   6.067   5.315   6.325
 6290SOL    HW219770   6.047   5.442   6.425
 6291SOL     OW19771   3.444   3.680   3.635
 6291SOL    HW119772   3.363   3.709   3.688
 6291SOL    HW219773   3.465   3.585   3.657
 6292SOL     OW19774   2.665   2.036   5.079
 6292SOL    HW119775   2.750   2.086   5.059
 6292SOL    HW219776   2.676   1.940   5.054
 6293SOL     OW19777   4.390   1.606   0.583
 6293SOL    HW119778   4.414   1.549   0.661
 6293SOL    HW219779   4.291   1.619   0.580
 6294SOL     OW19780   4.585   0.126   3.408
 6294SOL    HW119781   4.558   0.173   3.492
 6294SOL    HW219782   4.602   0.030   3.429
 6295SOL     OW19783   5.316   4.955   4.792
 6295SOL    HW119784   5.248   4.887   4.819
 6295SOL    HW219785   5.281   5.047   4.812
 6296SOL     OW19786   0.528   4.298   5.481
 6296SOL    HW119787   0.544   4.341   5.569
 6296SOL    HW219788   0.519   4.368   5.410
 6297SOL     OW19789   5.882   0.214   5.648
 6297SOL    HW119790   5.978   0.235   5.665
 6297SOL    HW219791   5.864   0.220   5.550
 6298SOL     OW19792   6.915   3.949   6.322
 6298SOL    HW119793   6.969   3.966   6.240
 6298SOL    HW219794   6.838   4.012   6.326
 6299SOL     OW19795   5.805   2.861   1.535
 6299SOL    HW119796   5.743   2.793   1.495
 6299SOL    HW219797   5.815   2.938   1.473
 6300SOL     OW19798   6.022   0.505   6.327
 6300SOL    HW119799   6.113   0.490   6.289
 6300SOL    HW219800   6.024   0.493   6.426
 6301SOL     OW19801   2.974   6.147   6.456
 6301SOL    HW119802   3.001   6.152   6.552
 6301SOL    HW219803   2.876   6.166   6.448
 6302SOL     OW19804   2.036   1.385   5.506
 6302SOL    HW119805   2.113   1.390   5.444
 6302SOL    HW219806   2.060   1.328   5.585
 6303SOL     OW19807   0.697   6.519   6.007
 6303SOL    HW119808   0.693   6.512   6.107
 6303SOL    HW219809   0.640   6.595   5.976
 6304SOL     OW19810   3.994   1.414   3.341
 6304SOL    HW119811   4.029   1.500   3.376
 6304SOL    HW219812   3.938   1.432   3.260
 6305SOL     OW19813   5.994   5.979   0.537
 6305SOL    HW119814   5.973   5.885   0.511
 6305SOL    HW219815   6.090   5.999   0.516
 6306SOL     OW19816   0.287   3.720   4.104
 6306SOL    HW119817   0.307   3.818   4.104
 6306SOL    HW219818   0.203   3.703   4.053
 6307SOL     OW19819   3.455   2.924   3.781
 6307SOL    HW119820   3.359   2.918   3.811
 6307SOL    HW219821   3.515   2.898   3.857
 6308SOL     OW19822   0.957   1.971   5.715
 6308SOL    HW119823   0.943   1.873   5.699
 6308SOL    HW219824   0.927   2.022   5.635
 6309SOL     OW19825   0.043   0.160   3.833
 6309SOL    HW119826   0.142   0.149   3.821
 6309SOL    HW219827   0.024   0.254   3.862
 6310SOL     OW19828   2.388   6.243   2.733
 6310SOL    HW119829   2.313   6.307   2.721
 6310SOL    HW219830   2.427   6.252   2.824
 6311SOL     OW19831   5.085   1.936   6.084
 6311SOL    HW119832   5.075   1.842   6.114
 6311SOL    HW219833   5.084   1.940   5.984
 6312SOL     OW19834   0.977   6.449   6.361
 6312SOL    HW119835   0.887   6.460   6.318
 6312SOL    HW219836   1.025   6.536   6.362
 6313SOL     OW19837   6.100   6.906   2.968
 6313SOL    HW119838   6.078   6.990   2.919
 6313SOL    HW219839   6.182   6.920   3.023
 6314SOL     OW19840   3.193   0.310   2.142
 6314SOL    HW119841   3.238   0.302   2.231
 6314SOL    HW219842   3.228   0.239   2.080
 6315SOL     OW19843   2.487   1.556   4.779
 6315SOL    HW119844   2.420   1.630   4.792
 6315SOL    HW219845   2.574   1.582   4.821
 6316SOL     OW19846   4.760   1.989   5.225
 6316SOL    HW119847   4.712   1.911   5.264
 6316SOL    HW219848   4.756   2.066   5.288
 6317SOL     OW19849   4.942   3.586   2.473
 6317SOL    HW119850   4.979   3.499   2.443
 6317SOL    HW219851   4.875   3.618   2.405
 6318SOL     OW19852   4.477   7.022   6.747
 6318SOL    HW119853   4.480   0.019   6.845
 6318SOL    HW219854   4.404   0.052   6.705
 6319SOL     OW19855   6.939   2.043   4.837
 6319SOL    HW119856   6.851   2.086   4.857
 6319SOL    HW219857   6.985   2.021   4.923
 6320SOL     OW19858   0.039   6.302   4.627
 6320SOL    HW119859   6.977   6.335   4.584
 6320SOL    HW219860   0.117   6.349   4.586
 6321SOL     OW19861   4.664   3.110   0.421
 6321SOL    HW119862   4.619   3.023   0.402
 6321SOL    HW219863   4.601   3.185   0.402
 6322SOL     OW19864   3.063   1.829   0.446
 6322SOL    HW119865   3.133   1.781   0.499
 6322SOL    HW219866   3.076   1.927   0.455
 6323SOL     OW19867   1.234   1.999   1.561
 6323SOL    HW119868   1.334   2.011   1.562
 6323SOL    HW219869   1.212   1.904   1.535
 6324SOL     OW19870   3.909   1.796   0.620
 6324SOL    HW119871   3.994   1.807   0.673
 6324SOL    HW219872   3.875   1.886   0.593
 6325SOL     OW19873   2.200   2.928   2.927
 6325SOL    HW119874   2.269   2.877   2.875
 6325SOL    HW219875   2.136   2.972   2.864
 6326SOL     OW19876   5.611   5.450   6.490
 6326SOL    HW119877   5.574   5.407   6.408
 6326SOL    HW219878   5.700   5.490   6.469
 6327SOL     OW19879   0.379   1.734   4.404
 6327SOL    HW119880   0.407   1.802   4.473
 6327SOL    HW219881   0.423   1.757   4.316
 6328SOL     OW19882   4.285   3.504   6.674
 6328SOL    HW119883   4.280   3.581   6.738
 6328SOL    HW219884   4.232   3.525   6.592
 6329SOL     OW19885   0.897   3.162   5.181
 6329SOL    HW119886   0.952   3.166   5.264
 6329SOL    HW219887   0.803   3.189   5.202
 6330SOL     OW19888   5.996   6.623   1.489
 6330SOL    HW119889   5.981   6.709   1.539
 6330SOL    HW219890   5.909   6.575   1.480
 6331SOL     OW19891   6.546   3.535   4.888
 6331SOL    HW119892   6.557   3.635   4.895
 6331SOL    HW219893   6.555   3.508   4.792
 6332SOL     OW19894   0.981   2.909   1.129
 6332SOL    HW119895   0.980   2.812   1.106
 6332SOL    HW219896   0.935   2.923   1.216
 6333SOL     OW19897   4.421   0.197   5.660
 6333SOL    HW119898   4.323   0.186   5.674
 6333SOL    HW219899   4.468   0.112   5.685
 6334SOL     OW19900   3.026   1.332   2.105
 6334SOL    HW119901   2.990   1.422   2.129
 6334SOL    HW219902   3.122   1.340   2.080
 6335SOL     OW19903   4.306   0.864   0.266
 6335SOL    HW119904   4.366   0.875   0.345
 6335SOL    HW219905   4.355   0.894   0.183
 6336SOL     OW19906   0.653   3.014   6.539
 6336SOL    HW119907   0.596   3.089   6.506
 6336SOL    HW219908   0.683   2.959   6.461
 6337SOL     OW19909   4.053   5.466   4.843
 6337SOL    HW119910   3.969   5.456   4.896
 6337SOL    HW219911   4.106   5.380   4.848
 6338SOL     OW19912   3.201   2.172   4.227
 6338SOL    HW119913   3.117   2.221   4.204
 6338SOL    HW219914   3.234   2.202   4.316
 6339SOL     OW19915   0.774   3.770   3.830
 6339SOL    HW119916   0.756   3.863   3.864
 6339SOL    HW219917   0.711   3.706   3.873
 6340SOL     OW19918   2.300   4.005   1.109
 6340SOL    HW119919   2.258   4.066   1.043
 6340SOL    HW219920   2.381   3.963   1.068
 6341SOL     OW19921   0.249   4.167   3.748
 6341SOL    HW119922   0.330   4.209   3.789
 6341SOL    HW219923   0.263   4.155   3.650
 6342SOL     OW19924   3.508   1.559   0.709
 6342SOL    HW119925   3.600   1.523   0.691
 6342SOL    HW219926   3.441   1.502   0.661
 6343SOL     OW19927   4.209   6.934   6.809
 6343SOL    HW119928   4.276   6.859   6.807
 6343SOL    HW219929   4.158   6.935   6.723
 6344SOL     OW19930   6.090   1.879   4.042
 6344SOL    HW119931   6.145   1.962   4.044
 6344SOL    HW219932   6.095   1.837   3.952
 6345SOL     OW19933   4.573   2.792   1.730
 6345SOL    HW119934   4.486   2.785   1.681
 6345SOL    HW219935   4.577   2.881   1.777
 6346SOL     OW19936   0.020   4.939   5.034
 6346SOL    HW119937   6.992   4.868   5.083
 6346SOL    HW219938   0.006   5.027   5.078
 6347SOL     OW19939   1.765   1.462   1.240
 6347SOL    HW119940   1.834   1.535   1.240
 6347SOL    HW219941   1.674   1.503   1.228
 6348SOL     OW19942   0.818   3.142   5.988
 6348SOL    HW119943   0.818   3.191   6.075
 6348SOL    HW219944   0.776   3.052   6.000
 6349SOL     OW19945   1.300   0.466   0.682
 6349SOL    HW119946   1.379   0.484   0.624
 6349SOL    HW219947   1.235   0.542   0.674
 6350SOL     OW19948   0.689   5.126   3.413
 6350SOL    HW119949   0.685   5.069   3.495
 6350SOL    HW219950   0.630   5.087   3.342
 6351SOL     OW19951   6.452   3.714   3.423
 6351SOL    HW119952   6.531   3.775   3.412
 6351SOL    HW219953   6.485   3.620   3.435
 6352SOL     OW19954   2.410   0.652   4.608
 6352SOL    HW119955   2.483   0.704   4.563
 6352SOL    HW219956   2.445   0.562   4.636
 6353SOL     OW19957   2.244   6.323   0.063
 6353SOL    HW119958   2.297   6.307   0.147
 6353SOL    HW219959   2.295   6.385   0.004
 6354SOL     OW19960   3.927   6.081   3.199
 6354SOL    HW119961   3.883   6.115   3.282
 6354SOL    HW219962   3.958   5.988   3.213
 6355SOL     OW19963   2.813   5.791   0.098
 6355SOL    HW119964   2.886   5.739   0.055
 6355SOL    HW219965   2.840   5.887   0.106
 6356SOL     OW19966   5.316   4.990   0.489
 6356SOL    HW119967   5.304   5.084   0.456
 6356SOL    HW219968   5.307   4.989   0.589
 6357SOL     OW19969   6.257   2.743   2.298
 6357SOL    HW119970   6.213   2.806   2.234
 6357SOL    HW219971   6.293   2.665   2.249
 6358SOL     OW19972   0.113   1.955   6.576
 6358SOL    HW119973   0.081   1.959   6.481
 6358SOL    HW219974   0.213   1.956   6.577
 6359SOL     OW19975   6.330   6.375   0.667
 6359SOL    HW119976   6.287   6.463   0.689
 6359SOL    HW219977   6.391   6.387   0.588
 6360SOL     OW19978   0.759   3.821   4.206
 6360SOL    HW119979   0.684   3.777   4.157
 6360SOL    HW219980   0.805   3.885   4.146
 6361SOL     OW19981   1.010   1.053   0.708
 6361SOL    HW119982   0.977   0.983   0.771
 6361SOL    HW219983   0.940   1.072   0.639
 6362SOL     OW19984   1.700   5.883   6.428
 6362SOL    HW119985   1.679   5.790   6.458
 6362SOL    HW219986   1.779   5.881   6.367
 6363SOL     OW19987   3.044   5.398   4.479
 6363SOL    HW119988   2.945   5.384   4.480
 6363SOL    HW219989   3.087   5.344   4.552
 6364SOL     OW19990   2.789   2.868   5.398
 6364SOL    HW119991   2.794   2.768   5.394
 6364SOL    HW219992   2.706   2.898   5.350
 6365SOL     OW19993   5.686   6.622   4.439
 6365SOL    HW119994   5.606   6.618   4.500
 6365SOL    HW219995   5.719   6.529   4.421
 6366SOL     OW19996   0.632   5.727   5.080
 6366SOL    HW119997   0.673   5.637   5.091
 6366SOL    HW219998   0.585   5.753   5.165
 6367SOL     OW19999   3.154   2.077   2.762
 6367SOL    HW120000   3.244   2.056   2.725
 6367SOL    HW220001   3.092   2.101   2.687
 6368SOL     OW20002   4.261   4.744   4.521
 6368SOL    HW120003   4.278   4.728   4.618
 6368SOL    HW220004   4.162   4.744   4.504
 6369SOL     OW20005   1.863   0.356   4.553
 6369SOL    HW120006   1.927   0.406   4.611
 6369SOL    HW220007   1.911   0.320   4.473
 6370SOL     OW20008   5.585   4.046   3.539
 6370SOL    HW120009   5.586   3.995   3.625
 6370SOL    HW220010   5.660   4.112   3.539
 6371SOL     OW20011   5.452   3.976   2.343
 6371SOL    HW120012   5.477   4.054   2.400
 6371SOL    HW220013   5.400   3.910   2.396
 6372SOL     OW20014   1.163   1.424   2.330
 6372SOL    HW120015   1.244   1.371   2.305
 6372SOL    HW220016   1.111   1.445   2.247
 6373SOL     OW20017   5.489   4.195   2.531
 6373SOL    HW120018   5.459   4.291   2.527
 6373SOL    HW220019   5.440   4.149   2.605
 6374SOL     OW20020   4.552   3.646   0.993
 6374SOL    HW120021   4.465   3.695   0.991
 6374SOL    HW220022   4.585   3.633   0.899
 6375SOL     OW20023   0.468   2.149   1.928
 6375SOL    HW120024   0.385   2.134   1.982
 6375SOL    HW220025   0.451   2.219   1.859
 6376SOL     OW20026   4.073   1.669   5.894
 6376SOL    HW120027   4.061   1.756   5.846
 6376SOL    HW220028   4.040   1.679   5.988
 6377SOL     OW20029   6.998   2.001   5.596
 6377SOL    HW120030   0.045   2.042   5.656
 6377SOL    HW220031   6.970   2.069   5.528
 6378SOL     OW20032   5.374   5.311   3.581
 6378SOL    HW120033   5.441   5.385   3.573
 6378SOL    HW220034   5.329   5.317   3.670
 6379SOL     OW20035   0.698   4.883   5.804
 6379SOL    HW120036   0.606   4.921   5.803
 6379SOL    HW220037   0.710   4.820   5.728
 6380SOL     OW20038   6.710   2.619   4.492
 6380SOL    HW120039   6.781   2.668   4.441
 6380SOL    HW220040   6.735   2.522   4.500
 6381SOL     OW20041   4.342   2.608   0.440
 6381SOL    HW120042   4.257   2.556   0.442
 6381SOL    HW220043   4.366   2.638   0.533
 6382SOL     OW20044   3.424   1.943   0.998
 6382SOL    HW120045   3.331   1.956   1.033
 6382SOL    HW220046   3.449   2.022   0.942
 6383SOL     OW20047   2.002   3.061   2.423
 6383SOL    HW120048   1.975   2.970   2.455
 6383SOL    HW220049   2.071   3.052   2.351
 6384SOL     OW20050   5.967   3.327   2.330
 6384SOL    HW120051   5.927   3.236   2.316
 6384SOL    HW220052   5.904   3.383   2.383
 6385SOL     OW20053   6.720   4.170   1.852
 6385SOL    HW120054   6.677   4.152   1.764
 6385SOL    HW220055   6.728   4.268   1.867
 6386SOL     OW20056   1.629   3.451   6.501
 6386SOL    HW120057   1.724   3.423   6.489
 6386SOL    HW220058   1.587   3.398   6.575
 6387SOL     OW20059   5.788   1.546   0.188
 6387SOL    HW120060   5.711   1.492   0.224
 6387SOL    HW220061   5.816   1.509   0.100
 6388SOL     OW20062   6.020   5.366   1.802
 6388SOL    HW120063   5.982   5.280   1.767
 6388SOL    HW220064   6.116   5.353   1.826
 6389SOL     OW20065   0.900   0.003   1.082
 6389SOL    HW120066   0.871   0.083   1.031
 6389SOL    HW220067   0.820   6.979   1.120
 6390SOL     OW20068   6.719   0.127   5.797
 6390SOL    HW120069   6.728   0.226   5.793
 6390SOL    HW220070   6.672   0.094   5.715
 6391SOL     OW20071   1.634   1.078   6.047
 6391SOL    HW120072   1.682   1.147   5.993
 6391SOL    HW220073   1.542   1.110   6.069
 6392SOL     OW20074   3.282   6.223   3.202
 6392SOL    HW120075   3.321   6.134   3.176
 6392SOL    HW220076   3.203   6.209   3.261
 6393SOL     OW20077   6.054   5.819   1.641
 6393SOL    HW120078   6.037   5.907   1.596
 6393SOL    HW220079   6.150   5.794   1.631
 6394SOL     OW20080   2.487   5.542   1.213
 6394SOL    HW120081   2.512   5.447   1.233
 6394SOL    HW220082   2.567   5.600   1.221
 6395SOL     OW20083   6.672   3.236   1.829
 6395SOL    HW120084   6.762   3.275   1.848
 6395SOL    HW220085   6.633   3.278   1.747
 6396SOL     OW20086   6.260   3.895   6.258
 6396SOL    HW120087   6.247   3.906   6.159
 6396SOL    HW220088   6.298   3.979   6.296
 6397SOL     OW20089   6.525   1.258   2.373
 6397SOL    HW120090   6.614   1.269   2.417
 6397SOL    HW220091   6.460   1.324   2.411
 6398SOL     OW20092   1.811   6.607   1.947
 6398SOL    HW120093   1.724   6.560   1.932
 6398SOL    HW220094   1.808   6.697   1.902
 6399SOL     OW20095   1.342   0.305   6.689
 6399SOL    HW120096   1.365   0.208   6.679
 6399SOL    HW220097   1.361   0.352   6.603
 6400SOL     OW20098   2.263   4.849   2.423
 6400SOL    HW120099   2.236   4.791   2.500
 6400SOL    HW220100   2.251   4.945   2.447
 6401SOL     OW20101   5.772   5.163   3.142
 6401SOL    HW120102   5.769   5.237   3.210
 6401SOL    HW220103   5.679   5.142   3.111
 6402SOL     OW20104   2.273   2.853   4.045
 6402SOL    HW120105   2.173   2.856   4.048
 6402SOL    HW220106   2.305   2.765   4.078
 6403SOL     OW20107   6.152   5.952   6.076
 6403SOL    HW120108   6.249   5.936   6.060
 6403SOL    HW220109   6.134   6.050   6.078
 6404SOL     OW20110   4.178   1.700   2.793
 6404SOL    HW120111   4.143   1.773   2.734
 6404SOL    HW220112   4.103   1.665   2.849
 6405SOL     OW20113   4.384   0.804   4.452
 6405SOL    HW120114   4.322   0.758   4.388
 6405SOL    HW220115   4.475   0.809   4.412
 6406SOL     OW20116   1.641   3.174   1.699
 6406SOL    HW120117   1.545   3.159   1.726
 6406SOL    HW220118   1.661   3.271   1.701
 6407SOL     OW20119   2.157   0.085   3.858
 6407SOL    HW120120   2.236   0.068   3.917
 6407SOL    HW220121   2.153   0.015   3.787
 6408SOL     OW20122   5.860   0.441   0.552
 6408SOL    HW120123   5.856   0.362   0.614
 6408SOL    HW220124   5.942   0.434   0.495
 6409SOL     OW20125   6.979   4.859   2.730
 6409SOL    HW120126   0.033   4.800   2.753
 6409SOL    HW220127   7.004   4.954   2.746
 6410SOL     OW20128   2.157   1.176   6.357
 6410SOL    HW120129   2.165   1.077   6.346
 6410SOL    HW220130   2.076   1.208   6.308
 6411SOL     OW20131   1.133   2.635   2.460
 6411SOL    HW120132   1.082   2.707   2.508
 6411SOL    HW220133   1.098   2.546   2.488
 6412SOL     OW20134   2.199   0.348   6.584
 6412SOL    HW120135   2.196   0.421   6.653
 6412SOL    HW220136   2.205   0.388   6.493
 6413SOL     OW20137   3.582   4.943   4.532
 6413SOL    HW120138   3.559   4.979   4.442
 6413SOL    HW220139   3.498   4.922   4.582
 6414SOL     OW20140   6.197   0.290   6.981
 6414SOL    HW120141   6.151   0.288   6.892
 6414SOL    HW220142   6.293   0.313   6.968
 6415SOL     OW20143   1.594   3.497   4.138
 6415SOL    HW120144   1.587   3.471   4.234
 6415SOL    HW220145   1.676   3.455   4.099
 6416SOL     OW20146   2.281   6.684   6.128
 6416SOL    HW120147   2.342   6.619   6.082
 6416SOL    HW220148   2.225   6.635   6.194
 6417SOL     OW20149   4.994   3.128   0.787
 6417SOL    HW120150   4.965   3.223   0.773
 6417SOL    HW220151   4.918   3.075   0.825
 6418SOL     OW20152   5.215   4.097   3.033
 6418SOL    HW120153   5.299   4.044   3.040
 6418SOL    HW220154   5.236   4.194   3.047
 6419SOL     OW20155   1.128   5.069   3.787
 6419SOL    HW120156   1.036   5.109   3.787
 6419SOL    HW220157   1.127   4.986   3.731
 6420SOL     OW20158   2.039   1.336   3.476
 6420SOL    HW120159   1.942   1.362   3.475
 6420SOL    HW220160   2.095   1.415   3.501
 6421SOL     OW20161   4.134   0.520   1.124
 6421SOL    HW120162   4.077   0.590   1.082
 6421SOL    HW220163   4.138   0.535   1.223
 6422SOL     OW20164   6.580   1.758   5.046
 6422SOL    HW120165   6.613   1.802   5.129
 6422SOL    HW220166   6.588   1.821   4.969
 6423SOL     OW20167   4.657   5.492   4.628
 6423SOL    HW120168   4.647   5.398   4.595
 6423SOL    HW220169   4.746   5.527   4.599
 6424SOL     OW20170   1.509   4.108   5.041
 6424SOL    HW120171   1.604   4.121   5.071
 6424SOL    HW220172   1.507   4.042   4.966
 6425SOL     OW20173   6.658   5.627   3.046
 6425SOL    HW120174   6.661   5.554   2.977
 6425SOL    HW220175   6.605   5.704   3.010
 6426SOL     OW20176   5.745   5.332   3.707
 6426SOL    HW120177   5.714   5.296   3.795
 6426SOL    HW220178   5.684   5.405   3.676
 6427SOL     OW20179   2.956   3.741   3.511
 6427SOL    HW120180   2.979   3.650   3.545
 6427SOL    HW220181   2.859   3.758   3.524
 6428SOL     OW20182   5.319   3.406   0.135
 6428SOL    HW120183   5.234   3.411   0.082
 6428SOL    HW220184   5.296   3.400   0.233
 6429SOL     OW20185   0.602   1.075   5.757
 6429SOL    HW120186   0.692   1.114   5.776
 6429SOL    HW220187   0.533   1.147   5.758
 6430SOL     OW20188   6.678   0.558   4.248
 6430SOL    HW120189   6.607   0.522   4.308
 6430SOL    HW220190   6.679   0.658   4.254
 6431SOL     OW20191   4.441   5.643   2.710
 6431SOL    HW120192   4.421   5.651   2.612
 6431SOL    HW220193   4.371   5.586   2.754
 6432SOL     OW20194   3.999   4.245   6.039
 6432SOL    HW120195   3.988   4.224   6.136
 6432SOL    HW220196   3.927   4.199   5.987
 6433SOL     OW20197   3.178   5.168   0.195
 6433SOL    HW120198   3.083   5.144   0.216
 6433SOL    HW220199   3.200   5.143   0.101
 6434SOL     OW20200   2.808   0.348   6.257
 6434SOL    HW120201   2.714   0.319   6.239
 6434SOL    HW220202   2.864   0.331   6.176
 6435SOL     OW20203   5.675   6.945   0.853
 6435SOL    HW120204   5.693   6.867   0.793
 6435SOL    HW220205   5.582   6.938   0.889
 6436SOL     OW20206   1.255   3.529   3.168
 6436SOL    HW120207   1.207   3.586   3.234
 6436SOL    HW220208   1.309   3.587   3.107
 6437SOL     OW20209   1.433   2.750   6.925
 6437SOL    HW120210   1.344   2.786   6.897
 6437SOL    HW220211   1.487   2.728   6.844
 6438SOL     OW20212   0.752   4.922   6.186
 6438SOL    HW120213   0.813   4.965   6.120
 6438SOL    HW220214   0.710   4.841   6.146
 6439SOL     OW20215   5.034   0.755   2.354
 6439SOL    HW120216   5.048   0.841   2.304
 6439SOL    HW220217   5.101   0.749   2.428
 6440SOL     OW20218   2.754   0.844   5.931
 6440SOL    HW120219   2.832   0.794   5.893
 6440SOL    HW220220   2.703   0.784   5.993
 6441SOL     OW20221   1.092   0.658   1.330
 6441SOL    HW120222   1.015   0.712   1.364
 6441SOL    HW220223   1.133   0.703   1.251
 6442SOL     OW20224   2.726   1.673   4.734
 6442SOL    HW120225   2.803   1.734   4.714
 6442SOL    HW220226   2.667   1.666   4.654
 6443SOL     OW20227   3.307   2.672   5.811
 6443SOL    HW120228   3.234   2.637   5.870
 6443SOL    HW220229   3.271   2.745   5.754
 6444SOL     OW20230   6.146   2.291   4.342
 6444SOL    HW120231   6.071   2.270   4.405
 6444SOL    HW220232   6.234   2.276   4.389
 6445SOL     OW20233   3.877   3.340   3.317
 6445SOL    HW120234   3.834   3.425   3.288
 6445SOL    HW220235   3.809   3.279   3.358
 6446SOL     OW20236   0.216   2.097   0.585
 6446SOL    HW120237   0.275   2.110   0.506
 6446SOL    HW220238   0.126   2.064   0.555
 6447SOL     OW20239   6.154   4.350   1.498
 6447SOL    HW120240   6.147   4.337   1.400
 6447SOL    HW220241   6.220   4.423   1.517
 6448SOL     OW20242   5.065   4.952   1.418
 6448SOL    HW120243   4.988   4.900   1.381
 6448SOL    HW220244   5.031   5.024   1.477
 6449SOL     OW20245   2.952   5.447   1.928
 6449SOL    HW120246   3.038   5.476   1.971
 6449SOL    HW220247   2.878   5.453   1.995
 6450SOL     OW20248   0.789   4.347   0.344
 6450SOL    HW120249   0.785   4.247   0.341
 6450SOL    HW220250   0.722   4.381   0.410
 6451SOL     OW20251   2.655   0.837   5.680
 6451SOL    HW120252   2.719   0.822   5.755
 6451SOL    HW220253   2.563   0.852   5.716
 6452SOL     OW20254   4.865   4.128   2.393
 6452SOL    HW120255   4.769   4.151   2.377
 6452SOL    HW220256   4.914   4.124   2.306
 6453SOL     OW20257   2.591   0.211   1.571
 6453SOL    HW120258   2.574   0.251   1.661
 6453SOL    HW220259   2.591   0.283   1.502
 6454SOL     OW20260   0.462   1.458   2.817
 6454SOL    HW120261   0.383   1.411   2.778
 6454SOL    HW220262   0.478   1.424   2.909
 6455SOL     OW20263   6.152   2.748   3.802
 6455SOL    HW120264   6.133   2.692   3.721
 6455SOL    HW220265   6.251   2.759   3.812
 6456SOL     OW20266   1.409   0.775   2.930
 6456SOL    HW120267   1.498   0.743   2.898
 6456SOL    HW220268   1.368   0.836   2.862
 6457SOL     OW20269   5.509   0.199   1.475
 6457SOL    HW120270   5.551   0.282   1.512
 6457SOL    HW220271   5.466   0.220   1.387
 6458SOL     OW20272   1.602   5.225   4.832
 6458SOL    HW120273   1.618   5.319   4.803
 6458SOL    HW220274   1.527   5.223   4.898
 6459SOL     OW20275   6.278   3.025   2.675
 6459SOL    HW120276   6.202   3.058   2.619
 6459SOL    HW220277   6.250   2.943   2.724
 6460SOL     OW20278   5.608   5.451   5.502
 6460SOL    HW120279   5.519   5.414   5.476
 6460SOL    HW220280   5.614   5.456   5.602
 6461SOL     OW20281   2.926   4.391   0.040
 6461SOL    HW120282   2.900   4.313   0.097
 6461SOL    HW220283   2.980   4.359   6.985
 6462SOL     OW20284   1.194   3.082   4.514
 6462SOL    HW120285   1.109   3.035   4.537
 6462SOL    HW220286   1.247   3.100   4.597
 6463SOL     OW20287   5.387   6.739   0.362
 6463SOL    HW120288   5.425   6.826   0.330
 6463SOL    HW220289   5.461   6.680   0.394
 6464SOL     OW20290   1.838   5.784   5.087
 6464SOL    HW120291   1.875   5.874   5.063
 6464SOL    HW220292   1.738   5.789   5.090
 6465SOL     OW20293   0.027   3.223   2.728
 6465SOL    HW120294   7.008   3.150   2.782
 6465SOL    HW220295   6.978   3.287   2.698
 6466SOL     OW20296   6.590   1.221   6.663
 6466SOL    HW120297   6.571   1.284   6.588
 6466SOL    HW220298   6.505   1.198   6.710
 6467SOL     OW20299   4.038   0.105   1.182
 6467SOL    HW120300   3.996   0.134   1.096
 6467SOL    HW220301   3.973   0.119   1.257
 6468SOL     OW20302   3.632   6.623   1.678
 6468SOL    HW120303   3.557   6.619   1.612
 6468SOL    HW220304   3.719   6.630   1.629
 6469SOL     OW20305   3.884   1.973   3.489
 6469SOL    HW120306   3.950   1.992   3.416
 6469SOL    HW220307   3.904   2.032   3.568
 6470SOL     OW20308   5.822   2.637   0.778
 6470SOL    HW120309   5.784   2.653   0.869
 6470SOL    HW220310   5.747   2.625   0.712
 6471SOL     OW20311   1.049   6.261   5.822
 6471SOL    HW120312   1.075   6.326   5.894
 6471SOL    HW220313   0.950   6.265   5.807
 6472SOL     OW20314   6.491   5.827   2.698
 6472SOL    HW120315   6.458   5.918   2.673
 6472SOL    HW220316   6.481   5.814   2.797
 6473SOL     OW20317   1.666   1.405   5.169
 6473SOL    HW120318   1.650   1.502   5.151
 6473SOL    HW220319   1.654   1.353   5.084
 6474SOL     OW20320   3.787   5.328   5.631
 6474SOL    HW120321   3.737   5.413   5.615
 6474SOL    HW220322   3.750   5.283   5.713
 6475SOL     OW20323   6.042   4.249   3.670
 6475SOL    HW120324   6.088   4.335   3.691
 6475SOL    HW220325   6.108   4.174   3.673
 6476SOL     OW20326   4.729   3.197   6.601
 6476SOL    HW120327   4.791   3.162   6.531
 6476SOL    HW220328   4.782   3.238   6.675
 6477SOL     OW20329   5.935   5.398   0.881
 6477SOL    HW120330   6.010   5.464   0.881
 6477SOL    HW220331   5.892   5.397   0.972
 6478SOL     OW20332   3.364   6.574   2.417
 6478SOL    HW120333   3.323   6.637   2.483
 6478SOL    HW220334   3.434   6.519   2.462
 6479SOL     OW20335   3.374   5.800   4.711
 6479SOL    HW120336   3.412   5.800   4.804
 6479SOL    HW220337   3.290   5.745   4.709
 6480SOL     OW20338   2.043   1.196   0.164
 6480SOL    HW120339   1.946   1.173   0.150
 6480SOL    HW220340   2.057   1.294   0.150
 6481SOL     OW20341   3.497   2.335   1.687
 6481SOL    HW120342   3.439   2.256   1.707
 6481SOL    HW220343   3.573   2.337   1.752
 6482SOL     OW20344   6.508   2.398   6.821
 6482SOL    HW120345   6.410   2.410   6.806
 6482SOL    HW220346   6.542   2.474   6.878
 6483SOL     OW20347   0.469   6.415   3.804
 6483SOL    HW120348   0.376   6.452   3.804
 6483SOL    HW220349   0.474   6.335   3.864
 6484SOL     OW20350   2.954   1.388   2.495
 6484SOL    HW120351   2.988   1.305   2.450
 6484SOL    HW220352   2.867   1.368   2.540
 6485SOL     OW20353   2.121   5.665   3.974
 6485SOL    HW120354   2.121   5.579   3.924
 6485SOL    HW220355   2.196   5.723   3.941
 6486SOL     OW20356   1.048   5.439   2.458
 6486SOL    HW120357   1.084   5.401   2.372
 6486SOL    HW220358   1.119   5.434   2.528
 6487SOL     OW20359   1.451   6.572   5.708
 6487SOL    HW120360   1.464   6.641   5.779
 6487SOL    HW220361   1.433   6.483   5.752
 6488SOL     OW20362   4.196   5.709   4.859
 6488SOL    HW120363   4.168   5.797   4.821
 6488SOL    HW220364   4.120   5.644   4.853
 6489SOL     OW20365   2.984   3.330   6.441
 6489SOL    HW120366   2.985   3.330   6.341
 6489SOL    HW220367   3.018   3.418   6.475
 6490SOL     OW20368   2.918   0.993   6.115
 6490SOL    HW120369   2.864   0.933   6.056
 6490SOL    HW220370   2.872   1.081   6.125
 6491SOL     OW20371   3.215   0.908   1.451
 6491SOL    HW120372   3.178   0.969   1.520
 6491SOL    HW220373   3.250   0.825   1.495
 6492SOL     OW20374   3.691   3.651   4.917
 6492SOL    HW120375   3.786   3.676   4.900
 6492SOL    HW220376   3.660   3.588   4.846
 6493SOL     OW20377   0.998   4.551   6.500
 6493SOL    HW120378   0.968   4.597   6.416
 6493SOL    HW220379   1.068   4.607   6.546
 6494SOL     OW20380   7.013   6.820   2.801
 6494SOL    HW120381   0.059   6.759   2.761
 6494SOL    HW220382   6.958   6.769   2.867
 6495SOL     OW20383   6.965   0.713   4.311
 6495SOL    HW120384   0.014   0.781   4.294
 6495SOL    HW220385   6.954   0.655   4.231
 6496SOL     OW20386   5.997   0.450   2.144
 6496SOL    HW120387   5.979   0.354   2.125
 6496SOL    HW220388   6.040   0.493   2.065
 6497SOL     OW20389   1.082   0.399   1.298
 6497SOL    HW120390   1.105   0.478   1.356
 6497SOL    HW220391   1.085   0.315   1.354
 6498SOL     OW20392   0.701   3.807   4.466
 6498SOL    HW120393   0.754   3.751   4.529
 6498SOL    HW220394   0.729   3.787   4.372
 6499SOL     OW20395   5.376   3.653   5.267
 6499SOL    HW120396   5.439   3.720   5.228
 6499SOL    HW220397   5.363   3.578   5.203
 6500SOL     OW20398   0.468   4.071   2.605
 6500SOL    HW120399   0.424   4.029   2.684
 6500SOL    HW220400   0.568   4.070   2.618
 6501SOL     OW20401   0.095   1.030   0.902
 6501SOL    HW120402   0.171   1.059   0.961
 6501SOL    HW220403   0.018   1.001   0.959
 6502SOL     OW20404   0.348   3.821   1.924
 6502SOL    HW120405   0.330   3.724   1.944
 6502SOL    HW220406   0.432   3.828   1.869
 6503SOL     OW20407   6.042   0.916   3.797
 6503SOL    HW120408   5.977   0.908   3.873
 6503SOL    HW220409   6.116   0.978   3.823
 6504SOL     OW20410   3.407   6.216   6.200
 6504SOL    HW120411   3.381   6.311   6.188
 6504SOL    HW220412   3.326   6.158   6.198
 6505SOL     OW20413   4.987   6.183   6.059
 6505SOL    HW120414   5.051   6.216   5.989
 6505SOL    HW220415   4.922   6.120   6.018
 6506SOL     OW20416   6.868   2.647   3.658
 6506SOL    HW120417   6.944   2.605   3.607
 6506SOL    HW220418   6.889   2.645   3.756
 6507SOL     OW20419   2.651   6.002   5.836
 6507SOL    HW120420   2.624   5.906   5.824
 6507SOL    HW220421   2.650   6.048   5.748
 6508SOL     OW20422   1.802   0.506   3.037
 6508SOL    HW120423   1.845   0.586   3.077
 6508SOL    HW220424   1.803   0.513   2.938
 6509SOL     OW20425   4.903   2.016   4.767
 6509SOL    HW120426   4.840   2.007   4.689
 6509SOL    HW220427   4.850   2.030   4.851
 6510SOL     OW20428   5.305   5.371   6.766
 6510SOL    HW120429   5.322   5.459   6.721
 6510SOL    HW220430   5.356   5.367   6.852
 6511SOL     OW20431   4.659   1.515   5.023
 6511SOL    HW120432   4.698   1.423   5.021
 6511SOL    HW220433   4.564   1.510   5.053
 6512SOL     OW20434   3.100   6.928   2.276
 6512SOL    HW120435   3.033   7.001   2.279
 6512SOL    HW220436   3.059   6.843   2.310
 6513SOL     OW20437   1.705   5.683   3.659
 6513SOL    HW120438   1.622   5.656   3.708
 6513SOL    HW220439   1.703   5.782   3.642
 6514SOL     OW20440   5.687   0.972   4.565
 6514SOL    HW120441   5.747   1.017   4.499
 6514SOL    HW220442   5.645   0.892   4.523
 6515SOL     OW20443   1.765   3.321   3.402
 6515SOL    HW120444   1.799   3.232   3.372
 6515SOL    HW220445   1.761   3.324   3.502
 6516SOL     OW20446   6.868   3.067   1.393
 6516SOL    HW120447   6.837   2.979   1.357
 6516SOL    HW220448   6.798   3.136   1.377
 6517SOL     OW20449   6.951   2.054   1.164
 6517SOL    HW120450   0.010   2.089   1.119
 6517SOL    HW220451   6.929   2.111   1.243
 6518SOL     OW20452   0.562   0.352   2.188
 6518SOL    HW120453   0.603   0.303   2.111
 6518SOL    HW220454   0.599   0.445   2.192
 6519SOL     OW20455   0.334   1.733   2.745
 6519SOL    HW120456   0.378   1.644   2.758
 6519SOL    HW220457   0.347   1.790   2.826
 6520SOL     OW20458   0.077   5.371   6.729
 6520SOL    HW120459   0.143   5.434   6.688
 6520SOL    HW220460   0.086   5.373   6.828
 6521SOL     OW20461   1.990   2.832   4.081
 6521SOL    HW120462   1.964   2.777   4.002
 6521SOL    HW220463   1.936   2.804   4.160
 6522SOL     OW20464   2.566   4.697   5.074
 6522SOL    HW120465   2.509   4.660   5.001
 6522SOL    HW220466   2.662   4.678   5.053
 6523SOL     OW20467   3.901   0.581   6.350
 6523SOL    HW120468   3.865   0.674   6.359
 6523SOL    HW220469   3.825   0.518   6.337
 6524SOL     OW20470   2.884   2.848   1.630
 6524SOL    HW120471   2.833   2.789   1.567
 6524SOL    HW220472   2.957   2.795   1.673
 6525SOL     OW20473   1.958   4.949   3.013
 6525SOL    HW120474   1.921   4.939   3.105
 6525SOL    HW220475   1.887   4.985   2.952
 6526SOL     OW20476   1.061   0.214   1.524
 6526SOL    HW120477   0.980   0.172   1.484
 6526SOL    HW220478   1.081   0.170   1.611
 6527SOL     OW20479   6.709   2.092   6.998
 6527SOL    HW120480   6.677   2.093   6.903
 6527SOL    HW220481   6.639   2.134   0.034
 6528SOL     OW20482   6.107   1.439   5.474
 6528SOL    HW120483   6.192   1.472   5.514
 6528SOL    HW220484   6.079   1.500   5.400
 6529SOL     OW20485   1.525   0.351   2.730
 6529SOL    HW120486   1.524   0.278   2.663
 6529SOL    HW220487   1.497   0.315   2.819
 6530SOL     OW20488   6.961   1.750   1.236
 6530SOL    HW120489   6.907   1.834   1.234
 6530SOL    HW220490   0.032   1.770   1.208
 6531SOL     OW20491   4.942   3.525   4.747
 6531SOL    HW120492   4.911   3.434   4.776
 6531SOL    HW220493   4.886   3.595   4.789
 6532SOL     OW20494   1.332   1.518   1.437
 6532SOL    HW120495   1.379   1.577   1.370
 6532SOL    HW220496   1.357   1.423   1.420
 6533SOL     OW20497   4.176   6.059   0.415
 6533SOL    HW120498   4.211   6.144   0.457
 6533SOL    HW220499   4.199   6.058   0.318
 6534SOL     OW20500   4.617   5.205   1.521
 6534SOL    HW120501   4.585   5.293   1.554
 6534SOL    HW220502   4.570   5.132   1.570
 6535SOL     OW20503   6.304   4.489   4.590
 6535SOL    HW120504   6.317   4.514   4.494
 6535SOL    HW220505   6.330   4.567   4.648
 6536SOL     OW20506   0.248   1.753   5.347
 6536SOL    HW120507   0.316   1.691   5.385
 6536SOL    HW220508   0.287   1.803   5.270
 6537SOL     OW20509   6.565   4.529   5.696
 6537SOL    HW120510   6.640   4.575   5.743
 6537SOL    HW220511   6.493   4.507   5.762
 6538SOL     OW20512   1.772   3.371   5.649
 6538SOL    HW120513   1.840   3.408   5.711
 6538SOL    HW220514   1.704   3.319   5.700
 6539SOL     OW20515   5.277   0.465   6.920
 6539SOL    HW120516   5.253   0.429   7.010
 6539SOL    HW220517   5.230   0.551   6.905
 6540SOL     OW20518   3.492   2.944   6.437
 6540SOL    HW120519   3.493   3.043   6.452
 6540SOL    HW220520   3.522   2.897   6.520
 6541SOL     OW20521   5.357   1.608   5.456
 6541SOL    HW120522   5.344   1.704   5.430
 6541SOL    HW220523   5.283   1.580   5.518
 6542SOL     OW20524   1.130   3.337   3.614
 6542SOL    HW120525   1.063   3.332   3.540
 6542SOL    HW220526   1.083   3.344   3.701
 6543SOL     OW20527   4.835   2.825   5.760
 6543SOL    HW120528   4.784   2.745   5.793
 6543SOL    HW220529   4.893   2.860   5.833
 6544SOL     OW20530   1.570   6.819   3.444
 6544SOL    HW120531   1.499   6.888   3.461
 6544SOL    HW220532   1.586   6.766   3.527
 6545SOL     OW20533   4.197   0.711   0.576
 6545SOL    HW120534   4.179   0.674   0.667
 6545SOL    HW220535   4.292   0.744   0.572
 6546SOL     OW20536   2.752   4.210   6.029
 6546SOL    HW120537   2.781   4.125   5.986
 6546SOL    HW220538   2.653   4.219   6.023
 6547SOL     OW20539   4.814   0.738   6.444
 6547SOL    HW120540   4.789   0.643   6.465
 6547SOL    HW220541   4.814   0.791   6.529
 6548SOL     OW20542   1.641   3.690   0.870
 6548SOL    HW120543   1.581   3.613   0.849
 6548SOL    HW220544   1.734   3.656   0.888
 6549SOL     OW20545   4.370   0.527   2.405
 6549SOL    HW120546   4.426   0.562   2.480
 6549SOL    HW220547   4.389   0.429   2.393
 6550SOL     OW20548   0.498   6.742   4.355
 6550SOL    HW120549   0.462   6.706   4.269
 6550SOL    HW220550   0.570   6.681   4.390
 6551SOL     OW20551   2.009   3.572   1.835
 6551SOL    HW120552   1.921   3.549   1.876
 6551SOL    HW220553   2.083   3.537   1.894
 6552SOL     OW20554   1.894   6.797   0.169
 6552SOL    HW120555   1.813   6.742   0.148
 6552SOL    HW220556   1.866   6.890   0.192
 6553SOL     OW20557   0.306   2.526   3.287
 6553SOL    HW120558   0.331   2.447   3.342
 6553SOL    HW220559   0.316   2.504   3.190
 6554SOL     OW20560   1.482   0.191   4.740
 6554SOL    HW120561   1.453   0.266   4.800
 6554SOL    HW220562   1.402   0.139   4.711
 6555SOL     OW20563   5.425   1.867   2.987
 6555SOL    HW120564   5.398   1.961   2.965
 6555SOL    HW220565   5.358   1.826   3.048
 6556SOL     OW20566   5.825   4.178   3.531
 6556SOL    HW120567   5.895   4.213   3.594
 6556SOL    HW220568   5.854   4.089   3.497
 6557SOL     OW20569   2.816   0.602   3.129
 6557SOL    HW120570   2.740   0.621   3.191
 6557SOL    HW220571   2.786   0.613   3.034
 6558SOL     OW20572   6.068   5.429   0.166
 6558SOL    HW120573   6.159   5.387   0.157
 6558SOL    HW220574   6.060   5.470   0.257
 6559SOL     OW20575   7.014   4.410   0.017
 6559SOL    HW120576   6.948   4.356   0.070
 6559SOL    HW220577   0.011   4.364   6.954
 6560SOL     OW20578   4.152   4.752   1.920
 6560SOL    HW120579   4.055   4.739   1.899
 6560SOL    HW220580   4.205   4.750   1.835
 6561SOL     OW20581   3.407   4.141   1.256
 6561SOL    HW120582   3.313   4.135   1.221
 6561SOL    HW220583   3.467   4.177   1.185
 6562SOL     OW20584   5.902   2.083   1.419
 6562SOL    HW120585   5.815   2.085   1.470
 6562SOL    HW220586   5.925   2.175   1.389
 6563SOL     OW20587   5.302   5.743   5.930
 6563SOL    HW120588   5.209   5.710   5.913
 6563SOL    HW220589   5.366   5.694   5.870
 6564SOL     OW20590   6.477   4.056   1.939
 6564SOL    HW120591   6.547   4.119   1.907
 6564SOL    HW220592   6.480   4.050   2.039
 6565SOL     OW20593   6.213   0.890   3.157
 6565SOL    HW120594   6.194   0.910   3.061
 6565SOL    HW220595   6.214   0.976   3.210
 6566SOL     OW20596   3.752   6.785   2.604
 6566SOL    HW120597   3.705   6.749   2.685
 6566SOL    HW220598   3.846   6.752   2.603
 6567SOL     OW20599   5.002   0.393   1.934
 6567SOL    HW120600   5.057   0.388   2.018
 6567SOL    HW220601   4.919   0.340   1.945
 6568SOL     OW20602   3.679   1.708   3.424
 6568SOL    HW120603   3.612   1.743   3.358
 6568SOL    HW220604   3.743   1.780   3.448
 6569SOL     OW20605   2.651   3.108   6.980
 6569SOL    HW120606   2.609   3.163   0.030
 6569SOL    HW220607   2.635   3.011   6.999
 6570SOL     OW20608   3.600   1.373   2.148
 6570SOL    HW120609   3.623   1.388   2.244
 6570SOL    HW220610   3.663   1.307   2.108
 6571SOL     OW20611   3.092   4.936   2.498
 6571SOL    HW120612   3.038   4.868   2.548
 6571SOL    HW220613   3.093   4.911   2.401
 6572SOL     OW20614   0.195   4.042   4.012
 6572SOL    HW120615   0.286   4.064   4.046
 6572SOL    HW220616   0.184   4.078   3.920
 6573SOL     OW20617   0.542   2.141   2.377
 6573SOL    HW120618   0.599   2.194   2.315
 6573SOL    HW220619   0.566   2.044   2.370
 6574SOL     OW20620   2.645   5.843   3.153
 6574SOL    HW120621   2.567   5.827   3.094
 6574SOL    HW220622   2.727   5.856   3.097
 6575SOL     OW20623   0.923   6.982   4.055
 6575SOL    HW120624   1.023   6.975   4.054
 6575SOL    HW220625   0.889   6.979   3.961
 6576SOL     OW20626   3.231   6.236   0.229
 6576SOL    HW120627   3.301   6.188   0.281
 6576SOL    HW220628   3.141   6.221   0.271
 6577SOL     OW20629   1.128   1.840   3.231
 6577SOL    HW120630   1.119   1.929   3.275
 6577SOL    HW220631   1.222   1.808   3.238
 6578SOL     OW20632   0.709   6.011   2.392
 6578SOL    HW120633   0.767   6.075   2.443
 6578SOL    HW220634   0.747   6.000   2.300
 6579SOL     OW20635   6.700   2.853   3.628
 6579SOL    HW120636   6.759   2.773   3.634
 6579SOL    HW220637   6.707   2.906   3.712
 6580SOL     OW20638   0.676   2.112   0.896
 6580SOL    HW120639   0.585   2.148   0.875
 6580SOL    HW220640   0.741   2.143   0.827
 6581SOL     OW20641   2.007   0.730   0.690
 6581SOL    HW120642   2.099   0.770   0.693
 6581SOL    HW220643   1.997   0.664   0.765
 6582SOL     OW20644   0.161   1.042   3.301
 6582SOL    HW120645   0.078   1.041   3.357
 6582SOL    HW220646   0.226   1.108   3.340
 6583SOL     OW20647   4.827   6.720   5.782
 6583SOL    HW120648   4.737   6.759   5.801
 6583SOL    HW220649   4.822   6.665   5.698
 6584SOL     OW20650   4.591   1.938   0.308
 6584SOL    HW120651   4.593   1.903   0.214
 6584SOL    HW220652   4.655   2.014   0.316
 6585SOL     OW20653   6.135   5.917   0.085
 6585SOL    HW120654   6.208   5.852   0.106
 6585SOL    HW220655   6.171   6.010   0.081
 6586SOL     OW20656   6.100   1.115   5.969
 6586SOL    HW120657   6.194   1.113   6.003
 6586SOL    HW220658   6.083   1.203   5.924
 6587SOL     OW20659   1.345   4.993   6.112
 6587SOL    HW120660   1.246   4.987   6.125
 6587SOL    HW220661   1.386   4.902   6.122
 6588SOL     OW20662   0.572   2.615   1.428
 6588SOL    HW120663   0.531   2.701   1.458
 6588SOL    HW220664   0.647   2.634   1.365
 6589SOL     OW20665   4.638   0.168   2.214
 6589SOL    HW120666   4.706   0.105   2.249
 6589SOL    HW220667   4.670   0.207   2.127
 6590SOL     OW20668   0.155   1.301   6.596
 6590SOL    HW120669   0.070   1.250   6.608
 6590SOL    HW220670   0.233   1.240   6.610
 6591SOL     OW20671   5.349   5.734   3.595
 6591SOL    HW120672   5.333   5.782   3.681
 6591SOL    HW220673   5.267   5.739   3.538
 6592SOL     OW20674   5.389   6.601   3.036
 6592SOL    HW120675   5.327   6.657   3.091
 6592SOL    HW220676   5.423   6.524   3.092
 6593SOL     OW20677   2.533   2.449   2.429
 6593SOL    HW120678   2.632   2.441   2.435
 6593SOL    HW220679   2.493   2.438   2.520
 6594SOL     OW20680   3.453   1.371   5.495
 6594SOL    HW120681   3.522   1.389   5.566
 6594SOL    HW220682   3.484   1.409   5.408
 6595SOL     OW20683   1.217   4.202   6.463
 6595SOL    HW120684   1.146   4.271   6.450
 6595SOL    HW220685   1.223   4.145   6.381
 6596SOL     OW20686   3.498   0.268   4.483
 6596SOL    HW120687   3.458   0.310   4.402
 6596SOL    HW220688   3.515   0.171   4.464
 6597SOL     OW20689   1.761   5.412   1.528
 6597SOL    HW120690   1.819   5.358   1.589
 6597SOL    HW220691   1.668   5.416   1.564
 6598SOL     OW20692   1.666   4.573   3.722
 6598SOL    HW120693   1.724   4.515   3.664
 6598SOL    HW220694   1.715   4.596   3.806
 6599SOL     OW20695   3.916   6.366   6.320
 6599SOL    HW120696   3.959   6.297   6.379
 6599SOL    HW220697   3.972   6.449   6.319
 6600SOL     OW20698   3.405   6.662   5.333
 6600SOL    HW120699   3.347   6.673   5.252
 6600SOL    HW220700   3.430   6.566   5.344
 6601SOL     OW20701   0.836   2.246   4.532
 6601SOL    HW120702   0.851   2.236   4.433
 6601SOL    HW220703   0.773   2.321   4.548
 6602SOL     OW20704   1.705   0.414   1.265
 6602SOL    HW120705   1.617   0.370   1.280
 6602SOL    HW220706   1.768   0.392   1.339
 6603SOL     OW20707   0.657   3.079   3.851
 6603SOL    HW120708   0.621   3.006   3.795
 6603SOL    HW220709   0.750   3.056   3.881
 6604SOL     OW20710   1.696   0.050   1.666
 6604SOL    HW120711   1.719   0.117   1.736
 6604SOL    HW220712   1.778   0.026   1.615
 6605SOL     OW20713   5.323   5.160   2.269
 6605SOL    HW120714   5.289   5.247   2.305
 6605SOL    HW220715   5.417   5.173   2.235
 6606SOL     OW20716   6.448   5.297   2.175
 6606SOL    HW120717   6.521   5.245   2.131
 6606SOL    HW220718   6.484   5.386   2.204
 6607SOL     OW20719   1.141   4.839   3.357
 6607SOL    HW120720   1.053   4.796   3.376
 6607SOL    HW220721   1.185   4.793   3.280
 6608SOL     OW20722   6.909   6.807   6.603
 6608SOL    HW120723   6.951   6.761   6.525
 6608SOL    HW220724   6.811   6.814   6.588
 6609SOL     OW20725   5.741   0.440   6.947
 6609SOL    HW120726   5.706   0.364   6.892
 6609SOL    HW220727   5.742   0.413   0.021
 6610SOL     OW20728   2.278   6.789   6.996
 6610SOL    HW120729   2.289   6.888   6.990
 6610SOL    HW220730   2.181   6.766   6.992
 6611SOL     OW20731   4.730   2.852   3.292
 6611SOL    HW120732   4.718   2.949   3.270
 6611SOL    HW220733   4.790   2.844   3.372
 6612SOL     OW20734   6.440   2.245   6.280
 6612SOL    HW120735   6.373   2.311   6.247
 6612SOL    HW220736   6.525   2.256   6.228
 6613SOL     OW20737   6.795   6.195   5.527
 6613SOL    HW120738   6.755   6.248   5.452
 6613SOL    HW220739   6.746   6.216   5.612
 6614SOL     OW20740   4.279   5.934   6.930
 6614SOL    HW120741   4.312   5.961   6.840
 6614SOL    HW220742   4.219   5.854   6.921
 6615SOL     OW20743   1.491   5.827   1.343
 6615SOL    HW120744   1.439   5.912   1.338
 6615SOL    HW220745   1.491   5.794   1.438
 6616SOL     OW20746   4.349   0.420   6.946
 6616SOL    HW120747   4.434   0.368   6.949
 6616SOL    HW220748   4.329   0.446   6.852
 6617SOL     OW20749   4.538   5.597   3.633
 6617SOL    HW120750   4.594   5.668   3.590
 6617SOL    HW220751   4.581   5.569   3.719
 6618SOL     OW20752   1.898   2.052   2.331
 6618SOL    HW120753   1.889   2.020   2.425
 6618SOL    HW220754   1.847   1.992   2.270
 6619SOL     OW20755   5.702   7.020   4.202
 6619SOL    HW120756   5.750   0.031   4.121
 6619SOL    HW220757   5.755   0.020   4.284
 6620SOL     OW20758   1.908   2.630   5.540
 6620SOL    HW120759   1.954   2.698   5.597
 6620SOL    HW220760   1.815   2.661   5.520
 6621SOL     OW20761   3.761   3.290   5.662
 6621SOL    HW120762   3.725   3.306   5.570
 6621SOL    HW220763   3.796   3.197   5.668
 6622SOL     OW20764   5.895   5.752   2.285
 6622SOL    HW120765   5.974   5.814   2.278
 6622SOL    HW220766   5.817   5.802   2.321
 6623SOL     OW20767   3.916   2.892   5.376
 6623SOL    HW120768   3.916   2.961   5.303
 6623SOL    HW220769   4.009   2.855   5.386
 6624SOL     OW20770   0.367   4.583   5.543
 6624SOL    HW120771   0.441   4.644   5.514
 6624SOL    HW220772   0.306   4.633   5.604
 6625SOL     OW20773   5.277   2.380   5.015
 6625SOL    HW120774   5.252   2.292   4.975
 6625SOL    HW220775   5.351   2.366   5.081
 6626SOL     OW20776   2.932   0.028   5.537
 6626SOL    HW120777   2.988   0.080   5.602
 6626SOL    HW220778   2.886   6.976   5.585
 6627SOL     OW20779   1.531   6.666   4.010
 6627SOL    HW120780   1.565   6.680   4.102
 6627SOL    HW220781   1.431   6.659   4.011
 6628SOL     OW20782   5.873   4.897   4.823
 6628SOL    HW120783   5.857   4.802   4.797
 6628SOL    HW220784   5.819   4.957   4.764
 6629SOL     OW20785   4.310   6.137   6.325
 6629SOL    HW120786   4.244   6.158   6.397
 6629SOL    HW220787   4.398   6.181   6.345
 6630SOL     OW20788   4.030   1.425   1.567
 6630SOL    HW120789   3.966   1.498   1.544
 6630SOL    HW220790   4.054   1.431   1.664
 6631SOL     OW20791   2.114   6.181   3.983
 6631SOL    HW120792   2.192   6.132   4.022
 6631SOL    HW220793   2.132   6.202   3.887
 6632SOL     OW20794   0.539   0.603   0.860
 6632SOL    HW120795   0.545   0.592   0.959
 6632SOL    HW220796   0.600   0.537   0.816
 6633SOL     OW20797   2.223   5.237   6.021
 6633SOL    HW120798   2.144   5.273   5.970
 6633SOL    HW220799   2.224   5.137   6.016
 6634SOL     OW20800   5.742   1.436   5.405
 6634SOL    HW120801   5.676   1.412   5.333
 6634SOL    HW220802   5.705   1.409   5.494
 6635SOL     OW20803   5.016   4.401   3.524
 6635SOL    HW120804   5.010   4.347   3.608
 6635SOL    HW220805   5.011   4.341   3.445
 6636SOL     OW20806   4.627   1.494   0.023
 6636SOL    HW120807   4.539   1.487   0.071
 6636SOL    HW220808   4.645   1.409   6.996
 6637SOL     OW20809   1.137   6.954   6.391
 6637SOL    HW120810   1.175   6.960   6.299
 6637SOL    HW220811   1.041   6.979   6.390
 6638SOL     OW20812   3.100   3.638   3.279
 6638SOL    HW120813   3.082   3.685   3.365
 6638SOL    HW220814   3.065   3.694   3.203
 6639SOL     OW20815   4.628   4.498   6.859
 6639SOL    HW120816   4.607   4.576   6.799
 6639SOL    HW220817   4.567   4.422   6.836
 6640SOL     OW20818   6.293   1.850   5.445
 6640SOL    HW120819   6.386   1.852   5.409
 6640SOL    HW220820   6.276   1.761   5.488
 6641SOL     OW20821   2.824   1.378   6.713
 6641SOL    HW120822   2.733   1.382   6.754
 6641SOL    HW220823   2.857   1.283   6.715
 6642SOL     OW20824   2.630   6.068   6.460
 6642SOL    HW120825   2.565   5.996   6.434
 6642SOL    HW220826   2.660   6.053   6.554
 6643SOL     OW20827   4.895   6.221   6.605
 6643SOL    HW120828   4.835   6.278   6.661
 6643SOL    HW220829   4.983   6.265   6.593
 6644SOL     OW20830   2.720   5.981   1.652
 6644SOL    HW120831   2.625   6.006   1.670
 6644SOL    HW220832   2.734   5.884   1.674
 6645SOL     OW20833   5.232   3.838   1.040
 6645SOL    HW120834   5.243   3.836   0.941
 6645SOL    HW220835   5.149   3.889   1.064
 6646SOL     OW20836   4.858   1.604   4.855
 6646SOL    HW120837   4.914   1.671   4.903
 6646SOL    HW220838   4.787   1.570   4.917
 6647SOL     OW20839   4.397   6.932   0.762
 6647SOL    HW120840   4.334   7.008   0.743
 6647SOL    HW220841   4.480   6.968   0.804
 6648SOL     OW20842   3.580   6.874   4.046
 6648SOL    HW120843   3.596   6.841   3.953
 6648SOL    HW220844   3.597   6.801   4.111
 6649SOL     OW20845   6.009   1.846   6.273
 6649SOL    HW120846   6.052   1.903   6.343
 6649SOL    HW220847   5.961   1.904   6.207
 6650SOL     OW20848   3.891   1.565   5.441
 6650SOL    HW120849   3.836   1.589   5.361
 6650SOL    HW220850   3.886   1.638   5.509
 6651SOL     OW20851   1.569   0.788   6.117
 6651SOL    HW120852   1.483   0.835   6.139
 6651SOL    HW220853   1.635   0.854   6.081
 6652SOL     OW20854   0.285   4.816   0.077
 6652SOL    HW120855   0.331   4.841   7.014
 6652SOL    HW220856   0.351   4.775   0.140
 6653SOL     OW20857   3.868   3.535   1.135
 6653SOL    HW120858   3.950   3.527   1.192
 6653SOL    HW220859   3.888   3.501   1.044
 6654SOL     OW20860   1.493   5.392   1.623
 6654SOL    HW120861   1.426   5.391   1.548
 6654SOL    HW220862   1.445   5.391   1.710
 6655SOL     OW20863   0.192   6.603   3.494
 6655SOL    HW120864   0.215   6.619   3.590
 6655SOL    HW220865   0.250   6.662   3.436
 6656SOL     OW20866   6.106   2.141   2.155
 6656SOL    HW120867   6.092   2.197   2.237
 6656SOL    HW220868   6.079   2.193   2.074
 6657SOL     OW20869   6.066   3.923   4.825
 6657SOL    HW120870   6.118   3.944   4.907
 6657SOL    HW220871   5.977   3.885   4.850
 6658SOL     OW20872   5.067   1.250   5.547
 6658SOL    HW120873   5.166   1.262   5.538
 6658SOL    HW220874   5.021   1.338   5.531
 6659SOL     OW20875   2.100   3.012   1.423
 6659SOL    HW120876   2.016   3.064   1.411
 6659SOL    HW220877   2.169   3.045   1.358
 6660SOL     OW20878   1.848   5.338   1.267
 6660SOL    HW120879   1.801   5.373   1.348
 6660SOL    HW220880   1.817   5.388   1.187
 6661SOL     OW20881   2.357   0.391   5.336
 6661SOL    HW120882   2.339   0.469   5.276
 6661SOL    HW220883   2.430   0.334   5.296
 6662SOL     OW20884   1.140   0.677   0.609
 6662SOL    HW120885   1.069   0.711   0.547
 6662SOL    HW220886   1.230   0.700   0.573
 6663SOL     OW20887   6.628   6.189   4.867
 6663SOL    HW120888   6.657   6.219   4.958
 6663SOL    HW220889   6.702   6.206   4.802
 6664SOL     OW20890   1.951   0.188   0.368
 6664SOL    HW120891   2.023   0.182   0.436
 6664SOL    HW220892   1.871   0.234   0.407
 6665SOL     OW20893   1.508   6.506   4.651
 6665SOL    HW120894   1.502   6.452   4.735
 6665SOL    HW220895   1.451   6.464   4.580
 6666SOL     OW20896   6.734   6.283   5.814
 6666SOL    HW120897   6.828   6.279   5.849
 6666SOL    HW220898   6.674   6.316   5.887
 6667SOL     OW20899   0.325   6.519   5.627
 6667SOL    HW120900   0.363   6.585   5.563
 6667SOL    HW220901   0.244   6.558   5.671
 6668SOL     OW20902   6.874   5.823   1.057
 6668SOL    HW120903   6.786   5.834   1.103
 6668SOL    HW220904   6.889   5.726   1.036
 6669SOL     OW20905   2.639   2.212   1.887
 6669SOL    HW120906   2.590   2.279   1.943
 6669SOL    HW220907   2.736   2.211   1.913
 6670SOL     OW20908   2.936   1.341   5.524
 6670SOL    HW120909   3.034   1.320   5.532
 6670SOL    HW220910   2.904   1.317   5.432
 6671SOL     OW20911   4.004   7.016   0.669
 6671SOL    HW120912   3.997   0.054   0.590
 6671SOL    HW220913   3.997   6.921   0.638
 6672SOL     OW20914   6.517   2.139   0.433
 6672SOL    HW120915   6.523   2.039   0.434
 6672SOL    HW220916   6.598   2.178   0.478
 6673SOL     OW20917   5.025   4.261   3.769
 6673SOL    HW120918   5.058   4.275   3.862
 6673SOL    HW220919   4.951   4.194   3.769
 6674SOL     OW20920   0.452   3.888   0.508
 6674SOL    HW120921   0.379   3.900   0.576
 6674SOL    HW220922   0.412   3.874   0.418
 6675SOL     OW20923   5.897   3.115   0.586
 6675SOL    HW120924   5.842   3.033   0.572
 6675SOL    HW220925   5.848   3.177   0.648
 6676SOL     OW20926   0.562   3.746   4.910
 6676SOL    HW120927   0.486   3.810   4.905
 6676SOL    HW220928   0.648   3.796   4.918
 6677SOL     OW20929   1.012   1.470   6.298
 6677SOL    HW120930   1.071   1.546   6.323
 6677SOL    HW220931   0.934   1.503   6.244
 6678SOL     OW20932   3.087   4.053   0.322
 6678SOL    HW120933   3.183   4.053   0.294
 6678SOL    HW220934   3.081   4.044   0.422
 6679SOL     OW20935   3.759   0.631   3.758
 6679SOL    HW120936   3.683   0.571   3.781
 6679SOL    HW220937   3.844   0.578   3.752
 6680SOL     OW20938   4.196   6.836   6.458
 6680SOL    HW120939   4.224   6.853   6.364
 6680SOL    HW220940   4.162   6.921   6.499
 6681SOL     OW20941   4.493   5.962   0.612
 6681SOL    HW120942   4.476   5.943   0.515
 6681SOL    HW220943   4.405   5.967   0.660
 6682SOL     OW20944   2.040   5.011   0.117
 6682SOL    HW120945   2.087   5.030   0.030
 6682SOL    HW220946   2.041   5.093   0.173
 6683SOL     OW20947   6.236   3.289   5.484
 6683SOL    HW120948   6.239   3.294   5.584
 6683SOL    HW220949   6.212   3.196   5.456
 6684SOL     OW20950   3.681   6.482   2.322
 6684SOL    HW120951   3.700   6.400   2.267
 6684SOL    HW220952   3.762   6.541   2.322
 6685SOL     OW20953   4.467   3.119   6.473
 6685SOL    HW120954   4.520   3.194   6.514
 6685SOL    HW220955   4.528   3.043   6.452
 6686SOL     OW20956   5.211   5.641   4.138
 6686SOL    HW120957   5.168   5.592   4.062
 6686SOL    HW220958   5.180   5.601   4.225
 6687SOL     OW20959   0.634   3.291   1.930
 6687SOL    HW120960   0.651   3.218   1.864
 6687SOL    HW220961   0.710   3.356   1.929
 6688SOL     OW20962   5.022   4.611   1.313
 6688SOL    HW120963   5.068   4.674   1.250
 6688SOL    HW220964   4.929   4.643   1.331
 6689SOL     OW20965   4.654   4.101   5.648
 6689SOL    HW120966   4.702   4.019   5.618
 6689SOL    HW220967   4.663   4.172   5.578
 6690SOL     OW20968   0.354   0.101   0.397
 6690SOL    HW120969   0.387   0.100   0.492
 6690SOL    HW220970   0.358   0.195   0.362
 6691SOL     OW20971   1.842   0.198   2.872
 6691SOL    HW120972   1.879   0.182   2.963
 6691SOL    HW220973   1.917   0.220   2.809
 6692SOL     OW20974   3.752   3.827   3.628
 6692SOL    HW120975   3.818   3.826   3.704
 6692SOL    HW220976   3.722   3.733   3.609
 6693SOL     OW20977   4.271   2.304   5.487
 6693SOL    HW120978   4.228   2.369   5.551
 6693SOL    HW220979   4.321   2.235   5.539
 6694SOL     OW20980   3.567   5.723   1.451
 6694SOL    HW120981   3.515   5.648   1.493
 6694SOL    HW220982   3.574   5.798   1.516
 6695SOL     OW20983   2.499   2.257   6.650
 6695SOL    HW120984   2.405   2.236   6.623
 6695SOL    HW220985   2.562   2.193   6.606
 6696SOL     OW20986   3.719   2.986   4.268
 6696SOL    HW120987   3.687   3.080   4.283
 6696SOL    HW220988   3.700   2.931   4.349
 6697SOL     OW20989   4.981   1.197   2.997
 6697SOL    HW120990   5.075   1.193   2.963
 6697SOL    HW220991   4.970   1.133   3.072
 6698SOL     OW20992   3.392   2.498   0.565
 6698SOL    HW120993   3.419   2.573   0.505
 6698SOL    HW220994   3.471   2.471   0.620
 6699SOL     OW20995   2.421   6.030   5.617
 6699SOL    HW120996   2.374   5.947   5.587
 6699SOL    HW220997   2.368   6.075   5.689
 6700SOL     OW20998   0.250   1.502   1.464
 6700SOL    HW120999   0.161   1.474   1.427
 6700SOL    HW221000   0.255   1.602   1.464
 6701SOL     OW21001   5.705   5.292   1.717
 6701SOL    HW121002   5.700   5.333   1.808
 6701SOL    HW221003   5.686   5.361   1.647
 6702SOL     OW21004   2.054   2.621   1.100
 6702SOL    HW121005   2.025   2.688   1.168
 6702SOL    HW221006   2.102   2.545   1.146
 6703SOL     OW21007   6.474   0.250   0.954
 6703SOL    HW121008   6.475   0.150   0.954
 6703SOL    HW221009   6.564   0.284   0.979
 6704SOL     OW21010   4.291   2.254   2.762
 6704SOL    HW121011   4.201   2.223   2.792
 6704SOL    HW221012   4.345   2.175   2.733
 6705SOL     OW21013   6.312   3.186   0.919
 6705SOL    HW121014   6.236   3.125   0.894
 6705SOL    HW221015   6.360   3.214   0.836
 6706SOL     OW21016   0.941   5.726   1.234
 6706SOL    HW121017   0.928   5.703   1.137
 6706SOL    HW221018   0.934   5.644   1.289
 6707SOL     OW21019   5.935   0.060   3.267
 6707SOL    HW121020   5.853   0.010   3.294
 6707SOL    HW221021   6.016   0.011   3.299
 6708SOL     OW21022   5.397   5.414   0.673
 6708SOL    HW121023   5.379   5.370   0.760
 6708SOL    HW221024   5.329   5.383   0.605
 6709SOL     OW21025   1.506   5.879   3.127
 6709SOL    HW121026   1.564   5.842   3.055
 6709SOL    HW221027   1.427   5.924   3.086
 6710SOL     OW21028   3.674   1.022   6.085
 6710SOL    HW121029   3.610   1.034   6.010
 6710SOL    HW221030   3.676   0.926   6.113
 6711SOL     OW21031   5.604   6.279   5.338
 6711SOL    HW121032   5.532   6.279   5.407
 6711SOL    HW221033   5.660   6.361   5.347
 6712SOL     OW21034   5.943   3.691   0.800
 6712SOL    HW121035   6.004   3.715   0.876
 6712SOL    HW221036   5.873   3.762   0.789
 6713SOL     OW21037   1.846   0.468   2.765
 6713SOL    HW121038   1.805   0.380   2.786
 6713SOL    HW221039   1.938   0.454   2.728
 6714SOL     OW21040   6.324   1.213   6.545
 6714SOL    HW121041   6.234   1.186   6.579
 6714SOL    HW221042   6.315   1.290   6.482
 6715SOL     OW21043   0.875   0.461   0.837
 6715SOL    HW121044   0.884   0.532   0.906
 6715SOL    HW221045   0.939   0.478   0.763
 6716SOL     OW21046   0.147   5.795   1.762
 6716SOL    HW121047   0.072   5.731   1.742
 6716SOL    HW221048   0.201   5.761   1.838
 6717SOL     OW21049   2.611   3.022   6.701
 6717SOL    HW121050   2.608   3.051   6.797
 6717SOL    HW221051   2.674   3.082   6.651
 6718SOL     OW21052   5.127   0.148   0.750
 6718SOL    HW121053   5.086   0.084   0.685
 6718SOL    HW221054   5.109   0.242   0.721
 6719SOL     OW21055   3.328   6.511   6.903
 6719SOL    HW121056   3.314   6.585   6.969
 6719SOL    HW221057   3.243   6.494   6.853
 6720SOL     OW21058   1.888   0.210   3.607
 6720SOL    HW121059   1.976   0.258   3.609
 6720SOL    HW221060   1.817   0.272   3.575
 6721SOL     OW21061   6.880   6.458   0.126
 6721SOL    HW121062   6.973   6.493   0.115
 6721SOL    HW221063   6.857   6.452   0.223
 6722SOL     OW21064   6.267   2.676   0.800
 6722SOL    HW121065   6.270   2.663   0.701
 6722SOL    HW221066   6.321   2.756   0.825
 6723SOL     OW21067   1.680   6.971   4.805
 6723SOL    HW121068   1.698   0.030   4.750
 6723SOL    HW221069   1.609   6.991   4.872
 6724SOL     OW21070   2.639   3.717   6.338
 6724SOL    HW121071   2.624   3.619   6.324
 6724SOL    HW221072   2.656   3.735   6.435
 6725SOL     OW21073   6.373   2.865   1.851
 6725SOL    HW121074   6.368   2.964   1.859
 6725SOL    HW221075   6.321   2.836   1.770
 6726SOL     OW21076   1.286   2.873   4.302
 6726SOL    HW121077   1.275   2.954   4.360
 6726SOL    HW221078   1.234   2.797   4.341
 6727SOL     OW21079   7.007   4.808   5.900
 6727SOL    HW121080   7.001   4.894   5.850
 6727SOL    HW221081   0.059   4.752   5.863
 6728SOL     OW21082   4.222   2.300   2.486
 6728SOL    HW121083   4.291   2.281   2.416
 6728SOL    HW221084   4.266   2.311   2.575
 6729SOL     OW21085   6.532   0.692   0.688
 6729SOL    HW121086   6.623   0.698   0.728
 6729SOL    HW221087   6.472   0.640   0.749
 6730SOL     OW21088   2.032   6.905   1.760
 6730SOL    HW121089   2.113   6.889   1.816
 6730SOL    HW221090   1.951   6.907   1.818
 6731SOL     OW21091   1.588   6.842   1.114
 6731SOL    HW121092   1.654   6.849   1.039
 6731SOL    HW221093   1.638   6.839   1.201
 6732SOL     OW21094   5.943   4.094   4.643
 6732SOL    HW121095   5.988   4.182   4.656
 6732SOL    HW221096   5.985   4.025   4.703
 6733SOL     OW21097   3.153   5.747   6.367
 6733SOL    HW121098   3.211   5.722   6.445
 6733SOL    HW221099   3.076   5.684   6.361
 6734SOL     OW21100   6.061   2.115   4.737
 6734SOL    HW121101   6.037   2.084   4.645
 6734SOL    HW221102   6.037   2.043   4.803
 6735SOL     OW21103   6.651   3.780   4.504
 6735SOL    HW121104   6.696   3.695   4.533
 6735SOL    HW221105   6.571   3.797   4.562
 6736SOL     OW21106   2.514   3.371   6.819
 6736SOL    HW121107   2.424   3.412   6.805
 6736SOL    HW221108   2.518   3.333   6.912
 6737SOL     OW21109   1.582   3.043   0.795
 6737SOL    HW121110   1.640   2.989   0.855
 6737SOL    HW221111   1.492   3.056   0.837
 6738SOL     OW21112   1.773   5.580   3.380
 6738SOL    HW121113   1.810   5.487   3.386
 6738SOL    HW221114   1.745   5.611   3.472
 6739SOL     OW21115   4.771   5.988   4.440
 6739SOL    HW121116   4.827   6.051   4.386
 6739SOL    HW221117   4.816   5.970   4.528
 6740SOL     OW21118   0.077   6.943   5.213
 6740SOL    HW121119   0.089   6.891   5.129
 6740SOL    HW221120   0.087   6.881   5.292
 6741SOL     OW21121   3.968   2.515   5.990
 6741SOL    HW121122   4.056   2.556   5.967
 6741SOL    HW221123   3.922   2.571   6.059
 6742SOL     OW21124   5.851   5.632   3.273
 6742SOL    HW121125   5.888   5.598   3.187
 6742SOL    HW221126   5.925   5.668   3.330
 6743SOL     OW21127   4.353   4.593   6.206
 6743SOL    HW121128   4.280   4.612   6.141
 6743SOL    HW221129   4.421   4.533   6.165
 6744SOL     OW21130   6.428   4.132   5.721
 6744SOL    HW121131   6.502   4.190   5.755
 6744SOL    HW221132   6.341   4.177   5.736
 6745SOL     OW21133   0.619   0.021   3.626
 6745SOL    HW121134   0.650   0.114   3.648
 6745SOL    HW221135   0.613   0.011   3.527
 6746SOL     OW21136   1.174   1.218   4.091
 6746SOL    HW121137   1.211   1.306   4.121
 6746SOL    HW221138   1.127   1.230   4.003
 6747SOL     OW21139   5.507   1.225   5.848
 6747SOL    HW121140   5.536   1.156   5.915
 6747SOL    HW221141   5.413   1.253   5.868
 6748SOL     OW21142   3.318   1.839   3.048
 6748SOL    HW121143   3.262   1.813   2.969
 6748SOL    HW221144   3.383   1.909   3.021
 6749SOL     OW21145   3.808   4.048   0.709
 6749SOL    HW121146   3.783   4.013   0.799
 6749SOL    HW221147   3.725   4.060   0.654
 6750SOL     OW21148   3.610   2.025   4.189
 6750SOL    HW121149   3.527   2.052   4.140
 6750SOL    HW221150   3.586   1.995   4.281
 6751SOL     OW21151   5.707   6.773   2.699
 6751SOL    HW121152   5.612   6.803   2.699
 6751SOL    HW221153   5.766   6.847   2.666
 6752SOL     OW21154   1.846   6.962   3.405
 6752SOL    HW121155   1.867   6.868   3.379
 6752SOL    HW221156   1.825   6.966   3.503
 6753SOL     OW21157   3.138   1.358   5.923
 6753SOL    HW121158   3.043   1.389   5.916
 6753SOL    HW221159   3.158   1.292   5.851
 6754SOL     OW21160   0.077   1.274   1.104
 6754SOL    HW121161   0.098   1.330   1.024
 6754SOL    HW221162   0.047   1.333   1.180
 6755SOL     OW21163   4.310   1.091   2.322
 6755SOL    HW121164   4.260   1.070   2.238
 6755SOL    HW221165   4.319   1.007   2.377
 6756SOL     OW21166   3.909   6.194   5.385
 6756SOL    HW121167   3.975   6.189   5.460
 6756SOL    HW221168   3.883   6.102   5.357
 6757SOL     OW21169   3.617   2.486   0.770
 6757SOL    HW121170   3.692   2.420   0.783
 6757SOL    HW221171   3.651   2.565   0.719
 6758SOL     OW21172   6.025   2.462   1.726
 6758SOL    HW121173   6.014   2.560   1.747
 6758SOL    HW221174   6.088   2.452   1.649
 6759SOL     OW21175   1.828   3.879   3.982
 6759SOL    HW121176   1.922   3.847   3.988
 6759SOL    HW221177   1.766   3.801   3.969
 6760SOL     OW21178   6.636   3.752   2.492
 6760SOL    HW121179   6.721   3.710   2.460
 6760SOL    HW221180   6.558   3.699   2.459
 6761SOL     OW21181   0.118   2.377   5.785
 6761SOL    HW121182   0.060   2.371   5.704
 6761SOL    HW221183   0.119   2.289   5.832
 6762SOL     OW21184   0.732   4.505   4.898
 6762SOL    HW121185   0.641   4.466   4.889
 6762SOL    HW221186   0.737   4.591   4.847
 6763SOL     OW21187   6.224   5.840   3.760
 6763SOL    HW121188   6.314   5.798   3.749
 6763SOL    HW221189   6.169   5.785   3.823
 6764SOL     OW21190   1.737   5.606   1.100
 6764SOL    HW121191   1.771   5.669   1.030
 6764SOL    HW221192   1.769   5.636   1.190
 6765SOL     OW21193   5.692   4.956   3.844
 6765SOL    HW121194   5.758   4.932   3.915
 6765SOL    HW221195   5.739   4.961   3.756
 6766SOL     OW21196   5.443   6.609   5.580
 6766SOL    HW121197   5.363   6.653   5.540
 6766SOL    HW221198   5.442   6.621   5.680
 6767SOL     OW21199   1.975   1.284   1.332
 6767SOL    HW121200   1.901   1.340   1.295
 6767SOL    HW221201   2.006   1.219   1.262
 6768SOL     OW21202   1.264   6.573   4.917
 6768SOL    HW121203   1.290   6.636   4.991
 6768SOL    HW221204   1.298   6.481   4.938
 6769SOL     OW21205   2.663   0.688   6.522
 6769SOL    HW121206   2.756   0.694   6.558
 6769SOL    HW221207   2.666   0.686   6.422
 6770SOL     OW21208   6.255   1.473   3.114
 6770SOL    HW121209   6.223   1.383   3.083
 6770SOL    HW221210   6.314   1.513   3.044
 6771SOL     OW21211   4.857   1.524   3.451
 6771SOL    HW121212   4.934   1.465   3.428
 6771SOL    HW221213   4.772   1.483   3.417
 6772SOL     OW21214   4.621   2.314   2.791
 6772SOL    HW121215   4.608   2.307   2.890
 6772SOL    HW221216   4.569   2.391   2.755
 6773SOL     OW21217   6.680   5.813   1.913
 6773SOL    HW121218   6.729   5.727   1.927
 6773SOL    HW221219   6.729   5.887   1.958
 6774SOL     OW21220   0.794   3.887   4.965
 6774SOL    HW121221   0.844   3.802   4.983
 6774SOL    HW221222   0.750   3.918   5.049
 6775SOL     OW21223   2.665   2.345   2.168
 6775SOL    HW121224   2.591   2.371   2.107
 6775SOL    HW221225   2.752   2.356   2.122
 6776SOL     OW21226   5.151   3.983   6.843
 6776SOL    HW121227   5.052   3.968   6.851
 6776SOL    HW221228   5.168   4.080   6.826
 6777SOL     OW21229   5.018   4.763   0.769
 6777SOL    HW121230   4.938   4.762   0.709
 6777SOL    HW221231   5.044   4.857   0.789
 6778SOL     OW21232   5.717   5.366   1.978
 6778SOL    HW121233   5.781   5.290   1.987
 6778SOL    HW221234   5.764   5.452   1.997
 6779SOL     OW21235   5.528   5.870   6.116
 6779SOL    HW121236   5.444   5.830   6.079
 6779SOL    HW221237   5.509   5.963   6.147
 6780SOL     OW21238   1.900   2.615   2.326
 6780SOL    HW121239   1.822   2.562   2.294
 6780SOL    HW221240   1.971   2.616   2.255
 6781SOL     OW21241   6.948   2.221   4.125
 6781SOL    HW121242   6.964   2.147   4.060
 6781SOL    HW221243   6.900   2.186   4.205
 6782SOL     OW21244   0.643   0.963   2.658
 6782SOL    HW121245   0.551   0.983   2.623
 6782SOL    HW221246   0.668   0.869   2.632
 6783SOL     OW21247   6.292   1.277   5.326
 6783SOL    HW121248   6.374   1.287   5.382
 6783SOL    HW221249   6.212   1.309   5.376
 6784SOL     OW21250   1.457   3.464   0.864
 6784SOL    HW121251   1.422   3.383   0.912
 6784SOL    HW221252   1.388   3.536   0.865
 6785SOL     OW21253   5.907   5.817   4.658
 6785SOL    HW121254   5.859   5.871   4.589
 6785SOL    HW221255   5.892   5.720   4.640
 6786SOL     OW21256   1.712   2.400   0.415
 6786SOL    HW121257   1.678   2.327   0.474
 6786SOL    HW221258   1.676   2.389   0.323
 6787SOL     OW21259   2.324   2.911   6.995
 6787SOL    HW121260   2.287   3.002   7.012
 6787SOL    HW221261   2.253   2.842   7.014
 6788SOL     OW21262   1.122   4.314   1.671
 6788SOL    HW121263   1.168   4.373   1.605
 6788SOL    HW221264   1.046   4.266   1.627
 6789SOL     OW21265   0.555   5.135   2.803
 6789SOL    HW121266   0.503   5.139   2.888
 6789SOL    HW221267   0.497   5.097   2.730
 6790SOL     OW21268   0.179   3.443   0.934
 6790SOL    HW121269   0.132   3.355   0.939
 6790SOL    HW221270   0.236   3.455   1.015
 6791SOL     OW21271   3.717   1.736   2.107
 6791SOL    HW121272   3.776   1.675   2.052
 6791SOL    HW221273   3.771   1.776   2.181
 6792SOL     OW21274   6.002   0.115   4.979
 6792SOL    HW121275   5.910   0.085   5.002
 6792SOL    HW221276   6.046   0.047   4.920
 6793SOL     OW21277   1.776   1.732   1.167
 6793SOL    HW121278   1.823   1.820   1.162
 6793SOL    HW221279   1.688   1.739   1.120
 6794SOL     OW21280   4.684   0.934   5.585
 6794SOL    HW121281   4.751   1.008   5.598
 6794SOL    HW221282   4.627   0.955   5.506
 6795SOL     OW21283   2.177   6.307   0.573
 6795SOL    HW121284   2.143   6.394   0.610
 6795SOL    HW221285   2.205   6.247   0.648
 6796SOL     OW21286   6.316   0.545   2.959
 6796SOL    HW121287   6.346   0.597   2.880
 6796SOL    HW221288   6.360   0.581   3.041
 6797SOL     OW21289   6.708   2.261   1.842
 6797SOL    HW121290   6.749   2.188   1.788
 6797SOL    HW221291   6.780   2.320   1.879
 6798SOL     OW21292   5.572   6.714   2.027
 6798SOL    HW121293   5.524   6.785   1.977
 6798SOL    HW221294   5.666   6.707   1.995
 6799SOL     OW21295   0.167   0.090   1.918
 6799SOL    HW121296   0.098   0.144   1.967
 6799SOL    HW221297   0.193   0.011   1.973
 6800SOL     OW21298   2.093   3.436   2.380
 6800SOL    HW121299   2.117   3.371   2.308
 6800SOL    HW221300   2.045   3.388   2.454
 6801SOL     OW21301   0.550   6.981   2.801
 6801SOL    HW121302   0.554   6.974   2.901
 6801SOL    HW221303   0.604   6.907   2.761
 6802SOL     OW21304   3.180   5.771   1.414
 6802SOL    HW121305   3.216   5.691   1.462
 6802SOL    HW221306   3.202   5.854   1.464
 6803SOL     OW21307   4.669   3.097   5.282
 6803SOL    HW121308   4.672   3.197   5.279
 6803SOL    HW221309   4.644   3.067   5.374
 6804SOL     OW21310   3.461   4.963   3.983
 6804SOL    HW121311   3.458   4.962   3.883
 6804SOL    HW221312   3.552   4.934   4.014
 6805SOL     OW21313   0.367   4.905   6.873
 6805SOL    HW121314   0.405   4.850   6.799
 6805SOL    HW221315   0.310   4.978   6.835
 6806SOL     OW21316   6.374   0.625   3.424
 6806SOL    HW121317   6.280   0.646   3.399
 6806SOL    HW221318   6.382   0.529   3.450
 6807SOL     OW21319   3.333   3.820   1.436
 6807SOL    HW121320   3.381   3.905   1.459
 6807SOL    HW221321   3.270   3.796   1.510
 6808SOL     OW21322   0.437   2.364   5.931
 6808SOL    HW121323   0.511   2.312   5.972
 6808SOL    HW221324   0.356   2.361   5.990
 6809SOL     OW21325   0.897   3.032   1.372
 6809SOL    HW121326   0.821   3.096   1.379
 6809SOL    HW221327   0.983   3.080   1.389
 6810SOL     OW21328   1.355   0.910   2.698
 6810SOL    HW121329   1.347   0.999   2.652
 6810SOL    HW221330   1.347   0.837   2.631
 6811SOL     OW21331   5.415   3.606   1.696
 6811SOL    HW121332   5.444   3.519   1.734
 6811SOL    HW221333   5.451   3.615   1.603
 6812SOL     OW21334   3.278   3.676   4.670
 6812SOL    HW121335   3.375   3.677   4.647
 6812SOL    HW221336   3.244   3.770   4.673
 6813SOL     OW21337   5.012   2.955   3.194
 6813SOL    HW121338   5.011   2.942   3.095
 6813SOL    HW221339   4.993   2.867   3.239
 6814SOL     OW21340   3.533   1.740   6.101
 6814SOL    HW121341   3.490   1.650   6.102
 6814SOL    HW221342   3.589   1.752   6.183
 6815SOL     OW21343   3.494   6.294   0.940
 6815SOL    HW121344   3.444   6.209   0.951
 6815SOL    HW221345   3.431   6.371   0.947
 6816SOL     OW21346   6.777   0.088   6.556
 6816SOL    HW121347   6.707   0.158   6.540
 6816SOL    HW221348   6.816   0.060   6.468
 6817SOL     OW21349   2.491   2.583   2.875
 6817SOL    HW121350   2.515   2.496   2.832
 6817SOL    HW221351   2.538   2.591   2.963
 6818SOL     OW21352   2.507   6.329   2.088
 6818SOL    HW121353   2.486   6.418   2.047
 6818SOL    HW221354   2.501   6.258   2.018
 6819SOL     OW21355   4.714   1.653   3.220
 6819SOL    HW121356   4.799   1.612   3.253
 6819SOL    HW221357   4.735   1.735   3.167
 6820SOL     OW21358   1.957   5.699   1.930
 6820SOL    HW121359   2.039   5.719   1.877
 6820SOL    HW221360   1.887   5.661   1.869
 6821SOL     OW21361   3.689   1.986   5.030
 6821SOL    HW121362   3.627   2.007   4.955
 6821SOL    HW221363   3.640   1.996   5.117
 6822SOL     OW21364   5.582   2.718   6.039
 6822SOL    HW121365   5.647   2.784   6.076
 6822SOL    HW221366   5.529   2.677   6.113
 6823SOL     OW21367   4.460   3.488   5.734
 6823SOL    HW121368   4.426   3.581   5.735
 6823SOL    HW221369   4.513   3.470   5.817
 6824SOL     OW21370   1.166   2.314   0.639
 6824SOL    HW121371   1.238   2.350   0.579
 6824SOL    HW221372   1.194   2.225   0.675
 6825SOL     OW21373   5.110   6.737   0.851
 6825SOL    HW121374   5.121   6.756   0.948
 6825SOL    HW221375   5.013   6.736   0.827
 6826SOL     OW21376   1.924   3.116   3.246
 6826SOL    HW121377   1.882   3.124   3.156
 6826SOL    HW221378   2.015   3.077   3.238
 6827SOL     OW21379   4.476   5.211   6.609
 6827SOL    HW121380   4.433   5.186   6.523
 6827SOL    HW221381   4.508   5.129   6.656
 6828SOL     OW21382   2.795   1.613   1.361
 6828SOL    HW121383   2.793   1.709   1.332
 6828SOL    HW221384   2.723   1.562   1.313
 6829SOL     OW21385   5.187   6.075   4.999
 6829SOL    HW121386   5.208   6.115   5.088
 6829SOL    HW221387   5.209   5.978   5.000
 6830SOL     OW21388   4.966   1.072   3.648
 6830SOL    HW121389   5.062   1.089   3.625
 6830SOL    HW221390   4.950   1.100   3.743
 6831SOL     OW21391   1.213   0.136   6.943
 6831SOL    HW121392   1.161   0.182   6.872
 6831SOL    HW221393   1.192   0.038   6.941
 6832SOL     OW21394   2.571   4.148   0.729
 6832SOL    HW121395   2.568   4.247   0.739
 6832SOL    HW221396   2.481   4.114   0.701
 6833SOL     OW21397   3.466   4.675   6.713
 6833SOL    HW121398   3.497   4.707   6.624
 6833SOL    HW221399   3.525   4.601   6.744
 6834SOL     OW21400   4.570   6.479   0.714
 6834SOL    HW121401   4.635   6.409   0.684
 6834SOL    HW221402   4.611   6.531   0.789
 6835SOL     OW21403   4.140   0.571   4.719
 6835SOL    HW121404   4.166   0.528   4.633
 6835SOL    HW221405   4.203   0.543   4.792
 6836SOL     OW21406   2.328   4.624   0.240
 6836SOL    HW121407   2.412   4.619   0.295
 6836SOL    HW221408   2.310   4.534   0.199
 6837SOL     OW21409   0.732   2.262   2.234
 6837SOL    HW121410   0.742   2.268   2.135
 6837SOL    HW221411   0.818   2.290   2.278
 6838SOL     OW21412   3.554   6.436   6.770
 6838SOL    HW121413   3.469   6.455   6.819
 6838SOL    HW221414   3.622   6.506   6.792
 6839SOL     OW21415   5.608   1.295   6.518
 6839SOL    HW121416   5.522   1.313   6.567
 6839SOL    HW221417   5.658   1.222   6.565
 6840SOL     OW21418   3.529   1.031   4.730
 6840SOL    HW121419   3.455   1.095   4.706
 6840SOL    HW221420   3.490   0.940   4.745
 6841SOL     OW21421   4.576   4.488   6.477
 6841SOL    HW121422   4.658   4.531   6.515
 6841SOL    HW221423   4.576   4.498   6.378
 6842SOL     OW21424   3.018   3.972   0.694
 6842SOL    HW121425   3.017   4.058   0.745
 6842SOL    HW221426   3.112   3.936   0.691
 6843SOL     OW21427   5.957   6.363   1.178
 6843SOL    HW121428   5.964   6.362   1.078
 6843SOL    HW221429   5.875   6.313   1.206
 6844SOL     OW21430   5.244   0.566   3.742
 6844SOL    HW121431   5.275   0.633   3.810
 6844SOL    HW221432   5.200   0.489   3.788
 6845SOL     OW21433   6.652   4.225   3.218
 6845SOL    HW121434   6.608   4.197   3.133
 6845SOL    HW221435   6.582   4.243   3.287
 6846SOL     OW21436   3.334   3.091   0.013
 6846SOL    HW121437   3.432   3.109   0.003
 6846SOL    HW221438   3.298   3.054   6.950
 6847SOL     OW21439   0.231   3.350   4.142
 6847SOL    HW121440   0.279   3.437   4.131
 6847SOL    HW221441   0.137   3.359   4.110
 6848SOL     OW21442   4.838   5.806   3.708
 6848SOL    HW121443   4.895   5.737   3.753
 6848SOL    HW221444   4.777   5.848   3.776
 6849SOL     OW21445   3.883   4.835   5.147
 6849SOL    HW121446   3.894   4.862   5.242
 6849SOL    HW221447   3.803   4.881   5.108
 6850SOL     OW21448   5.770   4.049   2.298
 6850SOL    HW121449   5.833   4.004   2.361
 6850SOL    HW221450   5.707   3.981   2.260
 6851SOL     OW21451   0.552   2.075   2.784
 6851SOL    HW121452   0.566   1.990   2.733
 6851SOL    HW221453   0.582   2.153   2.729
 6852SOL     OW21454   2.642   4.872   0.613
 6852SOL    HW121455   2.562   4.836   0.565
 6852SOL    HW221456   2.614   4.909   0.701
 6853SOL     OW21457   5.862   4.639   0.290
 6853SOL    HW121458   5.936   4.595   0.240
 6853SOL    HW221459   5.899   4.715   0.344
 6854SOL     OW21460   4.296   1.224   6.378
 6854SOL    HW121461   4.221   1.276   6.336
 6854SOL    HW221462   4.273   1.203   6.473
 6855SOL     OW21463   4.345   5.509   3.999
 6855SOL    HW121464   4.346   5.482   4.095
 6855SOL    HW221465   4.264   5.565   3.981
 6856SOL     OW21466   6.009   2.767   5.343
 6856SOL    HW121467   6.050   2.706   5.275
 6856SOL    HW221468   5.918   2.795   5.312
 6857SOL     OW21469   2.950   2.507   6.613
 6857SOL    HW121470   2.865   2.549   6.645
 6857SOL    HW221471   2.942   2.408   6.617
 6858SOL     OW21472   4.036   3.618   3.272
 6858SOL    HW121473   4.072   3.540   3.323
 6858SOL    HW221474   4.012   3.691   3.336
 6859SOL     OW21475   0.621   1.690   1.009
 6859SOL    HW121476   0.600   1.626   1.083
 6859SOL    HW221477   0.547   1.757   1.001
 6860SOL     OW21478   6.745   4.860   1.147
 6860SOL    HW121479   6.774   4.778   1.098
 6860SOL    HW221480   6.811   4.933   1.130
 6861SOL     OW21481   3.957   4.979   0.195
 6861SOL    HW121482   4.036   4.927   0.163
 6861SOL    HW221483   3.895   4.919   0.245
 6862SOL     OW21484   1.658   4.971   6.190
 6862SOL    HW121485   1.594   5.028   6.139
 6862SOL    HW221486   1.701   4.904   6.128
 6863SOL     OW21487   5.692   6.522   5.532
 6863SOL    HW121488   5.737   6.492   5.616
 6863SOL    HW221489   5.605   6.566   5.555
 6864SOL     OW21490   2.521   5.134   4.368
 6864SOL    HW121491   2.595   5.113   4.433
 6864SOL    HW221492   2.484   5.224   4.389
 6865SOL     OW21493   1.307   6.125   4.093
 6865SOL    HW121494   1.318   6.052   4.161
 6865SOL    HW221495   1.397   6.147   4.053
 6866SOL     OW21496   5.896   4.891   4.029
 6866SOL    HW121497   5.915   4.930   4.119
 6866SOL    HW221498   5.916   4.793   4.031
 6867SOL     OW21499   2.570   4.630   1.629
 6867SOL    HW121500   2.563   4.686   1.711
 6867SOL    HW221501   2.504   4.555   1.635
 6868SOL     OW21502   1.666   5.605   6.446
 6868SOL    HW121503   1.697   5.511   6.459
 6868SOL    HW221504   1.622   5.613   6.356
 6869SOL     OW21505   5.635   0.841   6.250
 6869SOL    HW121506   5.672   0.753   6.280
 6869SOL    HW221507   5.539   0.847   6.275
 6870SOL     OW21508   0.529   4.941   1.396
 6870SOL    HW121509   0.523   4.851   1.440
 6870SOL    HW221510   0.469   5.005   1.444
 6871SOL     OW21511   5.987   4.495   3.173
 6871SOL    HW121512   6.085   4.484   3.159
 6871SOL    HW221513   5.943   4.405   3.171
 6872SOL     OW21514   0.616   2.355   1.364
 6872SOL    HW121515   0.577   2.443   1.393
 6872SOL    HW221516   0.710   2.349   1.396
 6873SOL     OW21517   6.835   3.501   4.351
 6873SOL    HW121518   6.754   3.468   4.303
 6873SOL    HW221519   6.884   3.566   4.293
 6874SOL     OW21520   6.681   5.397   2.577
 6874SOL    HW121521   6.600   5.455   2.586
 6874SOL    HW221522   6.661   5.321   2.515
 6875SOL     OW21523   2.311   2.782   2.469
 6875SOL    HW121524   2.248   2.837   2.413
 6875SOL    HW221525   2.372   2.731   2.409
 6876SOL     OW21526   3.956   0.458   3.718
 6876SOL    HW121527   4.031   0.417   3.771
 6876SOL    HW221528   3.914   0.388   3.660
 6877SOL     OW21529   2.571   3.677   1.283
 6877SOL    HW121530   2.645   3.668   1.350
 6877SOL    HW221531   2.603   3.643   1.194
 6878SOL     OW21532   3.667   1.050   4.270
 6878SOL    HW121533   3.757   1.066   4.227
 6878SOL    HW221534   3.681   1.012   4.361
 6879SOL     OW21535   1.001   2.785   0.795
 6879SOL    HW121536   1.030   2.692   0.816
 6879SOL    HW221537   1.061   2.851   0.842
 6880SOL     OW21538   2.657   5.626   5.047
 6880SOL    HW121539   2.754   5.648   5.058
 6880SOL    HW221540   2.628   5.563   5.119
 6881SOL     OW21541   1.560   5.162   0.942
 6881SOL    HW121542   1.534   5.237   1.004
 6881SOL    HW221543   1.556   5.076   0.992
 6882SOL     OW21544   2.886   0.566   6.939
 6882SOL    HW121545   2.872   0.545   0.013
 6882SOL    HW221546   2.914   0.484   6.890
 6883SOL     OW21547   5.125   1.741   6.719
 6883SOL    HW121548   5.094   1.799   6.795
 6883SOL    HW221549   5.209   1.695   6.744
 6884SOL     OW21550   1.372   3.907   4.008
 6884SOL    HW121551   1.382   3.846   4.087
 6884SOL    HW221552   1.390   4.001   4.037
 6885SOL     OW21553   4.262   4.661   4.010
 6885SOL    HW121554   4.292   4.609   3.930
 6885SOL    HW221555   4.172   4.700   3.993
 6886SOL     OW21556   6.937   0.603   4.071
 6886SOL    HW121557   6.864   0.641   4.015
 6886SOL    HW221558   6.903   0.525   4.123
 6887SOL     OW21559   5.241   5.779   6.225
 6887SOL    HW121560   5.286   5.748   6.309
 6887SOL    HW221561   5.236   5.879   6.225
 6888SOL     OW21562   5.411   5.670   6.409
 6888SOL    HW121563   5.476   5.745   6.416
 6888SOL    HW221564   5.460   5.584   6.398
 6889SOL     OW21565   1.388   2.734   5.302
 6889SOL    HW121566   1.342   2.732   5.214
 6889SOL    HW221567   1.335   2.790   5.366
 6890SOL     OW21568   4.363   6.798   1.924
 6890SOL    HW121569   4.390   6.720   1.867
 6890SOL    HW221570   4.429   6.809   1.998
 6891SOL     OW21571   1.878   3.988   2.784
 6891SOL    HW121572   1.806   4.036   2.734
 6891SOL    HW221573   1.925   3.926   2.721
 6892SOL     OW21574   3.674   2.166   3.413
 6892SOL    HW121575   3.747   2.098   3.415
 6892SOL    HW221576   3.708   2.251   3.371
 6893SOL     OW21577   4.762   4.707   0.251
 6893SOL    HW121578   4.719   4.764   0.181
 6893SOL    HW221579   4.828   4.762   0.302
 6894SOL     OW21580   6.040   5.131   0.407
 6894SOL    HW121581   6.126   5.082   0.400
 6894SOL    HW221582   6.031   5.170   0.498
 6895SOL     OW21583   3.458   4.970   0.847
 6895SOL    HW121584   3.531   4.909   0.816
 6895SOL    HW221585   3.393   4.985   0.772
 6896SOL     OW21586   2.547   0.594   3.940
 6896SOL    HW121587   2.537   0.598   3.841
 6896SOL    HW221588   2.560   0.500   3.969
 6897SOL     OW21589   4.728   3.363   5.321
 6897SOL    HW121590   4.646   3.367   5.377
 6897SOL    HW221591   4.719   3.426   5.244
 6898SOL     OW21592   4.066   1.698   1.725
 6898SOL    HW121593   4.017   1.751   1.795
 6898SOL    HW221594   4.156   1.673   1.760
 6899SOL     OW21595   5.027   6.114   1.594
 6899SOL    HW121596   5.057   6.205   1.623
 6899SOL    HW221597   4.933   6.099   1.624
 6900SOL     OW21598   6.256   5.731   5.219
 6900SOL    HW121599   6.244   5.638   5.185
 6900SOL    HW221600   6.279   5.729   5.316
 6901SOL     OW21601   6.432   6.262   5.889
 6901SOL    HW121602   6.450   6.201   5.813
 6901SOL    HW221603   6.370   6.335   5.860
 6902SOL     OW21604   6.044   6.208   6.812
 6902SOL    HW121605   6.057   6.115   6.848
 6902SOL    HW221606   6.068   6.209   6.715
 6903SOL     OW21607   2.888   5.148   5.377
 6903SOL    HW121608   2.975   5.152   5.328
 6903SOL    HW221609   2.905   5.142   5.476
 6904SOL     OW21610   6.834   0.645   4.515
 6904SOL    HW121611   6.782   0.560   4.501
 6904SOL    HW221612   6.862   0.681   4.426
 6905SOL     OW21613   5.606   6.220   6.641
 6905SOL    HW121614   5.646   6.178   6.560
 6905SOL    HW221615   5.675   6.224   6.714
 6906SOL     OW21616   4.509   1.493   4.430
 6906SOL    HW121617   4.583   1.496   4.363
 6906SOL    HW221618   4.463   1.404   4.425
 6907SOL     OW21619   5.485   2.989   1.526
 6907SOL    HW121620   5.472   2.934   1.609
 6907SOL    HW221621   5.505   3.083   1.552
 6908SOL     OW21622   1.152   5.274   6.890
 6908SOL    HW121623   1.217   5.200   6.909
 6908SOL    HW221624   1.183   5.325   6.810
 6909SOL     OW21625   4.866   4.378   1.675
 6909SOL    HW121626   4.845   4.316   1.600
 6909SOL    HW221627   4.791   4.378   1.741
 6910SOL     OW21628   0.869   2.724   3.603
 6910SOL    HW121629   0.907   2.817   3.594
 6910SOL    HW221630   0.861   2.683   3.512
 6911SOL     OW21631   4.585   6.352   4.216
 6911SOL    HW121632   4.565   6.433   4.271
 6911SOL    HW221633   4.513   6.337   4.149
 6912SOL     OW21634   3.565   3.885   6.006
 6912SOL    HW121635   3.602   3.929   6.088
 6912SOL    HW221636   3.617   3.802   5.987
 6913SOL     OW21637   5.407   6.069   3.492
 6913SOL    HW121638   5.349   6.100   3.567
 6913SOL    HW221639   5.353   6.012   3.430
 6914SOL     OW21640   6.114   4.241   3.392
 6914SOL    HW121641   6.064   4.241   3.479
 6914SOL    HW221642   6.064   4.297   3.326
 6915SOL     OW21643   5.940   2.989   1.862
 6915SOL    HW121644   5.858   2.993   1.919
 6915SOL    HW221645   6.009   3.051   1.899
 6916SOL     OW21646   5.701   1.919   6.578
 6916SOL    HW121647   5.784   1.962   6.542
 6916SOL    HW221648   5.723   1.825   6.606
 6917SOL     OW21649   3.226   0.032   1.722
 6917SOL    HW121650   3.290   6.988   1.683
 6917SOL    HW221651   3.262   0.124   1.707
 6918SOL     OW21652   0.484   2.899   4.679
 6918SOL    HW121653   0.392   2.929   4.702
 6918SOL    HW221654   0.530   2.969   4.625
 6919SOL     OW21655   5.936   5.752   3.843
 6919SOL    HW121656   5.911   5.682   3.775
 6919SOL    HW221657   5.908   5.721   3.934
 6920SOL     OW21658   4.089   6.223   5.649
 6920SOL    HW121659   4.018   6.247   5.716
 6920SOL    HW221660   4.131   6.307   5.614
 6921SOL     OW21661   5.173   5.858   3.788
 6921SOL    HW121662   5.118   5.775   3.779
 6921SOL    HW221663   5.124   5.924   3.845
 6922SOL     OW21664   1.784   6.193   4.808
 6922SOL    HW121665   1.868   6.232   4.769
 6922SOL    HW221666   1.711   6.261   4.805
 6923SOL     OW21667   5.049   5.488   3.306
 6923SOL    HW121668   5.098   5.534   3.381
 6923SOL    HW221669   4.963   5.534   3.289
 6924SOL     OW21670   1.786   4.533   6.317
 6924SOL    HW121671   1.751   4.547   6.410
 6924SOL    HW221672   1.842   4.450   6.315
 6925SOL     OW21673   4.907   6.107   3.821
 6925SOL    HW121674   4.872   6.080   3.731
 6925SOL    HW221675   4.870   6.196   3.846
 6926SOL     OW21676   3.081   2.129   0.838
 6926SOL    HW121677   3.085   2.169   0.930
 6926SOL    HW221678   2.986   2.121   0.809
 6927SOL     OW21679   3.951   2.861   5.905
 6927SOL    HW121680   3.923   2.844   5.999
 6927SOL    HW221681   4.051   2.855   5.899
 6928SOL     OW21682   5.826   6.072   1.027
 6928SOL    HW121683   5.908   6.078   0.971
 6928SOL    HW221684   5.785   5.981   1.017
 6929SOL     OW21685   5.450   5.843   1.524
 6929SOL    HW121686   5.474   5.921   1.466
 6929SOL    HW221687   5.355   5.818   1.508
 6930SOL     OW21688   1.029   0.555   2.001
 6930SOL    HW121689   0.986   0.645   2.005
 6930SOL    HW221690   0.987   0.495   2.070
 6931SOL     OW21691   2.045   0.659   2.338
 6931SOL    HW121692   2.119   0.722   2.317
 6931SOL    HW221693   1.964   0.710   2.367
 6932SOL     OW21694   4.143   6.835   0.029
 6932SOL    HW121695   4.131   6.891   0.111
 6932SOL    HW221696   4.182   6.891   6.979
 6933SOL     OW21697   3.228   5.726   5.515
 6933SOL    HW121698   3.262   5.818   5.493
 6933SOL    HW221699   3.139   5.734   5.560
 6934SOL     OW21700   4.413   3.688   6.024
 6934SOL    HW121701   4.357   3.704   5.943
 6934SOL    HW221702   4.371   3.732   6.103
 6935SOL     OW21703   4.515   5.805   2.336
 6935SOL    HW121704   4.447   5.840   2.271
 6935SOL    HW221705   4.488   5.714   2.366
 6936SOL     OW21706   6.329   2.163   3.132
 6936SOL    HW121707   6.400   2.211   3.080
 6936SOL    HW221708   6.239   2.197   3.103
 6937SOL     OW21709   6.401   6.090   0.307
 6937SOL    HW121710   6.433   5.999   0.280
 6937SOL    HW221711   6.392   6.148   0.226
 6938SOL     OW21712   6.121   2.557   5.176
 6938SOL    HW121713   6.141   2.489   5.246
 6938SOL    HW221714   6.125   2.514   5.085
 6939SOL     OW21715   1.084   5.242   2.001
 6939SOL    HW121716   1.037   5.156   2.017
 6939SOL    HW221717   1.154   5.229   1.930
 6940SOL     OW21718   3.642   0.458   6.109
 6940SOL    HW121719   3.598   0.434   6.195
 6940SOL    HW221720   3.674   0.374   6.064
 6941SOL     OW21721   3.014   4.062   1.808
 6941SOL    HW121722   3.018   4.159   1.784
 6941SOL    HW221723   3.063   4.047   1.894
 6942SOL     OW21724   6.128   6.388   1.611
 6942SOL    HW121725   6.212   6.430   1.578
 6942SOL    HW221726   6.050   6.424   1.560
 6943SOL     OW21727   3.084   5.781   0.329
 6943SOL    HW121728   3.117   5.841   0.255
 6943SOL    HW221729   3.136   5.696   0.328
 6944SOL     OW21730   0.524   4.425   6.812
 6944SOL    HW121731   0.493   4.370   6.734
 6944SOL    HW221732   0.608   4.474   6.787
 6945SOL     OW21733   6.012   1.235   6.712
 6945SOL    HW121734   5.969   1.324   6.695
 6945SOL    HW221735   5.943   1.163   6.710
 6946SOL     OW21736   4.367   6.749   1.199
 6946SOL    HW121737   4.289   6.696   1.232
 6946SOL    HW221738   4.374   6.741   1.099
 6947SOL     OW21739   3.314   5.646   6.588
 6947SOL    HW121740   3.412   5.660   6.574
 6947SOL    HW221741   3.290   5.552   6.566
 6948SOL     OW21742   0.678   0.297   0.322
 6948SOL    HW121743   0.748   0.284   0.253
 6948SOL    HW221744   0.590   0.315   0.278
 6949SOL     OW21745   3.848   0.241   3.544
 6949SOL    HW121746   3.822   0.146   3.527
 6949SOL    HW221747   3.878   0.284   3.459
 6950SOL     OW21748   1.309   2.077   4.691
 6950SOL    HW121749   1.354   1.996   4.655
 6950SOL    HW221750   1.210   2.067   4.681
 6951SOL     OW21751   5.931   5.314   5.462
 6951SOL    HW121752   5.910   5.285   5.369
 6951SOL    HW221753   5.954   5.412   5.462
 6952SOL     OW21754   0.672   6.280   3.350
 6952SOL    HW121755   0.625   6.310   3.433
 6952SOL    HW221756   0.664   6.351   3.280
 6953SOL     OW21757   4.245   6.533   1.540
 6953SOL    HW121758   4.235   6.502   1.446
 6953SOL    HW221759   4.341   6.558   1.556
 6954SOL     OW21760   6.975   4.072   2.442
 6954SOL    HW121761   0.036   4.086   2.389
 6954SOL    HW221762   6.903   4.037   2.382
 6955SOL     OW21763   5.934   0.175   2.143
 6955SOL    HW121764   5.940   0.140   2.236
 6955SOL    HW221765   5.844   0.153   2.105
 6956SOL     OW21766   5.969   6.029   3.838
 6956SOL    HW121767   5.965   5.935   3.806
 6956SOL    HW221768   5.960   6.031   3.938
 6957SOL     OW21769   6.263   5.320   0.556
 6957SOL    HW121770   6.241   5.278   0.468
 6957SOL    HW221771   6.268   5.249   0.626
 6958SOL     OW21772   4.131   3.398   4.566
 6958SOL    HW121773   4.196   3.322   4.573
 6958SOL    HW221774   4.119   3.423   4.470
 6959SOL     OW21775   2.157   3.189   3.712
 6959SOL    HW121776   2.190   3.100   3.681
 6959SOL    HW221777   2.136   3.247   3.634
 6960SOL     OW21778   1.801   4.576   1.053
 6960SOL    HW121779   1.796   4.676   1.056
 6960SOL    HW221780   1.836   4.542   1.140
 6961SOL     OW21781   5.656   1.099   4.081
 6961SOL    HW121782   5.670   1.194   4.108
 6961SOL    HW221783   5.591   1.096   4.004
 6962SOL     OW21784   5.168   6.139   1.885
 6962SOL    HW121785   5.187   6.231   1.919
 6962SOL    HW221786   5.186   6.135   1.787
 6963SOL     OW21787   5.168   5.994   0.897
 6963SOL    HW121788   5.195   6.086   0.867
 6963SOL    HW221789   5.174   5.989   0.996
 6964SOL     OW21790   3.497   1.013   5.462
 6964SOL    HW121791   3.537   0.960   5.537
 6964SOL    HW221792   3.398   1.006   5.465
 6965SOL     OW21793   1.114   1.245   0.502
 6965SOL    HW121794   1.044   1.273   0.569
 6965SOL    HW221795   1.203   1.276   0.534
 6966SOL     OW21796   1.256   2.342   2.767
 6966SOL    HW121797   1.344   2.344   2.720
 6966SOL    HW221798   1.240   2.251   2.805
 6967SOL     OW21799   2.871   1.028   5.671
 6967SOL    HW121800   2.940   1.084   5.716
 6967SOL    HW221801   2.911   0.985   5.590
 6968SOL     OW21802   3.543   0.188   2.958
 6968SOL    HW121803   3.633   0.225   2.979
 6968SOL    HW221804   3.531   0.180   2.859
 6969SOL     OW21805   3.027   2.322   1.691
 6969SOL    HW121806   2.984   2.378   1.762
 6969SOL    HW221807   3.097   2.264   1.733
 6970SOL     OW21808   4.595   4.589   5.375
 6970SOL    HW121809   4.559   4.682   5.384
 6970SOL    HW221810   4.550   4.529   5.441
 6971SOL     OW21811   6.654   4.412   1.098
 6971SOL    HW121812   6.629   4.351   1.023
 6971SOL    HW221813   6.675   4.503   1.061
 6972SOL     OW21814   5.229   4.829   2.847
 6972SOL    HW121815   5.305   4.863   2.791
 6972SOL    HW221816   5.232   4.872   2.937
 6973SOL     OW21817   1.270   2.930   3.652
 6973SOL    HW121818   1.285   2.961   3.558
 6973SOL    HW221819   1.357   2.935   3.702
 6974SOL     OW21820   2.985   3.838   3.076
 6974SOL    HW121821   2.939   3.849   2.988
 6974SOL    HW221822   3.063   3.777   3.066
 6975SOL     OW21823   1.424   6.259   6.373
 6975SOL    HW121824   1.333   6.274   6.335
 6975SOL    HW221825   1.422   6.184   6.438
 6976SOL     OW21826   5.579   5.129   5.168
 6976SOL    HW121827   5.555   5.225   5.177
 6976SOL    HW221828   5.651   5.106   5.235
 6977SOL     OW21829   3.789   3.053   1.623
 6977SOL    HW121830   3.748   2.962   1.633
 6977SOL    HW221831   3.796   3.097   1.713
 6978SOL     OW21832   5.933   1.556   2.335
 6978SOL    HW121833   5.848   1.517   2.370
 6978SOL    HW221834   5.989   1.484   2.294
 6979SOL     OW21835   0.819   4.193   1.814
 6979SOL    HW121836   0.850   4.108   1.855
 6979SOL    HW221837   0.857   4.200   1.721
 6980SOL     OW21838   2.262   1.401   4.014
 6980SOL    HW121839   2.252   1.360   3.923
 6980SOL    HW221840   2.206   1.484   4.020
 6981SOL     OW21841   3.682   3.013   6.173
 6981SOL    HW121842   3.718   3.104   6.153
 6981SOL    HW221843   3.620   3.018   6.251
 6982SOL     OW21844   1.305   1.012   5.017
 6982SOL    HW121845   1.338   1.060   5.099
 6982SOL    HW221846   1.310   0.913   5.033
 6983SOL     OW21847   4.201   1.714   3.419
 6983SOL    HW121848   4.287   1.664   3.427
 6983SOL    HW221849   4.217   1.812   3.430
 6984SOL     OW21850   1.648   1.629   3.360
 6984SOL    HW121851   1.610   1.659   3.272
 6984SOL    HW221852   1.573   1.613   3.424
 6985SOL     OW21853   5.990   5.051   1.109
 6985SOL    HW121854   6.088   5.071   1.107
 6985SOL    HW221855   5.951   5.068   1.018
 6986SOL     OW21856   2.573   0.222   6.181
 6986SOL    HW121857   2.617   0.133   6.168
 6986SOL    HW221858   2.477   0.209   6.206
 6987SOL     OW21859   6.052   1.431   6.379
 6987SOL    HW121860   5.990   1.365   6.337
 6987SOL    HW221861   5.999   1.505   6.421
 6988SOL     OW21862   0.816   6.785   6.339
 6988SOL    HW121863   0.878   6.814   6.266
 6988SOL    HW221864   0.821   6.850   6.415
 6989SOL     OW21865   0.812   4.001   3.567
 6989SOL    HW121866   0.869   3.959   3.497
 6989SOL    HW221867   0.742   3.937   3.596
 6990SOL     OW21868   4.843   2.676   1.285
 6990SOL    HW121869   4.765   2.724   1.327
 6990SOL    HW221870   4.867   2.596   1.339
 6991SOL     OW21871   4.391   4.608   3.408
 6991SOL    HW121872   4.468   4.561   3.365
 6991SOL    HW221873   4.396   4.596   3.507
 6992SOL     OW21874   5.460   6.762   6.363
 6992SOL    HW121875   5.482   6.850   6.404
 6992SOL    HW221876   5.364   6.741   6.380
 6993SOL     OW21877   6.026   0.644   2.999
 6993SOL    HW121878   6.111   0.596   2.976
 6993SOL    HW221879   6.042   0.743   2.998
 6994SOL     OW21880   0.522   2.671   4.335
 6994SOL    HW121881   0.578   2.753   4.327
 6994SOL    HW221882   0.441   2.692   4.389
 6995SOL     OW21883   0.228   4.699   6.516
 6995SOL    HW121884   0.150   4.698   6.580
 6995SOL    HW221885   0.195   4.685   6.423
 6996SOL     OW21886   1.586   0.077   6.546
 6996SOL    HW121887   1.684   0.096   6.543
 6996SOL    HW221888   1.540   0.124   6.470
 6997SOL     OW21889   0.171   5.803   5.403
 6997SOL    HW121890   0.204   5.879   5.459
 6997SOL    HW221891   0.161   5.721   5.460
 6998SOL     OW21892   2.108   0.410   1.415
 6998SOL    HW121893   2.121   0.400   1.316
 6998SOL    HW221894   2.104   0.507   1.438
 6999SOL     OW21895   2.107   2.324   6.777
 6999SOL    HW121896   2.035   2.261   6.806
 6999SOL    HW221897   2.128   2.310   6.681
 7000SOL     OW21898   5.251   6.920   1.409
 7000SOL    HW121899   5.201   6.840   1.444
 7000SOL    HW221900   5.195   7.002   1.419
 7001SOL     OW21901   2.196   3.334   6.141
 7001SOL    HW121902   2.241   3.356   6.054
 7001SOL    HW221903   2.132   3.406   6.165
 7002SOL     OW21904   1.387   5.397   3.814
 7002SOL    HW121905   1.298   5.389   3.859
 7002SOL    HW221906   1.375   5.438   3.723
 7003SOL     OW21907   4.237   5.913   0.726
 7003SOL    HW121908   4.263   5.828   0.681
 7003SOL    HW221909   4.153   5.948   0.684
 7004SOL     OW21910   0.804   5.449   2.105
 7004SOL    HW121911   0.781   5.366   2.055
 7004SOL    HW221912   0.903   5.462   2.104
 7005SOL     OW21913   0.710   6.926   0.654
 7005SOL    HW121914   0.753   6.839   0.630
 7005SOL    HW221915   0.717   6.989   0.578
 7006SOL     OW21916   4.740   5.056   3.836
 7006SOL    HW121917   4.738   5.134   3.898
 7006SOL    HW221918   4.732   5.088   3.741
 7007SOL     OW21919   4.500   0.536   4.346
 7007SOL    HW121920   4.523   0.439   4.336
 7007SOL    HW221921   4.519   0.584   4.260
 7008SOL     OW21922   0.297   4.072   4.429
 7008SOL    HW121923   0.236   4.099   4.354
 7008SOL    HW221924   0.333   4.154   4.474
 7009SOL     OW21925   4.868   6.365   2.458
 7009SOL    HW121926   4.898   6.428   2.530
 7009SOL    HW221927   4.786   6.316   2.488
 7010SOL     OW21928   5.367   4.207   3.868
 7010SOL    HW121929   5.338   4.197   3.963
 7010SOL    HW221930   5.416   4.125   3.839
 7011SOL     OW21931   3.199   6.206   6.951
 7011SOL    HW121932   3.282   6.172   6.906
 7011SOL    HW221933   3.224   6.257   0.011
 7012SOL     OW21934   0.554   1.556   1.245
 7012SOL    HW121935   0.507   1.633   1.288
 7012SOL    HW221936   0.522   1.471   1.285
 7013SOL     OW21937   0.883   7.008   0.262
 7013SOL    HW121938   0.835   0.025   0.184
 7013SOL    HW221939   0.980   0.011   0.258
 7014SOL     OW21940   4.238   3.577   0.664
 7014SOL    HW121941   4.241   3.480   0.638
 7014SOL    HW221942   4.304   3.628   0.609
 7015SOL     OW21943   6.394   4.224   1.291
 7015SOL    HW121944   6.379   4.148   1.354
 7015SOL    HW221945   6.307   4.270   1.272
 7016SOL     OW21946   3.407   4.769   1.362
 7016SOL    HW121947   3.316   4.789   1.325
 7016SOL    HW221948   3.397   4.733   1.455
 7017SOL     OW21949   2.565   4.976   3.306
 7017SOL    HW121950   2.624   4.897   3.323
 7017SOL    HW221951   2.470   4.951   3.326
 7018SOL     OW21952   5.703   3.545   4.365
 7018SOL    HW121953   5.744   3.545   4.456
 7018SOL    HW221954   5.665   3.635   4.345
 7019SOL     OW21955   3.992   4.181   0.156
 7019SOL    HW121956   3.922   4.182   0.085
 7019SOL    HW221957   3.979   4.100   0.214
 7020SOL     OW21958   6.634   4.256   5.831
 7020SOL    HW121959   6.636   4.339   5.887
 7020SOL    HW221960   6.638   4.176   5.890
 7021SOL     OW21961   1.673   2.340   5.346
 7021SOL    HW121962   1.591   2.285   5.329
 7021SOL    HW221963   1.753   2.291   5.314
 7022SOL     OW21964   4.666   6.755   6.191
 7022SOL    HW121965   4.632   6.763   6.098
 7022SOL    HW221966   4.592   6.726   6.252
 7023SOL     OW21967   1.268   2.644   3.541
 7023SOL    HW121968   1.320   2.723   3.507
 7023SOL    HW221969   1.219   2.670   3.624
 7024SOL     OW21970   2.910   3.508   5.492
 7024SOL    HW121971   2.993   3.452   5.502
 7024SOL    HW221972   2.862   3.481   5.408
 7025SOL     OW21973   3.539   0.649   0.758
 7025SOL    HW121974   3.462   0.652   0.822
 7025SOL    HW221975   3.514   0.696   0.673
 7026SOL     OW21976   3.205   1.965   2.070
 7026SOL    HW121977   3.214   1.878   2.117
 7026SOL    HW221978   3.293   1.990   2.028
 7027SOL     OW21979   1.985   5.021   4.090
 7027SOL    HW121980   2.033   4.996   4.174
 7027SOL    HW221981   2.047   5.072   4.030
 7028SOL     OW21982   2.911   1.698   3.375
 7028SOL    HW121983   2.896   1.718   3.278
 7028SOL    HW221984   2.944   1.604   3.386
 7029SOL     OW21985   4.778   4.516   5.081
 7029SOL    HW121986   4.835   4.466   5.146
 7029SOL    HW221987   4.834   4.544   5.003
 7030SOL     OW21988   1.246   0.771   5.145
 7030SOL    HW121989   1.176   0.822   5.195
 7030SOL    HW221990   1.202   0.711   5.078
 7031SOL     OW21991   3.927   5.629   6.214
 7031SOL    HW121992   4.006   5.568   6.214
 7031SOL    HW221993   3.843   5.575   6.215
 7032SOL     OW21994   4.450   1.475   3.981
 7032SOL    HW121995   4.471   1.571   3.998
 7032SOL    HW221996   4.504   1.441   3.905
 7033SOL     OW21997   1.647   2.359   3.343
 7033SOL    HW121998   1.605   2.369   3.433
 7033SOL    HW221999   1.597   2.413   3.276
 7034SOL     OW22000   0.343   0.785   3.209
 7034SOL    HW122001   0.398   0.761   3.288
 7034SOL    HW222002   0.252   0.814   3.239
 7035SOL     OW22003   1.461   0.013   0.457
 7035SOL    HW122004   1.476   7.021   0.359
 7035SOL    HW222005   1.385   6.978   0.488
 7036SOL     OW22006   0.233   0.528   3.072
 7036SOL    HW122007   0.171   0.459   3.108
 7036SOL    HW222008   0.257   0.593   3.144
 7037SOL     OW22009   1.683   1.483   6.728
 7037SOL    HW122010   1.605   1.499   6.788
 7037SOL    HW222011   1.760   1.539   6.758
 7038SOL     OW22012   2.171   3.582   5.324
 7038SOL    HW122013   2.152   3.629   5.237
 7038SOL    HW222014   2.263   3.545   5.322
 7039SOL     OW22015   1.357   5.510   2.958
 7039SOL    HW122016   1.371   5.554   3.047
 7039SOL    HW222017   1.429   5.443   2.942
 7040SOL     OW22018   5.225   2.292   5.919
 7040SOL    HW122019   5.188   2.318   6.008
 7040SOL    HW222020   5.307   2.344   5.899
 7041SOL     OW22021   6.648   1.566   1.702
 7041SOL    HW122022   6.583   1.554   1.776
 7041SOL    HW222023   6.608   1.534   1.616
 7042SOL     OW22024   4.328   5.684   5.434
 7042SOL    HW122025   4.254   5.718   5.493
 7042SOL    HW222026   4.394   5.634   5.490
 7043SOL     OW22027   2.351   4.834   3.014
 7043SOL    HW122028   2.368   4.736   3.024
 7043SOL    HW222029   2.304   4.868   3.095
 7044SOL     OW22030   6.099   4.788   4.708
 7044SOL    HW122031   6.066   4.873   4.750
 7044SOL    HW222032   6.104   4.716   4.777
 7045SOL     OW22033   4.939   5.372   2.900
 7045SOL    HW122034   4.893   5.459   2.883
 7045SOL    HW222035   4.944   5.320   2.816
 7046SOL     OW22036   2.665   1.856   3.478
 7046SOL    HW122037   2.679   1.825   3.572
 7046SOL    HW222038   2.741   1.825   3.421
 7047SOL     OW22039   6.476   0.996   2.347
 7047SOL    HW122040   6.492   1.092   2.370
 7047SOL    HW222041   6.381   0.973   2.366
 7048SOL     OW22042   5.966   6.719   3.874
 7048SOL    HW122043   5.989   6.716   3.971
 7048SOL    HW222044   5.946   6.813   3.846
 7049SOL     OW22045   3.598   2.008   0.639
 7049SOL    HW122046   3.672   1.988   0.575
 7049SOL    HW222047   3.510   1.993   0.594
 7050SOL     OW22048   4.197   3.883   1.594
 7050SOL    HW122049   4.173   3.801   1.646
 7050SOL    HW222050   4.117   3.913   1.541
 7051SOL     OW22051   6.704   6.842   1.236
 7051SOL    HW122052   6.737   6.758   1.280
 7051SOL    HW222053   6.779   6.886   1.187
 7052SOL     OW22054   6.046   1.556   3.274
 7052SOL    HW122055   5.952   1.540   3.244
 7052SOL    HW222056   6.108   1.503   3.216
 7053SOL     OW22057   1.793   2.912   4.848
 7053SOL    HW122058   1.856   2.852   4.898
 7053SOL    HW222059   1.715   2.933   4.907
 7054SOL     OW22060   6.965   6.854   0.231
 7054SOL    HW122061   6.995   6.840   0.136
 7054SOL    HW222062   6.935   6.949   0.243
 7055SOL     OW22063   2.707   0.349   6.543
 7055SOL    HW122064   2.660   0.262   6.526
 7055SOL    HW222065   2.753   0.379   6.460
 7056SOL     OW22066   6.735   5.343   1.427
 7056SOL    HW122067   6.806   5.275   1.445
 7056SOL    HW222068   6.766   5.433   1.457
 7057SOL     OW22069   2.701   4.693   3.901
 7057SOL    HW122070   2.709   4.726   3.807
 7057SOL    HW222071   2.677   4.596   3.900
 7058SOL     OW22072   5.899   3.080   5.621
 7058SOL    HW122073   5.814   3.088   5.569
 7058SOL    HW222074   5.934   2.987   5.615
 7059SOL     OW22075   0.545   1.781   3.901
 7059SOL    HW122076   0.596   1.805   3.983
 7059SOL    HW222077   0.469   1.721   3.925
 7060SOL     OW22078   3.276   0.104   1.978
 7060SOL    HW122079   3.309   0.019   2.020
 7060SOL    HW222080   3.259   0.088   1.881
 7061SOL     OW22081   0.094   3.250   3.682
 7061SOL    HW122082   0.172   3.224   3.739
 7061SOL    HW222083   0.118   3.239   3.586
 7062SOL     OW22084   3.351   2.376   5.313
 7062SOL    HW122085   3.392   2.293   5.277
 7062SOL    HW222086   3.264   2.393   5.265
 7063SOL     OW22087   1.760   6.283   2.095
 7063SOL    HW122088   1.790   6.332   2.176
 7063SOL    HW222089   1.726   6.192   2.121
 7064SOL     OW22090   3.796   2.056   0.169
 7064SOL    HW122091   3.790   2.138   0.111
 7064SOL    HW222092   3.835   1.981   0.117
 7065SOL     OW22093   4.297   3.715   5.769
 7065SOL    HW122094   4.210   3.680   5.735
 7065SOL    HW222095   4.309   3.809   5.737
 7066SOL     OW22096   4.062   6.980   6.200
 7066SOL    HW122097   4.122   0.030   6.234
 7066SOL    HW222098   4.097   6.945   6.113
 7067SOL     OW22099   1.389   3.252   5.434
 7067SOL    HW122100   1.486   3.250   5.407
 7067SOL    HW222101   1.370   3.339   5.480
 7068SOL     OW22102   6.510   4.602   4.763
 7068SOL    HW122103   6.563   4.589   4.680
 7068SOL    HW222104   6.542   4.538   4.833
 7069SOL     OW22105   5.134   2.311   4.506
 7069SOL    HW122106   5.107   2.343   4.596
 7069SOL    HW222107   5.200   2.236   4.516
 7070SOL     OW22108   0.309   6.814   4.827
 7070SOL    HW122109   0.342   6.807   4.733
 7070SOL    HW222110   0.211   6.836   4.826
 7071SOL     OW22111   3.749   6.063   5.861
 7071SOL    HW122112   3.780   6.158   5.859
 7071SOL    HW222113   3.680   6.052   5.933
 7072SOL     OW22114   1.871   5.818   0.026
 7072SOL    HW122115   1.944   5.870   0.070
 7072SOL    HW222116   1.785   5.869   0.032
 7073SOL     OW22117   5.464   0.003   3.822
 7073SOL    HW122118   5.505   6.948   3.870
 7073SOL    HW222119   5.427   0.068   3.888
 7074SOL     OW22120   6.237   2.795   1.632
 7074SOL    HW122121   6.143   2.768   1.653
 7074SOL    HW222122   6.237   2.879   1.578
 7075SOL     OW22123   1.817   4.017   5.004
 7075SOL    HW122124   1.917   4.021   4.995
 7075SOL    HW222125   1.781   3.951   4.937
 7076SOL     OW22126   5.378   2.783   0.396
 7076SOL    HW122127   5.448   2.826   0.452
 7076SOL    HW222128   5.396   2.685   0.389
 7077SOL     OW22129   1.864   4.139   3.831
 7077SOL    HW122130   1.890   4.220   3.884
 7077SOL    HW222131   1.863   4.059   3.892
 7078SOL     OW22132   0.020   6.130   1.911
 7078SOL    HW122133   0.015   6.031   1.923
 7078SOL    HW222134   6.954   6.171   1.935
 7079SOL     OW22135   1.035   0.194   4.294
 7079SOL    HW122136   1.072   0.144   4.216
 7079SOL    HW222137   1.105   0.255   4.330
 7080SOL     OW22138   3.340   1.639   4.647
 7080SOL    HW122139   3.363   1.706   4.576
 7080SOL    HW222140   3.258   1.669   4.695
 7081SOL     OW22141   1.852   6.150   0.257
 7081SOL    HW122142   1.908   6.075   0.294
 7081SOL    HW222143   1.906   6.203   0.192
 7082SOL     OW22144   6.275   4.576   0.144
 7082SOL    HW122145   6.367   4.606   0.120
 7082SOL    HW222146   6.211   4.653   0.138
 7083SOL     OW22147   1.636   1.111   2.034
 7083SOL    HW122148   1.718   1.057   2.051
 7083SOL    HW222149   1.650   1.204   2.068
 7084SOL     OW22150   0.800   5.480   5.600
 7084SOL    HW122151   0.848   5.461   5.514
 7084SOL    HW222152   0.728   5.548   5.584
 7085SOL     OW22153   0.429   1.712   2.111
 7085SOL    HW122154   0.438   1.672   2.020
 7085SOL    HW222155   0.513   1.695   2.163
 7086SOL     OW22156   6.043   0.625   5.733
 7086SOL    HW122157   6.051   0.723   5.751
 7086SOL    HW222158   6.115   0.576   5.783
 7087SOL     OW22159   6.140   4.048   2.885
 7087SOL    HW122160   6.195   4.097   2.953
 7087SOL    HW222161   6.046   4.041   2.917
 7088SOL     OW22162   4.977   2.614   4.125
 7088SOL    HW122163   4.908   2.685   4.128
 7088SOL    HW222164   5.023   2.608   4.213
 7089SOL     OW22165   2.460   2.648   4.716
 7089SOL    HW122166   2.367   2.612   4.705
 7089SOL    HW222167   2.456   2.739   4.758
 7090SOL     OW22168   1.712   1.046   0.617
 7090SOL    HW122169   1.764   1.129   0.633
 7090SOL    HW222170   1.665   1.052   0.529
 7091SOL     OW22171   0.313   1.512   0.908
 7091SOL    HW122172   0.275   1.582   0.969
 7091SOL    HW222173   0.238   1.465   0.861
 7092SOL     OW22174   4.093   3.094   5.567
 7092SOL    HW122175   4.005   3.097   5.614
 7092SOL    HW222176   4.165   3.072   5.633
 7093SOL     OW22177   3.419   4.142   2.292
 7093SOL    HW122178   3.380   4.051   2.300
 7093SOL    HW222179   3.393   4.182   2.205
 7094SOL     OW22180   0.380   6.313   5.818
 7094SOL    HW122181   0.471   6.272   5.811
 7094SOL    HW222182   0.376   6.394   5.760
 7095SOL     OW22183   3.191   4.534   5.995
 7095SOL    HW122184   3.116   4.505   5.935
 7095SOL    HW222185   3.271   4.477   5.977
 7096SOL     OW22186   6.614   0.329   2.274
 7096SOL    HW122187   6.689   0.373   2.323
 7096SOL    HW222188   6.569   0.263   2.335
 7097SOL     OW22189   4.750   0.479   1.531
 7097SOL    HW122190   4.715   0.493   1.624
 7097SOL    HW222191   4.729   0.386   1.501
 7098SOL     OW22192   2.228   5.592   5.440
 7098SOL    HW122193   2.145   5.579   5.385
 7098SOL    HW222194   2.273   5.504   5.454
 7099SOL     OW22195   3.616   1.681   4.989
 7099SOL    HW122196   3.673   1.708   5.067
 7099SOL    HW222197   3.630   1.584   4.970
 7100SOL     OW22198   6.764   3.325   0.224
 7100SOL    HW122199   6.757   3.396   0.295
 7100SOL    HW222200   6.681   3.327   0.168
 7101SOL     OW22201   2.715   1.777   5.717
 7101SOL    HW122202   2.739   1.743   5.627
 7101SOL    HW222203   2.727   1.705   5.785
 7102SOL     OW22204   5.574   0.534   1.265
 7102SOL    HW122205   5.521   0.449   1.261
 7102SOL    HW222206   5.649   0.530   1.199
 7103SOL     OW22207   5.854   5.585   2.058
 7103SOL    HW122208   5.923   5.604   1.989
 7103SOL    HW222209   5.861   5.651   2.133
 7104SOL     OW22210   6.629   3.824   2.751
 7104SOL    HW122211   6.607   3.750   2.814
 7104SOL    HW222212   6.628   3.790   2.657
 7105SOL     OW22213   2.808   3.351   5.296
 7105SOL    HW122214   2.871   3.298   5.239
 7105SOL    HW222215   2.723   3.299   5.307
 7106SOL     OW22216   3.470   3.139   2.075
 7106SOL    HW122217   3.510   3.104   1.991
 7106SOL    HW222218   3.525   3.109   2.154
 7107SOL     OW22219   4.837   0.474   0.716
 7107SOL    HW122220   4.809   0.382   0.688
 7107SOL    HW222221   4.763   0.517   0.767
 7108SOL     OW22222   3.207   5.787   2.296
 7108SOL    HW122223   3.298   5.752   2.318
 7108SOL    HW222224   3.175   5.844   2.372
 7109SOL     OW22225   2.009   0.131   5.709
 7109SOL    HW122226   2.103   0.107   5.685
 7109SOL    HW222227   2.009   0.181   5.796
 7110SOL     OW22228   3.181   5.869   4.331
 7110SOL    HW122229   3.271   5.877   4.376
 7110SOL    HW222230   3.146   5.776   4.342
 7111SOL     OW22231   0.807   2.420   5.112
 7111SOL    HW122232   0.764   2.488   5.053
 7111SOL    HW222233   0.897   2.396   5.074
 7112SOL     OW22234   1.850   5.215   4.413
 7112SOL    HW122235   1.940   5.170   4.416
 7112SOL    HW222236   1.831   5.247   4.320
 7113SOL     OW22237   3.366   3.899   4.864
 7113SOL    HW122238   3.444   3.890   4.801
 7113SOL    HW222239   3.305   3.971   4.831
 7114SOL     OW22240   5.068   5.712   0.850
 7114SOL    HW122241   5.153   5.660   0.863
 7114SOL    HW222242   5.079   5.803   0.891
 7115SOL     OW22243   4.134   2.756   0.254
 7115SOL    HW122244   4.226   2.726   0.280
 7115SOL    HW222245   4.125   2.752   0.154
 7116SOL     OW22246   5.326   4.348   3.121
 7116SOL    HW122247   5.325   4.432   3.067
 7116SOL    HW222248   5.322   4.371   3.218
 7117SOL     OW22249   0.569   6.270   5.131
 7117SOL    HW122250   0.478   6.251   5.166
 7117SOL    HW222251   0.619   6.184   5.118
 7118SOL     OW22252   3.494   4.503   6.154
 7118SOL    HW122253   3.413   4.520   6.210
 7118SOL    HW222254   3.572   4.482   6.214
 7119SOL     OW22255   5.474   0.978   4.275
 7119SOL    HW122256   5.546   0.993   4.206
 7119SOL    HW222257   5.392   1.028   4.248
 7120SOL     OW22258   3.433   2.026   1.901
 7120SOL    HW122259   3.386   2.060   1.819
 7120SOL    HW222260   3.507   2.089   1.925
 7121SOL     OW22261   1.030   6.584   3.918
 7121SOL    HW122262   1.007   6.500   3.869
 7121SOL    HW222263   0.950   6.616   3.968
 7122SOL     OW22264   1.300   0.965   5.885
 7122SOL    HW122265   1.348   0.967   5.797
 7122SOL    HW222266   1.333   1.041   5.942
 7123SOL     OW22267   1.601   5.234   3.828
 7123SOL    HW122268   1.533   5.306   3.817
 7123SOL    HW222269   1.613   5.186   3.741
 7124SOL     OW22270   6.977   2.659   1.845
 7124SOL    HW122271   6.913   2.602   1.794
 7124SOL    HW222272   0.043   2.660   1.798
 7125SOL     OW22273   0.735   0.076   0.454
 7125SOL    HW122274   0.676   0.148   0.417
 7125SOL    HW222275   0.796   0.043   0.382
 7126SOL     OW22276   3.425   5.084   0.509
 7126SOL    HW122277   3.468   5.120   0.592
 7126SOL    HW222278   3.353   5.147   0.479
 7127SOL     OW22279   2.580   6.066   6.993
 7127SOL    HW122280   2.670   6.027   7.014
 7127SOL    HW222281   2.508   6.002   7.019
 7128SOL     OW22282   3.136   3.822   6.566
 7128SOL    HW122283   3.055   3.882   6.570
 7128SOL    HW222284   3.172   3.809   6.658
 7129SOL     OW22285   2.342   1.096   0.600
 7129SOL    HW122286   2.333   1.108   0.501
 7129SOL    HW222287   2.295   1.012   0.628
 7130SOL     OW22288   3.372   6.230   4.338
 7130SOL    HW122289   3.391   6.152   4.398
 7130SOL    HW222290   3.326   6.197   4.255
 7131SOL     OW22291   2.632   0.992   1.303
 7131SOL    HW122292   2.677   1.017   1.218
 7131SOL    HW222293   2.683   0.919   1.349
 7132SOL     OW22294   4.239   4.221   6.844
 7132SOL    HW122295   4.223   4.134   6.799
 7132SOL    HW222296   4.254   4.205   6.942
 7133SOL     OW22297   4.195   4.669   5.215
 7133SOL    HW122298   4.224   4.574   5.215
 7133SOL    HW222299   4.155   4.692   5.304
 7134SOL     OW22300   4.663   6.992   1.939
 7134SOL    HW122301   4.661   6.905   1.988
 7134SOL    HW222302   4.570   0.006   1.932
 7135SOL     OW22303   1.896   2.367   3.139
 7135SOL    HW122304   1.963   2.333   3.205
 7135SOL    HW222305   1.932   2.447   3.092
 7136SOL     OW22306   3.064   1.327   0.421
 7136SOL    HW122307   3.014   1.252   0.465
 7136SOL    HW222308   2.999   1.389   0.378
 7137SOL     OW22309   2.961   1.587   0.354
 7137SOL    HW122310   2.957   1.586   0.255
 7137SOL    HW222311   2.983   1.679   0.386
 7138SOL     OW22312   1.886   1.992   1.074
 7138SOL    HW122313   1.966   2.022   1.126
 7138SOL    HW222314   1.803   2.026   1.118
 7139SOL     OW22315   5.025   5.117   1.644
 7139SOL    HW122316   4.964   5.196   1.633
 7139SOL    HW222317   5.098   5.140   1.708
 7140SOL     OW22318   6.135   4.044   1.030
 7140SOL    HW122319   6.123   4.044   0.931
 7140SOL    HW222320   6.224   4.083   1.053
 7141SOL     OW22321   3.325   6.718   0.981
 7141SOL    HW122322   3.241   6.743   1.028
 7141SOL    HW222323   3.341   6.782   0.905
 7142SOL     OW22324   4.244   6.631   3.714
 7142SOL    HW122325   4.286   6.661   3.799
 7142SOL    HW222326   4.156   6.677   3.702
 7143SOL     OW22327   2.019   3.548   0.023
 7143SOL    HW122328   2.050   3.622   6.986
 7143SOL    HW222329   2.058   3.560   0.114
 7144SOL     OW22330   1.826   1.207   3.171
 7144SOL    HW122331   1.792   1.123   3.130
 7144SOL    HW222332   1.925   1.201   3.182
 7145SOL     OW22333   3.881   1.011   6.429
 7145SOL    HW122334   3.796   0.963   6.408
 7145SOL    HW222335   3.898   1.008   6.527
 7146SOL     OW22336   1.547   0.662   6.394
 7146SOL    HW122337   1.523   0.711   6.310
 7146SOL    HW222338   1.574   0.727   6.465
 7147SOL     OW22339   0.328   6.024   3.323
 7147SOL    HW122340   0.342   6.012   3.421
 7147SOL    HW222341   0.351   6.118   3.297
 7148SOL     OW22342   6.650   6.063   1.346
 7148SOL    HW122343   6.739   6.094   1.314
 7148SOL    HW222344   6.602   6.139   1.389
 7149SOL     OW22345   0.441   6.195   4.006
 7149SOL    HW122346   0.460   6.145   4.090
 7149SOL    HW222347   0.396   6.134   3.940
 7150SOL     OW22348   3.428   2.998   0.484
 7150SOL    HW122349   3.440   3.054   0.402
 7150SOL    HW222350   3.421   2.902   0.458
 7151SOL     OW22351   3.096   6.783   1.122
 7151SOL    HW122352   3.043   6.867   1.108
 7151SOL    HW222353   3.115   6.773   1.220
 7152SOL     OW22354   7.023   0.363   5.956
 7152SOL    HW122355   0.002   0.338   5.859
 7152SOL    HW222356   0.020   0.281   6.011
 7153SOL     OW22357   4.073   5.198   1.661
 7153SOL    HW122358   4.104   5.265   1.728
 7153SOL    HW222359   4.026   5.246   1.586
 7154SOL     OW22360   4.904   6.055   2.696
 7154SOL    HW122361   4.866   6.118   2.765
 7154SOL    HW222362   4.966   6.105   2.636
 7155SOL     OW22363   3.058   3.513   1.393
 7155SOL    HW122364   3.148   3.535   1.432
 7155SOL    HW222365   3.021   3.432   1.437
 7156SOL     OW22366   6.344   3.831   2.625
 7156SOL    HW122367   6.386   3.887   2.696
 7156SOL    HW222368   6.245   3.834   2.634
 7157SOL     OW22369   0.030   4.884   1.973
 7157SOL    HW122370   0.022   4.811   2.042
 7157SOL    HW222371   6.968   4.890   1.920
 7158SOL     OW22372   1.261   0.154   3.811
 7158SOL    HW122373   1.175   0.202   3.825
 7158SOL    HW222374   1.335   0.221   3.801
 7159SOL     OW22375   1.262   5.123   4.069
 7159SOL    HW122376   1.180   5.070   4.090
 7159SOL    HW222377   1.254   5.164   3.978
 7160SOL     OW22378   6.328   6.961   3.119
 7160SOL    HW122379   6.367   6.912   3.197
 7160SOL    HW222380   6.350   0.035   3.126
 7161SOL     OW22381   3.237   3.733   3.036
 7161SOL    HW122382   3.315   3.679   3.067
 7161SOL    HW222383   3.260   3.779   2.950
 7162SOL     OW22384   1.409   5.268   6.029
 7162SOL    HW122385   1.385   5.199   6.098
 7162SOL    HW222386   1.326   5.309   5.993
 7163SOL     OW22387   2.837   0.601   2.441
 7163SOL    HW122388   2.925   0.558   2.462
 7163SOL    HW222389   2.768   0.531   2.427
 7164SOL     OW22390   3.098   0.895   5.145
 7164SOL    HW122391   3.117   0.799   5.127
 7164SOL    HW222392   3.060   0.938   5.063
 7165SOL     OW22393   5.737   6.395   1.436
 7165SOL    HW122394   5.723   6.492   1.416
 7165SOL    HW222395   5.728   6.342   1.352
 7166SOL     OW22396   5.340   1.503   0.239
 7166SOL    HW122397   5.242   1.483   0.252
 7166SOL    HW222398   5.355   1.601   0.247
 7167SOL     OW22399   4.862   3.270   4.833
 7167SOL    HW122400   4.790   3.214   4.792
 7167SOL    HW222401   4.918   3.214   4.893
 7168SOL     OW22402   2.140   1.835   3.151
 7168SOL    HW122403   2.130   1.808   3.247
 7168SOL    HW222404   2.141   1.934   3.144
 7169SOL     OW22405   6.791   4.440   5.369
 7169SOL    HW122406   6.738   4.502   5.310
 7169SOL    HW222407   6.729   4.394   5.432
 7170SOL     OW22408   4.622   0.164   2.622
 7170SOL    HW122409   4.674   0.220   2.686
 7170SOL    HW222410   4.531   0.147   2.659
 7171SOL     OW22411   6.009   4.105   0.552
 7171SOL    HW122412   6.034   4.149   0.466
 7171SOL    HW222413   5.910   4.092   0.556
 7172SOL     OW22414   1.686   0.162   4.585
 7172SOL    HW122415   1.749   0.238   4.571
 7172SOL    HW222416   1.616   0.188   4.651
 7173SOL     OW22417   6.057   4.710   0.070
 7173SOL    HW122418   6.023   4.799   0.097
 7173SOL    HW222419   6.017   4.684   7.005
 7174SOL     OW22420   0.223   3.963   0.615
 7174SOL    HW122421   0.193   4.004   0.701
 7174SOL    HW222422   0.198   4.022   0.539
 7175SOL     OW22423   6.029   2.808   5.625
 7175SOL    HW122424   6.111   2.863   5.642
 7175SOL    HW222425   6.032   2.773   5.531
 7176SOL     OW22426   6.644   1.902   3.231
 7176SOL    HW122427   6.608   1.995   3.218
 7176SOL    HW222428   6.704   1.879   3.155
 7177SOL     OW22429   1.321   4.663   5.280
 7177SOL    HW122430   1.376   4.654   5.197
 7177SOL    HW222431   1.245   4.726   5.263
 7178SOL     OW22432   0.052   1.778   5.886
 7178SOL    HW122433   0.140   1.754   5.928
 7178SOL    HW222434   0.063   1.785   5.787
 7179SOL     OW22435   1.508   3.717   4.544
 7179SOL    HW122436   1.475   3.623   4.547
 7179SOL    HW222437   1.608   3.717   4.534
 7180SOL     OW22438   2.134   4.033   0.244
 7180SOL    HW122439   2.061   3.989   0.296
 7180SOL    HW222440   2.203   4.068   0.306
 7181SOL     OW22441   2.299   0.595   0.366
 7181SOL    HW122442   2.213   0.628   0.406
 7181SOL    HW222443   2.356   0.556   0.438
 7182SOL     OW22444   0.489   3.868   3.756
 7182SOL    HW122445   0.548   3.924   3.815
 7182SOL    HW222446   0.415   3.925   3.720
 7183SOL     OW22447   1.672   5.647   1.837
 7183SOL    HW122448   1.579   5.655   1.802
 7183SOL    HW222449   1.692   5.551   1.857
 7184SOL     OW22450   6.992   1.478   4.274
 7184SOL    HW122451   0.039   1.516   4.213
 7184SOL    HW222452   7.018   1.385   4.301
 7185SOL     OW22453   5.658   1.325   5.667
 7185SOL    HW122454   5.753   1.340   5.695
 7185SOL    HW222455   5.616   1.257   5.728
 7186SOL     OW22456   6.313   1.786   1.478
 7186SOL    HW122457   6.240   1.794   1.545
 7186SOL    HW222458   6.318   1.693   1.443
 7187SOL     OW22459   3.099   4.044   5.182
 7187SOL    HW122460   3.046   3.963   5.206
 7187SOL    HW222461   3.058   4.125   5.223
 7188SOL     OW22462   4.692   6.051   6.942
 7188SOL    HW122463   4.676   6.149   6.951
 7188SOL    HW222464   4.675   6.022   6.848
 7189SOL     OW22465   6.900   2.001   5.997
 7189SOL    HW122466   6.833   1.938   6.036
 7189SOL    HW222467   6.976   1.948   5.958
 7190SOL     OW22468   6.498   5.427   1.305
 7190SOL    HW122469   6.413   5.394   1.347
 7190SOL    HW222470   6.576   5.386   1.351
 7191SOL     OW22471   1.594   4.789   2.832
 7191SOL    HW122472   1.678   4.746   2.797
 7191SOL    HW222473   1.525   4.718   2.849
 7192SOL     OW22474   1.495   4.318   5.734
 7192SOL    HW122475   1.554   4.363   5.667
 7192SOL    HW222476   1.499   4.219   5.720
 7193SOL     OW22477   1.478   2.501   1.767
 7193SOL    HW122478   1.458   2.408   1.798
 7193SOL    HW222479   1.522   2.552   1.841
 7194SOL     OW22480   1.877   3.072   6.920
 7194SOL    HW122481   1.862   3.167   6.946
 7194SOL    HW222482   1.813   3.013   6.970
 7195SOL     OW22483   6.995   4.109   0.770
 7195SOL    HW122484   0.026   4.189   0.745
 7195SOL    HW222485   6.953   4.123   0.859
 7196SOL     OW22486   2.401   3.665   1.696
 7196SOL    HW122487   2.330   3.726   1.731
 7196SOL    HW222488   2.405   3.583   1.753
 7197SOL     OW22489   1.056   3.342   5.722
 7197SOL    HW122490   1.075   3.244   5.718
 7197SOL    HW222491   1.075   3.375   5.814
 7198SOL     OW22492   0.031   1.504   0.387
 7198SOL    HW122493   0.048   1.533   0.293
 7198SOL    HW222494   0.092   1.427   0.409
 7199SOL     OW22495   0.649   0.094   2.476
 7199SOL    HW122496   0.628   0.105   2.573
 7199SOL    HW222497   0.656   7.020   2.453
 7200SOL     OW22498   1.983   2.620   6.641
 7200SOL    HW122499   2.002   2.705   6.690
 7200SOL    HW222500   2.069   2.583   6.605
 7201SOL     OW22501   1.077   6.090   3.617
 7201SOL    HW122502   1.038   6.153   3.549
 7201SOL    HW222503   1.004   6.031   3.653
 7202SOL     OW22504   4.421   0.090   0.022
 7202SOL    HW122505   4.431   0.050   0.114
 7202SOL    HW222506   4.480   0.170   0.014
 7203SOL     OW22507   6.676   1.105   1.006
 7203SOL    HW122508   6.651   1.079   0.913
 7203SOL    HW222509   6.764   1.064   1.030
 7204SOL     OW22510   0.109   1.149   5.702
 7204SOL    HW122511   0.029   1.187   5.657
 7204SOL    HW222512   0.086   1.127   5.797
 7205SOL     OW22513   1.623   4.171   5.380
 7205SOL    HW122514   1.676   4.187   5.297
 7205SOL    HW222515   1.630   4.251   5.440
 7206SOL     OW22516   1.286   0.465   2.052
 7206SOL    HW122517   1.194   0.501   2.038
 7206SOL    HW222518   1.318   0.491   2.143
 7207SOL     OW22519   3.888   0.222   4.020
 7207SOL    HW122520   3.819   0.160   3.983
 7207SOL    HW222521   3.884   0.220   4.119
 7208SOL     OW22522   4.928   7.005   3.678
 7208SOL    HW122523   4.918   0.074   3.718
 7208SOL    HW222524   4.969   7.014   3.587
 7209SOL     OW22525   2.638   2.968   1.614
 7209SOL    HW122526   2.639   3.055   1.663
 7209SOL    HW222527   2.732   2.933   1.606
 7210SOL     OW22528   3.685   1.626   3.043
 7210SOL    HW122529   3.617   1.673   3.099
 7210SOL    HW222530   3.680   1.528   3.060
 7211SOL     OW22531   1.907   6.041   5.009
 7211SOL    HW122532   1.862   6.078   4.928
 7211SOL    HW222533   1.946   6.116   5.062
 7212SOL     OW22534   0.682   6.508   5.054
 7212SOL    HW122535   0.767   6.494   5.003
 7212SOL    HW222536   0.629   6.424   5.053
 7213SOL     OW22537   3.786   6.600   0.063
 7213SOL    HW122538   3.760   6.503   0.062
 7213SOL    HW222539   3.849   6.618   7.011
 7214SOL     OW22540   6.869   0.278   4.778
 7214SOL    HW122541   6.888   0.376   4.780
 7214SOL    HW222542   6.901   0.236   4.863
 7215SOL     OW22543   6.673   2.913   3.909
 7215SOL    HW122544   6.756   2.963   3.932
 7215SOL    HW222545   6.593   2.964   3.941
 7216SOL     OW22546   3.173   0.268   1.333
 7216SOL    HW122547   3.224   0.205   1.274
 7216SOL    HW222548   3.137   0.343   1.278
 7217SOL     OW22549   2.064   3.678   3.577
 7217SOL    HW122550   2.082   3.713   3.485
 7217SOL    HW222551   2.004   3.742   3.626
 7218SOL     OW22552   6.015   2.609   4.024
 7218SOL    HW122553   6.088   2.559   4.070
 7218SOL    HW222554   6.053   2.657   3.945
 7219SOL     OW22555   3.595   0.561   2.985
 7219SOL    HW122556   3.660   0.527   2.918
 7219SOL    HW222557   3.619   0.654   3.012
 7220SOL     OW22558   6.776   3.943   4.295
 7220SOL    HW122559   6.720   3.923   4.214
 7220SOL    HW222560   6.740   3.891   4.373
 7221SOL     OW22561   3.822   5.935   5.265
 7221SOL    HW122562   3.751   5.885   5.215
 7221SOL    HW222563   3.867   5.873   5.330
 7222SOL     OW22564   6.204   6.348   3.512
 7222SOL    HW122565   6.150   6.388   3.585
 7222SOL    HW222566   6.190   6.401   3.428
 7223SOL     OW22567   3.168   1.672   1.107
 7223SOL    HW122568   3.175   1.616   1.024
 7223SOL    HW222569   3.169   1.768   1.081
 7224SOL     OW22570   5.346   2.072   3.965
 7224SOL    HW122571   5.290   2.112   4.038
 7224SOL    HW222572   5.300   2.085   3.878
 7225SOL     OW22573   1.376   6.325   0.442
 7225SOL    HW122574   1.312   6.376   0.500
 7225SOL    HW222575   1.325   6.273   0.374
 7226SOL     OW22576   6.165   0.502   1.928
 7226SOL    HW122577   6.234   0.431   1.912
 7226SOL    HW222578   6.202   0.590   1.899
 7227SOL     OW22579   2.651   2.059   1.240
 7227SOL    HW122580   2.669   1.995   1.314
 7227SOL    HW222581   2.556   2.049   1.209
 7228SOL     OW22582   1.007   1.764   2.773
 7228SOL    HW122583   1.046   1.742   2.862
 7228SOL    HW222584   0.965   1.682   2.733
 7229SOL     OW22585   1.208   5.781   6.023
 7229SOL    HW122586   1.207   5.872   5.983
 7229SOL    HW222587   1.279   5.775   6.093
 7230SOL     OW22588   3.837   5.571   5.064
 7230SOL    HW122589   3.751   5.522   5.053
 7230SOL    HW222590   3.843   5.645   4.997
 7231SOL     OW22591   3.769   0.194   6.056
 7231SOL    HW122592   3.760   0.133   5.977
 7231SOL    HW222593   3.807   0.143   6.133
 7232SOL     OW22594   5.236   6.062   2.229
 7232SOL    HW122595   5.246   6.071   2.130
 7232SOL    HW222596   5.165   6.124   2.262
 7233SOL     OW22597   1.693   1.796   4.161
 7233SOL    HW122598   1.702   1.867   4.091
 7233SOL    HW222599   1.600   1.758   4.157
 7234SOL     OW22600   5.748   2.877   3.131
 7234SOL    HW122601   5.722   2.789   3.091
 7234SOL    HW222602   5.691   2.949   3.094
 7235SOL     OW22603   6.747   4.920   2.567
 7235SOL    HW122604   6.756   5.003   2.511
 7235SOL    HW222605   6.830   4.908   2.622
 7236SOL     OW22606   2.661   1.844   1.885
 7236SOL    HW122607   2.703   1.867   1.973
 7236SOL    HW222608   2.717   1.879   1.811
 7237SOL     OW22609   4.460   0.396   4.698
 7237SOL    HW122610   4.404   0.421   4.777
 7237SOL    HW222611   4.555   0.422   4.715
 7238SOL     OW22612   4.100   1.997   6.217
 7238SOL    HW122613   4.048   2.037   6.142
 7238SOL    HW222614   4.090   1.898   6.216
 7239SOL     OW22615   0.424   1.904   1.783
 7239SOL    HW122616   0.479   1.977   1.823
 7239SOL    HW222617   0.452   1.816   1.822
 7240SOL     OW22618   0.968   1.481   5.944
 7240SOL    HW122619   0.903   1.444   6.011
 7240SOL    HW222620   0.998   1.572   5.974
 7241SOL     OW22621   2.340   0.538   0.811
 7241SOL    HW122622   2.266   0.474   0.833
 7241SOL    HW222623   2.420   0.515   0.865
 7242SOL     OW22624   6.449   5.692   6.730
 7242SOL    HW122625   6.400   5.779   6.718
 7242SOL    HW222626   6.444   5.640   6.645
 7243SOL     OW22627   6.476   4.380   6.895
 7243SOL    HW122628   6.489   4.418   6.803
 7243SOL    HW222629   6.384   4.402   6.927
 7244SOL     OW22630   6.733   1.150   1.705
 7244SOL    HW122631   6.696   1.152   1.612
 7244SOL    HW222632   6.723   1.240   1.747
 7245SOL     OW22633   1.599   2.971   5.034
 7245SOL    HW122634   1.564   3.059   5.002
 7245SOL    HW222635   1.635   2.982   5.127
 7246SOL     OW22636   1.019   0.506   3.725
 7246SOL    HW122637   1.054   0.577   3.786
 7246SOL    HW222638   1.017   0.418   3.774
 7247SOL     OW22639   2.051   2.029   4.523
 7247SOL    HW122640   2.035   1.968   4.446
 7247SOL    HW222641   1.986   2.105   4.519
 7248SOL     OW22642   2.879   1.358   2.885
 7248SOL    HW122643   2.796   1.302   2.874
 7248SOL    HW222644   2.880   1.429   2.815
 7249SOL     OW22645   5.640   4.945   2.224
 7249SOL    HW122646   5.635   5.045   2.221
 7249SOL    HW222647   5.735   4.916   2.232
 7250SOL     OW22648   5.847   6.147   5.954
 7250SOL    HW122649   5.909   6.205   5.901
 7250SOL    HW222650   5.758   6.142   5.909
 7251SOL     OW22651   0.640   6.436   5.406
 7251SOL    HW122652   0.720   6.447   5.347
 7251SOL    HW222653   0.638   6.343   5.444
 7252SOL     OW22654   3.632   3.061   2.294
 7252SOL    HW122655   3.601   3.010   2.374
 7252SOL    HW222656   3.714   3.113   2.318
 7253SOL     OW22657   1.614   6.240   0.154
 7253SOL    HW122658   1.694   6.199   0.198
 7253SOL    HW222659   1.644   6.306   0.085
 7254SOL     OW22660   4.906   5.087   4.562
 7254SOL    HW122661   4.913   5.001   4.511
 7254SOL    HW222662   4.863   5.070   4.650
 7255SOL     OW22663   3.960   3.576   0.330
 7255SOL    HW122664   3.917   3.506   0.388
 7255SOL    HW222665   3.978   3.658   0.385
 7256SOL     OW22666   2.963   5.969   4.521
 7256SOL    HW122667   2.996   5.914   4.444
 7256SOL    HW222668   3.037   6.029   4.552
 7257SOL     OW22669   6.370   1.825   3.542
 7257SOL    HW122670   6.336   1.896   3.481
 7257SOL    HW222671   6.350   1.850   3.637
 7258SOL     OW22672   4.800   1.232   2.788
 7258SOL    HW122673   4.807   1.187   2.699
 7258SOL    HW222674   4.873   1.200   2.847
 7259SOL     OW22675   2.151   3.590   1.209
 7259SOL    HW122676   2.146   3.641   1.295
 7259SOL    HW222677   2.218   3.633   1.148
 7260SOL     OW22678   4.826   1.483   1.199
 7260SOL    HW122679   4.912   1.527   1.225
 7260SOL    HW222680   4.776   1.456   1.281
 7261SOL     OW22681   1.506   3.804   2.069
 7261SOL    HW122682   1.587   3.809   2.011
 7261SOL    HW222683   1.521   3.857   2.153
 7262SOL     OW22684   5.418   2.644   6.243
 7262SOL    HW122685   5.336   2.676   6.195
 7262SOL    HW222686   5.425   2.545   6.234
 7263SOL     OW22687   0.807   6.540   6.801
 7263SOL    HW122688   0.778   6.445   6.793
 7263SOL    HW222689   0.820   6.562   6.898
 7264SOL     OW22690   5.107   2.117   6.495
 7264SOL    HW122691   5.053   2.079   6.420
 7264SOL    HW222692   5.051   2.181   6.548
 7265SOL     OW22693   5.763   5.017   5.881
 7265SOL    HW122694   5.842   4.974   5.835
 7265SOL    HW222695   5.794   5.096   5.933
 7266SOL     OW22696   5.609   0.240   2.555
 7266SOL    HW122697   5.542   0.255   2.628
 7266SOL    HW222698   5.573   0.277   2.469
 7267SOL     OW22699   6.679   6.344   5.307
 7267SOL    HW122700   6.626   6.273   5.261
 7267SOL    HW222701   6.640   6.434   5.286
 7268SOL     OW22702   6.496   5.124   3.939
 7268SOL    HW122703   6.443   5.167   4.011
 7268SOL    HW222704   6.502   5.184   3.860
 7269SOL     OW22705   0.528   5.998   6.465
 7269SOL    HW122706   0.559   5.905   6.482
 7269SOL    HW222707   0.504   6.008   6.368
 7270SOL     OW22708   0.929   3.441   5.085
 7270SOL    HW122709   0.851   3.483   5.131
 7270SOL    HW222710   0.933   3.344   5.109
 7271SOL     OW22711   0.575   5.706   3.962
 7271SOL    HW122712   0.489   5.754   3.978
 7271SOL    HW222713   0.584   5.630   4.027
 7272SOL     OW22714   5.916   5.172   2.067
 7272SOL    HW122715   5.921   5.093   2.007
 7272SOL    HW222716   5.999   5.227   2.057
 7273SOL     OW22717   5.898   4.394   1.317
 7273SOL    HW122718   5.859   4.329   1.252
 7273SOL    HW222719   5.827   4.422   1.382
 7274SOL     OW22720   0.100   5.342   6.130
 7274SOL    HW122721   0.195   5.331   6.160
 7274SOL    HW222722   0.042   5.359   6.209
 7275SOL     OW22723   0.163   6.460   2.591
 7275SOL    HW122724   0.251   6.420   2.564
 7275SOL    HW222725   0.094   6.388   2.594
 7276SOL     OW22726   4.570   1.058   2.968
 7276SOL    HW122727   4.618   1.146   2.972
 7276SOL    HW222728   4.532   1.037   3.058
 7277SOL     OW22729   4.876   0.928   4.102
 7277SOL    HW122730   4.796   0.897   4.154
 7277SOL    HW222731   4.931   0.988   4.160
 7278SOL     OW22732   3.628   2.317   1.456
 7278SOL    HW122733   3.593   2.255   1.385
 7278SOL    HW222734   3.556   2.334   1.523
 7279SOL     OW22735   4.482   4.524   5.881
 7279SOL    HW122736   4.392   4.485   5.901
 7279SOL    HW222737   4.476   4.579   5.798
 7280SOL     OW22738   0.242   1.824   3.448
 7280SOL    HW122739   0.301   1.841   3.527
 7280SOL    HW222740   0.209   1.911   3.411
 7281SOL     OW22741   1.886   1.282   0.646
 7281SOL    HW122742   1.975   1.324   0.661
 7281SOL    HW222743   1.846   1.257   0.734
 7282SOL     OW22744   5.857   5.246   2.337
 7282SOL    HW122745   5.906   5.215   2.255
 7282SOL    HW222746   5.879   5.342   2.355
 7283SOL     OW22747   4.989   0.466   2.819
 7283SOL    HW122748   5.032   0.543   2.866
 7283SOL    HW222749   5.040   0.445   2.735
 7284SOL     OW22750   0.217   2.588   5.930
 7284SOL    HW122751   0.181   2.501   5.895
 7284SOL    HW222752   0.210   2.658   5.859
 7285SOL     OW22753   5.730   3.136   2.377
 7285SOL    HW122754   5.730   3.136   2.477
 7285SOL    HW222755   5.679   3.216   2.344
 7286SOL     OW22756   2.268   0.810   0.682
 7286SOL    HW122757   2.302   0.729   0.730
 7286SOL    HW222758   2.302   0.811   0.588
 7287SOL     OW22759   0.721   2.582   5.923
 7287SOL    HW122760   0.734   2.505   5.860
 7287SOL    HW222761   0.795   2.582   5.991
 7288SOL     OW22762   1.850   0.935   1.659
 7288SOL    HW122763   1.772   0.975   1.707
 7288SOL    HW222764   1.839   0.835   1.656
 7289SOL     OW22765   5.658   1.706   3.864
 7289SOL    HW122766   5.673   1.801   3.839
 7289SOL    HW222767   5.699   1.646   3.795
 7290SOL     OW22768   3.789   1.453   5.124
 7290SOL    HW122769   3.828   1.544   5.138
 7290SOL    HW222770   3.813   1.420   5.033
 7291SOL     OW22771   1.440   6.595   6.995
 7291SOL    HW122772   1.374   6.637   6.933
 7291SOL    HW222773   1.400   6.513   0.014
 7292SOL     OW22774   3.443   1.133   3.381
 7292SOL    HW122775   3.369   1.163   3.441
 7292SOL    HW222776   3.529   1.130   3.433
 7293SOL     OW22777   1.470   2.289   4.723
 7293SOL    HW122778   1.433   2.197   4.708
 7293SOL    HW222779   1.427   2.353   4.659
 7294SOL     OW22780   2.856   4.760   6.557
 7294SOL    HW122781   2.838   4.859   6.563
 7294SOL    HW222782   2.777   4.710   6.592
 7295SOL     OW22783   5.376   3.373   1.362
 7295SOL    HW122784   5.377   3.390   1.263
 7295SOL    HW222785   5.454   3.420   1.403
 7296SOL     OW22786   3.528   6.117   2.072
 7296SOL    HW122787   3.532   6.066   2.158
 7296SOL    HW222788   3.600   6.186   2.070
 7297SOL     OW22789   4.480   0.112   1.379
 7297SOL    HW122790   4.400   0.173   1.385
 7297SOL    HW222791   4.452   0.026   1.336
 7298SOL     OW22792   5.163   5.504   6.119
 7298SOL    HW122793   5.223   5.569   6.166
 7298SOL    HW222794   5.218   5.444   6.061
 7299SOL     OW22795   1.044   2.602   1.138
 7299SOL    HW122796   0.996   2.529   1.089
 7299SOL    HW222797   1.070   2.569   1.229
 7300SOL     OW22798   0.330   6.833   2.440
 7300SOL    HW122799   0.288   6.904   2.496
 7300SOL    HW222800   0.398   6.784   2.494
 7301SOL     OW22801   5.980   1.441   4.111
 7301SOL    HW122802   6.024   1.524   4.144
 7301SOL    HW222803   6.047   1.383   4.065
 7302SOL     OW22804   0.885   2.438   5.384
 7302SOL    HW122805   0.858   2.385   5.304
 7302SOL    HW222806   0.969   2.488   5.364
 7303SOL     OW22807   3.722   1.103   0.180
 7303SOL    HW122808   3.736   1.185   0.237
 7303SOL    HW222809   3.638   1.114   0.127
 7304SOL     OW22810   3.063   5.886   2.077
 7304SOL    HW122811   3.099   5.857   1.988
 7304SOL    HW222812   3.136   5.885   2.145
 7305SOL     OW22813   5.083   0.446   0.358
 7305SOL    HW122814   5.163   0.483   0.405
 7305SOL    HW222815   5.008   0.512   0.364
 7306SOL     OW22816   4.490   1.970   0.825
 7306SOL    HW122817   4.525   1.964   0.731
 7306SOL    HW222818   4.404   1.921   0.832
 7307SOL     OW22819   2.931   6.568   2.590
 7307SOL    HW122820   2.876   6.498   2.635
 7307SOL    HW222821   2.925   6.653   2.642
 7308SOL     OW22822   6.470   2.808   5.351
 7308SOL    HW122823   6.481   2.870   5.273
 7308SOL    HW222824   6.503   2.852   5.434
 7309SOL     OW22825   3.913   4.751   0.601
 7309SOL    HW122826   3.972   4.700   0.538
 7309SOL    HW222827   3.859   4.818   0.550
 7310SOL     OW22828   2.299   4.049   0.651
 7310SOL    HW122829   2.325   4.095   0.566
 7310SOL    HW222830   2.209   4.007   0.640
 7311SOL     OW22831   1.695   2.201   1.596
 7311SOL    HW122832   1.765   2.217   1.665
 7311SOL    HW222833   1.727   2.232   1.507
 7312SOL     OW22834   1.227   3.762   5.041
 7312SOL    HW122835   1.269   3.852   5.054
 7312SOL    HW222836   1.178   3.735   5.124
 7313SOL     OW22837   1.792   0.794   0.547
 7313SOL    HW122838   1.771   0.886   0.578
 7313SOL    HW222839   1.866   0.756   0.602
 7314SOL     OW22840   6.892   5.268   6.288
 7314SOL    HW122841   6.795   5.245   6.294
 7314SOL    HW222842   6.942   5.220   6.361
 7315SOL     OW22843   6.573   6.315   2.529
 7315SOL    HW122844   6.636   6.373   2.579
 7315SOL    HW222845   6.536   6.365   2.450
 7316SOL     OW22846   3.886   3.640   6.592
 7316SOL    HW122847   3.823   3.570   6.560
 7316SOL    HW222848   3.835   3.725   6.610
 7317SOL     OW22849   4.883   1.161   2.509
 7317SOL    HW122850   4.870   1.259   2.494
 7317SOL    HW222851   4.980   1.141   2.515
 7318SOL     OW22852   2.687   0.487   1.963
 7318SOL    HW122853   2.678   0.584   1.986
 7318SOL    HW222854   2.706   0.435   2.046
 7319SOL     OW22855   6.821   3.481   6.870
 7319SOL    HW122856   6.781   3.515   6.955
 7319SOL    HW222857   6.814   3.382   6.866
 7320SOL     OW22858   0.678   3.795   2.627
 7320SOL    HW122859   0.627   3.814   2.542
 7320SOL    HW222860   0.745   3.724   2.610
 7321SOL     OW22861   1.759   0.284   6.251
 7321SOL    HW122862   1.743   0.364   6.309
 7321SOL    HW222863   1.683   0.274   6.187
 7322SOL     OW22864   0.084   3.099   3.341
 7322SOL    HW122865   0.121   3.007   3.357
 7322SOL    HW222866   0.004   3.093   3.281
 7323SOL     OW22867   2.002   2.790   1.306
 7323SOL    HW122868   2.054   2.857   1.360
 7323SOL    HW222869   1.943   2.737   1.367
 7324SOL     OW22870   5.426   5.871   1.781
 7324SOL    HW122871   5.424   5.855   1.683
 7324SOL    HW222872   5.336   5.848   1.820
 7325SOL     OW22873   2.934   0.686   6.649
 7325SOL    HW122874   3.018   0.651   6.607
 7325SOL    HW222875   2.913   0.630   6.730
 7326SOL     OW22876   2.606   6.246   6.231
 7326SOL    HW122877   2.580   6.198   6.147
 7326SOL    HW222878   2.637   6.179   6.299
 7327SOL     OW22879   6.173   1.658   6.118
 7327SOL    HW122880   6.105   1.693   6.183
 7327SOL    HW222881   6.264   1.670   6.157
 7328SOL     OW22882   3.506   0.645   5.843
 7328SOL    HW122883   3.516   0.644   5.744
 7328SOL    HW222884   3.585   0.602   5.886
 7329SOL     OW22885   0.206   3.893   0.955
 7329SOL    HW122886   0.279   3.842   0.909
 7329SOL    HW222887   0.117   3.855   0.929
 7330SOL     OW22888   2.003   2.844   6.805
 7330SOL    HW122889   2.040   2.787   6.879
 7330SOL    HW222890   1.970   2.930   6.843
 7331SOL     OW22891   5.192   6.145   1.346
 7331SOL    HW122892   5.132   6.162   1.424
 7331SOL    HW222893   5.287   6.166   1.372
 7332SOL     OW22894   3.504   6.184   0.050
 7332SOL    HW122895   3.555   6.098   0.048
 7332SOL    HW222896   3.439   6.182   0.126
 7333SOL     OW22897   6.805   3.384   2.199
 7333SOL    HW122898   6.840   3.293   2.222
 7333SOL    HW222899   6.712   3.377   2.162
 7334SOL     OW22900   2.312   5.819   6.524
 7334SOL    HW122901   2.227   5.868   6.541
 7334SOL    HW222902   2.331   5.818   6.426
 7335SOL     OW22903   1.466   2.795   3.412
 7335SOL    HW122904   1.402   2.862   3.375
 7335SOL    HW222905   1.555   2.838   3.428
 7336SOL     OW22906   1.387   6.474   2.823
 7336SOL    HW122907   1.359   6.560   2.782
 7336SOL    HW222908   1.384   6.401   2.754
 7337SOL     OW22909   0.804   3.232   0.895
 7337SOL    HW122910   0.768   3.280   0.975
 7337SOL    HW222911   0.883   3.282   0.859
 7338SOL     OW22912   4.869   1.826   1.910
 7338SOL    HW122913   4.911   1.913   1.884
 7338SOL    HW222914   4.938   1.754   1.905
 7339SOL     OW22915   6.240   0.340   4.397
 7339SOL    HW122916   6.247   0.329   4.298
 7339SOL    HW222917   6.159   0.393   4.420
 7340SOL     OW22918   2.922   1.142   0.578
 7340SOL    HW122919   2.944   1.046   0.596
 7340SOL    HW222920   2.864   1.178   0.652
 7341SOL     OW22921   0.636   4.377   5.729
 7341SOL    HW122922   0.629   4.282   5.758
 7341SOL    HW222923   0.639   4.436   5.809
 7342SOL     OW22924   6.950   1.158   6.626
 7342SOL    HW122925   6.952   1.099   6.545
 7342SOL    HW222926   6.875   1.224   6.617
 7343SOL     OW22927   6.111   4.107   1.614
 7343SOL    HW122928   6.041   4.074   1.551
 7343SOL    HW222929   6.144   4.196   1.583
 7344SOL     OW22930   0.872   1.166   5.834
 7344SOL    HW122931   0.916   1.225   5.902
 7344SOL    HW222932   0.887   1.070   5.859
 7345SOL     OW22933   4.611   5.136   5.296
 7345SOL    HW122934   4.550   5.215   5.284
 7345SOL    HW222935   4.672   5.154   5.373
 7346SOL     OW22936   4.415   5.273   1.826
 7346SOL    HW122937   4.336   5.314   1.872
 7346SOL    HW222938   4.386   5.191   1.777
 7347SOL     OW22939   6.741   2.346   0.401
 7347SOL    HW122940   6.706   2.374   0.312
 7347SOL    HW222941   6.802   2.416   0.437
 7348SOL     OW22942   1.763   3.977   4.609
 7348SOL    HW122943   1.675   4.008   4.644
 7348SOL    HW222944   1.821   4.057   4.591
 7349SOL     OW22945   4.933   1.214   1.436
 7349SOL    HW122946   4.997   1.254   1.370
 7349SOL    HW222947   4.847   1.265   1.433
 7350SOL     OW22948   2.020   2.859   5.603
 7350SOL    HW122949   2.052   2.931   5.541
 7350SOL    HW222950   2.049   2.879   5.696
 7351SOL     OW22951   5.518   6.411   5.106
 7351SOL    HW122952   5.529   6.358   5.190
 7351SOL    HW222953   5.571   6.369   5.033
 7352SOL     OW22954   2.396   1.633   3.300
 7352SOL    HW122955   2.463   1.654   3.229
 7352SOL    HW222956   2.385   1.712   3.361
 7353SOL     OW22957   1.132   0.657   6.714
 7353SOL    HW122958   1.103   0.605   6.634
 7353SOL    HW222959   1.209   0.716   6.690
 7354SOL     OW22960   0.439   2.056   5.342
 7354SOL    HW122961   0.481   2.146   5.331
 7354SOL    HW222962   0.340   2.065   5.348
 7355SOL     OW22963   1.551   0.692   0.615
 7355SOL    HW122964   1.555   0.632   0.695
 7355SOL    HW222965   1.631   0.751   0.614
 7356SOL     OW22966   3.813   4.096   5.919
 7356SOL    HW122967   3.742   4.135   5.978
 7356SOL    HW222968   3.783   4.006   5.887
 7357SOL     OW22969   3.925   6.750   1.315
 7357SOL    HW122970   3.994   6.810   1.356
 7357SOL    HW222971   3.846   6.805   1.287
 7358SOL     OW22972   5.930   3.608   2.981
 7358SOL    HW122973   5.888   3.606   3.071
 7358SOL    HW222974   6.002   3.539   2.976
 7359SOL     OW22975   3.180   1.588   6.337
 7359SOL    HW122976   3.100   1.585   6.277
 7359SOL    HW222977   3.171   1.665   6.401
 7360SOL     OW22978   2.751   3.696   5.608
 7360SOL    HW122979   2.820   3.769   5.605
 7360SOL    HW222980   2.787   3.614   5.565
 7361SOL     OW22981   4.389   6.967   2.258
 7361SOL    HW122982   4.422   7.014   2.177
 7361SOL    HW222983   4.458   6.903   2.291
 7362SOL     OW22984   1.721   4.290   5.155
 7362SOL    HW122985   1.671   4.337   5.083
 7362SOL    HW222986   1.779   4.355   5.204
 7363SOL     OW22987   4.553   1.882   1.576
 7363SOL    HW122988   4.545   1.792   1.533
 7363SOL    HW222989   4.537   1.874   1.674
 7364SOL     OW22990   4.535   0.609   1.392
 7364SOL    HW122991   4.612   0.551   1.417
 7364SOL    HW222992   4.511   0.593   1.296
 7365SOL     OW22993   0.946   5.729   1.597
 7365SOL    HW122994   0.996   5.724   1.511
 7365SOL    HW222995   0.923   5.637   1.628
 7366SOL     OW22996   2.689   6.021   6.733
 7366SOL    HW122997   2.782   5.993   6.754
 7366SOL    HW222998   2.639   6.040   6.817
 7367SOL     OW22999   4.779   2.733   1.026
 7367SOL    HW123000   4.770   2.646   0.978
 7367SOL    HW223001   4.800   2.716   1.123
 7368SOL     OW23002   3.697   2.971   2.766
 7368SOL    HW123003   3.599   2.960   2.783
 7368SOL    HW223004   3.748   2.956   2.851
 7369SOL     OW23005   3.571   2.540   0.189
 7369SOL    HW123006   3.538   2.459   0.238
 7369SOL    HW223007   3.530   2.542   0.098
 7370SOL     OW23008   2.554   0.802   4.434
 7370SOL    HW123009   2.634   0.862   4.437
 7370SOL    HW223010   2.495   0.830   4.358
 7371SOL     OW23011   2.569   6.814   3.607
 7371SOL    HW123012   2.608   6.768   3.528
 7371SOL    HW223013   2.469   6.817   3.597
 7372SOL     OW23014   4.378   1.073   4.490
 7372SOL    HW123015   4.382   0.975   4.471
 7372SOL    HW223016   4.413   1.124   4.411
 7373SOL     OW23017   6.298   1.260   3.520
 7373SOL    HW123018   6.333   1.257   3.613
 7373SOL    HW223019   6.337   1.338   3.471
 7374SOL     OW23020   2.159   1.912   5.078
 7374SOL    HW123021   2.100   1.831   5.070
 7374SOL    HW223022   2.103   1.994   5.089
 7375SOL     OW23023   2.094   1.978   2.762
 7375SOL    HW123024   2.067   2.066   2.801
 7375SOL    HW223025   2.193   1.978   2.747
 7376SOL     OW23026   2.569   1.969   0.706
 7376SOL    HW123027   2.470   1.962   0.707
 7376SOL    HW223028   2.608   1.887   0.664
 7377SOL     OW23029   5.395   4.391   0.647
 7377SOL    HW123030   5.360   4.299   0.667
 7377SOL    HW223031   5.368   4.454   0.719
 7378SOL     OW23032   0.789   0.755   6.286
 7378SOL    HW123033   0.843   0.798   6.358
 7378SOL    HW223034   0.759   0.665   6.317
 7379SOL     OW23035   2.889   1.708   3.100
 7379SOL    HW123036   2.795   1.673   3.104
 7379SOL    HW223037   2.935   1.672   3.019
 7380SOL     OW23038   6.977   4.435   4.140
 7380SOL    HW123039   6.963   4.347   4.185
 7380SOL    HW223040   6.934   4.433   4.049
 7381SOL     OW23041   3.811   3.795   1.218
 7381SOL    HW123042   3.716   3.823   1.225
 7381SOL    HW223043   3.817   3.708   1.170
 7382SOL     OW23044   0.792   6.695   5.655
 7382SOL    HW123045   0.721   6.735   5.598
 7382SOL    HW223046   0.800   6.597   5.637
 7383SOL     OW23047   1.607   0.163   0.602
 7383SOL    HW123048   1.553   0.159   0.687
 7383SOL    HW223049   1.576   0.091   0.540
 7384SOL     OW23050   6.302   6.603   2.577
 7384SOL    HW123051   6.362   6.670   2.621
 7384SOL    HW223052   6.210   6.640   2.569
 7385SOL     OW23053   3.711   6.315   2.080
 7385SOL    HW123054   3.701   6.395   2.021
 7385SOL    HW223055   3.781   6.254   2.043
 7386SOL     OW23056   0.121   2.372   6.799
 7386SOL    HW123057   0.039   2.321   6.772
 7386SOL    HW223058   0.143   2.439   6.728
 7387SOL     OW23059   5.965   6.694   5.092
 7387SOL    HW123060   5.911   6.619   5.131
 7387SOL    HW223061   5.918   6.730   5.011
 7388SOL     OW23062   1.366   5.576   2.420
 7388SOL    HW123063   1.434   5.648   2.438
 7388SOL    HW223064   1.362   5.514   2.498
 7389SOL     OW23065   6.096   3.733   6.661
 7389SOL    HW123066   6.041   3.813   6.637
 7389SOL    HW223067   6.189   3.761   6.684
 7390SOL     OW23068   1.088   1.817   1.107
 7390SOL    HW123069   1.042   1.905   1.096
 7390SOL    HW223070   1.020   1.746   1.127
 7391SOL     OW23071   4.159   3.487   3.873
 7391SOL    HW123072   4.143   3.533   3.786
 7391SOL    HW223073   4.240   3.429   3.867
 7392SOL     OW23074   2.876   6.772   6.512
 7392SOL    HW123075   2.889   6.747   6.416
 7392SOL    HW223076   2.844   6.866   6.518
 7393SOL     OW23077   5.747   4.417   2.933
 7393SOL    HW123078   5.801   4.500   2.945
 7393SOL    HW223079   5.807   4.340   2.911
 7394SOL     OW23080   2.463   2.369   5.659
 7394SOL    HW123081   2.493   2.430   5.585
 7394SOL    HW223082   2.424   2.424   5.733
 7395SOL     OW23083   1.153   3.197   1.404
 7395SOL    HW123084   1.252   3.196   1.413
 7395SOL    HW223085   1.120   3.291   1.399
 7396SOL     OW23086   1.584   6.634   1.471
 7396SOL    HW123087   1.679   6.647   1.444
 7396SOL    HW223088   1.524   6.658   1.395
 7397SOL     OW23089   4.159   5.180   5.082
 7397SOL    HW123090   4.092   5.201   5.153
 7397SOL    HW223091   4.139   5.235   5.001
 7398SOL     OW23092   2.339   4.714   4.522
 7398SOL    HW123093   2.348   4.777   4.599
 7398SOL    HW223094   2.343   4.765   4.436
 7399SOL     OW23095   0.815   3.124   4.702
 7399SOL    HW123096   0.886   3.096   4.637
 7399SOL    HW223097   0.826   3.073   4.788
 7400SOL     OW23098   4.297   2.380   6.196
 7400SOL    HW123099   4.271   2.382   6.293
 7400SOL    HW223100   4.250   2.304   6.151
 7401SOL     OW23101   1.321   2.131   4.382
 7401SOL    HW123102   1.366   2.181   4.307
 7401SOL    HW223103   1.372   2.048   4.401
 7402SOL     OW23104   2.924   5.594   6.328
 7402SOL    HW123105   2.947   5.603   6.231
 7402SOL    HW223106   2.859   5.665   6.353
 7403SOL     OW23107   1.763   3.610   2.553
 7403SOL    HW123108   1.690   3.574   2.495
 7403SOL    HW223109   1.834   3.650   2.496
 7404SOL     OW23110   2.699   5.338   2.034
 7404SOL    HW123111   2.681   5.325   1.937
 7404SOL    HW223112   2.624   5.298   2.088
 7405SOL     OW23113   3.705   5.035   5.027
 7405SOL    HW123114   3.630   5.095   4.998
 7405SOL    HW223115   3.673   4.973   5.099
 7406SOL     OW23116   0.177   2.684   3.756
 7406SOL    HW123117   0.214   2.756   3.697
 7406SOL    HW223118   0.106   2.634   3.706
 7407SOL     OW23119   0.908   0.098   5.136
 7407SOL    HW123120   0.889   0.186   5.179
 7407SOL    HW223121   1.004   0.094   5.110
 7408SOL     OW23122   2.943   4.100   0.110
 7408SOL    HW123123   3.028   4.137   0.072
 7408SOL    HW223124   2.961   4.064   0.201
 7409SOL     OW23125   5.115   2.896   0.399
 7409SOL    HW123126   5.086   2.897   0.303
 7409SOL    HW223127   5.205   2.853   0.406
 7410SOL     OW23128   0.579   6.715   0.216
 7410SOL    HW123129   0.657   6.734   0.275
 7410SOL    HW223130   0.522   6.797   0.208
 7411SOL     OW23131   2.084   6.995   6.164
 7411SOL    HW123132   2.028   0.052   6.145
 7411SOL    HW223133   2.053   6.952   6.249
 7412SOL     OW23134   5.397   0.308   2.065
 7412SOL    HW123135   5.492   0.322   2.036
 7412SOL    HW223136   5.359   0.229   2.018
 7413SOL     OW23137   4.996   5.474   4.027
 7413SOL    HW123138   4.933   5.505   4.098
 7413SOL    HW223139   4.972   5.382   3.998
 7414SOL     OW23140   0.750   1.108   3.756
 7414SOL    HW123141   0.679   1.177   3.768
 7414SOL    HW223142   0.787   1.114   3.664
 7415SOL     OW23143   1.150   4.821   3.937
 7415SOL    HW123144   1.103   4.908   3.953
 7415SOL    HW223145   1.171   4.812   3.840
 7416SOL     OW23146   1.881   0.893   2.381
 7416SOL    HW123147   1.889   0.882   2.480
 7416SOL    HW223148   1.797   0.942   2.360
 7417SOL     OW23149   1.798   2.065   0.809
 7417SOL    HW123150   1.708   2.029   0.788
 7417SOL    HW223151   1.827   2.032   0.900
 7418SOL     OW23152   2.393   5.735   0.699
 7418SOL    HW123153   2.440   5.723   0.612
 7418SOL    HW223154   2.455   5.715   0.775
 7419SOL     OW23155   6.560   2.869   4.291
 7419SOL    HW123156   6.657   2.889   4.305
 7419SOL    HW223157   6.506   2.944   4.328
 7420SOL     OW23158   0.654   6.684   1.459
 7420SOL    HW123159   0.727   6.671   1.392
 7420SOL    HW223160   0.622   6.778   1.456
 7421SOL     OW23161   3.872   4.435   1.206
 7421SOL    HW123162   3.789   4.427   1.151
 7421SOL    HW223163   3.922   4.518   1.178
 7422SOL     OW23164   0.550   4.406   2.204
 7422SOL    HW123165   0.483   4.443   2.139
 7422SOL    HW223166   0.522   4.313   2.230
 7423SOL     OW23167   6.237   2.366   5.364
 7423SOL    HW123168   6.166   2.348   5.432
 7423SOL    HW223169   6.314   2.304   5.381
 7424SOL     OW23170   0.052   0.070   5.476
 7424SOL    HW123171   0.054   0.168   5.457
 7424SOL    HW223172   0.041   0.020   5.390
 7425SOL     OW23173   4.206   6.569   0.173
 7425SOL    HW123174   4.135   6.575   0.243
 7425SOL    HW223175   4.167   6.589   0.083
 7426SOL     OW23176   3.013   2.109   5.739
 7426SOL    HW123177   3.022   2.208   5.735
 7426SOL    HW223178   2.917   2.084   5.734
 7427SOL     OW23179   4.736   0.875   3.662
 7427SOL    HW123180   4.770   0.957   3.616
 7427SOL    HW223181   4.808   0.806   3.666
 7428SOL     OW23182   5.021   1.918   5.345
 7428SOL    HW123183   4.927   1.886   5.331
 7428SOL    HW223184   5.032   2.009   5.304
 7429SOL     OW23185   0.190   6.589   4.362
 7429SOL    HW123186   0.261   6.618   4.299
 7429SOL    HW223187   0.224   6.512   4.417
 7430SOL     OW23188   1.245   3.756   0.586
 7430SOL    HW123189   1.177   3.828   0.588
 7430SOL    HW223190   1.202   3.671   0.554
 7431SOL     OW23191   1.613   2.731   3.123
 7431SOL    HW123192   1.670   2.794   3.175
 7431SOL    HW223193   1.517   2.745   3.149
 7432SOL     OW23194   0.782   1.001   2.940
 7432SOL    HW123195   0.876   0.968   2.928
 7432SOL    HW223196   0.735   0.998   2.853
 7433SOL     OW23197   4.282   5.386   6.020
 7433SOL    HW123198   4.240   5.436   5.944
 7433SOL    HW223199   4.362   5.436   6.053
 7434SOL     OW23200   4.618   5.424   5.119
 7434SOL    HW123201   4.579   5.343   5.075
 7434SOL    HW223202   4.660   5.483   5.050
 7435SOL     OW23203   3.628   5.343   1.496
 7435SOL    HW123204   3.689   5.371   1.422
 7435SOL    HW223205   3.534   5.337   1.462
 7436SOL     OW23206   4.265   4.014   5.987
 7436SOL    HW123207   4.283   4.009   6.086
 7436SOL    HW223208   4.196   3.946   5.963
 7437SOL     OW23209   1.999   5.718   6.825
 7437SOL    HW123210   1.935   5.766   6.884
 7437SOL    HW223211   1.987   5.620   6.835
 7438SOL     OW23212   1.174   5.917   0.200
 7438SOL    HW123213   1.185   5.955   0.292
 7438SOL    HW223214   1.239   5.842   0.188
 7439SOL     OW23215   2.240   6.696   5.486
 7439SOL    HW123216   2.279   6.784   5.458
 7439SOL    HW223217   2.140   6.705   5.493
 7440SOL     OW23218   7.011   3.083   4.461
 7440SOL    HW123219   7.013   3.176   4.496
 7440SOL    HW223220   0.069   3.033   4.493
 7441SOL     OW23221   4.788   6.735   4.603
 7441SOL    HW123222   4.880   6.748   4.567
 7441SOL    HW223223   4.791   6.739   4.703
 7442SOL     OW23224   6.727   1.283   6.106
 7442SOL    HW123225   6.815   1.293   6.059
 7442SOL    HW223226   6.660   1.241   6.044
 7443SOL     OW23227   6.549   6.290   1.491
 7443SOL    HW123228   6.490   6.364   1.457
 7443SOL    HW223229   6.517   6.262   1.581
 7444SOL     OW23230   5.953   2.373   5.805
 7444SOL    HW123231   5.887   2.323   5.751
 7444SOL    HW223232   5.906   2.429   5.873
 7445SOL     OW23233   3.780   0.577   1.243
 7445SOL    HW123234   3.833   0.634   1.305
 7445SOL    HW223235   3.832   0.560   1.159
 7446SOL     OW23236   5.789   2.857   0.535
 7446SOL    HW123237   5.822   2.876   0.443
 7446SOL    HW223238   5.726   2.780   0.534
 7447SOL     OW23239   6.169   3.192   0.024
 7447SOL    HW123240   6.141   3.102   0.056
 7447SOL    HW223241   6.129   3.262   0.083
 7448SOL     OW23242   6.856   6.676   5.423
 7448SOL    HW123243   6.892   6.610   5.488
 7448SOL    HW223244   6.872   6.769   5.458
 7449SOL     OW23245   0.934   4.474   1.976
 7449SOL    HW123246   0.895   4.401   1.920
 7449SOL    HW223247   0.875   4.493   2.054
 7450SOL     OW23248   5.579   2.605   5.459
 7450SOL    HW123249   5.490   2.647   5.475
 7450SOL    HW223250   5.621   2.583   5.547
 7451SOL     OW23251   6.506   6.072   3.058
 7451SOL    HW123252   6.560   6.149   3.093
 7451SOL    HW223253   6.479   6.091   2.964
 7452SOL     OW23254   6.002   6.628   4.133
 7452SOL    HW123255   5.937   6.557   4.105
 7452SOL    HW223256   6.064   6.591   4.202
 7453SOL     OW23257   5.264   5.689   5.380
 7453SOL    HW123258   5.353   5.714   5.418
 7453SOL    HW223259   5.255   5.589   5.383
 7454SOL     OW23260   1.132   2.162   1.750
 7454SOL    HW123261   1.046   2.181   1.702
 7454SOL    HW223262   1.179   2.086   1.706
 7455SOL     OW23263   6.636   2.794   1.658
 7455SOL    HW123264   6.624   2.757   1.750
 7455SOL    HW223265   6.716   2.855   1.657
 7456SOL     OW23266   1.576   1.099   4.592
 7456SOL    HW123267   1.486   1.089   4.635
 7456SOL    HW223268   1.647   1.070   4.656
 7457SOL     OW23269   3.529   0.936   5.092
 7457SOL    HW123270   3.475   0.863   5.133
 7457SOL    HW223271   3.490   0.962   5.004
 7458SOL     OW23272   1.941   6.694   5.675
 7458SOL    HW123273   1.961   6.684   5.773
 7458SOL    HW223274   1.844   6.676   5.659
 7459SOL     OW23275   5.345   0.102   1.902
 7459SOL    HW123276   5.341   0.157   1.819
 7459SOL    HW223277   5.380   0.011   1.881
 7460SOL     OW23278   0.882   5.390   0.352
 7460SOL    HW123279   0.851   5.315   0.410
 7460SOL    HW223280   0.958   5.358   0.295
 7461SOL     OW23281   6.359   0.270   6.685
 7461SOL    HW123282   6.324   0.327   6.611
 7461SOL    HW223283   6.316   0.180   6.681
 7462SOL     OW23284   1.721   4.196   2.445
 7462SOL    HW123285   1.755   4.270   2.386
 7462SOL    HW223286   1.784   4.119   2.442
 7463SOL     OW23287   3.233   4.959   0.705
 7463SOL    HW123288   3.158   4.941   0.768
 7463SOL    HW223289   3.196   4.972   0.613
 7464SOL     OW23290   5.593   6.422   6.158
 7464SOL    HW123291   5.666   6.356   6.169
 7464SOL    HW223292   5.568   6.460   6.247
 7465SOL     OW23293   2.601   5.443   6.716
 7465SOL    HW123294   2.628   5.537   6.697
 7465SOL    HW223295   2.575   5.397   6.631
 7466SOL     OW23296   0.362   0.408   4.560
 7466SOL    HW123297   0.328   0.395   4.467
 7466SOL    HW223298   0.358   0.321   4.609
 7467SOL     OW23299   0.417   1.873   0.704
 7467SOL    HW123300   0.396   1.948   0.640
 7467SOL    HW223301   0.346   1.803   0.697
 7468SOL     OW23302   5.555   2.366   3.633
 7468SOL    HW123303   5.586   2.334   3.723
 7468SOL    HW223304   5.468   2.414   3.644
 7469SOL     OW23305   6.483   0.281   0.041
 7469SOL    HW123306   6.510   0.205   0.100
 7469SOL    HW223307   6.513   0.263   6.970
 7470SOL     OW23308   6.151   4.006   3.197
 7470SOL    HW123309   6.164   4.085   3.257
 7470SOL    HW223310   6.226   3.941   3.211
 7471SOL     OW23311   5.738   6.783   5.824
 7471SOL    HW123312   5.744   6.798   5.922
 7471SOL    HW223313   5.738   6.685   5.805
 7472SOL     OW23314   6.480   0.559   5.799
 7472SOL    HW123315   6.454   0.606   5.883
 7472SOL    HW223316   6.525   0.623   5.737
 7473SOL     OW23317   5.962   5.663   4.127
 7473SOL    HW123318   6.043   5.608   4.148
 7473SOL    HW223319   5.883   5.602   4.117
 7474SOL     OW23320   0.567   1.727   6.067
 7474SOL    HW123321   0.639   1.734   5.999
 7474SOL    HW223322   0.501   1.657   6.040
 7475SOL     OW23323   4.757   2.748   2.311
 7475SOL    HW123324   4.694   2.670   2.313
 7475SOL    HW223325   4.772   2.776   2.217
 7476SOL     OW23326   3.391   0.949   3.840
 7476SOL    HW123327   3.460   0.947   3.912
 7476SOL    HW223328   3.425   0.900   3.760
 7477SOL     OW23329   0.291   1.662   5.717
 7477SOL    HW123330   0.224   1.589   5.711
 7477SOL    HW223331   0.376   1.627   5.756
 7478SOL     OW23332   5.977   3.793   5.130
 7478SOL    HW123333   5.939   3.745   5.051
 7478SOL    HW223334   5.920   3.871   5.153
 7479SOL     OW23335   4.393   2.240   2.262
 7479SOL    HW123336   4.451   2.175   2.212
 7479SOL    HW223337   4.366   2.314   2.200
 7480SOL     OW23338   1.380   4.619   2.536
 7480SOL    HW123339   1.462   4.574   2.500
 7480SOL    HW223340   1.300   4.587   2.487
 7481SOL     OW23341   5.472   5.701   0.698
 7481SOL    HW123342   5.553   5.749   0.666
 7481SOL    HW223343   5.463   5.614   0.648
 7482SOL     OW23344   4.554   2.596   2.922
 7482SOL    HW123345   4.580   2.647   2.840
 7482SOL    HW223346   4.622   2.611   2.994
 7483SOL     OW23347   4.941   3.702   4.519
 7483SOL    HW123348   4.925   3.645   4.600
 7483SOL    HW223349   4.907   3.794   4.536
 7484SOL     OW23350   1.336   6.875   4.494
 7484SOL    HW123351   1.424   6.881   4.542
 7484SOL    HW223352   1.289   6.791   4.521
 7485SOL     OW23353   3.777   0.345   4.437
 7485SOL    HW123354   3.690   0.352   4.485
 7485SOL    HW223355   3.814   0.437   4.419
 7486SOL     OW23356   1.552   5.843   0.562
 7486SOL    HW123357   1.591   5.818   0.650
 7486SOL    HW223358   1.567   5.941   0.546
 7487SOL     OW23359   2.250   0.181   3.094
 7487SOL    HW123360   2.312   0.103   3.087
 7487SOL    HW223361   2.290   0.251   3.153
 7488SOL     OW23362   2.602   6.084   4.178
 7488SOL    HW123363   2.647   6.173   4.180
 7488SOL    HW223364   2.568   6.062   4.269
 7489SOL     OW23365   6.110   2.688   5.957
 7489SOL    HW123366   6.017   2.651   5.958
 7489SOL    HW223367   6.175   2.616   5.934
 7490SOL     OW23368   1.260   6.978   3.186
 7490SOL    HW123369   1.307   0.005   3.259
 7490SOL    HW223370   1.172   6.945   3.221
 7491SOL     OW23371   4.556   2.903   6.738
 7491SOL    HW123372   4.548   2.893   6.639
 7491SOL    HW223373   4.555   3.000   6.762
 7492SOL     OW23374   1.603   0.347   3.137
 7492SOL    HW123375   1.621   0.250   3.149
 7492SOL    HW223376   1.684   0.391   3.099
 7493SOL     OW23377   0.556   3.339   6.228
 7493SOL    HW123378   0.562   3.426   6.276
 7493SOL    HW223379   0.634   3.281   6.253
 7494SOL     OW23380   5.154   1.317   2.772
 7494SOL    HW123381   5.108   1.403   2.795
 7494SOL    HW223382   5.251   1.325   2.795
 7495SOL     OW23383   1.470   2.249   6.958
 7495SOL    HW123384   1.514   2.319   6.901
 7495SOL    HW223385   1.371   2.257   6.950
 7496SOL     OW23386   6.455   2.971   4.066
 7496SOL    HW123387   6.357   2.958   4.046
 7496SOL    HW223388   6.480   2.917   4.146
 7497SOL     OW23389   2.907   4.725   0.595
 7497SOL    HW123390   2.810   4.737   0.611
 7497SOL    HW223391   2.921   4.657   0.522
 7498SOL     OW23392   3.408   0.740   5.213
 7498SOL    HW123393   3.368   0.726   5.304
 7498SOL    HW223394   3.344   0.710   5.143
 7499SOL     OW23395   4.407   1.337   3.293
 7499SOL    HW123396   4.319   1.291   3.284
 7499SOL    HW223397   4.407   1.420   3.237
 7500SOL     OW23398   3.358   5.819   3.214
 7500SOL    HW123399   3.411   5.901   3.195
 7500SOL    HW223400   3.369   5.754   3.138
 7501SOL     OW23401   5.326   3.843   4.944
 7501SOL    HW123402   5.313   3.933   4.902
 7501SOL    HW223403   5.240   3.792   4.940
 7502SOL     OW23404   3.202   0.944   4.573
 7502SOL    HW123405   3.252   0.902   4.497
 7502SOL    HW223406   3.154   1.025   4.540
 7503SOL     OW23407   1.802   6.903   1.320
 7503SOL    HW123408   1.844   6.889   1.230
 7503SOL    HW223409   1.864   6.956   1.378
 7504SOL     OW23410   0.949   6.245   3.408
 7504SOL    HW123411   0.856   6.279   3.399
 7504SOL    HW223412   1.006   6.283   3.335
 7505SOL     OW23413   1.710   2.754   5.813
 7505SOL    HW123414   1.658   2.787   5.892
 7505SOL    HW223415   1.650   2.698   5.755
 7506SOL     OW23416   5.609   1.529   3.150
 7506SOL    HW123417   5.661   1.443   3.156
 7506SOL    HW223418   5.648   1.586   3.078
 7507SOL     OW23419   0.113   1.796   2.571
 7507SOL    HW123420   0.163   1.744   2.641
 7507SOL    HW223421   0.134   1.760   2.481
 7508SOL     OW23422   1.392   6.416   1.467
 7508SOL    HW123423   1.304   6.436   1.509
 7508SOL    HW223424   1.457   6.488   1.490
 7509SOL     OW23425   5.868   3.410   0.410
 7509SOL    HW123426   5.885   3.508   0.405
 7509SOL    HW223427   5.866   3.380   0.505
 7510SOL     OW23428   3.373   3.363   4.982
 7510SOL    HW123429   3.304   3.306   4.938
 7510SOL    HW223430   3.336   3.454   5.000
 7511SOL     OW23431   2.962   5.996   3.781
 7511SOL    HW123432   2.998   5.934   3.712
 7511SOL    HW223433   2.883   5.954   3.826
 7512SOL     OW23434   2.749   0.011   6.508
 7512SOL    HW123435   2.743   0.007   6.607
 7512SOL    HW223436   2.661   7.010   6.467
 7513SOL     OW23437   1.587   1.006   1.793
 7513SOL    HW123438   1.614   1.042   1.882
 7513SOL    HW223439   1.587   1.080   1.726
 7514SOL     OW23440   2.743   5.235   2.694
 7514SOL    HW123441   2.781   5.253   2.603
 7514SOL    HW223442   2.770   5.308   2.757
 7515SOL     OW23443   6.683   5.752   4.430
 7515SOL    HW123444   6.711   5.774   4.337
 7515SOL    HW223445   6.762   5.719   4.482
 7516SOL     OW23446   6.486   5.645   5.836
 7516SOL    HW123447   6.454   5.606   5.923
 7516SOL    HW223448   6.408   5.684   5.787
 7517SOL     OW23449   7.013   1.920   0.457
 7517SOL    HW123450   6.927   1.914   0.507
 7517SOL    HW223451   7.008   1.993   0.389
 7518SOL     OW23452   4.731   4.196   4.445
 7518SOL    HW123453   4.737   4.215   4.543
 7518SOL    HW223454   4.646   4.233   4.409
 7519SOL     OW23455   0.741   6.331   3.999
 7519SOL    HW123456   0.799   6.356   3.922
 7519SOL    HW223457   0.679   6.257   3.971
 7520SOL     OW23458   2.273   0.004   2.636
 7520SOL    HW123459   2.319   0.015   2.548
 7520SOL    HW223460   2.341   0.010   2.710
 7521SOL     OW23461   4.847   2.595   5.457
 7521SOL    HW123462   4.751   2.603   5.432
 7521SOL    HW223463   4.899   2.668   5.412
 7522SOL     OW23464   1.387   1.228   6.053
 7522SOL    HW123465   1.331   1.271   5.981
 7522SOL    HW223466   1.446   1.297   6.095
 7523SOL     OW23467   5.514   0.360   6.481
 7523SOL    HW123468   5.548   0.451   6.506
 7523SOL    HW223469   5.424   0.370   6.437
 7524SOL     OW23470   0.870   2.775   4.964
 7524SOL    HW123471   0.946   2.716   4.936
 7524SOL    HW223472   0.787   2.721   4.971
 7525SOL     OW23473   3.677   0.793   6.392
 7525SOL    HW123474   3.603   0.740   6.434
 7525SOL    HW223475   3.673   0.784   6.293
 7526SOL     OW23476   3.180   3.469   1.154
 7526SOL    HW123477   3.126   3.448   1.235
 7526SOL    HW223478   3.273   3.495   1.181
 7527SOL     OW23479   3.032   5.768   3.584
 7527SOL    HW123480   2.967   5.719   3.525
 7527SOL    HW223481   3.040   5.721   3.672
 7528SOL     OW23482   5.951   2.279   0.356
 7528SOL    HW123483   5.992   2.370   0.358
 7528SOL    HW223484   5.856   2.284   0.387
 7529SOL     OW23485   5.847   1.797   4.415
 7529SOL    HW123486   5.939   1.816   4.450
 7529SOL    HW223487   5.831   1.698   4.416
 7530SOL     OW23488   0.122   2.939   2.380
 7530SOL    HW123489   0.137   3.031   2.345
 7530SOL    HW223490   0.027   2.929   2.408
 7531SOL     OW23491   5.902   2.831   4.782
 7531SOL    HW123492   5.829   2.900   4.777
 7531SOL    HW223493   5.958   2.835   4.700
 7532SOL     OW23494   4.154   6.055   0.142
 7532SOL    HW123495   4.177   5.997   0.064
 7532SOL    HW223496   4.217   6.133   0.145
 7533SOL     OW23497   3.542   1.430   1.628
 7533SOL    HW123498   3.583   1.483   1.553
 7533SOL    HW223499   3.607   1.424   1.704
 7534SOL     OW23500   4.347   6.324   5.305
 7534SOL    HW123501   4.380   6.352   5.215
 7534SOL    HW223502   4.273   6.385   5.333
 7535SOL     OW23503   2.197   0.401   4.947
 7535SOL    HW123504   2.132   0.455   4.892
 7535SOL    HW223505   2.146   0.350   5.017
 7536SOL     OW23506   5.367   4.228   4.685
 7536SOL    HW123507   5.346   4.130   4.687
 7536SOL    HW223508   5.281   4.279   4.679
 7537SOL     OW23509   2.189   5.457   2.024
 7537SOL    HW123510   2.101   5.448   2.071
 7537SOL    HW223511   2.207   5.554   2.007
 7538SOL     OW23512   2.219   2.428   1.258
 7538SOL    HW123513   2.216   2.361   1.331
 7538SOL    HW223514   2.246   2.517   1.295
 7539SOL     OW23515   1.780   3.356   4.002
 7539SOL    HW123516   1.861   3.301   4.021
 7539SOL    HW223517   1.718   3.304   3.943
 7540SOL     OW23518   4.140   1.193   4.873
 7540SOL    HW123519   4.134   1.097   4.843
 7540SOL    HW223520   4.170   1.197   4.968
 7541SOL     OW23521   0.304   4.343   4.885
 7541SOL    HW123522   0.380   4.279   4.875
 7541SOL    HW223523   0.340   4.433   4.910
 7542SOL     OW23524   0.903   5.417   6.961
 7542SOL    HW123525   0.909   5.351   6.886
 7542SOL    HW223526   0.990   5.418   7.011
 7543SOL     OW23527   3.930   1.280   5.501
 7543SOL    HW123528   4.017   1.267   5.549
 7543SOL    HW223529   3.896   1.372   5.518
 7544SOL     OW23530   6.201   2.415   3.321
 7544SOL    HW123531   6.282   2.450   3.368
 7544SOL    HW223532   6.119   2.438   3.373
 7545SOL     OW23533   0.543   6.030   6.869
 7545SOL    HW123534   0.585   5.967   6.803
 7545SOL    HW223535   0.492   6.100   6.819
 7546SOL     OW23536   4.170   1.805   1.213
 7546SOL    HW123537   4.246   1.797   1.277
 7546SOL    HW223538   4.094   1.746   1.243
 7547SOL     OW23539   5.094   1.333   0.485
 7547SOL    HW123540   5.105   1.422   0.440
 7547SOL    HW223541   5.126   1.339   0.580
 7548SOL     OW23542   4.119   1.955   0.291
 7548SOL    HW123543   4.083   2.041   0.257
 7548SOL    HW223544   4.208   1.970   0.335
 7549SOL     OW23545   2.930   2.361   0.048
 7549SOL    HW123546   2.860   2.407   7.017
 7549SOL    HW223547   3.004   2.330   7.010
 7550SOL     OW23548   2.204   4.554   3.996
 7550SOL    HW123549   2.122   4.532   3.944
 7550SOL    HW223550   2.246   4.469   4.028
 7551SOL     OW23551   5.588   2.961   5.307
 7551SOL    HW123552   5.663   2.896   5.293
 7551SOL    HW223553   5.530   2.962   5.225
 7552SOL     OW23554   1.534   6.280   3.234
 7552SOL    HW123555   1.490   6.353   3.286
 7552SOL    HW223556   1.516   6.192   3.277
 7553SOL     OW23557   3.807   6.650   5.314
 7553SOL    HW123558   3.774   6.557   5.332
 7553SOL    HW223559   3.848   6.688   5.396
 7554SOL     OW23560   5.335   0.751   6.645
 7554SOL    HW123561   5.279   0.702   6.712
 7554SOL    HW223562   5.285   0.761   6.559
 7555SOL     OW23563   2.843   5.020   6.604
 7555SOL    HW123564   2.800   5.103   6.569
 7555SOL    HW223565   2.942   5.026   6.592
 7556SOL     OW23566   2.638   2.678   0.600
 7556SOL    HW123567   2.641   2.578   0.602
 7556SOL    HW223568   2.591   2.708   0.517
 7557SOL     OW23569   5.812   0.011   6.191
 7557SOL    HW123570   5.786   0.086   6.130
 7557SOL    HW223571   5.906   7.006   6.170
 7558SOL     OW23572   1.841   2.532   4.936
 7558SOL    HW123573   1.794   2.538   5.024
 7558SOL    HW223574   1.870   2.623   4.906
 7559SOL     OW23575   4.437   3.791   0.224
 7559SOL    HW123576   4.477   3.880   0.244
 7559SOL    HW223577   4.419   3.743   0.310
 7560SOL     OW23578   4.669   6.578   0.937
 7560SOL    HW123579   4.714   6.666   0.949
 7560SOL    HW223580   4.686   6.521   1.018
 7561SOL     OW23581   0.879   3.210   6.367
 7561SOL    HW123582   0.820   3.240   6.442
 7561SOL    HW223583   0.877   3.110   6.362
 7562SOL     OW23584   0.768   5.807   5.499
 7562SOL    HW123585   0.712   5.745   5.444
 7562SOL    HW223586   0.860   5.813   5.460
 7563SOL     OW23587   3.119   6.819   1.391
 7563SOL    HW123588   3.168   6.762   1.456
 7563SOL    HW223589   3.047   6.869   1.439
 7564SOL     OW23590   4.123   0.372   3.980
 7564SOL    HW123591   4.178   0.339   4.057
 7564SOL    HW223592   4.038   0.320   3.975
 7565SOL     OW23593   5.745   3.186   6.543
 7565SOL    HW123594   5.843   3.199   6.529
 7565SOL    HW223595   5.698   3.274   6.541
 7566SOL     OW23596   6.200   5.019   2.674
 7566SOL    HW123597   6.287   4.996   2.631
 7566SOL    HW223598   6.162   5.102   2.631
 7567SOL     OW23599   1.755   1.326   5.426
 7567SOL    HW123600   1.729   1.357   5.335
 7567SOL    HW223601   1.852   1.343   5.441
 7568SOL     OW23602   5.479   4.976   2.768
 7568SOL    HW123603   5.520   5.005   2.854
 7568SOL    HW223604   5.550   4.941   2.707
 7569SOL     OW23605   3.428   4.442   5.897
 7569SOL    HW123606   3.457   4.455   5.992
 7569SOL    HW223607   3.436   4.528   5.847
 7570SOL     OW23608   5.339   4.150   4.961
 7570SOL    HW123609   5.395   4.192   5.032
 7570SOL    HW223610   5.364   4.190   4.872
 7571SOL     OW23611   4.611   4.513   3.282
 7571SOL    HW123612   4.618   4.427   3.231
 7571SOL    HW223613   4.658   4.585   3.232
 7572SOL     OW23614   4.500   0.869   1.841
 7572SOL    HW123615   4.482   0.819   1.756
 7572SOL    HW223616   4.523   0.804   1.913
 7573SOL     OW23617   0.361   6.752   5.091
 7573SOL    HW123618   0.347   6.783   4.997
 7573SOL    HW223619   0.369   6.831   5.151
 7574SOL     OW23620   4.875   0.727   5.588
 7574SOL    HW123621   4.787   0.768   5.565
 7574SOL    HW223622   4.925   0.787   5.650
 7575SOL     OW23623   5.648   0.265   6.766
 7575SOL    HW123624   5.670   0.204   6.689
 7575SOL    HW223625   5.564   0.233   6.811
 7576SOL     OW23626   5.055   3.361   0.327
 7576SOL    HW123627   5.119   3.376   0.402
 7576SOL    HW223628   4.996   3.283   0.349
 7577SOL     OW23629   0.611   6.664   6.645
 7577SOL    HW123630   0.684   6.603   6.677
 7577SOL    HW223631   0.602   6.741   6.707
 7578SOL     OW23632   3.310   5.377   2.177
 7578SOL    HW123633   3.369   5.351   2.253
 7578SOL    HW223634   3.345   5.461   2.135
 7579SOL     OW23635   0.089   0.746   1.961
 7579SOL    HW123636   0.005   0.780   2.004
 7579SOL    HW223637   0.162   0.744   2.029
 7580SOL     OW23638   0.645   4.394   4.188
 7580SOL    HW123639   0.649   4.473   4.251
 7580SOL    HW223640   0.650   4.310   4.241
 7581SOL     OW23641   0.178   1.983   1.689
 7581SOL    HW123642   0.105   1.927   1.730
 7581SOL    HW223643   0.266   1.955   1.727
 7582SOL     OW23644   3.695   1.082   2.827
 7582SOL    HW123645   3.685   1.141   2.907
 7582SOL    HW223646   3.789   1.047   2.823
 7583SOL     OW23647   5.217   2.908   2.060
 7583SOL    HW123648   5.268   2.874   1.981
 7583SOL    HW223649   5.155   2.836   2.092
 7584SOL     OW23650   3.303   0.716   3.163
 7584SOL    HW123651   3.336   0.733   3.256
 7584SOL    HW223652   3.217   0.766   3.149
 7585SOL     OW23653   1.761   2.733   6.494
 7585SOL    HW123654   1.724   2.642   6.471
 7585SOL    HW223655   1.836   2.723   6.558
 7586SOL     OW23656   2.414   0.086   4.021
 7586SOL    HW123657   2.494   0.026   4.016
 7586SOL    HW223658   2.381   0.089   4.115
 7587SOL     OW23659   2.067   1.936   6.845
 7587SOL    HW123660   2.090   1.917   6.749
 7587SOL    HW223661   2.149   1.926   6.901
 7588SOL     OW23662   1.663   2.598   3.841
 7588SOL    HW123663   1.754   2.638   3.832
 7588SOL    HW223664   1.655   2.555   3.931
 7589SOL     OW23665   0.115   0.334   2.204
 7589SOL    HW123666   0.203   0.381   2.213
 7589SOL    HW223667   0.120   0.245   2.250
 7590SOL     OW23668   4.314   2.103   6.384
 7590SOL    HW123669   4.250   2.091   6.309
 7590SOL    HW223670   4.299   2.192   6.427
 7591SOL     OW23671   5.718   4.436   0.868
 7591SOL    HW123672   5.796   4.452   0.807
 7591SOL    HW223673   5.715   4.507   0.937
 7592SOL     OW23674   6.283   5.881   4.847
 7592SOL    HW123675   6.283   5.937   4.929
 7592SOL    HW223676   6.287   5.784   4.872
 7593SOL     OW23677   6.479   2.986   0.418
 7593SOL    HW123678   6.514   3.066   0.467
 7593SOL    HW223679   6.470   2.909   0.482
 7594SOL     OW23680   1.801   4.394   2.275
 7594SOL    HW123681   1.860   4.324   2.234
 7594SOL    HW223682   1.857   4.471   2.304
 7595SOL     OW23683   6.130   2.965   5.918
 7595SOL    HW123684   6.045   3.002   5.881
 7595SOL    HW223685   6.124   2.865   5.921
 7596SOL     OW23686   3.664   6.368   4.065
 7596SOL    HW123687   3.566   6.346   4.059
 7596SOL    HW223688   3.703   6.325   4.146
 7597SOL     OW23689   1.506   6.632   3.051
 7597SOL    HW123690   1.437   6.669   3.113
 7597SOL    HW223691   1.462   6.599   2.968
 7598SOL     OW23692   6.713   0.794   3.105
 7598SOL    HW123693   6.759   0.882   3.121
 7598SOL    HW223694   6.776   0.731   3.060
 7599SOL     OW23695   5.502   2.385   2.391
 7599SOL    HW123696   5.425   2.408   2.332
 7599SOL    HW223697   5.472   2.383   2.487
 7600SOL     OW23698   1.152   1.694   3.465
 7600SOL    HW123699   1.134   1.734   3.375
 7600SOL    HW223700   1.250   1.678   3.475
 7601SOL     OW23701   2.658   5.045   2.373
 7601SOL    HW123702   2.619   5.137   2.379
 7601SOL    HW223703   2.751   5.051   2.337
 7602SOL     OW23704   1.658   4.082   6.951
 7602SOL    HW123705   1.731   4.018   6.925
 7602SOL    HW223706   1.653   4.089   0.028
 7603SOL     OW23707   1.908   5.529   6.284
 7603SOL    HW123708   1.950   5.516   6.374
 7603SOL    HW223709   1.838   5.459   6.270
 7604SOL     OW23710   1.936   3.124   4.066
 7604SOL    HW123711   1.902   3.030   4.069
 7604SOL    HW223712   2.032   3.123   4.040
 7605SOL     OW23713   1.127   0.840   1.088
 7605SOL    HW123714   1.035   0.876   1.069
 7605SOL    HW223715   1.194   0.913   1.076
 7606SOL     OW23716   6.091   3.181   4.715
 7606SOL    HW123717   6.063   3.259   4.771
 7606SOL    HW223718   6.022   3.164   4.645
 7607SOL     OW23719   3.444   4.813   0.430
 7607SOL    HW123720   3.451   4.910   0.454
 7607SOL    HW223721   3.356   4.795   0.388
 7608SOL     OW23722   4.049   3.925   1.194
 7608SOL    HW123723   3.972   3.866   1.219
 7608SOL    HW223724   4.131   3.896   1.243
 7609SOL     OW23725   1.811   3.335   4.527
 7609SOL    HW123726   1.879   3.322   4.455
 7609SOL    HW223727   1.808   3.253   4.585
 7610SOL     OW23728   4.300   4.229   6.505
 7610SOL    HW123729   4.384   4.252   6.456
 7610SOL    HW223730   4.238   4.308   6.504
 7611SOL     OW23731   5.249   3.928   1.776
 7611SOL    HW123732   5.161   3.887   1.754
 7611SOL    HW223733   5.255   4.019   1.736
 7612SOL     OW23734   5.073   3.345   2.377
 7612SOL    HW123735   5.159   3.389   2.350
 7612SOL    HW223736   5.052   3.270   2.314
 7613SOL     OW23737   0.759   2.177   1.154
 7613SOL    HW123738   0.725   2.136   1.069
 7613SOL    HW223739   0.687   2.178   1.222
 7614SOL     OW23740   5.367   3.073   0.781
 7614SOL    HW123741   5.390   2.976   0.786
 7614SOL    HW223742   5.305   3.097   0.856
 7615SOL     OW23743   4.158   4.474   6.766
 7615SOL    HW123744   4.192   4.386   6.799
 7615SOL    HW223745   4.198   4.493   6.677
 7616SOL     OW23746   6.440   6.394   4.807
 7616SOL    HW123747   6.516   6.338   4.840
 7616SOL    HW223748   6.377   6.412   4.883
 7617SOL     OW23749   3.487   6.405   3.589
 7617SOL    HW123750   3.430   6.342   3.536
 7617SOL    HW223751   3.428   6.470   3.637
 7618SOL     OW23752   0.193   2.341   6.095
 7618SOL    HW123753   0.211   2.244   6.110
 7618SOL    HW223754   0.095   2.356   6.085
 7619SOL     OW23755   6.627   3.183   4.689
 7619SOL    HW123756   6.638   3.097   4.640
 7619SOL    HW223757   6.536   3.220   4.673
 7620SOL     OW23758   3.960   5.612   1.660
 7620SOL    HW123759   4.029   5.629   1.731
 7620SOL    HW223760   3.869   5.627   1.698
 7621SOL     OW23761   7.003   1.034   0.495
 7621SOL    HW123762   6.972   1.109   0.555
 7621SOL    HW223763   0.040   0.973   0.547
 7622SOL     OW23764   4.182   4.925   6.514
 7622SOL    HW123765   4.236   4.847   6.483
 7622SOL    HW223766   4.186   4.998   6.445
 7623SOL     OW23767   4.890   3.976   6.905
 7623SOL    HW123768   4.833   3.921   6.967
 7623SOL    HW223769   4.838   4.055   6.874
 7624SOL     OW23770   6.549   3.837   4.857
 7624SOL    HW123771   6.497   3.886   4.928
 7624SOL    HW223772   6.517   3.867   4.767
 7625SOL     OW23773   5.146   0.704   6.901
 7625SOL    HW123774   5.158   0.791   6.947
 7625SOL    HW223775   5.048   0.682   6.895
 7626SOL     OW23776   6.568   0.238   5.222
 7626SOL    HW123777   6.546   0.208   5.129
 7626SOL    HW223778   6.566   0.159   5.284
 7627SOL     OW23779   4.185   3.330   0.607
 7627SOL    HW123780   4.178   3.272   0.688
 7627SOL    HW223781   4.189   3.273   0.525
 7628SOL     OW23782   3.321   2.794   1.899
 7628SOL    HW123783   3.304   2.860   1.825
 7628SOL    HW223784   3.295   2.834   1.986
 7629SOL     OW23785   6.934   4.811   3.776
 7629SOL    HW123786   7.013   4.775   3.826
 7629SOL    HW223787   6.951   4.907   3.751
 7630SOL     OW23788   0.640   0.396   0.701
 7630SOL    HW123789   0.728   0.398   0.747
 7630SOL    HW223790   0.638   0.321   0.634
 7631SOL     OW23791   1.002   2.091   5.944
 7631SOL    HW123792   0.975   2.040   5.862
 7631SOL    HW223793   1.005   2.188   5.923
 7632SOL     OW23794   5.035   4.080   0.682
 7632SOL    HW123795   5.091   4.149   0.729
 7632SOL    HW223796   5.000   4.118   0.596
 7633SOL     OW23797   5.560   0.398   1.867
 7633SOL    HW123798   5.599   0.427   1.780
 7633SOL    HW223799   5.460   0.389   1.858
 7634SOL     OW23800   2.144   1.285   2.206
 7634SOL    HW123801   2.192   1.356   2.257
 7634SOL    HW223802   2.140   1.202   2.260
 7635SOL     OW23803   3.320   4.837   4.989
 7635SOL    HW123804   3.366   4.885   4.914
 7635SOL    HW223805   3.224   4.863   4.991
 7636SOL     OW23806   1.702   3.064   4.271
 7636SOL    HW123807   1.764   3.142   4.266
 7636SOL    HW223808   1.612   3.095   4.301
 7637SOL     OW23809   2.705   6.105   2.381
 7637SOL    HW123810   2.667   6.024   2.337
 7637SOL    HW223811   2.703   6.182   2.318
 7638SOL     OW23812   2.164   5.517   1.618
 7638SOL    HW123813   2.223   5.451   1.571
 7638SOL    HW223814   2.128   5.583   1.552
 7639SOL     OW23815   0.506   1.059   0.822
 7639SOL    HW123816   0.432   1.081   0.758
 7639SOL    HW223817   0.470   1.058   0.915
 7640SOL     OW23818   2.743   1.268   5.723
 7640SOL    HW123819   2.814   1.319   5.675
 7640SOL    HW223820   2.760   1.170   5.713
 7641SOL     OW23821   1.259   3.409   2.736
 7641SOL    HW123822   1.267   3.436   2.640
 7641SOL    HW223823   1.169   3.435   2.770
 7642SOL     OW23824   3.451   1.721   2.755
 7642SOL    HW123825   3.380   1.775   2.800
 7642SOL    HW223826   3.421   1.696   2.663
 7643SOL     OW23827   5.112   2.238   2.955
 7643SOL    HW123828   5.017   2.268   2.961
 7643SOL    HW223829   5.140   2.197   3.042
 7644SOL     OW23830   4.534   2.442   2.067
 7644SOL    HW123831   4.566   2.483   2.152
 7644SOL    HW223832   4.596   2.468   1.992
 7645SOL     OW23833   5.383   3.940   5.677
 7645SOL    HW123834   5.285   3.921   5.684
 7645SOL    HW223835   5.396   4.033   5.641
 7646SOL     OW23836   1.520   2.756   4.282
 7646SOL    HW123837   1.428   2.794   4.283
 7646SOL    HW223838   1.565   2.774   4.370
 7647SOL     OW23839   6.868   2.488   3.929
 7647SOL    HW123840   6.935   2.500   4.002
 7647SOL    HW223841   6.778   2.518   3.961
 7648SOL     OW23842   2.529   1.684   2.691
 7648SOL    HW123843   2.551   1.734   2.607
 7648SOL    HW223844   2.476   1.744   2.752
 7649SOL     OW23845   1.155   0.839   3.685
 7649SOL    HW123846   1.151   0.925   3.633
 7649SOL    HW223847   1.209   0.772   3.634
 7650SOL     OW23848   5.691   0.528   0.361
 7650SOL    HW123849   5.730   0.498   0.448
 7650SOL    HW223850   5.679   0.627   0.362
 7651SOL     OW23851   2.109   0.574   4.535
 7651SOL    HW123852   2.176   0.509   4.570
 7651SOL    HW223853   2.113   0.576   4.436
 7652SOL     OW23854   5.478   2.604   4.506
 7652SOL    HW123855   5.411   2.644   4.569
 7652SOL    HW223856   5.543   2.675   4.478
 7653SOL     OW23857   0.394   1.944   0.333
 7653SOL    HW123858   0.450   1.861   0.335
 7653SOL    HW223859   0.316   1.930   0.272
 7654SOL     OW23860   4.808   2.960   4.493
 7654SOL    HW123861   4.768   2.874   4.526
 7654SOL    HW223862   4.896   2.975   4.537
 7655SOL     OW23863   4.372   6.350   3.601
 7655SOL    HW123864   4.339   6.256   3.610
 7655SOL    HW223865   4.313   6.411   3.655
 7656SOL     OW23866   3.938   3.891   0.082
 7656SOL    HW123867   3.850   3.848   0.059
 7656SOL    HW223868   3.960   3.871   0.177
 7657SOL     OW23869   1.312   2.082   3.379
 7657SOL    HW123870   1.325   2.121   3.288
 7657SOL    HW223871   1.394   2.033   3.407
 7658SOL     OW23872   2.868   0.196   0.009
 7658SOL    HW123873   2.968   0.194   0.017
 7658SOL    HW223874   2.842   0.243   6.947
 7659SOL     OW23875   5.499   5.005   6.670
 7659SOL    HW123876   5.494   4.979   6.766
 7659SOL    HW223877   5.552   4.937   6.619
 7660SOL     OW23878   6.988   5.726   3.673
 7660SOL    HW123879   6.912   5.729   3.609
 7660SOL    HW223880   0.030   5.655   3.646
 7661SOL     OW23881   5.621   2.199   5.293
 7661SOL    HW123882   5.703   2.199   5.350
 7661SOL    HW223883   5.613   2.111   5.246
 7662SOL     OW23884   1.594   3.437   4.393
 7662SOL    HW123885   1.666   3.379   4.430
 7662SOL    HW223886   1.516   3.438   4.455
 7663SOL     OW23887   6.214   4.787   6.402
 7663SOL    HW123888   6.227   4.874   6.450
 7663SOL    HW223889   6.124   4.788   6.357
 7664SOL     OW23890   4.182   0.770   1.625
 7664SOL    HW123891   4.109   0.749   1.690
 7664SOL    HW223892   4.167   0.860   1.586
 7665SOL     OW23893   6.146   0.648   4.952
 7665SOL    HW123894   6.116   0.634   5.046
 7665SOL    HW223895   6.145   0.745   4.931
 7666SOL     OW23896   0.512   4.801   2.527
 7666SOL    HW123897   0.603   4.809   2.569
 7666SOL    HW223898   0.482   4.706   2.533
 7667SOL     OW23899   4.082   0.272   2.758
 7667SOL    HW123900   4.048   0.366   2.753
 7667SOL    HW223901   4.120   0.255   2.848
 7668SOL     OW23902   2.872   5.056   0.776
 7668SOL    HW123903   2.947   5.093   0.830
 7668SOL    HW223904   2.907   5.016   0.691
 7669SOL     OW23905   4.736   1.326   5.351
 7669SOL    HW123906   4.807   1.384   5.392
 7669SOL    HW223907   4.778   1.247   5.307
 7670SOL     OW23908   0.435   5.126   0.599
 7670SOL    HW123909   0.337   5.131   0.584
 7670SOL    HW223910   0.483   5.160   0.518
 7671SOL     OW23911   3.680   1.372   2.422
 7671SOL    HW123912   3.758   1.422   2.458
 7671SOL    HW223913   3.622   1.342   2.497
 7672SOL     OW23914   0.216   5.830   3.164
 7672SOL    HW123915   0.232   5.744   3.212
 7672SOL    HW223916   0.234   5.907   3.225
 7673SOL     OW23917   2.011   6.008   1.758
 7673SOL    HW123918   2.083   5.984   1.823
 7673SOL    HW223919   2.033   5.969   1.668
 7674SOL     OW23920   5.285   1.233   3.903
 7674SOL    HW123921   5.357   1.170   3.874
 7674SOL    HW223922   5.290   1.316   3.847
 7675SOL     OW23923   6.173   6.528   2.933
 7675SOL    HW123924   6.101   6.586   2.897
 7675SOL    HW223925   6.234   6.500   2.859
 7676SOL     OW23926   1.967   2.204   0.268
 7676SOL    HW123927   1.954   2.132   0.337
 7676SOL    HW223928   2.059   2.242   0.278
 7677SOL     OW23929   0.626   4.387   1.739
 7677SOL    HW123930   0.582   4.348   1.658
 7677SOL    HW223931   0.671   4.314   1.790
 7678SOL     OW23932   2.545   2.729   5.225
 7678SOL    HW123933   2.510   2.685   5.143
 7678SOL    HW223934   2.541   2.828   5.214
 7679SOL     OW23935   2.814   6.404   6.227
 7679SOL    HW123936   2.738   6.338   6.232
 7679SOL    HW223937   2.878   6.375   6.156
 7680SOL     OW23938   1.355   0.727   0.939
 7680SOL    HW123939   1.418   0.658   0.904
 7680SOL    HW223940   1.269   0.684   0.964
 7681SOL     OW23941   2.897   0.301   0.520
 7681SOL    HW123942   2.881   0.268   0.427
 7681SOL    HW223943   2.995   0.303   0.538
 7682SOL     OW23944   3.888   6.958   2.299
 7682SOL    HW123945   3.869   6.917   2.210
 7682SOL    HW223946   3.987   6.965   2.311
 7683SOL     OW23947   7.006   1.760   5.441
 7683SOL    HW123948   6.975   1.847   5.480
 7683SOL    HW223949   0.081   1.765   5.421
 7684SOL     OW23950   3.941   1.721   0.972
 7684SOL    HW123951   3.848   1.757   0.967
 7684SOL    HW223952   3.967   1.709   1.068
 7685SOL     OW23953   2.468   1.362   5.726
 7685SOL    HW123954   2.558   1.320   5.716
 7685SOL    HW223955   2.459   1.438   5.661
 7686SOL     OW23956   6.759   6.713   3.365
 7686SOL    HW123957   6.796   6.709   3.272
 7686SOL    HW223958   6.824   6.671   3.429
 7687SOL     OW23959   6.270   5.598   4.846
 7687SOL    HW123960   6.180   5.567   4.815
 7687SOL    HW223961   6.340   5.561   4.785
 7688SOL     OW23962   0.618   6.016   5.953
 7688SOL    HW123963   0.529   6.020   5.909
 7688SOL    HW223964   0.656   5.924   5.942
 7689SOL     OW23965   6.036   6.712   2.594
 7689SOL    HW123966   5.978   6.682   2.670
 7689SOL    HW223967   5.980   6.720   2.511
 7690SOL     OW23968   5.934   5.194   0.092
 7690SOL    HW123969   6.012   5.250   0.120
 7690SOL    HW223970   5.855   5.214   0.152
 7691SOL     OW23971   5.434   3.942   3.036
 7691SOL    HW123972   5.407   3.857   2.991
 7691SOL    HW223973   5.534   3.948   3.038
 7692SOL     OW23974   0.413   6.413   1.810
 7692SOL    HW123975   0.353   6.493   1.819
 7692SOL    HW223976   0.421   6.389   1.714
 7693SOL     OW23977   3.237   0.534   1.798
 7693SOL    HW123978   3.334   0.522   1.819
 7693SOL    HW223979   3.208   0.465   1.732
 7694SOL     OW23980   5.344   3.807   3.772
 7694SOL    HW123981   5.245   3.812   3.763
 7694SOL    HW223982   5.369   3.737   3.839
 7695SOL     OW23983   4.728   0.219   1.412
 7695SOL    HW123984   4.805   0.156   1.415
 7695SOL    HW223985   4.649   0.173   1.373
 7696SOL     OW23986   0.353   1.562   6.032
 7696SOL    HW123987   0.373   1.468   6.004
 7696SOL    HW223988   0.279   1.562   6.099
 7697SOL     OW23989   2.974   6.868   3.667
 7697SOL    HW123990   2.926   6.781   3.680
 7697SOL    HW223991   2.924   6.942   3.711
 7698SOL     OW23992   5.548   1.333   3.694
 7698SOL    HW123993   5.613   1.261   3.670
 7698SOL    HW223994   5.574   1.373   3.782
 7699SOL     OW23995   2.921   6.099   5.773
 7699SOL    HW123996   2.904   6.108   5.675
 7699SOL    HW223997   2.839   6.063   5.818
 7700SOL     OW23998   4.402   5.611   3.231
 7700SOL    HW123999   4.387   5.708   3.215
 7700SOL    HW224000   4.494   5.586   3.200
 7701SOL     OW24001   6.628   2.624   6.923
 7701SOL    HW124002   6.612   2.722   6.915
 7701SOL    HW224003   6.725   2.605   6.907
 7702SOL     OW24004   4.541   5.951   5.047
 7702SOL    HW124005   4.506   6.029   4.994
 7702SOL    HW224006   4.640   5.958   5.054
 7703SOL     OW24007   5.777   6.101   6.422
 7703SOL    HW124008   5.772   6.154   6.337
 7703SOL    HW224009   5.852   6.036   6.417
 7704SOL     OW24010   6.073   0.563   3.638
 7704SOL    HW124011   6.129   0.628   3.690
 7704SOL    HW224012   5.992   0.610   3.602
 7705SOL     OW24013   2.689   5.993   0.929
 7705SOL    HW124014   2.636   6.069   0.965
 7705SOL    HW224015   2.767   6.028   0.876
 7706SOL     OW24016   3.336   3.294   4.400
 7706SOL    HW124017   3.329   3.194   4.396
 7706SOL    HW224018   3.332   3.331   4.307
 7707SOL     OW24019   0.019   3.788   6.056
 7707SOL    HW124020   0.076   3.869   6.047
 7707SOL    HW224021   0.063   3.722   6.116
 7708SOL     OW24022   1.129   6.499   5.618
 7708SOL    HW124023   1.117   6.412   5.668
 7708SOL    HW224024   1.219   6.536   5.637
 7709SOL     OW24025   6.811   4.776   1.844
 7709SOL    HW124026   6.755   4.832   1.783
 7709SOL    HW224027   6.854   4.702   1.791
 7710SOL     OW24028   2.507   2.241   0.163
 7710SOL    HW124029   2.512   2.235   0.064
 7710SOL    HW224030   2.599   2.234   0.202
 7711SOL     OW24031   6.009   5.792   5.918
 7711SOL    HW124032   6.065   5.853   5.974
 7711SOL    HW224033   5.915   5.793   5.951
 7712SOL     OW24034   6.247   5.106   1.032
 7712SOL    HW124035   6.325   5.110   1.094
 7712SOL    HW224036   6.257   5.175   0.961
 7713SOL     OW24037   1.506   4.335   0.738
 7713SOL    HW124038   1.517   4.389   0.655
 7713SOL    HW224039   1.554   4.248   0.729
 7714SOL     OW24040   6.922   4.901   6.178
 7714SOL    HW124041   6.952   4.869   6.088
 7714SOL    HW224042   6.918   5.001   6.178
 7715SOL     OW24043   2.520   2.189   6.907
 7715SOL    HW124044   2.522   2.244   6.824
 7715SOL    HW224045   2.463   2.108   6.893
 7716SOL     OW24046   6.810   4.465   0.598
 7716SOL    HW124047   6.840   4.467   0.693
 7716SOL    HW224048   6.748   4.387   0.585
 7717SOL     OW24049   1.089   1.148   5.341
 7717SOL    HW124050   1.054   1.188   5.256
 7717SOL    HW224051   1.056   1.201   5.419
 7718SOL     OW24052   6.826   4.035   3.110
 7718SOL    HW124053   6.910   4.003   3.154
 7718SOL    HW224054   6.782   4.103   3.169
 7719SOL     OW24055   0.068   4.203   4.901
 7719SOL    HW124056   0.154   4.254   4.901
 7719SOL    HW224057   0.065   4.142   4.821
 7720SOL     OW24058   6.148   2.521   6.471
 7720SOL    HW124059   6.069   2.540   6.529
 7720SOL    HW224060   6.205   2.604   6.466
 7721SOL     OW24061   0.474   5.426   2.150
 7721SOL    HW124062   0.499   5.332   2.129
 7721SOL    HW224063   0.555   5.484   2.146
 7722SOL     OW24064   1.426   4.239   3.710
 7722SOL    HW124065   1.480   4.161   3.741
 7722SOL    HW224066   1.419   4.306   3.785
 7723SOL     OW24067   4.000   3.341   6.983
 7723SOL    HW124068   4.020   3.261   6.927
 7723SOL    HW224069   3.979   3.419   6.924
 7724SOL     OW24070   2.764   3.835   1.002
 7724SOL    HW124071   2.695   3.763   1.009
 7724SOL    HW224072   2.842   3.803   0.948
 7725SOL     OW24073   5.919   1.388   2.632
 7725SOL    HW124074   5.845   1.377   2.566
 7725SOL    HW224075   5.953   1.298   2.660
 7726SOL     OW24076   1.770   5.109   5.813
 7726SOL    HW124077   1.681   5.098   5.769
 7726SOL    HW224078   1.794   5.024   5.860
 7727SOL     OW24079   6.602   2.902   2.005
 7727SOL    HW124080   6.595   2.916   2.104
 7727SOL    HW224081   6.526   2.846   1.974
 7728SOL     OW24082   2.256   2.766   5.140
 7728SOL    HW124083   2.297   2.755   5.231
 7728SOL    HW224084   2.295   2.846   5.095
 7729SOL     OW24085   5.972   1.403   1.281
 7729SOL    HW124086   6.028   1.339   1.229
 7729SOL    HW224087   5.952   1.483   1.224
 7730SOL     OW24088   6.360   5.109   5.987
 7730SOL    HW124089   6.289   5.166   6.030
 7730SOL    HW224090   6.319   5.026   5.951
 7731SOL     OW24091   5.985   0.163   0.327
 7731SOL    HW124092   5.961   0.256   0.299
 7731SOL    HW224093   6.005   0.162   0.425
 7732SOL     OW24094   4.018   0.183   0.458
 7732SOL    HW124095   3.959   0.194   0.379
 7732SOL    HW224096   4.111   0.214   0.435
 7733SOL     OW24097   5.534   6.068   2.244
 7733SOL    HW124098   5.436   6.086   2.232
 7733SOL    HW224099   5.586   6.149   2.219
 7734SOL     OW24100   1.754   4.640   4.444
 7734SOL    HW124101   1.721   4.721   4.492
 7734SOL    HW224102   1.850   4.651   4.421
 7735SOL     OW24103   4.569   6.259   6.381
 7735SOL    HW124104   4.592   6.181   6.322
 7735SOL    HW224105   4.622   6.339   6.352
 7736SOL     OW24106   2.249   3.165   0.048
 7736SOL    HW124107   2.168   3.209   0.011
 7736SOL    HW224108   2.315   3.234   0.077
 7737SOL     OW24109   3.356   0.410   2.662
 7737SOL    HW124110   3.311   0.453   2.740
 7737SOL    HW224111   3.440   0.459   2.640
 7738SOL     OW24112   3.253   5.286   0.418
 7738SOL    HW124113   3.246   5.236   0.332
 7738SOL    HW224114   3.161   5.306   0.453
 7739SOL     OW24115   0.609   2.491   2.015
 7739SOL    HW124116   0.538   2.499   1.945
 7739SOL    HW224117   0.654   2.402   2.007
 7740SOL     OW24118   3.052   1.000   2.929
 7740SOL    HW124119   3.050   0.976   2.831
 7740SOL    HW224120   3.131   1.058   2.948
 7741SOL     OW24121   0.091   4.661   5.128
 7741SOL    HW124122   0.105   4.668   5.029
 7741SOL    HW224123   0.160   4.601   5.168
 7742SOL     OW24124   4.384   2.392   2.961
 7742SOL    HW124125   4.429   2.480   2.944
 7742SOL    HW224126   4.346   2.357   2.876
 7743SOL     OW24127   4.327   1.921   0.023
 7743SOL    HW124128   4.424   1.920   0.044
 7743SOL    HW224129   4.288   1.830   0.041
 7744SOL     OW24130   0.963   0.561   4.264
 7744SOL    HW124131   0.966   0.661   4.269
 7744SOL    HW224132   1.025   0.529   4.192
 7745SOL     OW24133   3.496   1.062   7.012
 7745SOL    HW124134   3.481   1.048   6.914
 7745SOL    HW224135   3.428   1.009   0.040
 7746SOL     OW24136   0.715   0.785   0.498
 7746SOL    HW124137   0.621   0.810   0.520
 7746SOL    HW224138   0.720   0.689   0.474
 7747SOL     OW24139   5.966   6.406   0.905
 7747SOL    HW124140   5.924   6.330   0.856
 7747SOL    HW224141   5.997   6.475   0.839
 7748SOL     OW24142   2.935   3.676   4.099
 7748SOL    HW124143   2.953   3.583   4.133
 7748SOL    HW224144   2.939   3.677   3.999
 7749SOL     OW24145   3.413   3.041   5.324
 7749SOL    HW124146   3.399   2.976   5.399
 7749SOL    HW224147   3.434   3.131   5.362
 7750SOL     OW24148   6.761   5.806   0.228
 7750SOL    HW124149   6.773   5.754   0.144
 7750SOL    HW224150   6.788   5.750   0.306
 7751SOL     OW24151   1.438   2.608   2.591
 7751SOL    HW124152   1.443   2.685   2.528
 7751SOL    HW224153   1.376   2.630   2.666
 7752SOL     OW24154   5.739   6.444   5.798
 7752SOL    HW124155   5.646   6.421   5.826
 7752SOL    HW224156   5.784   6.495   5.871
 7753SOL     OW24157   2.274   0.508   4.034
 7753SOL    HW124158   2.357   0.501   4.089
 7753SOL    HW224159   2.288   0.572   3.959
 7754SOL     OW24160   4.882   0.015   2.251
 7754SOL    HW124161   4.924   0.101   2.221
 7754SOL    HW224162   4.885   6.972   2.176
 7755SOL     OW24163   1.383   2.316   5.929
 7755SOL    HW124164   1.399   2.218   5.941
 7755SOL    HW224165   1.413   2.344   5.838
 7756SOL     OW24166   3.422   5.082   2.390
 7756SOL    HW124167   3.418   4.982   2.398
 7756SOL    HW224168   3.469   5.106   2.305
 7757SOL     OW24169   5.730   5.260   4.834
 7757SOL    HW124170   5.633   5.267   4.856
 7757SOL    HW224171   5.771   5.351   4.837
 7758SOL     OW24172   1.094   1.767   0.177
 7758SOL    HW124173   1.022   1.730   0.119
 7758SOL    HW224174   1.057   1.784   0.269
 7759SOL     OW24175   0.901   2.090   5.435
 7759SOL    HW124176   0.828   2.059   5.374
 7759SOL    HW224177   0.990   2.074   5.392
 7760SOL     OW24178   5.504   3.463   2.968
 7760SOL    HW124179   5.507   3.483   3.066
 7760SOL    HW224180   5.538   3.371   2.951
 7761SOL     OW24181   1.227   6.944   6.125
 7761SOL    HW124182   1.316   6.907   6.151
 7761SOL    HW224183   1.197   6.901   6.039
 7762SOL     OW24184   4.555   0.247   4.316
 7762SOL    HW124185   4.609   0.256   4.399
 7762SOL    HW224186   4.595   0.175   4.258
 7763SOL     OW24187   1.183   1.485   0.343
 7763SOL    HW124188   1.171   1.557   0.275
 7763SOL    HW224189   1.147   1.399   0.307
 7764SOL     OW24190   3.700   2.922   3.240
 7764SOL    HW124191   3.772   2.942   3.307
 7764SOL    HW224192   3.622   2.880   3.287
 7765SOL     OW24193   6.207   2.078   3.824
 7765SOL    HW124194   6.223   1.984   3.794
 7765SOL    HW224195   6.108   2.094   3.828
 7766SOL     OW24196   5.384   2.435   6.800
 7766SOL    HW124197   5.370   2.497   6.722
 7766SOL    HW224198   5.335   2.349   6.783
 7767SOL     OW24199   4.274   6.354   3.963
 7767SOL    HW124200   4.285   6.254   3.957
 7767SOL    HW224201   4.364   6.398   3.961
 7768SOL     OW24202   4.320   4.643   2.604
 7768SOL    HW124203   4.390   4.714   2.611
 7768SOL    HW224204   4.232   4.685   2.584
 7769SOL     OW24205   5.023   3.007   2.442
 7769SOL    HW124206   5.074   2.926   2.413
 7769SOL    HW224207   5.014   3.070   2.364
 7770SOL     OW24208   1.674   4.503   1.888
 7770SOL    HW124209   1.655   4.451   1.805
 7770SOL    HW224210   1.589   4.546   1.921
 7771SOL     OW24211   2.963   2.099   5.174
 7771SOL    HW124212   2.997   2.192   5.162
 7771SOL    HW224213   2.980   2.070   5.268
 7772SOL     OW24214   5.454   0.790   2.449
 7772SOL    HW124215   5.450   0.887   2.474
 7772SOL    HW224216   5.385   0.739   2.500
 7773SOL     OW24217   2.606   5.503   4.799
 7773SOL    HW124218   2.615   5.575   4.730
 7773SOL    HW224219   2.587   5.543   4.888
 7774SOL     OW24220   5.406   1.910   5.936
 7774SOL    HW124221   5.502   1.913   5.908
 7774SOL    HW224222   5.383   1.818   5.968
 7775SOL     OW24223   4.538   6.349   2.186
 7775SOL    HW124224   4.519   6.329   2.282
 7775SOL    HW224225   4.452   6.347   2.134
 7776SOL     OW24226   1.583   5.060   0.564
 7776SOL    HW124227   1.653   5.025   0.627
 7776SOL    HW224228   1.596   5.018   0.474
 7777SOL     OW24229   1.151   0.601   4.693
 7777SOL    HW124230   1.182   0.600   4.788
 7777SOL    HW224231   1.058   0.565   4.688
 7778SOL     OW24232   5.034   4.488   0.819
 7778SOL    HW124233   5.008   4.457   0.727
 7778SOL    HW224234   5.036   4.588   0.821
 7779SOL     OW24235   2.904   2.439   1.089
 7779SOL    HW124236   2.893   2.508   1.161
 7779SOL    HW224237   2.974   2.469   1.024
 7780SOL     OW24238   0.841   5.118   5.544
 7780SOL    HW124239   0.747   5.127   5.576
 7780SOL    HW224240   0.902   5.102   5.622
 7781SOL     OW24241   1.184   4.856   0.446
 7781SOL    HW124242   1.273   4.815   0.463
 7781SOL    HW224243   1.196   4.950   0.413
 7782SOL     OW24244   0.017   4.564   4.799
 7782SOL    HW124245   0.082   4.624   4.845
 7782SOL    HW224246   0.061   4.476   4.780
 7783SOL     OW24247   0.743   5.823   4.242
 7783SOL    HW124248   0.696   5.877   4.173
 7783SOL    HW224249   0.841   5.844   4.240
 7784SOL     OW24250   2.962   3.085   1.273
 7784SOL    HW124251   3.005   2.999   1.245
 7784SOL    HW224252   2.971   3.152   1.199
 7785SOL     OW24253   1.562   6.171   3.986
 7785SOL    HW124254   1.575   6.267   3.961
 7785SOL    HW224255   1.613   6.112   3.923
 7786SOL     OW24256   3.056   6.479   6.794
 7786SOL    HW124257   2.980   6.536   6.763
 7786SOL    HW224258   3.020   6.402   6.847
 7787SOL     OW24259   2.426   2.782   6.211
 7787SOL    HW124260   2.375   2.868   6.208
 7787SOL    HW224261   2.452   2.756   6.118
 7788SOL     OW24262   2.337   5.244   1.651
 7788SOL    HW124263   2.396   5.221   1.728
 7788SOL    HW224264   2.394   5.271   1.573
 7789SOL     OW24265   2.094   6.538   6.285
 7789SOL    HW124266   2.021   6.606   6.271
 7789SOL    HW224267   2.077   6.488   6.369
 7790SOL     OW24268   5.251   5.303   3.326
 7790SOL    HW124269   5.307   5.319   3.407
 7790SOL    HW224270   5.181   5.374   3.319
 7791SOL     OW24271   2.566   6.262   3.790
 7791SOL    HW124272   2.665   6.267   3.803
 7791SOL    HW224273   2.540   6.169   3.765
 7792SOL     OW24274   1.751   4.862   5.351
 7792SOL    HW124275   1.690   4.888   5.426
 7792SOL    HW224276   1.700   4.807   5.284
 7793SOL     OW24277   3.168   0.725   6.968
 7793SOL    HW124278   3.071   0.737   6.990
 7793SOL    HW224279   3.192   0.628   6.970
 7794SOL     OW24280   5.876   4.899   3.285
 7794SOL    HW124281   5.960   4.856   3.253
 7794SOL    HW224282   5.870   4.992   3.249
 7795SOL     OW24283   2.211   3.947   5.645
 7795SOL    HW124284   2.117   3.916   5.657
 7795SOL    HW224285   2.240   3.931   5.551
 7796SOL     OW24286   3.979   3.826   3.440
 7796SOL    HW124287   4.059   3.868   3.482
 7796SOL    HW224288   3.899   3.841   3.498
 7797SOL     OW24289   1.402   6.929   2.962
 7797SOL    HW124290   1.356   6.927   3.051
 7797SOL    HW224291   1.469   7.004   2.961
 7798SOL     OW24292   2.527   4.373   5.540
 7798SOL    HW124293   2.528   4.425   5.455
 7798SOL    HW224294   2.495   4.280   5.522
 7799SOL     OW24295   0.824   6.240   2.504
 7799SOL    HW124296   0.900   6.304   2.489
 7799SOL    HW224297   0.764   6.275   2.576
 7800SOL     OW24298   1.034   5.590   1.001
 7800SOL    HW124299   0.993   5.602   0.911
 7800SOL    HW224300   1.131   5.567   0.992
 7801SOL     OW24301   2.421   1.701   1.853
 7801SOL    HW124302   2.493   1.732   1.916
 7801SOL    HW224303   2.365   1.632   1.898
 7802SOL     OW24304   5.963   2.386   0.777
 7802SOL    HW124305   5.907   2.306   0.756
 7802SOL    HW224306   5.906   2.468   0.777
 7803SOL     OW24307   4.658   1.497   6.264
 7803SOL    HW124308   4.588   1.542   6.209
 7803SOL    HW224309   4.615   1.452   6.343
 7804SOL     OW24310   4.821   2.029   4.206
 7804SOL    HW124311   4.729   2.031   4.167
 7804SOL    HW224312   4.817   2.047   4.304
 7805SOL     OW24313   5.202   2.108   0.991
 7805SOL    HW124314   5.267   2.182   1.009
 7805SOL    HW224315   5.250   2.028   0.956
 7806SOL     OW24316   5.921   2.061   6.449
 7806SOL    HW124317   6.020   2.065   6.439
 7806SOL    HW224318   5.878   2.053   6.359
 7807SOL     OW24319   0.926   4.558   5.363
 7807SOL    HW124320   0.920   4.532   5.266
 7807SOL    HW224321   0.849   4.517   5.413
 7808SOL     OW24322   6.195   2.991   4.037
 7808SOL    HW124323   6.158   3.084   4.033
 7808SOL    HW224324   6.127   2.931   4.079
 7809SOL     OW24325   2.073   5.408   3.897
 7809SOL    HW124326   1.988   5.362   3.923
 7809SOL    HW224327   2.151   5.357   3.933
 7810SOL     OW24328   3.859   0.630   4.743
 7810SOL    HW124329   3.850   0.715   4.794
 7810SOL    HW224330   3.956   0.605   4.737
 7811SOL     OW24331   1.269   5.475   2.674
 7811SOL    HW124332   1.267   5.380   2.707
 7811SOL    HW224333   1.361   5.513   2.689
 7812SOL     OW24334   0.860   1.745   4.008
 7812SOL    HW124335   0.892   1.656   3.975
 7812SOL    HW224336   0.925   1.816   3.982
 7813SOL     OW24337   4.683   2.779   6.947
 7813SOL    HW124338   4.675   2.684   6.918
 7813SOL    HW224339   4.629   2.837   6.887
 7814SOL     OW24340   6.921   3.056   3.149
 7814SOL    HW124341   6.963   3.051   3.058
 7814SOL    HW224342   6.830   3.015   3.147
 7815SOL     OW24343   5.281   0.681   5.558
 7815SOL    HW124344   5.259   0.708   5.652
 7815SOL    HW224345   5.350   0.608   5.559
 7816SOL     OW24346   1.435   2.205   6.382
 7816SOL    HW124347   1.513   2.202   6.444
 7816SOL    HW224348   1.385   2.118   6.386
 7817SOL     OW24349   5.495   5.132   3.037
 7817SOL    HW124350   5.473   5.167   2.946
 7817SOL    HW224351   5.411   5.118   3.089
 7818SOL     OW24352   4.327   0.859   2.481
 7818SOL    HW124353   4.241   0.817   2.510
 7818SOL    HW224354   4.394   0.853   2.555
 7819SOL     OW24355   6.851   3.770   1.710
 7819SOL    HW124356   6.860   3.866   1.685
 7819SOL    HW224357   6.933   3.740   1.759
 7820SOL     OW24358   1.716   2.365   5.628
 7820SOL    HW124359   1.708   2.379   5.529
 7820SOL    HW224360   1.808   2.391   5.658
 7821SOL     OW24361   5.755   6.339   0.367
 7821SOL    HW124362   5.787   6.245   0.356
 7821SOL    HW224363   5.773   6.391   0.284
 7822SOL     OW24364   1.417   1.674   6.069
 7822SOL    HW124365   1.471   1.592   6.087
 7822SOL    HW224366   1.471   1.755   6.092
 7823SOL     OW24367   2.585   3.715   5.356
 7823SOL    HW124368   2.676   3.735   5.392
 7823SOL    HW224369   2.556   3.790   5.296
 7824SOL     OW24370   6.460   0.666   3.986
 7824SOL    HW124371   6.494   0.724   4.059
 7824SOL    HW224372   6.381   0.710   3.942
 7825SOL     OW24373   1.738   2.754   1.198
 7825SOL    HW124374   1.663   2.781   1.258
 7825SOL    HW224375   1.820   2.805   1.222
 7826SOL     OW24376   6.273   1.604   1.256
 7826SOL    HW124377   6.181   1.567   1.246
 7826SOL    HW224378   6.280   1.690   1.204
 7827SOL     OW24379   2.219   5.756   0.943
 7827SOL    HW124380   2.284   5.804   0.884
 7827SOL    HW224381   2.224   5.658   0.926
 7828SOL     OW24382   0.718   4.153   6.451
 7828SOL    HW124383   0.674   4.171   6.363
 7828SOL    HW224384   0.741   4.240   6.495
 7829SOL     OW24385   2.889   4.127   1.374
 7829SOL    HW124386   2.790   4.144   1.382
 7829SOL    HW224387   2.903   4.032   1.345
 7830SOL     OW24388   2.676   4.881   5.611
 7830SOL    HW124389   2.597   4.819   5.603
 7830SOL    HW224390   2.760   4.830   5.595
 7831SOL     OW24391   1.716   6.871   0.886
 7831SOL    HW124392   1.797   6.813   0.878
 7831SOL    HW224393   1.736   6.962   0.851
 7832SOL     OW24394   5.461   0.923   3.290
 7832SOL    HW124395   5.399   0.997   3.266
 7832SOL    HW224396   5.531   0.914   3.219
 7833SOL     OW24397   0.990   0.983   6.443
 7833SOL    HW124398   0.988   1.067   6.390
 7833SOL    HW224399   0.904   0.973   6.493
 7834SOL     OW24400   6.831   1.666   3.792
 7834SOL    HW124401   6.897   1.667   3.716
 7834SOL    HW224402   6.745   1.705   3.762
 7835SOL     OW24403   3.695   2.012   5.663
 7835SOL    HW124404   3.733   2.105   5.667
 7835SOL    HW224405   3.662   1.986   5.753
 7836SOL     OW24406   3.250   2.970   5.096
 7836SOL    HW124407   3.213   2.884   5.132
 7836SOL    HW224408   3.309   3.013   5.165
 7837SOL     OW24409   5.826   5.509   0.064
 7837SOL    HW124410   5.859   5.603   0.061
 7837SOL    HW224411   5.904   5.446   0.064
 7838SOL     OW24412   3.967   0.455   0.511
 7838SOL    HW124413   4.005   0.363   0.515
 7838SOL    HW224414   3.884   0.454   0.454
 7839SOL     OW24415   6.153   4.076   5.046
 7839SOL    HW124416   6.174   4.167   5.010
 7839SOL    HW224417   6.122   4.085   5.141
 7840SOL     OW24418   6.522   2.486   3.815
 7840SOL    HW124419   6.558   2.424   3.746
 7840SOL    HW224420   6.437   2.449   3.853
 7841SOL     OW24421   3.316   1.906   6.165
 7841SOL    HW124422   3.413   1.890   6.152
 7841SOL    HW224423   3.288   1.874   6.256
 7842SOL     OW24424   2.382   1.806   2.898
 7842SOL    HW124425   2.298   1.762   2.930
 7842SOL    HW224426   2.377   1.905   2.916
 7843SOL     OW24427   0.060   5.816   3.414
 7843SOL    HW124428   0.072   5.829   3.513
 7843SOL    HW224429   0.122   5.744   3.382
 7844SOL     OW24430   3.853   6.992   3.169
 7844SOL    HW124431   3.840   0.000   3.075
 7844SOL    HW224432   3.766   6.998   3.219
 7845SOL     OW24433   5.896   2.308   2.834
 7845SOL    HW124434   5.878   2.255   2.917
 7845SOL    HW224435   5.881   2.405   2.853
 7846SOL     OW24436   0.778   1.243   2.285
 7846SOL    HW124437   0.808   1.165   2.341
 7846SOL    HW224438   0.708   1.211   2.221
 7847SOL     OW24439   6.536   1.700   3.352
 7847SOL    HW124440   6.466   1.724   3.418
 7847SOL    HW224441   6.576   1.784   3.314
 7848SOL     OW24442   3.417   3.879   0.393
 7848SOL    HW124443   3.372   3.841   0.312
 7848SOL    HW224444   3.380   3.971   0.411
 7849SOL     OW24445   6.440   4.016   4.318
 7849SOL    HW124446   6.505   4.090   4.335
 7849SOL    HW224447   6.400   3.986   4.404
 7850SOL     OW24448   0.548   1.671   4.666
 7850SOL    HW124449   0.613   1.730   4.617
 7850SOL    HW224450   0.535   1.586   4.613
 7851SOL     OW24451   6.353   1.399   1.701
 7851SOL    HW124452   6.424   1.422   1.634
 7851SOL    HW224453   6.288   1.474   1.709
 7852SOL     OW24454   2.708   1.159   6.151
 7852SOL    HW124455   2.713   1.233   6.218
 7852SOL    HW224456   2.652   1.187   6.073
 7853SOL     OW24457   5.194   2.558   1.966
 7853SOL    HW124458   5.157   2.605   2.046
 7853SOL    HW224459   5.292   2.575   1.960
 7854SOL     OW24460   3.484   3.344   6.784
 7854SOL    HW124461   3.542   3.402   6.841
 7854SOL    HW224462   3.398   3.326   6.831
 7855SOL     OW24463   4.824   6.459   4.531
 7855SOL    HW124464   4.783   6.550   4.543
 7855SOL    HW224465   4.822   6.435   4.434
 7856SOL     OW24466   6.616   5.115   5.199
 7856SOL    HW124467   6.681   5.050   5.240
 7856SOL    HW224468   6.585   5.079   5.110
 7857SOL     OW24469   4.962   2.292   6.670
 7857SOL    HW124470   4.962   2.223   6.743
 7857SOL    HW224471   4.873   2.338   6.668
 7858SOL     OW24472   6.150   6.509   3.742
 7858SOL    HW124473   6.121   6.470   3.829
 7858SOL    HW224474   6.126   6.606   3.739
 7859SOL     OW24475   4.045   2.941   6.595
 7859SOL    HW124476   4.060   3.011   6.665
 7859SOL    HW224477   4.004   2.859   6.637
 7860SOL     OW24478   3.567   0.790   3.166
 7860SOL    HW124479   3.477   0.748   3.161
 7860SOL    HW224480   3.559   0.889   3.151
 7861SOL     OW24481   3.876   4.797   1.847
 7861SOL    HW124482   3.788   4.774   1.887
 7861SOL    HW224483   3.876   4.774   1.749
 7862SOL     OW24484   2.008   4.495   1.816
 7862SOL    HW124485   1.989   4.413   1.869
 7862SOL    HW224486   2.094   4.536   1.847
 7863SOL     OW24487   0.405   4.563   4.473
 7863SOL    HW124488   0.351   4.632   4.521
 7863SOL    HW224489   0.360   4.474   4.481
 7864SOL     OW24490   0.724   5.486   5.060
 7864SOL    HW124491   0.714   5.387   5.052
 7864SOL    HW224492   0.802   5.516   5.006
 7865SOL     OW24493   6.417   6.486   3.690
 7865SOL    HW124494   6.423   6.451   3.784
 7865SOL    HW224495   6.326   6.466   3.653
 7866SOL     OW24496   1.197   1.361   5.872
 7866SOL    HW124497   1.227   1.360   5.777
 7866SOL    HW224498   1.109   1.408   5.878
 7867SOL     OW24499   6.195   6.153   3.769
 7867SOL    HW124500   6.166   6.238   3.724
 7867SOL    HW224501   6.114   6.102   3.798
 7868SOL     OW24502   4.757   6.017   1.423
 7868SOL    HW124503   4.744   5.949   1.495
 7868SOL    HW224504   4.673   6.026   1.370
 7869SOL     OW24505   5.661   3.610   0.063
 7869SOL    HW124506   5.572   3.609   0.018
 7869SOL    HW224507   5.720   3.540   0.022
 7870SOL     OW24508   4.409   4.938   4.086
 7870SOL    HW124509   4.410   4.851   4.037
 7870SOL    HW224510   4.334   4.939   4.151
 7871SOL     OW24511   4.796   1.902   2.167
 7871SOL    HW124512   4.831   1.866   2.080
 7871SOL    HW224513   4.745   1.986   2.150
 7872SOL     OW24514   1.780   3.603   3.351
 7872SOL    HW124515   1.780   3.641   3.444
 7872SOL    HW224516   1.751   3.508   3.354
 7873SOL     OW24517   5.747   6.650   6.382
 7873SOL    HW124518   5.653   6.628   6.359
 7873SOL    HW224519   5.799   6.565   6.397
 7874SOL     OW24520   5.241   2.036   6.882
 7874SOL    HW124521   5.213   1.979   6.959
 7874SOL    HW224522   5.312   1.989   6.830
 7875SOL     OW24523   4.274   2.919   6.455
 7875SOL    HW124524   4.192   2.936   6.510
 7875SOL    HW224525   4.349   2.977   6.488
 7876SOL     OW24526   1.398   6.932   4.219
 7876SOL    HW124527   1.470   6.862   4.224
 7876SOL    HW224528   1.378   6.965   4.312
 7877SOL     OW24529   0.998   2.035   2.722
 7877SOL    HW124530   0.936   2.025   2.644
 7877SOL    HW224531   1.021   1.945   2.758
 7878SOL     OW24532   5.442   4.537   4.975
 7878SOL    HW124533   5.344   4.557   4.977
 7878SOL    HW224534   5.477   4.549   4.882
 7879SOL     OW24535   4.123   5.491   3.570
 7879SOL    HW124536   4.189   5.416   3.564
 7879SOL    HW224537   4.146   5.562   3.503
 7880SOL     OW24538   2.134   5.462   0.927
 7880SOL    HW124539   2.045   5.423   0.952
 7880SOL    HW224540   2.159   5.430   0.836
 7881SOL     OW24541   6.563   5.005   4.951
 7881SOL    HW124542   6.472   4.964   4.951
 7881SOL    HW224543   6.569   5.072   4.877
 7882SOL     OW24544   1.274   3.049   2.047
 7882SOL    HW124545   1.271   3.105   2.130
 7882SOL    HW224546   1.327   2.966   2.065
 7883SOL     OW24547   0.963   0.445   0.559
 7883SOL    HW124548   1.045   0.496   0.534
 7883SOL    HW224549   0.883   0.490   0.522
 7884SOL     OW24550   2.100   3.721   4.776
 7884SOL    HW124551   2.134   3.688   4.688
 7884SOL    HW224552   2.001   3.734   4.771
 7885SOL     OW24553   6.285   5.221   1.347
 7885SOL    HW124554   6.367   5.175   1.380
 7885SOL    HW224555   6.206   5.188   1.398
 7886SOL     OW24556   3.643   5.273   6.935
 7886SOL    HW124557   3.682   5.181   6.930
 7886SOL    HW224558   3.553   5.269   6.977
 7887SOL     OW24559   3.717   2.371   5.575
 7887SOL    HW124560   3.771   2.389   5.657
 7887SOL    HW224561   3.773   2.390   5.494
 7888SOL     OW24562   6.597   6.939   5.330
 7888SOL    HW124563   6.664   6.925   5.258
 7888SOL    HW224564   6.508   6.903   5.301
 7889SOL     OW24565   1.819   5.154   1.062
 7889SOL    HW124566   1.838   5.204   1.147
 7889SOL    HW224567   1.721   5.159   1.042
 7890SOL     OW24568   1.941   2.473   2.780
 7890SOL    HW124569   1.910   2.553   2.830
 7890SOL    HW224570   1.976   2.501   2.690
 7891SOL     OW24571   1.797   3.580   3.833
 7891SOL    HW124572   1.791   3.500   3.893
 7891SOL    HW224573   1.706   3.610   3.807
 7892SOL     OW24574   1.858   0.823   3.837
 7892SOL    HW124575   1.869   0.764   3.917
 7892SOL    HW224576   1.865   0.768   3.754
 7893SOL     OW24577   6.954   6.175   2.877
 7893SOL    HW124578   6.920   6.182   2.783
 7893SOL    HW224579   6.904   6.102   2.925
 7894SOL     OW24580   3.434   6.885   0.807
 7894SOL    HW124581   3.511   6.839   0.763
 7894SOL    HW224582   3.468   6.959   0.865
 7895SOL     OW24583   6.324   0.571   5.471
 7895SOL    HW124584   6.395   0.513   5.430
 7895SOL    HW224585   6.327   0.561   5.570
 7896SOL     OW24586   4.951   4.035   0.173
 7896SOL    HW124587   5.030   4.078   0.130
 7896SOL    HW224588   4.874   4.034   0.108
 7897SOL     OW24589   2.488   4.284   6.996
 7897SOL    HW124590   2.563   4.280   0.039
 7897SOL    HW224591   2.474   4.193   6.957
 7898SOL     OW24592   4.483   1.854   3.266
 7898SOL    HW124593   4.448   1.773   3.313
 7898SOL    HW224594   4.581   1.845   3.251
 7899SOL     OW24595   5.614   1.174   1.337
 7899SOL    HW124596   5.643   1.150   1.430
 7899SOL    HW224597   5.533   1.121   1.313
 7900SOL     OW24598   1.556   5.087   1.549
 7900SOL    HW124599   1.600   5.176   1.536
 7900SOL    HW224600   1.621   5.024   1.591
 7901SOL     OW24601   4.892   1.596   6.683
 7901SOL    HW124602   4.971   1.654   6.699
 7901SOL    HW224603   4.871   1.595   6.585
 7902SOL     OW24604   5.162   6.772   1.137
 7902SOL    HW124605   5.187   6.684   1.175
 7902SOL    HW224606   5.232   6.840   1.159
 7903SOL     OW24607   5.514   1.439   0.596
 7903SOL    HW124608   5.490   1.366   0.660
 7903SOL    HW224609   5.436   1.501   0.584
 7904SOL     OW24610   5.435   6.644   3.587
 7904SOL    HW124611   5.377   6.714   3.627
 7904SOL    HW224612   5.530   6.676   3.587
 7905SOL     OW24613   4.454   2.511   6.948
 7905SOL    HW124614   4.499   2.505   0.014
 7905SOL    HW224615   4.358   2.485   6.957
 7906SOL     OW24616   6.880   5.780   0.530
 7906SOL    HW124617   6.962   5.837   0.539
 7906SOL    HW224618   6.799   5.834   0.548
 7907SOL     OW24619   5.277   2.753   3.268
 7907SOL    HW124620   5.283   2.849   3.241
 7907SOL    HW224621   5.181   2.726   3.277
 7908SOL     OW24622   0.685   1.836   5.602
 7908SOL    HW124623   0.586   1.846   5.606
 7908SOL    HW224624   0.713   1.817   5.507
 7909SOL     OW24625   5.531   3.647   4.671
 7909SOL    HW124626   5.544   3.706   4.751
 7909SOL    HW224627   5.597   3.671   4.600
 7910SOL     OW24628   2.522   3.632   5.898
 7910SOL    HW124629   2.576   3.549   5.886
 7910SOL    HW224630   2.473   3.652   5.812
 7911SOL     OW24631   1.631   2.946   7.021
 7911SOL    HW124632   1.540   2.936   6.980
 7911SOL    HW224633   1.655   2.862   0.047
 7912SOL     OW24634   6.513   4.746   0.183
 7912SOL    HW124635   6.585   4.709   0.241
 7912SOL    HW224636   6.512   4.846   0.189
 7913SOL     OW24637   1.811   4.885   1.016
 7913SOL    HW124638   1.801   4.854   0.921
 7913SOL    HW224639   1.830   4.983   1.018
 7914SOL     OW24640   0.065   3.852   0.262
 7914SOL    HW124641   0.145   3.909   0.249
 7914SOL    HW224642   7.018   3.876   0.194
 7915SOL     OW24643   5.037   3.130   2.198
 7915SOL    HW124644   5.110   3.106   2.134
 7915SOL    HW224645   4.963   3.176   2.148
 7916SOL     OW24646   0.730   3.991   5.209
 7916SOL    HW124647   0.691   4.024   5.295
 7916SOL    HW224648   0.830   3.987   5.217
 7917SOL     OW24649   3.569   4.178   4.489
 7917SOL    HW124650   3.562   4.186   4.588
 7917SOL    HW224651   3.478   4.181   4.448
 7918SOL     OW24652   6.700   1.707   6.473
 7918SOL    HW124653   6.745   1.760   6.545
 7918SOL    HW224654   6.715   1.610   6.488
 7919SOL     OW24655   2.227   4.338   2.105
 7919SOL    HW124656   2.194   4.280   2.030
 7919SOL    HW224657   2.155   4.349   2.173
 7920SOL     OW24658   0.488   5.515   0.705
 7920SOL    HW124659   0.414   5.572   0.742
 7920SOL    HW224660   0.575   5.547   0.743
 7921SOL     OW24661   5.247   6.507   0.781
 7921SOL    HW124662   5.190   6.465   0.711
 7921SOL    HW224663   5.200   6.585   0.822
 7922SOL     OW24664   6.599   6.526   6.923
 7922SOL    HW124665   6.599   6.597   6.994
 7922SOL    HW224666   6.693   6.498   6.904
 7923SOL     OW24667   3.292   0.673   2.122
 7923SOL    HW124668   3.226   0.606   2.088
 7923SOL    HW224669   3.336   0.638   2.205
 7924SOL     OW24670   4.103   7.021   2.074
 7924SOL    HW124671   4.057   6.933   2.090
 7924SOL    HW224672   4.097   0.021   1.977
 7925SOL     OW24673   0.705   1.857   6.531
 7925SOL    HW124674   0.743   1.892   6.617
 7925SOL    HW224675   0.750   1.902   6.454
 7926SOL     OW24676   5.107   1.730   5.157
 7926SOL    HW124677   5.067   1.806   5.209
 7926SOL    HW224678   5.113   1.756   5.060
 7927SOL     OW24679   4.108   5.041   3.541
 7927SOL    HW124680   4.173   4.978   3.499
 7927SOL    HW224681   4.031   5.055   3.480
 7928SOL     OW24682   1.010   2.078   4.631
 7928SOL    HW124683   0.934   2.133   4.596
 7928SOL    HW224684   0.983   1.981   4.631
 7929SOL     OW24685   4.137   4.136   5.638
 7929SOL    HW124686   4.100   4.085   5.716
 7929SOL    HW224687   4.235   4.146   5.649
 7930SOL     OW24688   4.122   5.333   4.162
 7930SOL    HW124689   4.050   5.358   4.098
 7930SOL    HW224690   4.097   5.248   4.209
 7931SOL     OW24691   1.324   1.958   6.410
 7931SOL    HW124692   1.314   1.957   6.509
 7931SOL    HW224693   1.356   1.869   6.378
 7932SOL     OW24694   2.058   5.975   6.566
 7932SOL    HW124695   2.096   6.055   6.521
 7932SOL    HW224696   2.017   5.914   6.498
 7933SOL     OW24697   7.021   5.769   6.677
 7933SOL    HW124698   6.929   5.803   6.658
 7933SOL    HW224699   0.061   5.847   6.683
 7934SOL     OW24700   2.601   4.682   0.302
 7934SOL    HW124701   2.680   4.700   0.242
 7934SOL    HW224702   2.556   4.769   0.324
 7935SOL     OW24703   5.626   6.285   0.072
 7935SOL    HW124704   5.614   6.237   0.160
 7935SOL    HW224705   5.703   6.348   0.079
 7936SOL     OW24706   3.927   6.203   2.306
 7936SOL    HW124707   3.975   6.218   2.219
 7936SOL    HW224708   3.869   6.122   2.298
 7937SOL     OW24709   6.586   6.764   3.688
 7937SOL    HW124710   6.519   6.738   3.757
 7937SOL    HW224711   6.562   6.719   3.601
 7938SOL     OW24712   6.311   5.494   5.097
 7938SOL    HW124713   6.381   5.425   5.076
 7938SOL    HW224714   6.274   5.531   5.012
 7939SOL     OW24715   1.100   2.590   5.304
 7939SOL    HW124716   1.121   2.678   5.346
 7939SOL    HW224717   1.176   2.561   5.246
 7940SOL     OW24718   1.914   4.007   2.062
 7940SOL    HW124719   2.003   3.969   2.087
 7940SOL    HW224720   1.857   3.935   2.022
 7941SOL     OW24721   6.218   0.570   0.520
 7941SOL    HW124722   6.308   0.604   0.550
 7941SOL    HW224723   6.183   0.505   0.588
 7942SOL     OW24724   6.478   5.594   2.556
 7942SOL    HW124725   6.492   5.681   2.603
 7942SOL    HW224726   6.380   5.574   2.551
 7943SOL     OW24727   5.925   2.903   0.285
 7943SOL    HW124728   6.013   2.862   0.311
 7943SOL    HW224729   5.927   3.001   0.308
 7944SOL     OW24730   0.852   2.575   1.591
 7944SOL    HW124731   0.877   2.478   1.580
 7944SOL    HW224732   0.760   2.590   1.556
 7945SOL     OW24733   5.853   5.992   1.799
 7945SOL    HW124734   5.838   6.036   1.711
 7945SOL    HW224735   5.930   5.928   1.792
 7946SOL     OW24736   2.593   1.755   5.437
 7946SOL    HW124737   2.568   1.766   5.340
 7946SOL    HW224738   2.643   1.836   5.467
 7947SOL     OW24739   3.389   2.099   6.386
 7947SOL    HW124740   3.314   2.065   6.330
 7947SOL    HW224741   3.471   2.043   6.371
 7948SOL     OW24742   1.211   6.309   0.803
 7948SOL    HW124743   1.186   6.304   0.899
 7948SOL    HW224744   1.296   6.360   0.793
 7949SOL     OW24745   4.825   4.537   4.300
 7949SOL    HW124746   4.884   4.522   4.379
 7949SOL    HW224747   4.740   4.485   4.311
 7950SOL     OW24748   6.047   5.042   4.959
 7950SOL    HW124749   5.968   5.007   4.909
 7950SOL    HW224750   6.023   5.128   5.004
 7951SOL     OW24751   2.283   4.214   1.629
 7951SOL    HW124752   2.356   4.146   1.635
 7951SOL    HW224753   2.223   4.191   1.552
 7952SOL     OW24754   0.888   3.207   6.844
 7952SOL    HW124755   0.797   3.247   6.834
 7952SOL    HW224756   0.881   3.107   6.841
 7953SOL     OW24757   1.966   2.551   3.615
 7953SOL    HW124758   1.990   2.537   3.519
 7953SOL    HW224759   1.868   2.571   3.622
 7954SOL     OW24760   4.745   4.154   4.985
 7954SOL    HW124761   4.715   4.123   4.895
 7954SOL    HW224762   4.807   4.232   4.975
 7955SOL     OW24763   1.288   6.238   6.799
 7955SOL    HW124764   1.230   6.312   6.767
 7955SOL    HW224765   1.345   6.205   6.724
 7956SOL     OW24766   3.636   6.018   2.691
 7956SOL    HW124767   3.681   6.100   2.655
 7956SOL    HW224768   3.682   5.989   2.776
 7957SOL     OW24769   1.043   0.953   1.738
 7957SOL    HW124770   1.001   1.041   1.716
 7957SOL    HW224771   0.979   0.879   1.715
 7958SOL     OW24772   3.465   5.153   4.344
 7958SOL    HW124773   3.546   5.209   4.326
 7958SOL    HW224774   3.396   5.170   4.273
 7959SOL     OW24775   3.976   5.700   0.953
 7959SOL    HW124776   3.907   5.648   0.903
 7959SOL    HW224777   3.946   5.795   0.961
 7960SOL     OW24778   3.307   1.384   0.612
 7960SOL    HW124779   3.381   1.368   0.547
 7960SOL    HW224780   3.218   1.375   0.566
 7961SOL     OW24781   0.641   6.994   1.239
 7961SOL    HW124782   0.600   6.927   1.302
 7961SOL    HW224783   0.578   7.011   1.163
 7962SOL     OW24784   1.811   0.160   6.851
 7962SOL    HW124785   1.847   0.148   6.759
 7962SOL    HW224786   1.750   0.083   6.873
 7963SOL     OW24787   0.124   1.183   3.698
 7963SOL    HW124788   0.101   1.255   3.632
 7963SOL    HW224789   0.061   1.106   3.687
 7964SOL     OW24790   0.277   4.947   3.869
 7964SOL    HW124791   0.225   5.013   3.816
 7964SOL    HW224792   0.360   4.990   3.905
 7965SOL     OW24793   3.620   3.053   6.668
 7965SOL    HW124794   3.705   3.099   6.694
 7965SOL    HW224795   3.565   3.113   6.610
 7966SOL     OW24796   0.574   2.997   5.497
 7966SOL    HW124797   0.558   2.976   5.400
 7966SOL    HW224798   0.619   3.087   5.504
 7967SOL     OW24799   2.784   5.937   4.021
 7967SOL    HW124800   2.851   5.993   4.070
 7967SOL    HW224801   2.692   5.964   4.049
 7968SOL     OW24802   2.453   2.059   2.973
 7968SOL    HW124803   2.519   2.058   2.898
 7968SOL    HW224804   2.495   2.020   3.055
 7969SOL     OW24805   4.375   6.354   1.088
 7969SOL    HW124806   4.344   6.448   1.074
 7969SOL    HW224807   4.453   6.336   1.028
 7970SOL     OW24808   0.622   2.926   3.416
 7970SOL    HW124809   0.538   2.948   3.466
 7970SOL    HW224810   0.699   2.924   3.479
 7971SOL     OW24811   4.496   1.419   0.798
 7971SOL    HW124812   4.476   1.476   0.877
 7971SOL    HW224813   4.434   1.340   0.797
 7972SOL     OW24814   1.569   3.441   1.306
 7972SOL    HW124815   1.548   3.504   1.231
 7972SOL    HW224816   1.667   3.446   1.327
 7973SOL     OW24817   5.321   4.196   3.546
 7973SOL    HW124818   5.396   4.132   3.557
 7973SOL    HW224819   5.289   4.226   3.636
 7974SOL     OW24820   5.922   1.227   5.269
 7974SOL    HW124821   5.923   1.320   5.306
 7974SOL    HW224822   5.858   1.171   5.321
 7975SOL     OW24823   5.644   0.729   2.735
 7975SOL    HW124824   5.672   0.727   2.831
 7975SOL    HW224825   5.545   0.731   2.729
 7976SOL     OW24826   0.781   0.507   6.509
 7976SOL    HW124827   0.715   0.442   6.471
 7976SOL    HW224828   0.736   0.564   6.577
 7977SOL     OW24829   5.004   5.842   1.592
 7977SOL    HW124830   5.028   5.938   1.580
 7977SOL    HW224831   4.906   5.835   1.611
 7978SOL     OW24832   5.758   3.985   6.040
 7978SOL    HW124833   5.700   3.916   6.084
 7978SOL    HW224834   5.850   3.949   6.028
 7979SOL     OW24835   3.046   7.006   5.267
 7979SOL    HW124836   3.119   6.941   5.288
 7979SOL    HW224837   3.017   0.030   5.351
 7980SOL     OW24838   2.604   5.667   6.964
 7980SOL    HW124839   2.665   5.722   7.020
 7980SOL    HW224840   2.622   5.684   6.867
 7981SOL     OW24841   0.550   5.412   1.730
 7981SOL    HW124842   0.492   5.335   1.755
 7981SOL    HW224843   0.527   5.491   1.788
 7982SOL     OW24844   0.147   1.828   0.270
 7982SOL    HW124845   0.154   1.731   0.245
 7982SOL    HW224846   0.100   1.836   0.358
 7983SOL     OW24847   5.610   1.577   2.332
 7983SOL    HW124848   5.627   1.567   2.234
 7983SOL    HW224849   5.511   1.576   2.348
 7984SOL     OW24850   1.512   2.008   1.596
 7984SOL    HW124851   1.570   2.089   1.602
 7984SOL    HW224852   1.559   1.937   1.542
 7985SOL     OW24853   2.472   6.691   3.849
 7985SOL    HW124854   2.418   6.608   3.837
 7985SOL    HW224855   2.510   6.719   3.760
 7986SOL     OW24856   3.320   0.620   6.685
 7986SOL    HW124857   3.399   0.665   6.726
 7986SOL    HW224858   3.242   0.682   6.685
 7987SOL     OW24859   1.358   3.760   0.087
 7987SOL    HW124860   1.450   3.755   0.124
 7987SOL    HW224861   1.299   3.695   0.134
 7988SOL     OW24862   1.383   2.299   3.735
 7988SOL    HW124863   1.421   2.359   3.664
 7988SOL    HW224864   1.353   2.213   3.693
 7989SOL     OW24865   3.725   2.757   5.532
 7989SOL    HW124866   3.629   2.781   5.523
 7989SOL    HW224867   3.780   2.818   5.475
 7990SOL     OW24868   6.956   3.335   3.248
 7990SOL    HW124869   6.951   3.415   3.189
 7990SOL    HW224870   6.936   3.253   3.195
 7991SOL     OW24871   6.750   0.407   3.755
 7991SOL    HW124872   6.675   0.440   3.813
 7991SOL    HW224873   6.828   0.382   3.813
 7992SOL     OW24874   1.122   6.764   1.376
 7992SOL    HW124875   1.178   6.688   1.343
 7992SOL    HW224876   1.181   6.842   1.396
 7993SOL     OW24877   1.411   5.872   6.530
 7993SOL    HW124878   1.507   5.877   6.502
 7993SOL    HW224879   1.365   5.799   6.481
 7994SOL     OW24880   5.015   0.088   2.943
 7994SOL    HW124881   4.975   0.093   2.851
 7994SOL    HW224882   4.944   0.108   3.011
 7995SOL     OW24883   4.397   5.006   3.220
 7995SOL    HW124884   4.462   4.935   3.194
 7995SOL    HW224885   4.393   5.076   3.149
 7996SOL     OW24886   2.632   0.397   4.462
 7996SOL    HW124887   2.629   0.328   4.389
 7996SOL    HW224888   2.724   0.435   4.469
 7997SOL     OW24889   0.487   0.943   1.373
 7997SOL    HW124890   0.437   0.865   1.409
 7997SOL    HW224891   0.539   0.915   1.292
 7998SOL     OW24892   3.643   5.176   0.879
 7998SOL    HW124893   3.725   5.133   0.917
 7998SOL    HW224894   3.568   5.110   0.879
 7999SOL     OW24895   1.367   6.740   6.264
 7999SOL    HW124896   1.419   6.807   6.316
 7999SOL    HW224897   1.398   6.648   6.289
 8000SOL     OW24898   5.151   6.824   0.248
 8000SOL    HW124899   5.234   6.796   0.297
 8000SOL    HW224900   5.169   6.821   0.149
 8001SOL     OW24901   3.424   5.690   0.943
 8001SOL    HW124902   3.382   5.718   1.029
 8001SOL    HW224903   3.412   5.761   0.875
 8002SOL     OW24904   1.035   2.430   5.631
 8002SOL    HW124905   1.034   2.530   5.630
 8002SOL    HW224906   0.993   2.396   5.547
 8003SOL     OW24907   2.943   4.771   2.660
 8003SOL    HW124908   2.908   4.689   2.616
 8003SOL    HW224909   2.869   4.817   2.710
 8004SOL     OW24910   2.068   3.587   3.845
 8004SOL    HW124911   1.969   3.589   3.854
 8004SOL    HW224912   2.093   3.586   3.748
 8005SOL     OW24913   3.252   0.976   2.621
 8005SOL    HW124914   3.238   1.070   2.592
 8005SOL    HW224915   3.317   0.973   2.697
 8006SOL     OW24916   2.242   6.965   6.727
 8006SOL    HW124917   2.257   6.925   6.636
 8006SOL    HW224918   2.330   6.978   6.772
 8007SOL     OW24919   0.412   0.921   4.270
 8007SOL    HW124920   0.487   0.955   4.327
 8007SOL    HW224921   0.448   0.881   4.186
 8008SOL     OW24922   4.315   6.166   5.865
 8008SOL    HW124923   4.264   6.188   5.948
 8008SOL    HW224924   4.257   6.182   5.785
 8009SOL     OW24925   5.943   0.814   2.697
 8009SOL    HW124926   5.862   0.754   2.696
 8009SOL    HW224927   6.003   0.790   2.621
 8010SOL     OW24928   0.904   1.368   0.687
 8010SOL    HW124929   0.819   1.328   0.720
 8010SOL    HW224930   0.884   1.445   0.626
 8011SOL     OW24931   3.153   2.575   1.053
 8011SOL    HW124932   3.191   2.553   1.143
 8011SOL    HW224933   3.226   2.605   0.992
 8012SOL     OW24934   1.697   5.370   1.888
 8012SOL    HW124935   1.602   5.346   1.908
 8012SOL    HW224936   1.733   5.309   1.818
 8013SOL     OW24937   1.346   4.487   3.285
 8013SOL    HW124938   1.334   4.477   3.186
 8013SOL    HW224939   1.302   4.410   3.332
 8014SOL     OW24940   1.050   6.211   5.353
 8014SOL    HW124941   1.063   6.310   5.347
 8014SOL    HW224942   0.954   6.189   5.342
 8015SOL     OW24943   2.644   0.862   0.463
 8015SOL    HW124944   2.600   0.937   0.513
 8015SOL    HW224945   2.743   0.877   0.461
 8016SOL     OW24946   4.737   0.057   6.676
 8016SOL    HW124947   4.776   0.081   6.765
 8016SOL    HW224948   4.642   0.029   6.688
 8017SOL     OW24949   6.776   6.487   0.413
 8017SOL    HW124950   6.870   6.457   0.429
 8017SOL    HW224951   6.774   6.587   0.402
 8018SOL     OW24952   3.315   2.364   6.011
 8018SOL    HW124953   3.299   2.409   6.098
 8018SOL    HW224954   3.370   2.423   5.952
 8019SOL     OW24955   2.191   3.836   6.376
 8019SOL    HW124956   2.107   3.787   6.399
 8019SOL    HW224957   2.172   3.902   6.302
 8020SOL     OW24958   6.149   5.981   0.965
 8020SOL    HW124959   6.222   6.044   0.939
 8020SOL    HW224960   6.106   5.944   0.883
 8021SOL     OW24961   1.241   1.760   1.801
 8021SOL    HW124962   1.199   1.744   1.711
 8021SOL    HW224963   1.314   1.694   1.816
 8022SOL     OW24964   4.534   0.101   2.969
 8022SOL    HW124965   4.514   0.003   2.969
 8022SOL    HW224966   4.498   0.143   3.052
 8023SOL     OW24967   6.126   5.236   3.472
 8023SOL    HW124968   6.028   5.224   3.486
 8023SOL    HW224969   6.176   5.174   3.533
 8024SOL     OW24970   2.892   5.356   0.130
 8024SOL    HW124971   2.900   5.274   0.185
 8024SOL    HW224972   2.892   5.332   0.033
 8025SOL     OW24973   2.220   6.208   6.520
 8025SOL    HW124974   2.265   6.203   6.431
 8025SOL    HW224975   2.282   6.176   6.591
 8026SOL     OW24976   0.792   4.387   6.579
 8026SOL    HW124977   0.813   4.353   6.671
 8026SOL    HW224978   0.864   4.449   6.549
 8027SOL     OW24979   4.413   1.901   5.265
 8027SOL    HW124980   4.493   1.841   5.272
 8027SOL    HW224981   4.377   1.897   5.171
 8028SOL     OW24982   3.146   4.935   4.633
 8028SOL    HW124983   3.135   4.944   4.534
 8028SOL    HW224984   3.056   4.944   4.676
 8029SOL     OW24985   4.818   2.969   0.908
 8029SOL    HW124986   4.803   2.884   0.959
 8029SOL    HW224987   4.730   3.013   0.891
 8030SOL     OW24988   4.473   4.277   6.735
 8030SOL    HW124989   4.448   4.247   6.643
 8030SOL    HW224990   4.398   4.257   6.799
 8031SOL     OW24991   5.113   6.237   2.908
 8031SOL    HW124992   5.183   6.305   2.887
 8031SOL    HW224993   5.154   6.161   2.959
 8032SOL     OW24994   5.416   4.170   5.939
 8032SOL    HW124995   5.492   4.217   5.984
 8032SOL    HW224996   5.420   4.186   5.840
 8033SOL     OW24997   5.020   3.614   6.402
 8033SOL    HW124998   4.923   3.634   6.389
 8033SOL    HW224999   5.059   3.577   6.318
 8034SOL     OW25000   6.448   0.902   4.735
 8034SOL    HW125001   6.530   0.846   4.749
 8034SOL    HW225002   6.458   0.953   4.649
 8035SOL     OW25003   5.059   1.795   4.539
 8035SOL    HW125004   5.093   1.889   4.538
 8035SOL    HW225005   5.051   1.763   4.634
 8036SOL     OW25006   0.699   4.550   2.699
 8036SOL    HW125007   0.622   4.497   2.663
 8036SOL    HW225008   0.739   4.501   2.777
 8037SOL     OW25009   2.236   3.038   1.660
 8037SOL    HW125010   2.211   3.133   1.682
 8037SOL    HW225011   2.191   3.011   1.575
 8038SOL     OW25012   4.808   0.733   3.146
 8038SOL    HW125013   4.852   0.771   3.065
 8038SOL    HW225014   4.751   0.803   3.189
 8039SOL     OW25015   0.958   1.129   4.240
 8039SOL    HW125016   1.033   1.160   4.182
 8039SOL    HW225017   0.879   1.190   4.229
 8040SOL     OW25018   1.619   6.085   0.462
 8040SOL    HW125019   1.702   6.104   0.409
 8040SOL    HW225020   1.562   6.167   0.465
 8041SOL     OW25021   3.005   1.762   1.949
 8041SOL    HW125022   3.102   1.742   1.941
 8041SOL    HW225023   2.980   1.832   1.881
 8042SOL     OW25024   3.623   2.905   4.018
 8042SOL    HW125025   3.690   2.922   3.946
 8042SOL    HW225026   3.668   2.907   4.107
 8043SOL     OW25027   3.647   6.984   2.451
 8043SOL    HW125028   3.670   6.905   2.508
 8043SOL    HW225029   3.707   6.986   2.371
 8044SOL     OW25030   3.664   2.986   0.661
 8044SOL    HW125031   3.764   2.988   0.656
 8044SOL    HW225032   3.626   2.996   0.569
 8045SOL     OW25033   5.427   0.957   1.386
 8045SOL    HW125034   5.340   0.993   1.418
 8045SOL    HW225035   5.455   0.880   1.444
 8046SOL     OW25036   6.600   5.190   0.350
 8046SOL    HW125037   6.647   5.225   0.431
 8046SOL    HW225038   6.611   5.254   0.274
 8047SOL     OW25039   3.386   5.501   4.565
 8047SOL    HW125040   3.466   5.522   4.620
 8047SOL    HW225041   3.304   5.533   4.613
 8048SOL     OW25042   5.762   0.255   6.075
 8048SOL    HW125043   5.737   0.263   5.979
 8048SOL    HW225044   5.824   0.330   6.099
 8049SOL     OW25045   0.931   0.175   0.647
 8049SOL    HW125046   0.952   0.265   0.608
 8049SOL    HW225047   0.856   0.133   0.596
 8050SOL     OW25048   1.594   3.833   2.674
 8050SOL    HW125049   1.655   3.799   2.603
 8050SOL    HW225050   1.583   3.764   2.745
 8051SOL     OW25051   4.954   5.790   2.970
 8051SOL    HW125052   5.038   5.822   3.013
 8051SOL    HW225053   4.876   5.814   3.027
 8052SOL     OW25054   4.651   1.231   2.152
 8052SOL    HW125055   4.700   1.311   2.186
 8052SOL    HW225056   4.701   1.148   2.177
 8053SOL     OW25057   3.068   3.925   3.711
 8053SOL    HW125058   3.159   3.962   3.693
 8053SOL    HW225059   3.026   3.897   3.625
 8054SOL     OW25060   5.039   0.349   4.751
 8054SOL    HW125061   5.137   0.359   4.739
 8054SOL    HW225062   4.993   0.433   4.720
 8055SOL     OW25063   0.067   0.403   5.643
 8055SOL    HW125064   0.150   0.350   5.657
 8055SOL    HW225065   0.009   0.357   5.575
 8056SOL     OW25066   4.301   2.099   4.273
 8056SOL    HW125067   4.212   2.054   4.264
 8056SOL    HW225068   4.288   2.192   4.306
 8057SOL     OW25069   3.163   1.806   2.820
 8057SOL    HW125070   3.151   1.904   2.805
 8057SOL    HW225071   3.086   1.756   2.780
 8058SOL     OW25072   4.512   0.668   2.621
 8058SOL    HW125073   4.589   0.731   2.627
 8058SOL    HW225074   4.478   0.647   2.713
 8059SOL     OW25075   4.484   2.473   4.627
 8059SOL    HW125076   4.507   2.383   4.590
 8059SOL    HW225077   4.458   2.464   4.724
 8060SOL     OW25078   0.952   2.607   4.177
 8060SOL    HW125079   0.906   2.524   4.146
 8060SOL    HW225080   0.957   2.673   4.102
 8061SOL     OW25081   6.701   0.231   2.014
 8061SOL    HW125082   6.695   0.274   2.104
 8061SOL    HW225083   6.679   0.134   2.022
 8062SOL     OW25084   2.780   5.380   4.497
 8062SOL    HW125085   2.724   5.298   4.486
 8062SOL    HW225086   2.738   5.455   4.446
 8063SOL     OW25087   0.928   2.895   0.394
 8063SOL    HW125088   0.978   2.887   0.480
 8063SOL    HW225089   0.979   2.954   0.331
 8064SOL     OW25090   0.220   5.134   0.930
 8064SOL    HW125091   0.170   5.219   0.944
 8064SOL    HW225092   0.318   5.151   0.936
 8065SOL     OW25093   3.826   6.018   4.490
 8065SOL    HW125094   3.812   5.920   4.474
 8065SOL    HW225095   3.791   6.043   4.580
 8066SOL     OW25096   0.891   2.357   6.282
 8066SOL    HW125097   0.914   2.425   6.212
 8066SOL    HW225098   0.928   2.268   6.254
 8067SOL     OW25099   5.021   2.964   1.483
 8067SOL    HW125100   4.970   2.968   1.569
 8067SOL    HW225101   4.957   2.954   1.407
 8068SOL     OW25102   6.093   4.457   0.316
 8068SOL    HW125103   6.154   4.496   0.248
 8068SOL    HW225104   6.086   4.358   0.302
 8069SOL     OW25105   2.099   6.453   1.176
 8069SOL    HW125106   2.073   6.405   1.260
 8069SOL    HW225107   2.056   6.543   1.174
 8070SOL     OW25108   2.810   2.949   0.226
 8070SOL    HW125109   2.734   2.894   0.193
 8070SOL    HW225110   2.775   3.028   0.276
 8071SOL     OW25111   3.229   6.819   4.807
 8071SOL    HW125112   3.158   6.825   4.877
 8071SOL    HW225113   3.210   6.743   4.746
 8072SOL     OW25114   3.489   0.955   6.771
 8072SOL    HW125115   3.502   0.859   6.794
 8072SOL    HW225116   3.501   0.967   6.672
 8073SOL     OW25117   4.167   5.516   5.792
 8073SOL    HW125118   4.133   5.460   5.716
 8073SOL    HW225119   4.159   5.613   5.769
 8074SOL     OW25120   3.120   2.689   0.560
 8074SOL    HW125121   3.127   2.773   0.506
 8074SOL    HW225122   3.183   2.693   0.637
 8075SOL     OW25123   6.483   1.257   0.541
 8075SOL    HW125124   6.438   1.228   0.626
 8075SOL    HW225125   6.414   1.266   0.469
 8076SOL     OW25126   4.774   2.378   5.627
 8076SOL    HW125127   4.782   2.443   5.552
 8076SOL    HW225128   4.683   2.336   5.625
 8077SOL     OW25129   1.689   5.577   2.339
 8077SOL    HW125130   1.633   5.498   2.313
 8077SOL    HW225131   1.634   5.660   2.333
 8078SOL     OW25132   5.638   1.089   0.831
 8078SOL    HW125133   5.657   1.002   0.876
 8078SOL    HW225134   5.678   1.163   0.886
 8079SOL     OW25135   5.200   1.406   3.580
 8079SOL    HW125136   5.153   1.347   3.514
 8079SOL    HW225137   5.266   1.463   3.532
 8080SOL     OW25138   0.195   3.373   0.222
 8080SOL    HW125139   0.235   3.327   0.143
 8080SOL    HW225140   0.264   3.434   0.263
 8081SOL     OW25141   5.050   0.162   4.476
 8081SOL    HW125142   5.127   0.110   4.439
 8081SOL    HW225143   5.016   0.117   4.559
 8082SOL     OW25144   5.791   0.547   1.892
 8082SOL    HW125145   5.793   0.647   1.893
 8082SOL    HW225146   5.699   0.515   1.912
 8083SOL     OW25147   5.618   3.335   2.527
 8083SOL    HW125148   5.672   3.282   2.593
 8083SOL    HW225149   5.524   3.302   2.527
 8084SOL     OW25150   5.150   0.078   0.160
 8084SOL    HW125151   5.179   0.052   0.068
 8084SOL    HW225152   5.141   7.019   0.216
 8085SOL     OW25153   6.196   0.299   2.949
 8085SOL    HW125154   6.153   0.279   3.037
 8085SOL    HW225155   6.230   0.393   2.950
 8086SOL     OW25156   4.874   1.119   3.905
 8086SOL    HW125157   4.889   1.203   3.956
 8086SOL    HW225158   4.881   1.041   3.968
 8087SOL     OW25159   2.525   1.186   0.948
 8087SOL    HW125160   2.431   1.169   0.917
 8087SOL    HW225161   2.551   1.117   1.015
 8088SOL     OW25162   5.552   2.320   1.224
 8088SOL    HW125163   5.626   2.319   1.292
 8088SOL    HW225164   5.522   2.414   1.210
 8089SOL     OW25165   5.028   2.418   0.050
 8089SOL    HW125166   5.022   2.518   0.053
 8089SOL    HW225167   5.120   2.391   0.024
 8090SOL     OW25168   3.990   2.161   6.702
 8090SOL    HW125169   3.991   2.158   6.602
 8090SOL    HW225170   4.050   2.235   6.734
 8091SOL     OW25171   2.339   4.243   6.360
 8091SOL    HW125172   2.387   4.157   6.346
 8091SOL    HW225173   2.393   4.301   6.421
 8092SOL     OW25174   0.258   2.478   5.032
 8092SOL    HW125175   0.305   2.498   4.946
 8092SOL    HW225176   0.263   2.380   5.050
 8093SOL     OW25177   4.696   5.947   2.473
 8093SOL    HW125178   4.677   5.920   2.568
 8093SOL    HW225179   4.634   5.897   2.412
 8094SOL     OW25180   1.478   3.862   4.857
 8094SOL    HW125181   1.499   3.790   4.923
 8094SOL    HW225182   1.433   3.821   4.777
 8095SOL     OW25183   5.785   4.122   4.162
 8095SOL    HW125184   5.855   4.099   4.229
 8095SOL    HW225185   5.829   4.158   4.080
 8096SOL     OW25186   3.359   5.630   3.820
 8096SOL    HW125187   3.300   5.605   3.742
 8096SOL    HW225188   3.359   5.730   3.830
 8097SOL     OW25189   5.150   6.485   3.292
 8097SOL    HW125190   5.117   6.477   3.198
 8097SOL    HW225191   5.125   6.575   3.328
 8098SOL     OW25192   2.227   6.675   4.011
 8098SOL    HW125193   2.318   6.711   3.991
 8098SOL    HW225194   2.159   6.727   3.958
 8099SOL     OW25195   4.909   6.761   4.145
 8099SOL    HW125196   4.976   6.719   4.206
 8099SOL    HW225197   4.902   6.859   4.165
 8100SOL     OW25198   6.807   0.281   6.940
 8100SOL    HW125199   6.874   0.215   6.907
 8100SOL    HW225200   6.721   0.268   6.891
 8101SOL     OW25201   2.085   0.358   3.896
 8101SOL    HW125202   2.109   0.263   3.876
 8101SOL    HW225203   2.168   0.407   3.926
 8102SOL     OW25204   0.501   4.494   4.724
 8102SOL    HW125205   0.493   4.535   4.633
 8102SOL    HW225206   0.484   4.564   4.794
 8103SOL     OW25207   4.626   0.585   0.884
 8103SOL    HW125208   4.581   0.674   0.875
 8103SOL    HW225209   4.577   0.517   0.829
 8104SOL     OW25210   2.582   6.964   6.145
 8104SOL    HW125211   2.624   6.972   6.055
 8104SOL    HW225212   2.607   6.876   6.186
 8105SOL     OW25213   1.508   2.476   3.114
 8105SOL    HW125214   1.511   2.445   3.019
 8105SOL    HW225215   1.563   2.559   3.124
 8106SOL     OW25216   3.075   5.900   3.194
 8106SOL    HW125217   3.013   5.821   3.195
 8106SOL    HW225218   3.169   5.867   3.189
 8107SOL     OW25219   0.685   5.201   5.008
 8107SOL    HW125220   0.627   5.123   4.986
 8107SOL    HW225221   0.762   5.206   4.945
 8108SOL     OW25222   6.049   3.344   4.917
 8108SOL    HW125223   6.113   3.415   4.888
 8108SOL    HW225224   6.093   3.286   4.986
 8109SOL     OW25225   1.245   3.437   4.304
 8109SOL    HW125226   1.280   3.437   4.398
 8109SOL    HW225227   1.188   3.355   4.290
 8110SOL     OW25228   3.497   6.063   0.633
 8110SOL    HW125229   3.577   6.027   0.585
 8110SOL    HW225230   3.486   6.160   0.610
 8111SOL     OW25231   4.528   1.156   5.263
 8111SOL    HW125232   4.577   1.206   5.334
 8111SOL    HW225233   4.548   1.196   5.174
 8112SOL     OW25234   1.897   1.838   4.372
 8112SOL    HW125235   1.845   1.811   4.454
 8112SOL    HW225236   1.836   1.841   4.293
 8113SOL     OW25237   3.226   3.152   0.746
 8113SOL    HW125238   3.237   3.178   0.650
 8113SOL    HW225239   3.129   3.152   0.770
 8114SOL     OW25240   2.491   3.422   1.416
 8114SOL    HW125241   2.468   3.518   1.398
 8114SOL    HW225242   2.412   3.376   1.458
 8115SOL     OW25243   4.182   0.548   1.406
 8115SOL    HW125244   4.119   0.542   1.484
 8115SOL    HW225245   4.234   0.634   1.412
 8116SOL     OW25246   5.207   6.483   5.180
 8116SOL    HW125247   5.250   6.523   5.099
 8116SOL    HW225248   5.173   6.556   5.239
 8117SOL     OW25249   2.511   1.153   3.845
 8117SOL    HW125250   2.514   1.053   3.847
 8117SOL    HW225251   2.423   1.184   3.809
 8118SOL     OW25252   6.291   2.868   5.615
 8118SOL    HW125253   6.304   2.771   5.591
 8118SOL    HW225254   6.380   2.910   5.632
 8119SOL     OW25255   6.508   5.877   5.096
 8119SOL    HW125256   6.548   5.860   5.007
 8119SOL    HW225257   6.492   5.790   5.143
 8120SOL     OW25258   3.490   4.613   0.091
 8120SOL    HW125259   3.399   4.655   0.083
 8120SOL    HW225260   3.488   4.522   0.051
 8121SOL     OW25261   6.856   5.260   2.135
 8121SOL    HW125262   6.928   5.212   2.184
 8121SOL    HW225263   6.850   5.354   2.169
 8122SOL     OW25264   1.510   5.591   2.724
 8122SOL    HW125265   1.531   5.666   2.662
 8122SOL    HW225266   1.464   5.626   2.806
 8123SOL     OW25267   0.210   0.119   6.692
 8123SOL    HW125268   0.293   0.072   6.723
 8123SOL    HW225269   0.235   0.207   6.651
 8124SOL     OW25270   0.172   6.124   0.735
 8124SOL    HW125271   0.209   6.200   0.789
 8124SOL    HW225272   0.073   6.135   0.725
 8125SOL     OW25273   0.929   0.018   2.923
 8125SOL    HW125274   0.852   0.038   2.983
 8125SOL    HW225275   1.009   0.071   2.953
 8126SOL     OW25276   6.219   4.092   2.206
 8126SOL    HW125277   6.201   4.140   2.121
 8126SOL    HW225278   6.311   4.052   2.203
 8127SOL     OW25279   2.651   5.881   0.595
 8127SOL    HW125280   2.575   5.946   0.593
 8127SOL    HW225281   2.737   5.929   0.576
 8128SOL     OW25282   2.667   3.339   1.049
 8128SOL    HW125283   2.606   3.262   1.036
 8128SOL    HW225284   2.715   3.330   1.136
 8129SOL     OW25285   4.035   0.792   5.523
 8129SOL    HW125286   4.123   0.838   5.533
 8129SOL    HW225287   4.006   0.755   5.611
 8130SOL     OW25288   0.179   5.022   6.666
 8130SOL    HW125289   0.109   5.063   6.608
 8130SOL    HW225290   0.140   5.005   6.757
 8131SOL     OW25291   3.377   1.020   0.892
 8131SOL    HW125292   3.394   0.935   0.943
 8131SOL    HW225293   3.424   1.096   0.937
 8132SOL     OW25294   5.326   6.204   6.681
 8132SOL    HW125295   5.423   6.226   6.676
 8132SOL    HW225296   5.274   6.269   6.626
 8133SOL     OW25297   3.471   4.998   1.814
 8133SOL    HW125298   3.522   4.913   1.825
 8133SOL    HW225299   3.515   5.054   1.743
 8134SOL     OW25300   0.816   1.832   4.621
 8134SOL    HW125301   0.849   1.741   4.593
 8134SOL    HW225302   0.795   1.831   4.718
 8135SOL     OW25303   2.219   5.892   1.181
 8135SOL    HW125304   2.181   5.981   1.154
 8135SOL    HW225305   2.230   5.835   1.100
 8136SOL     OW25306   4.689   4.655   2.828
 8136SOL    HW125307   4.629   4.711   2.771
 8136SOL    HW225308   4.772   4.633   2.777
 8137SOL     OW25309   2.531   1.292   4.687
 8137SOL    HW125310   2.455   1.253   4.635
 8137SOL    HW225311   2.506   1.383   4.719
 8138SOL     OW25312   5.682   1.976   0.608
 8138SOL    HW125313   5.722   1.921   0.535
 8138SOL    HW225314   5.596   1.934   0.638
 8139SOL     OW25315   1.902   2.104   3.655
 8139SOL    HW125316   1.828   2.161   3.692
 8139SOL    HW225317   1.933   2.143   3.569
 8140SOL     OW25318   3.837   0.154   0.238
 8140SOL    HW125319   3.819   0.056   0.236
 8140SOL    HW225320   3.849   0.188   0.144
 8141SOL     OW25321   4.336   6.955   5.574
 8141SOL    HW125322   4.273   6.920   5.643
 8141SOL    HW225323   4.293   0.006   5.523
 8142SOL     OW25324   1.711   5.206   0.353
 8142SOL    HW125325   1.747   5.116   0.380
 8142SOL    HW225326   1.777   5.277   0.376
 8143SOL     OW25327   5.676   5.531   0.287
 8143SOL    HW125328   5.727   5.517   0.202
 8143SOL    HW225329   5.585   5.492   0.277
 8144SOL     OW25330   0.641   5.702   5.707
 8144SOL    HW125331   0.558   5.757   5.697
 8144SOL    HW225332   0.709   5.732   5.640
 8145SOL     OW25333   5.254   5.874   0.641
 8145SOL    HW125334   5.189   5.900   0.712
 8145SOL    HW225335   5.327   5.818   0.681
 8146SOL     OW25336   5.194   0.125   5.494
 8146SOL    HW125337   5.285   0.166   5.486
 8146SOL    HW225338   5.164   0.092   5.405
 8147SOL     OW25339   6.065   0.769   1.034
 8147SOL    HW125340   6.036   0.770   0.939
 8147SOL    HW225341   6.108   0.682   1.056
 8148SOL     OW25342   5.081   5.197   0.272
 8148SOL    HW125343   5.082   5.105   0.234
 8148SOL    HW225344   4.987   5.225   0.292
 8149SOL     OW25345   1.844   6.773   3.624
 8149SOL    HW125346   1.753   6.763   3.666
 8149SOL    HW225347   1.870   6.688   3.579
 8150SOL     OW25348   1.288   3.906   0.988
 8150SOL    HW125349   1.364   3.960   1.025
 8150SOL    HW225350   1.219   3.968   0.950
 8151SOL     OW25351   5.858   5.183   3.504
 8151SOL    HW125352   5.820   5.221   3.588
 8151SOL    HW225353   5.834   5.241   3.427
 8152SOL     OW25354   5.963   3.123   3.333
 8152SOL    HW125355   5.917   3.174   3.260
 8152SOL    HW225356   5.979   3.029   3.302
 8153SOL     OW25357   1.270   1.292   3.532
 8153SOL    HW125358   1.273   1.237   3.616
 8153SOL    HW225359   1.355   1.279   3.481
 8154SOL     OW25360   4.019   6.307   3.056
 8154SOL    HW125361   4.010   6.267   2.964
 8154SOL    HW225362   4.042   6.236   3.121
 8155SOL     OW25363   1.552   4.015   2.259
 8155SOL    HW125364   1.586   4.004   2.353
 8155SOL    HW225365   1.510   4.106   2.249
 8156SOL     OW25366   4.312   6.298   0.481
 8156SOL    HW125367   4.395   6.351   0.464
 8156SOL    HW225368   4.289   6.303   0.578
 8157SOL     OW25369   6.268   4.512   6.531
 8157SOL    HW125370   6.262   4.552   6.440
 8157SOL    HW225371   6.183   4.464   6.553
 8158SOL     OW25372   5.171   4.152   0.056
 8158SOL    HW125373   5.190   4.076   7.016
 8158SOL    HW225374   5.257   4.194   0.084
 8159SOL     OW25375   3.046   5.633   3.823
 8159SOL    HW125376   3.026   5.535   3.813
 8159SOL    HW225377   3.069   5.653   3.918
 8160SOL     OW25378   5.159   0.136   3.783
 8160SOL    HW125379   5.151   0.042   3.818
 8160SOL    HW225380   5.235   0.182   3.830
 8161SOL     OW25381   6.047   3.681   6.191
 8161SOL    HW125382   5.962   3.635   6.165
 8161SOL    HW225383   6.074   3.652   6.283
 8162SOL     OW25384   6.587   6.300   0.112
 8162SOL    HW125385   6.497   6.326   0.076
 8162SOL    HW225386   6.659   6.336   0.052
 8163SOL     OW25387   2.418   4.732   5.489
 8163SOL    HW125388   2.433   4.650   5.435
 8163SOL    HW225389   2.355   4.793   5.442
 8164SOL     OW25390   4.312   1.214   0.646
 8164SOL    HW125391   4.281   1.236   0.554
 8164SOL    HW225392   4.358   1.125   0.646
 8165SOL     OW25393   6.854   3.934   5.727
 8165SOL    HW125394   6.794   3.929   5.647
 8165SOL    HW225395   6.833   3.858   5.789
 8166SOL     OW25396   1.278   0.253   3.257
 8166SOL    HW125397   1.372   0.226   3.275
 8166SOL    HW225398   1.221   0.231   3.336
 8167SOL     OW25399   0.154   0.571   3.490
 8167SOL    HW125400   0.116   0.482   3.513
 8167SOL    HW225401   0.205   0.607   3.568
 8168SOL     OW25402   2.820   0.479   1.401
 8168SOL    HW125403   2.784   0.540   1.330
 8168SOL    HW225404   2.874   0.532   1.466
 8169SOL     OW25405   4.775   2.273   0.755
 8169SOL    HW125406   4.796   2.263   0.658
 8169SOL    HW225407   4.782   2.185   0.801
 8170SOL     OW25408   1.328   5.038   1.691
 8170SOL    HW125409   1.275   5.117   1.660
 8170SOL    HW225410   1.416   5.036   1.645
 8171SOL     OW25411   1.747   1.782   0.027
 8171SOL    HW125412   1.844   1.759   0.019
 8171SOL    HW225413   1.730   1.869   7.003
 8172SOL     OW25414   6.917   1.883   2.049
 8172SOL    HW125415   6.840   1.902   2.110
 8172SOL    HW225416   6.893   1.810   1.985
 8173SOL     OW25417   5.735   2.392   2.133
 8173SOL    HW125418   5.728   2.443   2.047
 8173SOL    HW225419   5.799   2.439   2.194
 8174SOL     OW25420   6.748   0.088   2.534
 8174SOL    HW125421   6.663   0.051   2.495
 8174SOL    HW225422   6.823   0.023   2.520
 8175SOL     OW25423   6.830   3.024   5.309
 8175SOL    HW125424   6.844   3.075   5.224
 8175SOL    HW225425   6.912   2.969   5.328
 8176SOL     OW25426   2.825   4.678   1.358
 8176SOL    HW125427   2.815   4.638   1.449
 8176SOL    HW225428   2.826   4.778   1.366
 8177SOL     OW25429   5.052   0.234   3.571
 8177SOL    HW125430   5.045   0.155   3.509
 8177SOL    HW225431   5.106   0.207   3.651
 8178SOL     OW25432   2.895   6.739   0.686
 8178SOL    HW125433   2.972   6.770   0.630
 8178SOL    HW225434   2.820   6.710   0.626
 8179SOL     OW25435   5.370   1.433   5.213
 8179SOL    HW125436   5.358   1.480   5.300
 8179SOL    HW225437   5.281   1.420   5.169
 8180SOL     OW25438   6.283   0.654   6.148
 8180SOL    HW125439   6.214   0.721   6.176
 8180SOL    HW225440   6.347   0.696   6.083
 8181SOL     OW25441   1.177   2.024   0.702
 8181SOL    HW125442   1.120   1.947   0.731
 8181SOL    HW225443   1.243   1.992   0.634
 8182SOL     OW25444   3.250   3.188   5.680
 8182SOL    HW125445   3.205   3.099   5.688
 8182SOL    HW225446   3.190   3.251   5.632
 8183SOL     OW25447   6.823   2.357   4.497
 8183SOL    HW125448   6.767   2.336   4.416
 8183SOL    HW225449   6.919   2.337   4.476
 8184SOL     OW25450   0.407   6.923   0.215
 8184SOL    HW125451   0.315   6.897   0.185
 8184SOL    HW225452   0.401   6.978   0.298
 8185SOL     OW25453   1.558   0.575   6.703
 8185SOL    HW125454   1.648   0.592   6.744
 8185SOL    HW225455   1.568   0.527   6.616
 8186SOL     OW25456   2.908   4.432   5.851
 8186SOL    HW125457   2.852   4.371   5.793
 8186SOL    HW225458   2.852   4.469   5.925
 8187SOL     OW25459   2.084   1.422   4.944
 8187SOL    HW125460   2.139   1.356   4.893
 8187SOL    HW225461   2.007   1.452   4.888
 8188SOL     OW25462   4.909   3.240   3.805
 8188SOL    HW125463   4.866   3.167   3.751
 8188SOL    HW225464   4.917   3.322   3.749
 8189SOL     OW25465   5.270   5.247   2.916
 8189SOL    HW125466   5.198   5.228   2.982
 8189SOL    HW225467   5.246   5.205   2.828
 8190SOL     OW25468   4.856   3.959   4.462
 8190SOL    HW125469   4.803   4.042   4.478
 8190SOL    HW225470   4.835   3.923   4.371
 8191SOL     OW25471   3.599   5.875   1.923
 8191SOL    HW125472   3.629   5.824   2.004
 8191SOL    HW225473   3.539   5.950   1.951
 8192SOL     OW25474   2.665   5.286   1.745
 8192SOL    HW125475   2.648   5.189   1.729
 8192SOL    HW225476   2.764   5.304   1.740
 8193SOL     OW25477   5.802   5.526   5.792
 8193SOL    HW125478   5.880   5.512   5.853
 8193SOL    HW225479   5.769   5.620   5.801
 8194SOL     OW25480   5.032   1.181   1.137
 8194SOL    HW125481   5.079   1.109   1.085
 8194SOL    HW225482   4.951   1.210   1.087
 8195SOL     OW25483   0.932   6.604   3.289
 8195SOL    HW125484   0.907   6.630   3.196
 8195SOL    HW225485   0.886   6.665   3.354
 8196SOL     OW25486   3.733   6.180   6.458
 8196SOL    HW125487   3.692   6.253   6.513
 8196SOL    HW225488   3.819   6.211   6.418
 8197SOL     OW25489   3.176   1.147   0.247
 8197SOL    HW125490   3.127   1.209   0.308
 8197SOL    HW225491   3.168   1.053   0.281
 8198SOL     OW25492   3.367   6.046   2.518
 8198SOL    HW125493   3.323   6.136   2.524
 8198SOL    HW225494   3.439   6.040   2.587
 8199SOL     OW25495   5.804   2.780   6.170
 8199SOL    HW125496   5.872   2.840   6.213
 8199SOL    HW225497   5.822   2.686   6.196
 8200SOL     OW25498   5.866   4.733   1.862
 8200SOL    HW125499   5.778   4.731   1.909
 8200SOL    HW225500   5.866   4.664   1.790
 8201SOL     OW25501   5.378   0.867   5.061
 8201SOL    HW125502   5.353   0.951   5.012
 8201SOL    HW225503   5.477   0.866   5.075
 8202SOL     OW25504   0.235   5.537   3.889
 8202SOL    HW125505   0.293   5.540   3.970
 8202SOL    HW225506   0.260   5.612   3.827
 8203SOL     OW25507   2.785   2.074   0.016
 8203SOL    HW125508   2.781   2.173   0.002
 8203SOL    HW225509   2.731   2.028   6.968
 8204SOL     OW25510   3.840   5.075   6.941
 8204SOL    HW125511   3.810   4.983   6.967
 8204SOL    HW225512   3.821   5.139   7.016
 8205SOL     OW25513   0.162   4.729   0.360
 8205SOL    HW125514   0.258   4.727   0.387
 8205SOL    HW225515   0.153   4.705   0.263
 8206SOL     OW25516   5.225   1.872   6.501
 8206SOL    HW125517   5.188   1.814   6.574
 8206SOL    HW225518   5.185   1.964   6.507
 8207SOL     OW25519   2.957   3.334   4.490
 8207SOL    HW125520   2.857   3.334   4.489
 8207SOL    HW225521   2.990   3.388   4.568
 8208SOL     OW25522   1.178   6.991   1.635
 8208SOL    HW125523   1.252   7.017   1.697
 8208SOL    HW225524   1.217   6.966   1.546
 8209SOL     OW25525   0.689   1.201   4.996
 8209SOL    HW125526   0.685   1.277   4.931
 8209SOL    HW225527   0.650   1.119   4.954
 8210SOL     OW25528   2.199   1.331   0.933
 8210SOL    HW125529   2.297   1.354   0.932
 8210SOL    HW225530   2.166   1.327   0.838
 8211SOL     OW25531   3.840   4.276   1.727
 8211SOL    HW125532   3.855   4.179   1.745
 8211SOL    HW225533   3.754   4.305   1.770
 8212SOL     OW25534   2.251   2.394   2.259
 8212SOL    HW125535   2.246   2.494   2.251
 8212SOL    HW225536   2.325   2.370   2.323
 8213SOL     OW25537   6.933   4.031   1.758
 8213SOL    HW125538   6.966   4.084   1.679
 8213SOL    HW225539   6.863   4.084   1.806
 8214SOL     OW25540   5.895   5.920   4.088
 8214SOL    HW125541   5.945   5.836   4.066
 8214SOL    HW225542   5.888   5.929   4.188
 8215SOL     OW25543   2.800   5.479   5.840
 8215SOL    HW125544   2.873   5.416   5.868
 8215SOL    HW225545   2.754   5.443   5.759
 8216SOL     OW25546   5.102   5.187   3.729
 8216SOL    HW125547   5.128   5.113   3.791
 8216SOL    HW225548   5.109   5.155   3.635
 8217SOL     OW25549   1.576   4.096   0.235
 8217SOL    HW125550   1.490   4.146   0.244
 8217SOL    HW225551   1.632   4.113   0.316
 8218SOL     OW25552   0.589   0.199   5.872
 8218SOL    HW125553   0.594   0.147   5.786
 8218SOL    HW225554   0.661   0.167   5.933
 8219SOL     OW25555   4.328   2.661   0.724
 8219SOL    HW125556   4.347   2.597   0.798
 8219SOL    HW225557   4.411   2.714   0.703
 8220SOL     OW25558   3.440   2.844   3.380
 8220SOL    HW125559   3.427   2.784   3.458
 8220SOL    HW225560   3.363   2.907   3.373
 8221SOL     OW25561   5.837   6.650   3.325
 8221SOL    HW125562   5.911   6.674   3.262
 8221SOL    HW225563   5.841   6.552   3.347
 8222SOL     OW25564   5.733   1.555   1.375
 8222SOL    HW125565   5.736   1.535   1.473
 8222SOL    HW225566   5.785   1.485   1.325
 8223SOL     OW25567   0.589   4.725   5.468
 8223SOL    HW125568   0.589   4.822   5.446
 8223SOL    HW225569   0.652   4.708   5.544
 8224SOL     OW25570   6.343   0.962   2.608
 8224SOL    HW125571   6.375   1.052   2.637
 8224SOL    HW225572   6.274   0.929   2.673
 8225SOL     OW25573   3.195   1.525   0.864
 8225SOL    HW125574   3.129   1.452   0.879
 8225SOL    HW225575   3.268   1.492   0.803
 8226SOL     OW25576   3.935   0.587   0.765
 8226SOL    HW125577   4.017   0.630   0.803
 8226SOL    HW225578   3.961   0.530   0.687
 8227SOL     OW25579   6.973   1.648   2.950
 8227SOL    HW125580   6.971   1.559   2.994
 8227SOL    HW225581   6.960   1.637   2.852
 8228SOL     OW25582   6.516   1.677   5.893
 8228SOL    HW125583   6.573   1.676   5.810
 8228SOL    HW225584   6.470   1.765   5.901
 8229SOL     OW25585   4.515   3.018   0.829
 8229SOL    HW125586   4.536   2.949   0.761
 8229SOL    HW225587   4.436   2.989   0.883
 8230SOL     OW25588   4.075   0.266   5.178
 8230SOL    HW125589   4.129   0.184   5.158
 8230SOL    HW225590   4.074   0.281   5.277
 8231SOL     OW25591   2.702   4.274   1.087
 8231SOL    HW125592   2.733   4.238   1.175
 8231SOL    HW225593   2.737   4.217   1.013
 8232SOL     OW25594   4.970   1.493   1.716
 8232SOL    HW125595   4.882   1.454   1.740
 8232SOL    HW225596   5.028   1.498   1.797
 8233SOL     OW25597   1.616   5.872   6.061
 8233SOL    HW125598   1.639   5.781   6.025
 8233SOL    HW225599   1.699   5.918   6.092
 8234SOL     OW25600   2.631   4.135   6.726
 8234SOL    HW125601   2.565   4.097   6.791
 8234SOL    HW225602   2.624   4.086   6.639
 8235SOL     OW25603   0.293   3.160   0.022
 8235SOL    HW125604   0.301   3.081   0.083
 8235SOL    HW225605   0.226   3.140   6.973
 8236SOL     OW25606   0.810   5.132   0.487
 8236SOL    HW125607   0.744   5.206   0.498
 8236SOL    HW225608   0.762   5.046   0.474
 8237SOL     OW25609   4.167   6.606   4.031
 8237SOL    HW125610   4.175   6.617   4.130
 8237SOL    HW225611   4.162   6.509   4.008
 8238SOL     OW25612   0.428   4.919   6.218
 8238SOL    HW125613   0.348   4.859   6.219
 8238SOL    HW225614   0.507   4.869   6.184
 8239SOL     OW25615   6.805   0.832   5.860
 8239SOL    HW125616   6.774   0.908   5.802
 8239SOL    HW225617   6.869   0.775   5.808
 8240SOL     OW25618   3.396   4.135   2.620
 8240SOL    HW125619   3.468   4.140   2.689
 8240SOL    HW225620   3.435   4.152   2.530
 8241SOL     OW25621   3.983   6.716   5.548
 8241SOL    HW125622   3.974   6.809   5.512
 8241SOL    HW225623   3.962   6.716   5.646
 8242SOL     OW25624   0.585   4.684   6.093
 8242SOL    HW125625   0.520   4.654   6.162
 8242SOL    HW225626   0.638   4.605   6.060
 8243SOL     OW25627   0.236   2.449   0.374
 8243SOL    HW125628   0.200   2.483   0.287
 8243SOL    HW225629   0.308   2.382   0.356
 8244SOL     OW25630   0.310   0.271   4.302
 8244SOL    HW125631   0.375   0.200   4.276
 8244SOL    HW225632   0.218   0.233   4.306
 8245SOL     OW25633   4.287   1.947   2.459
 8245SOL    HW125634   4.293   1.893   2.375
 8245SOL    HW225635   4.341   2.031   2.448
 8246SOL     OW25636   1.024   3.444   5.481
 8246SOL    HW125637   0.957   3.519   5.480
 8246SOL    HW225638   1.038   3.413   5.574
 8247SOL     OW25639   1.949   0.247   2.435
 8247SOL    HW125640   1.993   0.163   2.403
 8247SOL    HW225641   1.859   0.255   2.394
 8248SOL     OW25642   6.464   5.498   4.690
 8248SOL    HW125643   6.457   5.546   4.603
 8248SOL    HW225644   6.499   5.405   4.675
 8249SOL     OW25645   1.741   2.714   6.182
 8249SOL    HW125646   1.729   2.717   6.282
 8249SOL    HW225647   1.653   2.732   6.138
 8250SOL     OW25648   2.960   3.773   2.003
 8250SOL    HW125649   2.963   3.873   2.011
 8250SOL    HW225650   3.053   3.738   1.995
 8251SOL     OW25651   4.887   3.368   4.053
 8251SOL    HW125652   4.881   3.302   4.127
 8251SOL    HW225653   4.854   3.326   3.968
 8252SOL     OW25654   2.715   1.776   4.991
 8252SOL    HW125655   2.714   1.736   4.899
 8252SOL    HW225656   2.791   1.738   5.043
 8253SOL     OW25657   4.176   4.841   5.595
 8253SOL    HW125658   4.222   4.918   5.550
 8253SOL    HW225659   4.198   4.757   5.546
 8254SOL     OW25660   4.584   4.291   5.161
 8254SOL    HW125661   4.620   4.237   5.085
 8254SOL    HW225662   4.553   4.230   5.234
 8255SOL     OW25663   2.157   0.207   5.264
 8255SOL    HW125664   2.077   0.254   5.228
 8255SOL    HW225665   2.214   0.271   5.315
 8256SOL     OW25666   6.690   6.512   1.868
 8256SOL    HW125667   6.639   6.566   1.801
 8256SOL    HW225668   6.788   6.524   1.852
 8257SOL     OW25669   4.981   4.390   2.988
 8257SOL    HW125670   4.933   4.380   3.075
 8257SOL    HW225671   5.017   4.302   2.959
 8258SOL     OW25672   5.563   1.793   0.798
 8258SOL    HW125673   5.619   1.842   0.865
 8258SOL    HW225674   5.622   1.753   0.728
 8259SOL     OW25675   3.952   1.677   4.145
 8259SOL    HW125676   3.905   1.762   4.121
 8259SOL    HW225677   3.986   1.683   4.239
 8260SOL     OW25678   1.870   6.652   0.872
 8260SOL    HW125679   1.960   6.688   0.845
 8260SOL    HW225680   1.844   6.578   0.810
 8261SOL     OW25681   6.329   6.707   1.956
 8261SOL    HW125682   6.353   6.610   1.950
 8261SOL    HW225683   6.389   6.760   1.897
 8262SOL     OW25684   0.995   3.341   0.353
 8262SOL    HW125685   1.049   3.343   0.269
 8262SOL    HW225686   0.912   3.286   0.338
 8263SOL     OW25687   0.506   2.779   6.365
 8263SOL    HW125688   0.485   2.703   6.304
 8263SOL    HW225689   0.428   2.842   6.368
 8264SOL     OW25690   2.314   6.324   2.312
 8264SOL    HW125691   2.388   6.309   2.247
 8264SOL    HW225692   2.309   6.422   2.334
 8265SOL     OW25693   6.595   0.684   1.179
 8265SOL    HW125694   6.554   0.604   1.223
 8265SOL    HW225695   6.666   0.654   1.114
 8266SOL     OW25696   2.466   1.388   3.606
 8266SOL    HW125697   2.490   1.359   3.514
 8266SOL    HW225698   2.545   1.376   3.667
 8267SOL     OW25699   1.840   3.265   1.091
 8267SOL    HW125700   1.938   3.247   1.082
 8267SOL    HW225701   1.817   3.351   1.045
 8268SOL     OW25702   1.657   6.490   5.938
 8268SOL    HW125703   1.562   6.499   5.966
 8268SOL    HW225704   1.709   6.570   5.969
 8269SOL     OW25705   4.553   0.806   2.327
 8269SOL    HW125706   4.615   0.760   2.391
 8269SOL    HW225707   4.461   0.807   2.364
 8270SOL     OW25708   3.080   6.510   4.999
 8270SOL    HW125709   3.005   6.558   4.953
 8270SOL    HW225710   3.075   6.413   4.978
 8271SOL     OW25711   0.813   0.316   3.625
 8271SOL    HW125712   0.866   0.389   3.582
 8271SOL    HW225713   0.755   0.354   3.697
 8272SOL     OW25714   6.055   2.316   2.407
 8272SOL    HW125715   6.089   2.409   2.397
 8272SOL    HW225716   6.088   2.277   2.493
 8273SOL     OW25717   2.253   1.215   0.351
 8273SOL    HW125718   2.249   1.313   0.367
 8273SOL    HW225719   2.214   1.194   0.261
 8274SOL     OW25720   5.144   4.659   4.169
 8274SOL    HW125721   5.210   4.689   4.100
 8274SOL    HW225722   5.052   4.657   4.128
 8275SOL     OW25723   6.174   0.979   5.255
 8275SOL    HW125724   6.079   0.970   5.226
 8275SOL    HW225725   6.185   1.061   5.311
 8276SOL     OW25726   0.664   2.612   3.795
 8276SOL    HW125727   0.725   2.653   3.863
 8276SOL    HW225728   0.630   2.684   3.734
 8277SOL     OW25729   0.411   6.036   6.184
 8277SOL    HW125730   0.415   5.936   6.187
 8277SOL    HW225731   0.443   6.067   6.094
 8278SOL     OW25732   3.408   1.264   6.324
 8278SOL    HW125733   3.329   1.237   6.269
 8278SOL    HW225734   3.388   1.350   6.371
 8279SOL     OW25735   1.373   6.218   4.705
 8279SOL    HW125736   1.325   6.244   4.622
 8279SOL    HW225737   1.308   6.181   4.771
 8280SOL     OW25738   2.176   3.418   0.235
 8280SOL    HW125739   2.120   3.343   0.270
 8280SOL    HW225740   2.202   3.478   0.311
 8281SOL     OW25741   3.056   4.311   1.733
 8281SOL    HW125742   3.011   4.382   1.788
 8281SOL    HW225743   3.069   4.345   1.640
 8282SOL     OW25744   4.568   3.526   0.176
 8282SOL    HW125745   4.508   3.606   0.174
 8282SOL    HW225746   4.663   3.556   0.180
 8283SOL     OW25747   1.989   5.305   5.534
 8283SOL    HW125748   1.932   5.357   5.598
 8283SOL    HW225749   1.930   5.253   5.472
 8284SOL     OW25750   0.905   3.461   1.162
 8284SOL    HW125751   0.981   3.462   1.097
 8284SOL    HW225752   0.830   3.406   1.124
 8285SOL     OW25753   3.302   3.898   5.126
 8285SOL    HW125754   3.302   3.877   5.029
 8285SOL    HW225755   3.221   3.953   5.148
 8286SOL     OW25756   5.649   1.852   5.555
 8286SOL    HW125757   5.560   1.850   5.509
 8286SOL    HW225758   5.719   1.819   5.492
 8287SOL     OW25759   1.427   5.147   4.486
 8287SOL    HW125760   1.502   5.103   4.534
 8287SOL    HW225761   1.457   5.175   4.395
 8288SOL     OW25762   3.012   2.097   1.895
 8288SOL    HW125763   3.040   2.045   1.976
 8288SOL    HW225764   2.963   2.179   1.924
 8289SOL     OW25765   0.667   6.231   0.524
 8289SOL    HW125766   0.748   6.188   0.483
 8289SOL    HW225767   0.608   6.161   0.564
 8290SOL     OW25768   5.264   1.497   1.168
 8290SOL    HW125769   5.303   1.496   1.076
 8290SOL    HW225770   5.330   1.534   1.233
 8291SOL     OW25771   4.446   6.161   4.926
 8291SOL    HW125772   4.425   6.184   5.021
 8291SOL    HW225773   4.487   6.240   4.881
 8292SOL     OW25774   3.245   6.954   6.935
 8292SOL    HW125775   3.227   6.906   6.849
 8292SOL    HW225776   3.243   6.888   7.011
 8293SOL     OW25777   2.495   5.269   0.517
 8293SOL    HW125778   2.537   5.251   0.607
 8293SOL    HW225779   2.493   5.368   0.501
 8294SOL     OW25780   5.315   3.308   5.405
 8294SOL    HW125781   5.348   3.221   5.442
 8294SOL    HW225782   5.341   3.382   5.467
 8295SOL     OW25783   4.977   5.401   1.633
 8295SOL    HW125784   5.047   5.438   1.694
 8295SOL    HW225785   4.899   5.463   1.630
 8296SOL     OW25786   1.557   4.517   6.575
 8296SOL    HW125787   1.555   4.617   6.569
 8296SOL    HW225788   1.584   4.490   6.667
 8297SOL     OW25789   0.046   3.300   2.348
 8297SOL    HW125790   7.014   3.343   2.420
 8297SOL    HW225791   7.009   3.246   2.289
 8298SOL     OW25792   6.142   1.204   1.152
 8298SOL    HW125793   6.075   1.211   1.077
 8298SOL    HW225794   6.231   1.234   1.120
 8299SOL     OW25795   6.857   2.421   2.427
 8299SOL    HW125796   6.874   2.518   2.410
 8299SOL    HW225797   6.876   2.401   2.524
 8300SOL     OW25798   0.311   5.456   4.440
 8300SOL    HW125799   0.298   5.493   4.348
 8300SOL    HW225800   0.408   5.439   4.456
 8301SOL     OW25801   3.501   1.677   0.963
 8301SOL    HW125802   3.484   1.626   0.879
 8301SOL    HW225803   3.436   1.754   0.969
 8302SOL     OW25804   5.548   6.734   6.705
 8302SOL    HW125805   5.631   6.775   6.669
 8302SOL    HW225806   5.541   6.639   6.674
 8303SOL     OW25807   6.250   0.750   3.764
 8303SOL    HW125808   6.166   0.789   3.800
 8303SOL    HW225809   6.305   0.821   3.721
 8304SOL     OW25810   6.772   2.837   1.231
 8304SOL    HW125811   6.820   2.832   1.143
 8304SOL    HW225812   6.683   2.880   1.218
 8305SOL     OW25813   4.984   4.914   3.906
 8305SOL    HW125814   4.945   4.839   3.960
 8305SOL    HW225815   4.910   4.966   3.864
 8306SOL     OW25816   5.573   1.647   5.727
 8306SOL    HW125817   5.547   1.598   5.644
 8306SOL    HW225818   5.604   1.739   5.702
 8307SOL     OW25819   3.309   5.478   1.812
 8307SOL    HW125820   3.316   5.542   1.888
 8307SOL    HW225821   3.291   5.386   1.848
 8308SOL     OW25822   3.356   5.372   1.403
 8308SOL    HW125823   3.302   5.440   1.353
 8308SOL    HW225824   3.358   5.287   1.351
 8309SOL     OW25825   6.700   5.530   4.013
 8309SOL    HW125826   6.682   5.434   3.991
 8309SOL    HW225827   6.778   5.537   4.076
 8310SOL     OW25828   0.074   5.403   1.203
 8310SOL    HW125829   0.147   5.440   1.260
 8310SOL    HW225830   0.113   5.355   1.124
 8311SOL     OW25831   1.101   1.966   4.884
 8311SOL    HW125832   1.090   2.015   4.798
 8311SOL    HW225833   1.091   1.868   4.868
 8312SOL     OW25834   4.973   0.406   6.869
 8312SOL    HW125835   4.928   0.440   6.952
 8312SOL    HW225836   5.072   0.411   6.881
 8313SOL     OW25837   5.146   6.971   0.498
 8313SOL    HW125838   5.058   6.953   0.540
 8313SOL    HW225839   5.150   6.929   0.407
 8314SOL     OW25840   4.830   0.585   0.057
 8314SOL    HW125841   4.758   0.523   0.089
 8314SOL    HW225842   4.829   0.668   0.111
 8315SOL     OW25843   4.175   3.304   1.155
 8315SOL    HW125844   4.108   3.232   1.137
 8315SOL    HW225845   4.199   3.351   1.070
 8316SOL     OW25846   1.386   2.000   1.871
 8316SOL    HW125847   1.324   1.922   1.867
 8316SOL    HW225848   1.425   2.017   1.781
 8317SOL     OW25849   1.685   3.217   2.370
 8317SOL    HW125850   1.730   3.177   2.290
 8317SOL    HW225851   1.682   3.149   2.443
 8318SOL     OW25852   4.395   1.680   5.577
 8318SOL    HW125853   4.425   1.750   5.642
 8318SOL    HW225854   4.304   1.648   5.602
 8319SOL     OW25855   1.504   2.087   0.821
 8319SOL    HW125856   1.492   2.170   0.875
 8319SOL    HW225857   1.438   2.018   0.851
 8320SOL     OW25858   3.075   3.552   2.444
 8320SOL    HW125859   3.035   3.517   2.529
 8320SOL    HW225860   3.152   3.493   2.417
 8321SOL     OW25861   6.965   6.995   6.197
 8321SOL    HW125862   6.959   6.918   6.134
 8321SOL    HW225863   0.032   6.994   6.242
 8322SOL     OW25864   6.404   0.294   1.223
 8322SOL    HW125865   6.428   0.373   1.279
 8322SOL    HW225866   6.407   0.318   1.126
 8323SOL     OW25867   5.257   5.410   2.307
 8323SOL    HW125868   5.289   5.444   2.396
 8323SOL    HW225869   5.239   5.488   2.247
 8324SOL     OW25870   5.699   6.540   1.048
 8324SOL    HW125871   5.773   6.517   0.986
 8324SOL    HW225872   5.715   6.631   1.086
 8325SOL     OW25873   2.259   3.866   5.389
 8325SOL    HW125874   2.346   3.893   5.348
 8325SOL    HW225875   2.241   3.770   5.367
 8326SOL     OW25876   4.951   3.340   5.482
 8326SOL    HW125877   4.874   3.353   5.419
 8326SOL    HW225878   4.941   3.252   5.529
 8327SOL     OW25879   5.988   0.897   5.839
 8327SOL    HW125880   5.889   0.906   5.826
 8327SOL    HW225881   6.022   0.975   5.893
 8328SOL     OW25882   2.569   6.348   6.536
 8328SOL    HW125883   2.635   6.334   6.610
 8328SOL    HW225884   2.559   6.264   6.483
 8329SOL     OW25885   1.338   3.233   5.853
 8329SOL    HW125886   1.340   3.323   5.809
 8329SOL    HW225887   1.245   3.211   5.880
 8330SOL     OW25888   2.345   1.516   0.012
 8330SOL    HW125889   2.439   1.489   0.034
 8330SOL    HW225890   2.344   1.557   6.943
 8331SOL     OW25891   2.985   0.652   1.085
 8331SOL    HW125892   2.974   0.696   0.996
 8331SOL    HW225893   3.016   0.719   1.152
 8332SOL     OW25894   5.041   5.254   2.355
 8332SOL    HW125895   5.062   5.157   2.341
 8332SOL    HW225896   5.121   5.309   2.333
 8333SOL     OW25897   0.319   6.313   6.226
 8333SOL    HW125898   0.346   6.223   6.190
 8333SOL    HW225899   0.249   6.300   6.296
 8334SOL     OW25900   3.914   1.017   4.178
 8334SOL    HW125901   4.006   1.049   4.201
 8334SOL    HW225902   3.908   1.000   4.080
 8335SOL     OW25903   5.158   0.345   0.122
 8335SOL    HW125904   5.147   0.252   0.157
 8335SOL    HW225905   5.126   0.410   0.190
 8336SOL     OW25906   0.254   4.767   3.351
 8336SOL    HW125907   0.299   4.810   3.273
 8336SOL    HW225908   0.281   4.813   3.435
 8337SOL     OW25909   2.464   6.265   2.995
 8337SOL    HW125910   2.423   6.353   2.972
 8337SOL    HW225911   2.551   6.280   3.041
 8338SOL     OW25912   4.023   5.559   2.164
 8338SOL    HW125913   4.057   5.466   2.155
 8338SOL    HW225914   3.963   5.565   2.244
 8339SOL     OW25915   6.379   0.321   1.874
 8339SOL    HW125916   6.369   0.247   1.808
 8339SOL    HW225917   6.447   0.387   1.841
 8340SOL     OW25918   4.486   3.344   0.981
 8340SOL    HW125919   4.536   3.422   1.019
 8340SOL    HW225920   4.551   3.281   0.938
 8341SOL     OW25921   2.958   6.594   0.355
 8341SOL    HW125922   3.037   6.638   0.396
 8341SOL    HW225923   2.923   6.524   0.418
 8342SOL     OW25924   4.192   6.552   0.859
 8342SOL    HW125925   4.268   6.614   0.877
 8342SOL    HW225926   4.110   6.585   0.906
 8343SOL     OW25927   1.972   5.654   5.331
 8343SOL    HW125928   1.965   5.745   5.289
 8343SOL    HW225929   1.925   5.656   5.420
 8344SOL     OW25930   4.685   5.599   4.891
 8344SOL    HW125931   4.666   5.519   4.835
 8344SOL    HW225932   4.605   5.622   4.946
 8345SOL     OW25933   4.457   1.257   2.489
 8345SOL    HW125934   4.412   1.223   2.406
 8345SOL    HW225935   4.454   1.186   2.559
 8346SOL     OW25936   3.507   5.442   0.363
 8346SOL    HW125937   3.422   5.410   0.404
 8346SOL    HW225938   3.585   5.413   0.420
 8347SOL     OW25939   3.311   5.485   4.260
 8347SOL    HW125940   3.285   5.402   4.210
 8347SOL    HW225941   3.317   5.465   4.357
 8348SOL     OW25942   2.507   0.272   1.845
 8348SOL    HW125943   2.531   0.369   1.849
 8348SOL    HW225944   2.440   0.252   1.917
 8349SOL     OW25945   5.861   6.240   1.628
 8349SOL    HW125946   5.806   6.286   1.558
 8349SOL    HW225947   5.884   6.304   1.701
 8350SOL     OW25948   3.443   0.009   6.053
 8350SOL    HW125949   3.496   7.012   6.135
 8350SOL    HW225950   3.348   7.004   6.067
 8351SOL     OW25951   5.381   5.297   4.137
 8351SOL    HW125952   5.444   5.294   4.214
 8351SOL    HW225953   5.316   5.372   4.150
 8352SOL     OW25954   0.793   0.154   3.415
 8352SOL    HW125955   0.699   0.128   3.394
 8352SOL    HW225956   0.793   0.232   3.477
 8353SOL     OW25957   6.810   3.523   1.561
 8353SOL    HW125958   6.816   3.610   1.611
 8353SOL    HW225959   6.902   3.487   1.546
 8354SOL     OW25960   4.460   6.710   5.458
 8354SOL    HW125961   4.484   6.747   5.368
 8354SOL    HW225962   4.442   6.785   5.521
 8355SOL     OW25963   2.411   0.878   5.775
 8355SOL    HW125964   2.394   0.817   5.852
 8355SOL    HW225965   2.429   0.971   5.809
 8356SOL     OW25966   0.783   6.660   0.747
 8356SOL    HW125967   0.791   6.728   0.820
 8356SOL    HW225968   0.863   6.667   0.687
 8357SOL     OW25969   3.939   6.884   4.613
 8357SOL    HW125970   3.966   6.849   4.523
 8357SOL    HW225971   3.925   6.982   4.607
 8358SOL     OW25972   1.217   4.481   5.460
 8358SOL    HW125973   1.121   4.510   5.453
 8358SOL    HW225974   1.270   4.523   5.386
 8359SOL     OW25975   3.180   0.641   5.096
 8359SOL    HW125976   3.219   0.580   5.027
 8359SOL    HW225977   3.099   0.599   5.136
 8360SOL     OW25978   3.754   6.619   0.932
 8360SOL    HW125979   3.771   6.525   0.961
 8360SOL    HW225980   3.668   6.651   0.971
 8361SOL     OW25981   2.982   0.160   2.553
 8361SOL    HW125982   3.039   0.122   2.625
 8361SOL    HW225983   2.906   0.211   2.593
 8362SOL     OW25984   4.108   2.320   0.519
 8362SOL    HW125985   4.028   2.353   0.570
 8362SOL    HW225986   4.091   2.332   0.421
 8363SOL     OW25987   6.653   2.485   6.240
 8363SOL    HW125988   6.742   2.521   6.213
 8363SOL    HW225989   6.623   2.416   6.174
 8364SOL     OW25990   1.238   2.589   3.246
 8364SOL    HW125991   1.287   2.513   3.203
 8364SOL    HW225992   1.224   2.570   3.343
 8365SOL     OW25993   1.756   3.806   1.942
 8365SOL    HW125994   1.762   3.707   1.940
 8365SOL    HW225995   1.795   3.844   1.858
 8366SOL     OW25996   1.843   5.845   2.120
 8366SOL    HW125997   1.897   5.794   2.053
 8366SOL    HW225998   1.760   5.880   2.076
 8367SOL     OW25999   4.146   5.569   4.569
 8367SOL    HW126000   4.207   5.620   4.510
 8367SOL    HW226001   4.195   5.542   4.652
 8368SOL     OW26002   2.254   5.615   6.225
 8368SOL    HW126003   2.212   5.575   6.143
 8368SOL    HW226004   2.192   5.604   6.303
 8369SOL     OW26005   1.519   6.495   6.286
 8369SOL    HW126006   1.484   6.402   6.294
 8369SOL    HW226007   1.612   6.499   6.323
 8370SOL     OW26008   3.107   1.692   5.773
 8370SOL    HW126009   3.166   1.764   5.736
 8370SOL    HW226010   3.027   1.681   5.714
 8371SOL     OW26011   2.182   4.686   0.920
 8371SOL    HW126012   2.194   4.736   1.005
 8371SOL    HW226013   2.229   4.598   0.925
 8372SOL     OW26014   1.307   5.142   2.311
 8372SOL    HW126015   1.377   5.072   2.319
 8372SOL    HW226016   1.217   5.102   2.331
 8373SOL     OW26017   1.706   0.149   3.816
 8373SOL    HW126018   1.769   0.171   3.741
 8373SOL    HW226019   1.758   0.132   3.899
 8374SOL     OW26020   0.166   0.323   4.882
 8374SOL    HW126021   0.225   0.249   4.917
 8374SOL    HW226022   0.089   0.336   4.944
 8375SOL     OW26023   3.455   6.251   5.074
 8375SOL    HW126024   3.418   6.159   5.088
 8375SOL    HW226025   3.413   6.292   4.993
 8376SOL     OW26026   1.183   0.866   4.351
 8376SOL    HW126027   1.106   0.876   4.413
 8376SOL    HW226028   1.244   0.945   4.359
 8377SOL     OW26029   4.798   6.328   0.755
 8377SOL    HW126030   4.746   6.243   0.762
 8377SOL    HW226031   4.865   6.333   0.829
 8378SOL     OW26032   4.399   5.560   2.435
 8378SOL    HW126033   4.305   5.541   2.406
 8378SOL    HW226034   4.451   5.475   2.440
 8379SOL     OW26035   5.626   2.635   0.972
 8379SOL    HW126036   5.637   2.732   0.949
 8379SOL    HW226037   5.558   2.626   1.046
 8380SOL     OW26038   0.008   0.608   2.317
 8380SOL    HW126039   6.984   0.673   2.377
 8380SOL    HW226040   6.985   0.606   2.228
 8381SOL     OW26041   0.062   2.851   5.291
 8381SOL    HW126042   0.095   2.939   5.326
 8381SOL    HW226043   0.140   2.795   5.262
 8382SOL     OW26044   3.028   0.794   3.096
 8382SOL    HW126045   3.031   0.865   3.026
 8382SOL    HW226046   2.945   0.739   3.084
 8383SOL     OW26047   2.884   0.035   6.090
 8383SOL    HW126048   2.820   0.056   6.016
 8383SOL    HW226049   2.931   6.972   6.069
 8384SOL     OW26050   6.142   0.496   1.092
 8384SOL    HW126051   6.143   0.479   1.191
 8384SOL    HW226052   6.075   0.435   1.049
 8385SOL     OW26053   5.994   1.983   0.861
 8385SOL    HW126054   6.082   1.995   0.814
 8385SOL    HW226055   5.934   2.060   0.837
 8386SOL     OW26056   2.230   5.502   2.332
 8386SOL    HW126057   2.131   5.495   2.343
 8386SOL    HW226058   2.251   5.546   2.245
 8387SOL     OW26059   1.652   1.372   2.186
 8387SOL    HW126060   1.655   1.456   2.132
 8387SOL    HW226061   1.719   1.377   2.260
 8388SOL     OW26062   2.307   6.324   0.346
 8388SOL    HW126063   2.348   6.415   0.334
 8388SOL    HW226064   2.250   6.324   0.428
 8389SOL     OW26065   0.514   3.773   2.373
 8389SOL    HW126066   0.525   3.737   2.280
 8389SOL    HW226067   0.437   3.728   2.417
 8390SOL     OW26068   4.292   1.194   6.662
 8390SOL    HW126069   4.287   1.251   6.744
 8390SOL    HW226070   4.263   1.101   6.684
 8391SOL     OW26071   6.272   4.844   0.864
 8391SOL    HW126072   6.272   4.911   0.938
 8391SOL    HW226073   6.332   4.768   0.888
 8392SOL     OW26074   6.422   3.893   4.625
 8392SOL    HW126075   6.382   3.982   4.604
 8392SOL    HW226076   6.349   3.826   4.640
 8393SOL     OW26077   0.476   6.696   3.125
 8393SOL    HW126078   0.408   6.726   3.192
 8393SOL    HW226079   0.532   6.773   3.097
 8394SOL     OW26080   6.328   2.702   1.314
 8394SOL    HW126081   6.401   2.635   1.297
 8394SOL    HW226082   6.260   2.661   1.375
 8395SOL     OW26083   2.494   6.920   4.938
 8395SOL    HW126084   2.437   6.962   4.866
 8395SOL    HW226085   2.590   6.925   4.911
 8396SOL     OW26086   4.900   5.506   2.370
 8396SOL    HW126087   4.974   5.441   2.383
 8396SOL    HW226088   4.930   5.581   2.310
 8397SOL     OW26089   1.587   0.633   2.756
 8397SOL    HW126090   1.580   0.533   2.757
 8397SOL    HW226091   1.605   0.664   2.663
 8398SOL     OW26092   4.169   1.794   6.538
 8398SOL    HW126093   4.186   1.714   6.481
 8398SOL    HW226094   4.223   1.871   6.503
 8399SOL     OW26095   6.001   6.719   6.738
 8399SOL    HW126096   6.048   6.787   6.794
 8399SOL    HW226097   6.060   6.639   6.726
 8400SOL     OW26098   1.981   1.005   4.614
 8400SOL    HW126099   1.996   1.104   4.616
 8400SOL    HW226100   1.915   0.979   4.684
 8401SOL     OW26101   2.278   1.428   5.329
 8401SOL    HW126102   2.243   1.459   5.241
 8401SOL    HW226103   2.311   1.334   5.321
 8402SOL     OW26104   4.628   1.931   6.007
 8402SOL    HW126105   4.605   1.939   6.104
 8402SOL    HW226106   4.668   2.017   5.975
 8403SOL     OW26107   0.597   3.121   4.553
 8403SOL    HW126108   0.673   3.132   4.617
 8403SOL    HW226109   0.566   3.210   4.522
 8404SOL     OW26110   3.989   6.836   5.805
 8404SOL    HW126111   4.072   6.890   5.791
 8404SOL    HW226112   3.917   6.870   5.744
 8405SOL     OW26113   1.713   1.135   5.643
 8405SOL    HW126114   1.714   1.195   5.563
 8405SOL    HW226115   1.729   1.189   5.726
 8406SOL     OW26116   4.543   0.797   0.487
 8406SOL    HW126117   4.550   0.701   0.457
 8406SOL    HW226118   4.632   0.827   0.521
 8407SOL     OW26119   3.602   6.800   3.798
 8407SOL    HW126120   3.662   6.749   3.737
 8407SOL    HW226121   3.535   6.853   3.744
 8408SOL     OW26122   5.970   4.020   1.389
 8408SOL    HW126123   5.955   4.076   1.308
 8408SOL    HW226124   6.033   3.946   1.367
 8409SOL     OW26125   5.739   2.102   2.968
 8409SOL    HW126126   5.707   2.082   2.875
 8409SOL    HW226127   5.677   2.169   3.010
 8410SOL     OW26128   5.382   0.611   1.701
 8410SOL    HW126129   5.419   0.640   1.789
 8410SOL    HW226130   5.301   0.555   1.715
 8411SOL     OW26131   1.065   5.272   0.190
 8411SOL    HW126132   1.010   5.196   0.157
 8411SOL    HW226133   1.139   5.291   0.125
 8412SOL     OW26134   3.502   1.847   1.262
 8412SOL    HW126135   3.465   1.841   1.169
 8412SOL    HW226136   3.428   1.833   1.328
 8413SOL     OW26137   3.816   5.656   6.689
 8413SOL    HW126138   3.796   5.666   6.591
 8413SOL    HW226139   3.763   5.723   6.740
 8414SOL     OW26140   4.142   5.742   4.009
 8414SOL    HW126141   4.078   5.710   3.939
 8414SOL    HW226142   4.091   5.791   4.080
 8415SOL     OW26143   7.012   6.195   3.898
 8415SOL    HW126144   0.067   6.215   3.958
 8415SOL    HW226145   6.928   6.233   3.938
 8416SOL     OW26146   6.058   3.292   2.985
 8416SOL    HW126147   6.102   3.377   2.955
 8416SOL    HW226148   6.121   3.242   3.044
 8417SOL     OW26149   1.193   4.227   5.771
 8417SOL    HW126150   1.207   4.280   5.855
 8417SOL    HW226151   1.279   4.221   5.721
 8418SOL     OW26152   5.452   5.084   0.867
 8418SOL    HW126153   5.487   5.085   0.774
 8418SOL    HW226154   5.410   5.172   0.889
 8419SOL     OW26155   5.742   6.927   1.907
 8419SOL    HW126156   5.732   6.963   2.000
 8419SOL    HW226157   5.763   7.002   1.844
 8420SOL     OW26158   4.539   6.853   6.994
 8420SOL    HW126159   4.516   6.794   6.917
 8420SOL    HW226160   4.471   6.925   7.003
 8421SOL     OW26161   2.966   5.318   6.882
 8421SOL    HW126162   2.943   5.414   6.866
 8421SOL    HW226163   3.008   5.279   6.800
 8422SOL     OW26164   4.339   1.372   1.811
 8422SOL    HW126165   4.367   1.333   1.898
 8422SOL    HW226166   4.369   1.467   1.805
 8423SOL     OW26167   2.958   5.264   5.925
 8423SOL    HW126168   3.028   5.245   5.855
 8423SOL    HW226169   2.891   5.190   5.926
 8424SOL     OW26170   2.156   1.937   2.358
 8424SOL    HW126171   2.060   1.959   2.341
 8424SOL    HW226172   2.194   2.004   2.422
 8425SOL     OW26173   5.009   4.676   6.175
 8425SOL    HW126174   4.923   4.689   6.224
 8425SOL    HW226175   5.067   4.612   6.225
 8426SOL     OW26176   3.652   3.174   3.381
 8426SOL    HW126177   3.649   3.129   3.471
 8426SOL    HW226178   3.649   3.105   3.309
 8427SOL     OW26179   3.712   4.127   4.757
 8427SOL    HW126180   3.727   4.083   4.846
 8427SOL    HW226181   3.785   4.192   4.739
 8428SOL     OW26182   0.838   5.961   1.468
 8428SOL    HW126183   0.753   5.917   1.439
 8428SOL    HW226184   0.904   5.890   1.497
 8429SOL     OW26185   0.919   5.933   4.681
 8429SOL    HW126186   0.836   5.890   4.645
 8429SOL    HW226187   0.991   5.931   4.612
 8430SOL     OW26188   3.713   5.625   3.102
 8430SOL    HW126189   3.720   5.544   3.159
 8430SOL    HW226190   3.618   5.638   3.073
 8431SOL     OW26191   2.960   4.218   0.806
 8431SOL    HW126192   3.007   4.288   0.860
 8431SOL    HW226193   2.881   4.184   0.857
 8432SOL     OW26194   5.960   6.312   5.733
 8432SOL    HW126195   6.034   6.379   5.722
 8432SOL    HW226196   5.874   6.360   5.751
 8433SOL     OW26197   4.830   2.678   0.708
 8433SOL    HW126198   4.926   2.701   0.721
 8433SOL    HW226199   4.803   2.608   0.774
 8434SOL     OW26200   2.717   0.136   4.747
 8434SOL    HW126201   2.768   0.108   4.666
 8434SOL    HW226202   2.727   0.234   4.762
 8435SOL     OW26203   6.236   0.813   1.361
 8435SOL    HW126204   6.273   0.827   1.270
 8435SOL    HW226205   6.136   0.818   1.358
 8436SOL     OW26206   3.431   6.635   3.236
 8436SOL    HW126207   3.404   6.576   3.160
 8436SOL    HW226208   3.359   6.637   3.304
 8437SOL     OW26209   2.380   1.442   4.392
 8437SOL    HW126210   2.336   1.356   4.418
 8437SOL    HW226211   2.408   1.438   4.296
 8438SOL     OW26212   2.233   4.739   2.684
 8438SOL    HW126213   2.298   4.665   2.667
 8438SOL    HW226214   2.280   4.815   2.728
 8439SOL     OW26215   5.840   5.161   2.789
 8439SOL    HW126216   5.851   5.089   2.858
 8439SOL    HW226217   5.758   5.213   2.808
 8440SOL     OW26218   1.801   1.975   3.387
 8440SOL    HW126219   1.868   1.904   3.408
 8440SOL    HW226220   1.843   2.065   3.399
 8441SOL     OW26221   5.711   6.681   0.153
 8441SOL    HW126222   5.635   6.723   0.104
 8441SOL    HW226223   5.797   6.725   0.126
 8442SOL     OW26224   3.344   1.764   4.991
 8442SOL    HW126225   3.441   1.741   4.989
 8442SOL    HW226226   3.334   1.863   5.002
 8443SOL     OW26227   2.243   4.539   3.603
 8443SOL    HW126228   2.242   4.451   3.556
 8443SOL    HW226229   2.324   4.544   3.662
 8444SOL     OW26230   3.436   6.584   4.147
 8444SOL    HW126231   3.419   6.488   4.125
 8444SOL    HW226232   3.534   6.599   4.158
 8445SOL     OW26233   3.341   6.993   1.298
 8445SOL    HW126234   3.273   6.921   1.316
 8445SOL    HW226235   3.429   6.965   1.337
 8446SOL     OW26236   5.077   5.591   6.822
 8446SOL    HW126237   5.095   5.553   6.913
 8446SOL    HW226238   5.162   5.596   6.770
 8447SOL     OW26239   5.195   2.134   2.233
 8447SOL    HW126240   5.123   2.129   2.164
 8447SOL    HW226241   5.178   2.066   2.304
 8448SOL     OW26242   4.338   5.448   4.274
 8448SOL    HW126243   4.256   5.406   4.234
 8448SOL    HW226244   4.345   5.421   4.370
 8449SOL     OW26245   0.294   2.882   3.584
 8449SOL    HW126246   0.302   2.981   3.590
 8449SOL    HW226247   0.256   2.856   3.495
 8450SOL     OW26248   0.103   0.038   0.995
 8450SOL    HW126249   0.128   6.993   1.064
 8450SOL    HW226250   0.118   7.022   0.904
 8451SOL     OW26251   3.478   1.704   7.014
 8451SOL    HW126252   3.465   1.802   7.003
 8451SOL    HW226253   3.396   1.656   6.982
 8452SOL     OW26254   6.322   1.886   2.980
 8452SOL    HW126255   6.403   1.862   2.926
 8452SOL    HW226256   6.325   1.984   3.003
 8453SOL     OW26257   0.396   4.407   0.036
 8453SOL    HW126258   0.318   4.345   0.030
 8453SOL    HW226259   0.428   4.428   6.966
 8454SOL     OW26260   6.719   6.544   1.235
 8454SOL    HW126261   6.754   6.533   1.328
 8454SOL    HW226262   6.648   6.476   1.218
 8455SOL     OW26263   6.606   1.859   1.736
 8455SOL    HW126264   6.634   1.763   1.734
 8455SOL    HW226265   6.544   1.874   1.813
 8456SOL     OW26266   4.053   5.839   3.289
 8456SOL    HW126267   3.997   5.756   3.287
 8456SOL    HW226268   4.063   5.870   3.384
 8457SOL     OW26269   6.645   6.600   5.002
 8457SOL    HW126270   6.723   6.548   4.969
 8457SOL    HW226271   6.602   6.649   4.926
 8458SOL     OW26272   3.225   0.432   6.973
 8458SOL    HW126273   3.181   0.349   7.006
 8458SOL    HW226274   3.255   0.419   6.879
 8459SOL     OW26275   2.498   6.022   2.183
 8459SOL    HW126276   2.405   5.992   2.207
 8459SOL    HW226277   2.493   6.087   2.107
 8460SOL     OW26278   4.237   4.235   5.313
 8460SOL    HW126279   4.263   4.315   5.260
 8460SOL    HW226280   4.182   4.174   5.256
 8461SOL     OW26281   1.220   3.938   4.683
 8461SOL    HW126282   1.245   4.034   4.692
 8461SOL    HW226283   1.132   3.931   4.637
 8462SOL     OW26284   2.266   2.549   6.615
 8462SOL    HW126285   2.295   2.604   6.693
 8462SOL    HW226286   2.334   2.556   6.542
 8463SOL     OW26287   6.953   0.098   1.201
 8463SOL    HW126288   7.018   0.103   1.125
 8463SOL    HW226289   6.977   0.166   1.271
 8464SOL     OW26290   5.725   3.771   3.947
 8464SOL    HW126291   5.654   3.771   4.017
 8464SOL    HW226292   5.682   3.770   3.856
 8465SOL     OW26293   1.067   3.154   0.581
 8465SOL    HW126294   1.044   3.063   0.615
 8465SOL    HW226295   1.045   3.160   0.484
 8466SOL     OW26296   0.921   6.352   4.190
 8466SOL    HW126297   0.844   6.342   4.127
 8466SOL    HW226298   0.946   6.449   4.197
 8467SOL     OW26299   3.666   6.992   6.862
 8467SOL    HW126300   3.580   0.015   6.840
 8467SOL    HW226301   3.715   6.970   6.777
 8468SOL     OW26302   3.883   1.721   6.567
 8468SOL    HW126303   3.853   1.626   6.571
 8468SOL    HW226304   3.982   1.725   6.583
 8469SOL     OW26305   2.978   1.632   6.648
 8469SOL    HW126306   3.031   1.680   6.717
 8469SOL    HW226307   2.948   1.544   6.684
 8470SOL     OW26308   0.926   4.510   0.154
 8470SOL    HW126309   0.869   4.477   0.229
 8470SOL    HW226310   0.979   4.433   0.117
 8471SOL     OW26311   3.222   1.185   3.177
 8471SOL    HW126312   3.200   1.117   3.247
 8471SOL    HW226313   3.139   1.233   3.150
 8472SOL     OW26314   6.941   0.978   4.555
 8472SOL    HW126315   6.980   0.894   4.592
 8472SOL    HW226316   6.931   0.969   4.456
 8473SOL     OW26317   6.412   5.510   6.544
 8473SOL    HW126318   6.348   5.434   6.542
 8473SOL    HW226319   6.484   5.495   6.476
 8474SOL     OW26320   3.341   3.430   2.421
 8474SOL    HW126321   3.307   3.349   2.374
 8474SOL    HW226322   3.441   3.432   2.416
 8475SOL     OW26323   0.633   2.362   3.201
 8475SOL    HW126324   0.731   2.348   3.217
 8475SOL    HW226325   0.597   2.286   3.146
 8476SOL     OW26326   6.299   1.913   0.831
 8476SOL    HW126327   6.299   1.942   0.735
 8476SOL    HW226328   6.294   1.994   0.890
 8477SOL     OW26329   4.672   6.780   1.687
 8477SOL    HW126330   4.769   6.790   1.707
 8477SOL    HW226331   4.635   6.869   1.661
 8478SOL     OW26332   1.158   0.391   6.085
 8478SOL    HW126333   1.062   0.363   6.076
 8478SOL    HW226334   1.217   0.311   6.073
 8479SOL     OW26335   6.800   2.564   1.312
 8479SOL    HW126336   6.815   2.661   1.294
 8479SOL    HW226337   6.859   2.509   1.253
 8480SOL     OW26338   4.305   1.456   6.952
 8480SOL    HW126339   4.369   1.383   6.978
 8480SOL    HW226340   4.320   1.481   6.857
 8481SOL     OW26341   5.088   2.028   3.490
 8481SOL    HW126342   5.123   1.968   3.418
 8481SOL    HW226343   5.127   1.999   3.578
 8482SOL     OW26344   4.908   6.060   2.354
 8482SOL    HW126345   4.986   6.083   2.412
 8482SOL    HW226346   4.836   6.018   2.410
 8483SOL     OW26347   4.009   6.237   2.034
 8483SOL    HW126348   4.098   6.272   2.062
 8483SOL    HW226349   3.982   6.279   1.947
 8484SOL     OW26350   0.417   5.805   2.839
 8484SOL    HW126351   0.481   5.810   2.762
 8484SOL    HW226352   0.454   5.854   2.917
 8485SOL     OW26353   3.055   2.922   0.380
 8485SOL    HW126354   3.125   2.905   0.310
 8485SOL    HW226355   2.967   2.940   0.335
 8486SOL     OW26356   4.480   1.111   2.719
 8486SOL    HW126357   4.483   1.088   2.817
 8486SOL    HW226358   4.559   1.072   2.673
 8487SOL     OW26359   5.414   1.469   6.290
 8487SOL    HW126360   5.451   1.381   6.261
 8487SOL    HW226361   5.327   1.455   6.337
 8488SOL     OW26362   5.980   5.056   5.517
 8488SOL    HW126363   5.974   5.025   5.612
 8488SOL    HW226364   5.969   5.155   5.513
 8489SOL     OW26365   6.656   1.065   0.711
 8489SOL    HW126366   6.671   1.096   0.617
 8489SOL    HW226367   6.572   1.105   0.747
 8490SOL     OW26368   4.103   6.534   4.289
 8490SOL    HW126369   4.035   6.559   4.358
 8490SOL    HW226370   4.100   6.435   4.274
 8491SOL     OW26371   1.715   6.867   0.509
 8491SOL    HW126372   1.618   6.893   0.504
 8491SOL    HW226373   1.723   6.772   0.537
 8492SOL     OW26374   4.508   4.203   6.307
 8492SOL    HW126375   4.551   4.285   6.269
 8492SOL    HW226376   4.577   4.133   6.322
 8493SOL     OW26377   2.735   2.160   6.121
 8493SOL    HW126378   2.799   2.206   6.060
 8493SOL    HW226379   2.786   2.118   6.197
 8494SOL     OW26380   3.010   4.357   1.428
 8494SOL    HW126381   2.963   4.270   1.414
 8494SOL    HW226382   2.942   4.431   1.432
 8495SOL     OW26383   6.621   4.357   1.361
 8495SOL    HW126384   6.529   4.318   1.349
 8495SOL    HW226385   6.650   4.399   1.275
 8496SOL     OW26386   0.858   1.571   1.955
 8496SOL    HW126387   0.800   1.549   1.877
 8496SOL    HW226388   0.879   1.669   1.955
 8497SOL     OW26389   6.416   0.989   3.551
 8497SOL    HW126390   6.468   0.904   3.540
 8497SOL    HW226391   6.442   1.053   3.479
 8498SOL     OW26392   0.473   6.196   2.955
 8498SOL    HW126393   0.528   6.113   2.973
 8498SOL    HW226394   0.388   6.170   2.909
 8499SOL     OW26395   2.554   5.000   6.264
 8499SOL    HW126396   2.622   4.938   6.303
 8499SOL    HW226397   2.479   5.012   6.329
 8500SOL     OW26398   2.408   6.656   5.260
 8500SOL    HW126399   2.373   6.664   5.353
 8500SOL    HW226400   2.478   6.585   5.256
 8501SOL     OW26401   0.359   1.813   6.909
 8501SOL    HW126402   0.379   1.790   6.813
 8501SOL    HW226403   0.386   1.737   6.968
 8502SOL     OW26404   1.938   4.801   1.257
 8502SOL    HW126405   1.914   4.829   1.164
 8502SOL    HW226406   1.987   4.875   1.303
 8503SOL     OW26407   1.390   6.847   3.801
 8503SOL    HW126408   1.367   6.944   3.809
 8503SOL    HW226409   1.363   6.799   3.884
 8504SOL     OW26410   2.989   5.244   3.317
 8504SOL    HW126411   2.893   5.274   3.316
 8504SOL    HW226412   3.043   5.309   3.370
 8505SOL     OW26413   4.842   4.087   3.696
 8505SOL    HW126414   4.824   4.076   3.598
 8505SOL    HW226415   4.801   4.011   3.745
 8506SOL     OW26416   6.250   1.346   0.104
 8506SOL    HW126417   6.345   1.375   0.109
 8506SOL    HW226418   6.238   1.284   0.026
 8507SOL     OW26419   3.743   1.202   5.306
 8507SOL    HW126420   3.758   1.279   5.244
 8507SOL    HW226421   3.800   1.214   5.387
 8508SOL     OW26422   6.646   1.784   4.757
 8508SOL    HW126423   6.551   1.803   4.733
 8508SOL    HW226424   6.707   1.835   4.696
 8509SOL     OW26425   4.851   1.811   3.507
 8509SOL    HW126426   4.951   1.820   3.508
 8509SOL    HW226427   4.827   1.727   3.458
 8510SOL     OW26428   5.514   4.646   3.236
 8510SOL    HW126429   5.609   4.615   3.242
 8510SOL    HW226430   5.457   4.590   3.297
 8511SOL     OW26431   6.340   4.028   1.490
 8511SOL    HW126432   6.253   4.033   1.538
 8511SOL    HW226433   6.378   3.936   1.498
 8512SOL     OW26434   3.556   2.114   1.282
 8512SOL    HW126435   3.538   2.024   1.320
 8512SOL    HW226436   3.594   2.105   1.190
 8513SOL     OW26437   4.777   4.172   1.896
 8513SOL    HW126438   4.794   4.268   1.916
 8513SOL    HW226439   4.678   4.155   1.892
 8514SOL     OW26440   3.164   2.115   3.718
 8514SOL    HW126441   3.257   2.107   3.755
 8514SOL    HW226442   3.117   2.027   3.726
 8515SOL     OW26443   5.541   1.047   0.067
 8515SOL    HW126444   5.495   1.136   0.075
 8515SOL    HW226445   5.476   0.979   0.034
 8516SOL     OW26446   6.523   1.416   1.501
 8516SOL    HW126447   6.541   1.462   1.414
 8516SOL    HW226448   6.545   1.319   1.492
 8517SOL     OW26449   1.587   3.366   6.913
 8517SOL    HW126450   1.613   3.298   6.845
 8517SOL    HW226451   1.509   3.419   6.878
 8518SOL     OW26452   4.999   4.352   6.759
 8518SOL    HW126453   4.959   4.346   6.850
 8518SOL    HW226454   5.092   4.315   6.761
 8519SOL     OW26455   0.908   4.154   1.562
 8519SOL    HW126456   0.923   4.057   1.582
 8519SOL    HW226457   0.889   4.165   1.464
 8520SOL     OW26458   3.493   3.127   0.247
 8520SOL    HW126459   3.533   3.208   0.290
 8520SOL    HW226460   3.440   3.154   0.167
 8521SOL     OW26461   2.420   5.109   5.794
 8521SOL    HW126462   2.419   5.153   5.884
 8521SOL    HW226463   2.332   5.065   5.777
 8522SOL     OW26464   1.363   6.092   1.098
 8522SOL    HW126465   1.454   6.083   1.058
 8522SOL    HW226466   1.351   6.186   1.132
 8523SOL     OW26467   2.037   6.635   7.018
 8523SOL    HW126468   1.989   6.701   0.054
 8523SOL    HW226469   2.005   6.543   0.015
 8524SOL     OW26470   0.376   2.913   5.655
 8524SOL    HW126471   0.471   2.918   5.623
 8524SOL    HW226472   0.339   3.005   5.663
 8525SOL     OW26473   5.997   4.351   1.949
 8525SOL    HW126474   5.917   4.309   1.991
 8525SOL    HW226475   6.073   4.286   1.948
 8526SOL     OW26476   4.397   6.505   6.614
 8526SOL    HW126477   4.421   6.546   6.526
 8526SOL    HW226478   4.421   6.409   6.615
 8527SOL     OW26479   2.681   0.961   6.371
 8527SOL    HW126480   2.726   1.011   6.297
 8527SOL    HW226481   2.605   0.908   6.334
 8528SOL     OW26482   3.256   1.549   6.900
 8528SOL    HW126483   3.171   1.499   6.886
 8528SOL    HW226484   3.331   1.485   6.912
 8529SOL     OW26485   0.803   0.226   0.948
 8529SOL    HW126486   0.814   0.325   0.943
 8529SOL    HW226487   0.842   0.184   0.865
 8530SOL     OW26488   3.711   3.896   5.759
 8530SOL    HW126489   3.641   3.825   5.754
 8530SOL    HW226490   3.691   3.968   5.692
 8531SOL     OW26491   6.480   4.941   2.624
 8531SOL    HW126492   6.571   4.924   2.586
 8531SOL    HW226493   6.478   5.030   2.669
 8532SOL     OW26494   4.104   4.824   4.988
 8532SOL    HW126495   4.147   4.750   5.040
 8532SOL    HW226496   4.018   4.849   5.032
 8533SOL     OW26497   1.321   6.953   6.634
 8533SOL    HW126498   1.406   6.984   6.592
 8533SOL    HW226499   1.244   6.971   6.573
 8534SOL     OW26500   6.421   2.764   3.775
 8534SOL    HW126501   6.499   2.703   3.759
 8534SOL    HW226502   6.443   2.856   3.743
 8535SOL     OW26503   6.124   1.567   3.858
 8535SOL    HW126504   6.183   1.503   3.809
 8535SOL    HW226505   6.059   1.517   3.914
 8536SOL     OW26506   0.257   2.731   4.504
 8536SOL    HW126507   0.186   2.696   4.565
 8536SOL    HW226508   0.299   2.812   4.545
 8537SOL     OW26509   5.087   0.688   2.955
 8537SOL    HW126510   5.175   0.713   2.996
 8537SOL    HW226511   5.034   0.771   2.936
 8538SOL     OW26512   0.539   0.906   6.803
 8538SOL    HW126513   0.537   1.000   6.769
 8538SOL    HW226514   0.449   0.881   6.838
 8539SOL     OW26515   5.164   0.758   2.606
 8539SOL    HW126516   5.138   0.662   2.615
 8539SOL    HW226517   5.158   0.802   2.696
 8540SOL     OW26518   5.199   0.101   6.162
 8540SOL    HW126519   5.293   0.082   6.136
 8540SOL    HW226520   5.178   0.058   6.249
 8541SOL     OW26521   2.605   1.592   4.502
 8541SOL    HW126522   2.551   1.676   4.505
 8541SOL    HW226523   2.546   1.515   4.477
 8542SOL     OW26524   4.046   4.581   7.009
 8542SOL    HW126525   4.081   4.669   0.018
 8542SOL    HW226526   4.092   4.556   6.924
 8543SOL     OW26527   2.977   0.806   0.846
 8543SOL    HW126528   3.038   0.885   0.851
 8543SOL    HW226529   2.884   0.836   0.824
 8544SOL     OW26530   5.521   3.035   4.302
 8544SOL    HW126531   5.603   2.982   4.321
 8544SOL    HW226532   5.523   3.121   4.354
 8545SOL     OW26533   4.710   6.874   5.512
 8545SOL    HW126534   4.737   6.900   5.420
 8545SOL    HW226535   4.730   6.777   5.527
 8546SOL     OW26536   6.927   1.425   3.849
 8546SOL    HW126537   6.878   1.510   3.830
 8546SOL    HW226538   6.902   1.356   3.781
 8547SOL     OW26539   1.873   6.688   6.000
 8547SOL    HW126540   1.942   6.615   5.998
 8547SOL    HW226541   1.870   6.727   6.092
 8548SOL     OW26542   5.863   2.164   5.427
 8548SOL    HW126543   5.942   2.186   5.370
 8548SOL    HW226544   5.879   2.078   5.474
 8549SOL     OW26545   1.475   2.953   3.874
 8549SOL    HW126546   1.555   2.910   3.917
 8549SOL    HW226547   1.497   3.047   3.851
 8550SOL     OW26548   1.483   4.791   0.094
 8550SOL    HW126549   1.512   4.744   0.010
 8550SOL    HW226550   1.510   4.887   0.088
 8551SOL     OW26551   3.407   3.524   6.410
 8551SOL    HW126552   3.463   3.578   6.346
 8551SOL    HW226553   3.311   3.551   6.401
 8552SOL     OW26554   2.132   0.593   4.259
 8552SOL    HW126555   2.104   0.683   4.225
 8552SOL    HW226556   2.193   0.551   4.192
 8553SOL     OW26557   4.441   4.546   0.183
 8553SOL    HW126558   4.492   4.492   0.116
 8553SOL    HW226559   4.417   4.634   0.143
 8554SOL     OW26560   0.857   4.643   0.780
 8554SOL    HW126561   0.856   4.715   0.850
 8554SOL    HW226562   0.787   4.574   0.802
 8555SOL     OW26563   2.030   1.245   2.559
 8555SOL    HW126564   2.088   1.315   2.601
 8555SOL    HW226565   1.951   1.227   2.617
 8556SOL     OW26566   1.742   6.170   5.278
 8556SOL    HW126567   1.773   6.245   5.337
 8556SOL    HW226568   1.647   6.185   5.253
 8557SOL     OW26569   5.854   0.323   2.946
 8557SOL    HW126570   5.853   0.346   2.849
 8557SOL    HW226571   5.915   0.245   2.961
 8558SOL     OW26572   3.398   5.161   3.224
 8558SOL    HW126573   3.472   5.151   3.158
 8558SOL    HW226574   3.311   5.142   3.180
 8559SOL     OW26575   0.134   0.648   2.652
 8559SOL    HW126576   0.230   0.657   2.623
 8559SOL    HW226577   0.095   0.565   2.612
 8560SOL     OW26578   6.465   6.446   1.975
 8560SOL    HW126579   6.551   6.464   1.928
 8560SOL    HW226580   6.430   6.356   1.948
 8561SOL     OW26581   3.172   0.939   2.241
 8561SOL    HW126582   3.244   1.004   2.215
 8561SOL    HW226583   3.204   0.846   2.222
 8562SOL     OW26584   3.460   5.020   5.467
 8562SOL    HW126585   3.517   4.969   5.402
 8562SOL    HW226586   3.378   5.052   5.420
 8563SOL     OW26587   2.023   4.347   6.928
 8563SOL    HW126588   2.072   4.411   6.868
 8563SOL    HW226589   1.945   4.309   6.879
 8564SOL     OW26590   3.075   1.152   4.469
 8564SOL    HW126591   3.101   1.242   4.435
 8564SOL    HW226592   2.984   1.157   4.512
 8565SOL     OW26593   4.161   5.493   1.016
 8565SOL    HW126594   4.206   5.557   1.078
 8565SOL    HW226595   4.091   5.541   0.964
 8566SOL     OW26596   1.638   0.775   1.348
 8566SOL    HW126597   1.610   0.783   1.443
 8566SOL    HW226598   1.562   0.741   1.293
 8567SOL     OW26599   0.444   2.297   2.574
 8567SOL    HW126600   0.530   2.322   2.618
 8567SOL    HW226601   0.462   2.236   2.497
 8568SOL     OW26602   5.597   1.080   6.070
 8568SOL    HW126603   5.618   1.151   6.137
 8568SOL    HW226604   5.658   1.002   6.085
 8569SOL     OW26605   5.274   1.300   5.948
 8569SOL    HW126606   5.182   1.269   5.924
 8569SOL    HW226607   5.300   1.264   6.037
 8570SOL     OW26608   1.080   2.622   4.914
 8570SOL    HW126609   1.125   2.634   4.826
 8570SOL    HW226610   1.096   2.529   4.947
 8571SOL     OW26611   1.499   5.729   5.504
 8571SOL    HW126612   1.480   5.816   5.458
 8571SOL    HW226613   1.468   5.735   5.599
 8572SOL     OW26614   3.033   4.990   0.003
 8572SOL    HW126615   3.103   5.029   6.967
 8572SOL    HW226616   2.988   4.913   6.979
 8573SOL     OW26617   3.489   6.529   5.979
 8573SOL    HW126618   3.411   6.487   6.026
 8573SOL    HW226619   3.477   6.628   5.976
 8574SOL     OW26620   6.905   5.536   5.189
 8574SOL    HW126621   6.871   5.507   5.100
 8574SOL    HW226622   6.856   5.617   5.220
 8575SOL     OW26623   2.775   2.443   5.159
 8575SOL    HW126624   2.727   2.395   5.233
 8575SOL    HW226625   2.804   2.377   5.090
 8576SOL     OW26626   1.718   5.267   6.820
 8576SOL    HW126627   1.674   5.314   6.897
 8576SOL    HW226628   1.717   5.169   6.836
 8577SOL     OW26629   6.811   6.283   4.103
 8577SOL    HW126630   6.804   6.190   4.138
 8577SOL    HW226631   6.724   6.311   4.063
 8578SOL     OW26632   5.559   1.180   4.702
 8578SOL    HW126633   5.499   1.186   4.623
 8578SOL    HW226634   5.620   1.101   4.692
 8579SOL     OW26635   1.261   0.039   2.680
 8579SOL    HW126636   1.310   7.018   2.756
 8579SOL    HW226637   1.191   0.100   2.716
 8580SOL     OW26638   3.002   6.341   2.398
 8580SOL    HW126639   2.919   6.301   2.358
 8580SOL    HW226640   2.977   6.403   2.472
 8581SOL     OW26641   3.254   3.897   2.258
 8581SOL    HW126642   3.304   3.811   2.267
 8581SOL    HW226643   3.166   3.889   2.304
 8582SOL     OW26644   4.398   4.687   3.013
 8582SOL    HW126645   4.442   4.598   2.999
 8582SOL    HW226646   4.460   4.760   2.985
 8583SOL     OW26647   5.555   0.709   4.716
 8583SOL    HW126648   5.586   0.704   4.621
 8583SOL    HW226649   5.459   0.737   4.718
 8584SOL     OW26650   1.074   4.049   5.977
 8584SOL    HW126651   1.038   3.980   5.914
 8584SOL    HW226652   1.133   4.112   5.927
 8585SOL     OW26653   0.704   5.730   6.381
 8585SOL    HW126654   0.651   5.743   6.297
 8585SOL    HW226655   0.799   5.758   6.366
 8586SOL     OW26656   2.876   0.291   3.082
 8586SOL    HW126657   2.853   0.387   3.097
 8586SOL    HW226658   2.975   0.282   3.073
 8587SOL     OW26659   2.041   7.002   3.630
 8587SOL    HW126660   1.993   6.917   3.648
 8587SOL    HW226661   1.980   0.057   3.647
 8588SOL     OW26662   2.378   0.644   0.101
 8588SOL    HW126663   2.303   0.672   0.041
 8588SOL    HW226664   2.342   0.611   0.188
 8589SOL     OW26665   4.995   2.706   4.892
 8589SOL    HW126666   4.983   2.621   4.842
 8589SOL    HW226667   5.041   2.688   4.979
 8590SOL     OW26668   0.189   6.261   4.078
 8590SOL    HW126669   0.288   6.250   4.080
 8590SOL    HW226670   0.151   6.240   4.168
 8591SOL     OW26671   6.589   4.233   0.054
 8591SOL    HW126672   6.536   4.298   7.023
 8591SOL    HW226673   6.659   4.282   0.107
 8592SOL     OW26674   6.981   2.990   6.733
 8592SOL    HW126675   0.018   2.916   6.764
 8592SOL    HW226676   6.902   2.997   6.793
 8593SOL     OW26677   2.847   6.996   1.401
 8593SOL    HW126678   2.843   0.072   1.388
 8593SOL    HW226679   2.882   6.952   1.318
 8594SOL     OW26680   3.964   2.660   5.675
 8594SOL    HW126681   3.873   2.667   5.636
 8594SOL    HW226682   3.965   2.704   5.765
 8595SOL     OW26683   1.367   2.828   3.166
 8595SOL    HW126684   1.318   2.893   3.108
 8595SOL    HW226685   1.306   2.753   3.191
 8596SOL     OW26686   6.710   5.080   3.663
 8596SOL    HW126687   6.659   5.165   3.651
 8596SOL    HW226688   6.649   5.009   3.696
 8597SOL     OW26689   4.137   1.058   0.791
 8597SOL    HW126690   4.199   1.111   0.733
 8597SOL    HW226691   4.069   1.012   0.734
 8598SOL     OW26692   6.539   6.576   0.935
 8598SOL    HW126693   6.514   6.641   1.007
 8598SOL    HW226694   6.567   6.490   0.976
 8599SOL     OW26695   1.168   2.715   4.476
 8599SOL    HW126696   1.213   2.680   4.558
 8599SOL    HW226697   1.078   2.752   4.500
 8600SOL     OW26698   5.150   5.117   6.055
 8600SOL    HW126699   5.119   5.110   6.150
 8600SOL    HW226700   5.084   5.073   5.994
 8601SOL     OW26701   0.973   0.766   5.033
 8601SOL    HW126702   0.935   0.819   4.957
 8601SOL    HW226703   0.947   0.670   5.024
 8602SOL     OW26704   3.422   5.426   3.172
 8602SOL    HW126705   3.434   5.476   3.258
 8602SOL    HW226706   3.401   5.330   3.192
 8603SOL     OW26707   3.918   5.411   0.420
 8603SOL    HW126708   3.896   5.318   0.449
 8603SOL    HW226709   3.864   5.434   0.339
 8604SOL     OW26710   0.700   3.245   3.615
 8604SOL    HW126711   0.793   3.245   3.579
 8604SOL    HW226712   0.696   3.190   3.698
 8605SOL     OW26713   2.916   5.479   4.814
 8605SOL    HW126714   2.826   5.468   4.773
 8605SOL    HW226715   2.983   5.426   4.761
 8606SOL     OW26716   1.431   3.087   6.084
 8606SOL    HW126717   1.408   3.160   6.020
 8606SOL    HW226718   1.496   3.122   6.152
 8607SOL     OW26719   3.541   6.190   1.385
 8607SOL    HW126720   3.490   6.236   1.457
 8607SOL    HW226721   3.578   6.258   1.321
 8608SOL     OW26722   4.272   5.476   2.873
 8608SOL    HW126723   4.202   5.404   2.876
 8608SOL    HW226724   4.361   5.435   2.852
 8609SOL     OW26725   5.947   0.991   3.265
 8609SOL    HW126726   5.924   0.984   3.362
 8609SOL    HW226727   5.948   0.900   3.224
 8610SOL     OW26728   1.776   2.267   2.688
 8610SOL    HW126729   1.843   2.328   2.731
 8610SOL    HW226730   1.819   2.178   2.669
 8611SOL     OW26731   2.821   1.705   4.393
 8611SOL    HW126732   2.853   1.663   4.308
 8611SOL    HW226733   2.766   1.639   4.444
 8612SOL     OW26734   3.486   2.970   0.953
 8612SOL    HW126735   3.430   2.999   1.031
 8612SOL    HW226736   3.578   3.007   0.962
 8613SOL     OW26737   2.361   2.015   1.156
 8613SOL    HW126738   2.277   1.963   1.168
 8613SOL    HW226739   2.339   2.113   1.151
 8614SOL     OW26740   1.287   3.471   2.413
 8614SOL    HW126741   1.235   3.385   2.415
 8614SOL    HW226742   1.257   3.526   2.335
 8615SOL     OW26743   5.122   2.117   5.006
 8615SOL    HW126744   5.049   2.183   4.990
 8615SOL    HW226745   5.084   2.025   5.012
 8616SOL     OW26746   3.110   4.690   1.686
 8616SOL    HW126747   3.027   4.638   1.664
 8616SOL    HW226748   3.095   4.742   1.770
 8617SOL     OW26749   0.105   0.928   6.422
 8617SOL    HW126750   0.145   0.965   6.505
 8617SOL    HW226751   0.049   0.848   6.445
 8618SOL     OW26752   6.264   6.271   0.922
 8618SOL    HW126753   6.348   6.231   0.958
 8618SOL    HW226754   6.282   6.313   0.834
 8619SOL     OW26755   3.865   4.933   2.418
 8619SOL    HW126756   3.790   4.903   2.477
 8619SOL    HW226757   3.830   4.954   2.327
 8620SOL     OW26758   0.923   0.337   4.056
 8620SOL    HW126759   0.986   0.322   4.132
 8620SOL    HW226760   0.829   0.330   4.088
 8621SOL     OW26761   6.134   1.459   2.783
 8621SOL    HW126762   6.128   1.547   2.831
 8621SOL    HW226763   6.059   1.453   2.717
 8622SOL     OW26764   4.565   2.780   0.652
 8622SOL    HW126765   4.575   2.809   0.557
 8622SOL    HW226766   4.646   2.729   0.680
 8623SOL     OW26767   0.723   3.695   3.560
 8623SOL    HW126768   0.648   3.630   3.563
 8623SOL    HW226769   0.743   3.727   3.653
 8624SOL     OW26770   0.826   3.666   4.664
 8624SOL    HW126771   0.885   3.699   4.738
 8624SOL    HW226772   0.807   3.569   4.677
 8625SOL     OW26773   4.195   0.027   5.794
 8625SOL    HW126774   4.261   0.040   5.868
 8625SOL    HW226775   4.155   0.116   5.770
 8626SOL     OW26776   3.848   3.017   5.698
 8626SOL    HW126777   3.835   2.940   5.636
 8626SOL    HW226778   3.892   2.985   5.782
 8627SOL     OW26779   0.289   1.334   3.328
 8627SOL    HW126780   0.320   1.429   3.337
 8627SOL    HW226781   0.366   1.276   3.301
 8628SOL     OW26782   6.234   6.316   1.183
 8628SOL    HW126783   6.242   6.299   1.085
 8628SOL    HW226784   6.139   6.337   1.206
 8629SOL     OW26785   1.100   4.830   5.309
 8629SOL    HW126786   1.061   4.882   5.233
 8629SOL    HW226787   1.028   4.775   5.352
 8630SOL     OW26788   5.449   4.411   3.430
 8630SOL    HW126789   5.407   4.325   3.457
 8630SOL    HW226790   5.535   4.392   3.382
 8631SOL     OW26791   2.358   5.892   6.250
 8631SOL    HW126792   2.393   5.943   6.172
 8631SOL    HW226793   2.316   5.807   6.219
 8632SOL     OW26794   3.674   6.219   3.775
 8632SOL    HW126795   3.644   6.308   3.742
 8632SOL    HW226796   3.665   6.214   3.874
 8633SOL     OW26797   5.339   1.960   4.891
 8633SOL    HW126798   5.264   1.988   4.952
 8633SOL    HW226799   5.360   1.863   4.907
 8634SOL     OW26800   5.781   3.177   0.031
 8634SOL    HW126801   5.684   3.199   0.022
 8634SOL    HW226802   5.805   3.171   0.128
 8635SOL     OW26803   5.477   4.636   6.285
 8635SOL    HW126804   5.382   4.653   6.310
 8635SOL    HW226805   5.484   4.627   6.185
 8636SOL     OW26806   5.140   5.768   0.407
 8636SOL    HW126807   5.041   5.772   0.419
 8636SOL    HW226808   5.185   5.781   0.496
 8637SOL     OW26809   1.796   1.016   0.105
 8637SOL    HW126810   1.748   0.948   0.050
 8637SOL    HW226811   1.729   1.072   0.155
 8638SOL     OW26812   2.667   2.721   6.644
 8638SOL    HW126813   2.593   2.669   6.687
 8638SOL    HW226814   2.664   2.816   6.674
 8639SOL     OW26815   5.180   2.289   1.953
 8639SOL    HW126816   5.187   2.389   1.949
 8639SOL    HW226817   5.272   2.249   1.958
 8640SOL     OW26818   4.491   3.956   0.679
 8640SOL    HW126819   4.455   3.896   0.750
 8640SOL    HW226820   4.566   4.010   0.715
 8641SOL     OW26821   5.915   4.957   4.309
 8641SOL    HW126822   5.852   5.034   4.301
 8641SOL    HW226823   5.873   4.886   4.366
 8642SOL     OW26824   2.774   0.060   3.161
 8642SOL    HW126825   2.799   0.152   3.132
 8642SOL    HW226826   2.770   0.056   3.261
 8643SOL     OW26827   3.091   0.617   6.315
 8643SOL    HW126828   2.996   0.636   6.290
 8643SOL    HW226829   3.129   0.695   6.364
 8644SOL     OW26830   4.515   2.233   5.763
 8644SOL    HW126831   4.486   2.170   5.691
 8644SOL    HW226832   4.610   2.214   5.788
 8645SOL     OW26833   4.273   4.529   1.049
 8645SOL    HW126834   4.191   4.533   0.992
 8645SOL    HW226835   4.248   4.530   1.145
 8646SOL     OW26836   6.160   1.219   1.649
 8646SOL    HW126837   6.233   1.277   1.686
 8646SOL    HW226838   6.182   1.193   1.555
 8647SOL     OW26839   2.608   5.764   5.728
 8647SOL    HW126840   2.648   5.708   5.656
 8647SOL    HW226841   2.549   5.707   5.786
 8648SOL     OW26842   6.589   0.784   3.529
 8648SOL    HW126843   6.685   0.776   3.502
 8648SOL    HW226844   6.535   0.715   3.480
 8649SOL     OW26845   5.489   4.540   5.765
 8649SOL    HW126846   5.426   4.610   5.797
 8649SOL    HW226847   5.437   4.459   5.738
 8650SOL     OW26848   2.101   4.922   5.807
 8650SOL    HW126849   2.115   4.989   5.734
 8650SOL    HW226850   2.023   4.863   5.783
 8651SOL     OW26851   3.703   0.452   0.823
 8651SOL    HW126852   3.782   0.514   0.829
 8651SOL    HW226853   3.626   0.502   0.784
 8652SOL     OW26854   2.083   3.764   4.038
 8652SOL    HW126855   2.098   3.722   4.127
 8652SOL    HW226856   2.093   3.695   3.966
 8653SOL     OW26857   6.159   0.894   6.225
 8653SOL    HW126858   6.227   0.958   6.188
 8653SOL    HW226859   6.068   0.922   6.196
 8654SOL     OW26860   0.945   5.121   1.329
 8654SOL    HW126861   1.016   5.093   1.265
 8654SOL    HW226862   0.881   5.183   1.284
 8655SOL     OW26863   6.581   1.376   3.741
 8655SOL    HW126864   6.663   1.388   3.684
 8655SOL    HW226865   6.602   1.403   3.835
 8656SOL     OW26866   6.387   1.175   0.793
 8656SOL    HW126867   6.345   1.102   0.847
 8656SOL    HW226868   6.370   1.263   0.836
 8657SOL     OW26869   4.978   4.358   0.562
 8657SOL    HW126870   5.006   4.424   0.493
 8657SOL    HW226871   4.962   4.269   0.519
 8658SOL     OW26872   4.150   6.958   0.320
 8658SOL    HW126873   4.057   6.992   0.309
 8658SOL    HW226874   4.158   6.908   0.406
 8659SOL     OW26875   4.722   1.296   3.100
 8659SOL    HW126876   4.804   1.239   3.103
 8659SOL    HW226877   4.744   1.384   3.057
 8660SOL     OW26878   5.727   3.768   0.533
 8660SOL    HW126879   5.738   3.864   0.509
 8660SOL    HW226880   5.635   3.738   0.507
 8661SOL     OW26881   5.889   4.143   1.148
 8661SOL    HW126882   5.978   4.129   1.106
 8661SOL    HW226883   5.821   4.162   1.077
 8662SOL     OW26884   4.555   6.094   1.034
 8662SOL    HW126885   4.458   6.074   1.019
 8662SOL    HW226886   4.607   6.065   0.954
 8663SOL     OW26887   2.922   6.170   1.645
 8663SOL    HW126888   3.001   6.138   1.697
 8663SOL    HW226889   2.859   6.093   1.631
 8664SOL     OW26890   2.938   6.108   0.831
 8664SOL    HW126891   2.971   6.140   0.742
 8664SOL    HW226892   2.999   6.140   0.903
 8665SOL     OW26893   5.658   6.299   4.888
 8665SOL    HW126894   5.595   6.241   4.837
 8665SOL    HW226895   5.666   6.387   4.842
 8666SOL     OW26896   5.051   1.405   4.229
 8666SOL    HW126897   5.149   1.420   4.240
 8666SOL    HW226898   5.001   1.475   4.281
 8667SOL     OW26899   5.009   2.064   2.743
 8667SOL    HW126900   5.072   2.132   2.781
 8667SOL    HW226901   4.944   2.110   2.682
 8668SOL     OW26902   5.520   3.884   3.333
 8668SOL    HW126903   5.520   3.937   3.417
 8668SOL    HW226904   5.581   3.926   3.266
 8669SOL     OW26905   2.370   5.917   0.087
 8669SOL    HW126906   2.327   5.973   0.159
 8669SOL    HW226907   2.300   5.884   0.024
 8670SOL     OW26908   3.848   4.359   5.255
 8670SOL    HW126909   3.750   4.340   5.244
 8670SOL    HW226910   3.897   4.330   5.173
 8671SOL     OW26911   5.401   2.026   3.701
 8671SOL    HW126912   5.496   2.043   3.727
 8671SOL    HW226913   5.391   2.033   3.602
 8672SOL     OW26914   1.967   4.796   3.837
 8672SOL    HW126915   2.023   4.781   3.756
 8672SOL    HW226916   1.919   4.883   3.829
 8673SOL     OW26917   6.005   2.683   0.578
 8673SOL    HW126918   5.941   2.644   0.644
 8673SOL    HW226919   5.954   2.738   0.511
 8674SOL     OW26920   5.541   5.524   3.699
 8674SOL    HW126921   5.528   5.589   3.624
 8674SOL    HW226922   5.452   5.506   3.742
 8675SOL     OW26923   3.363   2.010   4.055
 8675SOL    HW126924   3.317   1.921   4.053
 8675SOL    HW226925   3.314   2.072   4.116
 8676SOL     OW26926   4.434   0.283   2.795
 8676SOL    HW126927   4.490   0.212   2.839
 8676SOL    HW226928   4.338   0.253   2.794
 8677SOL     OW26929   2.750   6.000   5.109
 8677SOL    HW126930   2.658   6.040   5.104
 8677SOL    HW226931   2.796   6.012   5.021
 8678SOL     OW26932   6.488   0.505   1.378
 8678SOL    HW126933   6.486   0.569   1.454
 8678SOL    HW226934   6.581   0.472   1.364
 8679SOL     OW26935   6.943   2.704   3.299
 8679SOL    HW126936   6.871   2.757   3.254
 8679SOL    HW226937   6.977   2.635   3.236
 8680SOL     OW26938   1.099   3.776   1.172
 8680SOL    HW126939   1.177   3.800   1.114
 8680SOL    HW226940   1.065   3.686   1.146
 8681SOL     OW26941   4.637   5.401   0.347
 8681SOL    HW126942   4.627   5.440   0.255
 8681SOL    HW226943   4.548   5.400   0.392
 8682SOL     OW26944   5.723   0.142   1.763
 8682SOL    HW126945   5.643   0.175   1.713
 8682SOL    HW226946   5.777   0.219   1.794
 8683SOL     OW26947   2.108   2.254   2.887
 8683SOL    HW126948   2.028   2.313   2.877
 8683SOL    HW226949   2.182   2.287   2.828
 8684SOL     OW26950   0.563   2.789   5.087
 8684SOL    HW126951   0.539   2.884   5.108
 8684SOL    HW226952   0.622   2.752   5.159
 8685SOL     OW26953   0.928   2.072   6.271
 8685SOL    HW126954   0.852   2.110   6.218
 8685SOL    HW226955   0.960   1.987   6.228
 8686SOL     OW26956   0.268   1.176   1.373
 8686SOL    HW126957   0.350   1.227   1.345
 8686SOL    HW226958   0.291   1.079   1.383
 8687SOL     OW26959   4.297   5.594   2.145
 8687SOL    HW126960   4.325   5.689   2.152
 8687SOL    HW226961   4.200   5.586   2.168
 8688SOL     OW26962   2.284   6.066   0.300
 8688SOL    HW126963   2.257   6.161   0.320
 8688SOL    HW226964   2.320   6.024   0.383
 8689SOL     OW26965   3.982   4.061   1.495
 8689SOL    HW126966   3.924   4.058   1.576
 8689SOL    HW226967   3.926   4.050   1.413
 8690SOL     OW26968   1.542   3.202   2.960
 8690SOL    HW126969   1.526   3.194   3.058
 8690SOL    HW226970   1.464   3.163   2.910
 8691SOL     OW26971   3.383   1.956   6.664
 8691SOL    HW126972   3.472   1.930   6.627
 8691SOL    HW226973   3.376   2.056   6.666
 8692SOL     OW26974   2.115   1.560   3.627
 8692SOL    HW126975   2.074   1.496   3.692
 8692SOL    HW226976   2.159   1.635   3.677
 8693SOL     OW26977   6.450   1.025   0.082
 8693SOL    HW126978   6.505   1.040   0.164
 8693SOL    HW226979   6.389   1.103   0.067
 8694SOL     OW26980   4.636   0.997   4.698
 8694SOL    HW126981   4.732   0.970   4.705
 8694SOL    HW226982   4.578   0.916   4.692
 8695SOL     OW26983   3.636   2.372   5.941
 8695SOL    HW126984   3.611   2.460   5.901
 8695SOL    HW226985   3.727   2.345   5.910
 8696SOL     OW26986   2.288   5.630   0.110
 8696SOL    HW126987   2.221   5.570   0.155
 8696SOL    HW226988   2.370   5.578   0.087
 8697SOL     OW26989   6.766   2.837   0.229
 8697SOL    HW126990   6.841   2.869   0.287
 8697SOL    HW226991   6.756   2.738   0.238
 8698SOL     OW26992   5.575   6.018   4.637
 8698SOL    HW126993   5.587   5.940   4.577
 8698SOL    HW226994   5.653   6.080   4.628
 8699SOL     OW26995   3.021   2.531   5.826
 8699SOL    HW126996   2.924   2.520   5.808
 8699SOL    HW226997   3.073   2.461   5.776
 8700SOL     OW26998   0.707   0.768   4.610
 8700SOL    HW126999   0.673   0.848   4.561
 8700SOL    HW227000   0.631   0.705   4.627
 8701SOL     OW27001   0.219   1.285   0.464
 8701SOL    HW127002   0.274   1.260   0.384
 8701SOL    HW227003   0.259   1.365   0.509
 8702SOL     OW27004   4.870   5.230   1.421
 8702SOL    HW127005   4.787   5.192   1.463
 8702SOL    HW227006   4.860   5.329   1.412
 8703SOL     OW27007   3.222   4.807   0.104
 8703SOL    HW127008   3.157   4.865   0.055
 8703SOL    HW227009   3.200   4.807   0.202
 8704SOL     OW27010   6.865   3.678   3.049
 8704SOL    HW127011   6.899   3.742   2.979
 8704SOL    HW227012   6.782   3.634   3.015
 8705SOL     OW27013   4.930   1.185   6.280
 8705SOL    HW127014   4.969   1.100   6.244
 8705SOL    HW227015   4.860   1.164   6.349
 8706SOL     OW27016   4.472   2.040   6.607
 8706SOL    HW127017   4.556   2.092   6.623
 8706SOL    HW227018   4.450   2.042   6.509
 8707SOL     OW27019   6.953   2.597   6.785
 8707SOL    HW127020   7.011   2.678   6.779
 8707SOL    HW227021   6.979   2.543   6.865
 8708SOL     OW27022   5.061   2.659   2.178
 8708SOL    HW127023   5.064   2.644   2.277
 8708SOL    HW227024   4.979   2.712   2.154
 8709SOL     OW27025   6.823   6.063   0.235
 8709SOL    HW127026   6.814   5.964   0.221
 8709SOL    HW227027   6.754   6.111   0.181
 8710SOL     OW27028   2.205   3.116   4.321
 8710SOL    HW127029   2.237   3.048   4.387
 8710SOL    HW227030   2.254   3.105   4.235
 8711SOL     OW27031   1.107   6.393   3.254
 8711SOL    HW127032   1.130   6.396   3.156
 8711SOL    HW227033   1.026   6.450   3.270
 8712SOL     OW27034   4.120   2.217   4.854
 8712SOL    HW127035   4.136   2.297   4.912
 8712SOL    HW227036   4.205   2.191   4.807
 8713SOL     OW27037   0.587   3.085   4.155
 8713SOL    HW127038   0.489   3.089   4.175
 8713SOL    HW227039   0.600   3.058   4.060
 8714SOL     OW27040   1.136   1.151   6.158
 8714SOL    HW127041   1.172   1.155   6.065
 8714SOL    HW227042   1.211   1.150   6.223
 8715SOL     OW27043   4.519   7.013   1.613
 8715SOL    HW127044   4.516   0.055   1.690
 8715SOL    HW227045   4.507   0.041   1.527
 8716SOL     OW27046   0.248   0.220   1.236
 8716SOL    HW127047   0.265   0.204   1.139
 8716SOL    HW227048   0.336   0.229   1.284
 8717SOL     OW27049   3.601   3.584   4.221
 8717SOL    HW127050   3.663   3.514   4.185
 8717SOL    HW227051   3.644   3.674   4.213
 8718SOL     OW27052   0.957   3.668   4.938
 8718SOL    HW127053   1.051   3.690   4.964
 8718SOL    HW227054   0.932   3.579   4.976
 8719SOL     OW27055   3.289   0.495   6.164
 8719SOL    HW127056   3.322   0.551   6.088
 8719SOL    HW227057   3.199   0.528   6.193
 8720SOL     OW27058   6.179   4.872   5.976
 8720SOL    HW127059   6.165   4.917   6.065
 8720SOL    HW227060   6.212   4.779   5.991
 8721SOL     OW27061   6.890   2.923   2.438
 8721SOL    HW127062   6.848   2.936   2.528
 8721SOL    HW227063   6.855   2.840   2.396
 8722SOL     OW27064   4.281   1.670   0.104
 8722SOL    HW127065   4.274   1.597   0.037
 8722SOL    HW227066   4.229   1.644   0.186
 8723SOL     OW27067   4.702   5.783   1.100
 8723SOL    HW127068   4.671   5.807   1.008
 8723SOL    HW227069   4.761   5.856   1.135
 8724SOL     OW27070   4.798   0.283   5.596
 8724SOL    HW127071   4.778   0.354   5.664
 8724SOL    HW227072   4.807   0.195   5.643
 8725SOL     OW27073   1.571   6.876   6.403
 8725SOL    HW127074   1.603   6.958   6.450
 8725SOL    HW227075   1.580   6.797   6.463
 8726SOL     OW27076   6.856   0.603   2.081
 8726SOL    HW127077   6.841   0.616   1.983
 8726SOL    HW227078   6.770   0.618   2.130
 8727SOL     OW27079   0.049   5.838   2.655
 8727SOL    HW127080   6.973   5.834   2.672
 8727SOL    HW227081   0.095   5.876   2.736
 8728SOL     OW27082   5.620   0.343   3.270
 8728SOL    HW127083   5.643   0.368   3.364
 8728SOL    HW227084   5.629   0.244   3.258
 8729SOL     OW27085   4.354   5.495   4.749
 8729SOL    HW127086   4.454   5.491   4.759
 8729SOL    HW227087   4.317   5.566   4.809
 8730SOL     OW27088   6.478   4.026   2.465
 8730SOL    HW127089   6.427   3.955   2.513
 8730SOL    HW227090   6.567   4.039   2.509
 8731SOL     OW27091   2.252   2.361   2.690
 8731SOL    HW127092   2.351   2.356   2.700
 8731SOL    HW227093   2.227   2.447   2.645
 8732SOL     OW27094   5.499   4.626   1.610
 8732SOL    HW127095   5.548   4.707   1.576
 8732SOL    HW227096   5.431   4.655   1.677
 8733SOL     OW27097   1.584   5.369   1.131
 8733SOL    HW127098   1.623   5.460   1.116
 8733SOL    HW227099   1.498   5.376   1.180
 8734SOL     OW27100   2.098   4.867   2.060
 8734SOL    HW127101   2.065   4.920   2.138
 8734SOL    HW227102   2.021   4.831   2.008
 8735SOL     OW27103   1.071   2.554   0.481
 8735SOL    HW127104   1.166   2.584   0.492
 8735SOL    HW227105   1.058   2.465   0.524
 8736SOL     OW27106   0.959   5.811   6.357
 8736SOL    HW127107   0.995   5.874   6.288
 8736SOL    HW227108   0.948   5.860   6.444
 8737SOL     OW27109   2.197   6.846   5.944
 8737SOL    HW127110   2.119   6.896   5.981
 8737SOL    HW227111   2.234   6.785   6.014
 8738SOL     OW27112   2.280   5.690   4.524
 8738SOL    HW127113   2.323   5.629   4.591
 8738SOL    HW227114   2.275   5.782   4.562
 8739SOL     OW27115   5.850   5.361   6.184
 8739SOL    HW127116   5.768   5.418   6.193
 8739SOL    HW227117   5.848   5.290   6.254
 8740SOL     OW27118   4.860   1.093   5.293
 8740SOL    HW127119   4.815   1.028   5.231
 8740SOL    HW227120   4.947   1.054   5.323
 8741SOL     OW27121   2.849   1.514   1.672
 8741SOL    HW127122   2.795   1.495   1.590
 8741SOL    HW227123   2.943   1.537   1.646
 8742SOL     OW27124   5.880   6.171   0.731
 8742SOL    HW127125   5.852   6.259   0.695
 8742SOL    HW227126   5.929   6.120   0.660
 8743SOL     OW27127   1.393   0.556   2.282
 8743SOL    HW127128   1.402   0.512   2.371
 8743SOL    HW227129   1.482   0.593   2.254
 8744SOL     OW27130   3.110   2.763   6.607
 8744SOL    HW127131   3.051   2.688   6.637
 8744SOL    HW227132   3.074   2.803   6.523
 8745SOL     OW27133   5.588   3.005   6.184
 8745SOL    HW127134   5.530   3.019   6.265
 8745SOL    HW227135   5.673   2.961   6.212
 8746SOL     OW27136   5.572   3.858   4.826
 8746SOL    HW127137   5.577   3.946   4.778
 8746SOL    HW227138   5.479   3.843   4.859
 8747SOL     OW27139   0.842   2.767   3.324
 8747SOL    HW127140   0.901   2.722   3.258
 8747SOL    HW227141   0.747   2.741   3.308
 8748SOL     OW27142   0.095   1.470   4.969
 8748SOL    HW127143   0.166   1.459   5.038
 8748SOL    HW227144   0.099   1.562   4.931
 8749SOL     OW27145   2.603   0.676   6.080
 8749SOL    HW127146   2.546   0.714   6.153
 8749SOL    HW227147   2.552   0.605   6.031
 8750SOL     OW27148   3.472   3.731   5.697
 8750SOL    HW127149   3.525   3.740   5.613
 8750SOL    HW227150   3.433   3.639   5.703
 8751SOL     OW27151   6.030   1.342   2.184
 8751SOL    HW127152   5.950   1.303   2.138
 8751SOL    HW227153   6.088   1.267   2.217
 8752SOL     OW27154   2.787   4.116   0.509
 8752SOL    HW127155   2.710   4.164   0.551
 8752SOL    HW227156   2.823   4.049   0.573
 8753SOL     OW27157   4.137   1.795   5.298
 8753SOL    HW127158   4.088   1.769   5.381
 8753SOL    HW227159   4.231   1.820   5.321
 8754SOL     OW27160   1.150   3.268   5.300
 8754SOL    HW127161   1.234   3.238   5.345
 8754SOL    HW227162   1.098   3.327   5.362
 8755SOL     OW27163   2.346   6.908   0.793
 8755SOL    HW127164   2.377   6.924   0.699
 8755SOL    HW227165   2.251   6.938   0.802
 8756SOL     OW27166   1.730   2.905   3.539
 8756SOL    HW127167   1.780   2.970   3.597
 8756SOL    HW227168   1.791   2.872   3.467
 8757SOL     OW27169   3.899   6.331   5.815
 8757SOL    HW127170   3.821   6.393   5.805
 8757SOL    HW227171   3.952   6.356   5.896
 8758SOL     OW27172   5.103   6.179   2.504
 8758SOL    HW127173   5.193   6.187   2.549
 8758SOL    HW227174   5.062   6.270   2.496
 8759SOL     OW27175   4.069   2.189   0.213
 8759SOL    HW127176   4.084   2.166   0.117
 8759SOL    HW227177   4.012   2.270   0.219
 8760SOL     OW27178   1.311   1.464   4.998
 8760SOL    HW127179   1.373   1.458   4.921
 8760SOL    HW227180   1.313   1.556   5.037
 8761SOL     OW27181   5.657   2.666   2.471
 8761SOL    HW127182   5.658   2.616   2.385
 8761SOL    HW227183   5.750   2.670   2.508
 8762SOL     OW27184   1.307   4.338   2.755
 8762SOL    HW127185   1.217   4.359   2.716
 8762SOL    HW227186   1.298   4.263   2.820
 8763SOL     OW27187   7.010   6.852   5.770
 8763SOL    HW127188   0.006   6.950   5.767
 8763SOL    HW227189   6.912   6.836   5.756
 8764SOL     OW27190   5.140   0.738   5.345
 8764SOL    HW127191   5.143   0.838   5.358
 8764SOL    HW227192   5.190   0.694   5.419
 8765SOL     OW27193   5.621   0.155   4.626
 8765SOL    HW127194   5.657   0.195   4.710
 8765SOL    HW227195   5.545   0.210   4.592
 8766SOL     OW27196   4.792   4.451   3.800
 8766SOL    HW127197   4.837   4.536   3.828
 8766SOL    HW227198   4.861   4.383   3.775
 8767SOL     OW27199   4.689   6.313   2.782
 8767SOL    HW127200   4.717   6.262   2.863
 8767SOL    HW227201   4.708   6.410   2.795
 8768SOL     OW27202   1.415   3.049   0.416
 8768SOL    HW127203   1.353   2.981   0.455
 8768SOL    HW227204   1.364   3.132   0.394
 8769SOL     OW27205   0.707   0.647   4.024
 8769SOL    HW127206   0.749   0.613   4.108
 8769SOL    HW227207   0.778   0.667   3.957
 8770SOL     OW27208   5.156   4.510   2.355
 8770SOL    HW127209   5.231   4.561   2.315
 8770SOL    HW227210   5.161   4.514   2.454
 8771SOL     OW27211   1.101   0.343   6.791
 8771SOL    HW127212   1.067   0.433   6.763
 8771SOL    HW227213   1.195   0.332   6.758
 8772SOL     OW27214   4.822   6.753   6.760
 8772SOL    HW127215   4.799   6.832   6.703
 8772SOL    HW227216   4.784   6.670   6.719
 8773SOL     OW27217   4.616   2.578   3.455
 8773SOL    HW127218   4.558   2.580   3.374
 8773SOL    HW227219   4.694   2.518   3.439
 8774SOL     OW27220   1.353   1.467   6.793
 8774SOL    HW127221   1.331   1.391   6.853
 8774SOL    HW227222   1.362   1.434   6.699
 8775SOL     OW27223   6.253   6.992   5.927
 8775SOL    HW127224   6.195   0.047   5.904
 8775SOL    HW227225   6.294   6.955   5.844
 8776SOL     OW27226   3.846   3.475   6.221
 8776SOL    HW127227   3.790   3.512   6.296
 8776SOL    HW227228   3.934   3.445   6.258
 8777SOL     OW27229   0.016   3.821   1.411
 8777SOL    HW127230   6.947   3.824   1.371
 8777SOL    HW227231   0.022   3.745   1.474
 8778SOL     OW27232   6.290   2.625   4.939
 8778SOL    HW127233   6.301   2.580   4.850
 8778SOL    HW227234   6.260   2.720   4.925
 8779SOL     OW27235   2.948   5.292   2.406
 8779SOL    HW127236   2.933   5.239   2.323
 8779SOL    HW227237   3.029   5.258   2.454
 8780SOL     OW27238   0.945   5.726   2.548
 8780SOL    HW127239   1.002   5.707   2.468
 8780SOL    HW227240   0.982   5.804   2.598
 8781SOL     OW27241   5.771   1.330   3.288
 8781SOL    HW127242   5.820   1.269   3.227
 8781SOL    HW227243   5.689   1.284   3.323
 8782SOL     OW27244   5.226   6.528   1.831
 8782SOL    HW127245   5.300   6.573   1.780
 8782SOL    HW227246   5.258   6.504   1.922
 8783SOL     OW27247   6.364   3.847   3.196
 8783SOL    HW127248   6.443   3.894   3.158
 8783SOL    HW227249   6.395   3.775   3.259
 8784SOL     OW27250   5.655   4.438   6.358
 8784SOL    HW127251   5.594   4.510   6.323
 8784SOL    HW227252   5.606   4.351   6.360
 8785SOL     OW27253   6.056   3.007   6.585
 8785SOL    HW127254   6.027   3.085   6.530
 8785SOL    HW227255   6.040   2.923   6.533
 8786SOL     OW27256   1.738   0.008   0.235
 8786SOL    HW127257   1.724   6.981   0.321
 8786SOL    HW227258   1.800   0.085   0.250
 8787SOL     OW27259   3.070   2.651   1.747
 8787SOL    HW127260   3.168   2.648   1.771
 8787SOL    HW227261   3.020   2.587   1.804
 8788SOL     OW27262   0.537   2.193   6.123
 8788SOL    HW127263   0.594   2.126   6.077
 8788SOL    HW227264   0.472   2.146   6.183
 8789SOL     OW27265   6.112   6.875   5.572
 8789SOL    HW127266   6.051   6.900   5.647
 8789SOL    HW227267   6.064   6.815   5.508
 8790SOL     OW27268   0.724   0.695   6.735
 8790SOL    HW127269   0.632   0.732   6.745
 8790SOL    HW227270   0.760   0.672   6.826
 8791SOL     OW27271   5.487   0.119   5.094
 8791SOL    HW127272   5.473   0.164   5.182
 8791SOL    HW227273   5.454   0.179   5.021
 8792SOL     OW27274   3.586   6.745   2.800
 8792SOL    HW127275   3.583   6.647   2.824
 8792SOL    HW227276   3.580   6.799   2.883
 8793SOL     OW27277   1.974   4.697   3.308
 8793SOL    HW127278   2.048   4.689   3.242
 8793SOL    HW227279   1.888   4.666   3.266
 8794SOL     OW27280   3.882   6.364   1.820
 8794SOL    HW127281   3.952   6.369   1.748
 8794SOL    HW227282   3.881   6.449   1.873
 8795SOL     OW27283   1.765   5.762   5.545
 8795SOL    HW127284   1.669   5.743   5.528
 8795SOL    HW227285   1.794   5.840   5.490
 8796SOL     OW27286   4.068   2.251   4.061
 8796SOL    HW127287   4.115   2.196   3.992
 8796SOL    HW227288   3.969   2.240   4.051
 8797SOL     OW27289   0.626   6.929   6.094
 8797SOL    HW127290   0.686   6.874   6.153
 8797SOL    HW227291   0.651   0.002   6.101
 8798SOL     OW27292   5.071   5.630   5.893
 8798SOL    HW127293   5.088   5.586   5.981
 8798SOL    HW227294   5.030   5.564   5.830
 8799SOL     OW27295   2.370   4.754   3.918
 8799SOL    HW127296   2.314   4.834   3.941
 8799SOL    HW227297   2.311   4.673   3.911
 8800SOL     OW27298   5.849   3.477   5.337
 8800SOL    HW127299   5.949   3.471   5.331
 8800SOL    HW227300   5.809   3.387   5.324
 8801SOL     OW27301   0.278   2.227   5.086
 8801SOL    HW127302   0.233   2.251   5.172
 8801SOL    HW227303   0.286   2.127   5.079
 8802SOL     OW27304   1.692   6.616   0.607
 8802SOL    HW127305   1.628   6.559   0.555
 8802SOL    HW227306   1.783   6.573   0.606
 8803SOL     OW27307   6.480   5.286   6.722
 8803SOL    HW127308   6.389   5.288   6.681
 8803SOL    HW227309   6.489   5.361   6.787
 8804SOL     OW27310   3.039   0.470   2.551
 8804SOL    HW127311   3.069   0.375   2.557
 8804SOL    HW227312   3.106   0.529   2.597
 8805SOL     OW27313   2.828   0.039   4.092
 8805SOL    HW127314   2.796   6.968   4.095
 8805SOL    HW227315   2.927   0.042   4.107
 8806SOL     OW27316   2.908   5.432   2.821
 8806SOL    HW127317   2.868   5.488   2.748
 8806SOL    HW227318   3.005   5.418   2.803
 8807SOL     OW27319   5.449   7.000   6.779
 8807SOL    HW127320   5.442   0.016   6.871
 8807SOL    HW227321   5.481   6.905   6.786
 8808SOL     OW27322   5.850   2.547   6.958
 8808SOL    HW127323   5.854   2.472   0.002
 8808SOL    HW227324   5.881   2.631   7.002
 8809SOL     OW27325   4.766   5.328   3.826
 8809SOL    HW127326   4.817   5.359   3.746
 8809SOL    HW227327   4.715   5.404   3.865
 8810SOL     OW27328   5.297   0.778   6.170
 8810SOL    HW127329   5.336   0.707   6.112
 8810SOL    HW227330   5.292   0.864   6.119
 8811SOL     OW27331   2.855   1.289   3.516
 8811SOL    HW127332   2.858   1.210   3.455
 8811SOL    HW227333   2.913   1.361   3.480
 8812SOL     OW27334   2.070   0.001   0.782
 8812SOL    HW127335   1.992   0.047   0.824
 8812SOL    HW227336   2.040   6.940   0.737
 8813SOL     OW27337   1.734   4.935   1.697
 8813SOL    HW127338   1.734   4.954   1.795
 8813SOL    HW227339   1.826   4.909   1.668
 8814SOL     OW27340   5.553   0.031   1.141
 8814SOL    HW127341   5.513   0.015   1.050
 8814SOL    HW227342   5.536   6.975   1.200
 8815SOL     OW27343   6.447   0.014   0.451
 8815SOL    HW127344   6.388   6.965   0.489
 8815SOL    HW227345   6.399   0.102   0.456
 8816SOL     OW27346   1.539   0.022   6.852
 8816SOL    HW127347   1.529   0.055   6.759
 8816SOL    HW227348   1.529   0.098   6.916
 8817SOL     OW27349   0.909   5.272   4.802
 8817SOL    HW127350   0.823   5.261   4.752
 8817SOL    HW227351   0.968   5.194   4.785
 8818SOL     OW27352   0.239   4.335   4.603
 8818SOL    HW127353   0.285   4.353   4.691
 8818SOL    HW227354   0.178   4.257   4.613
 8819SOL     OW27355   5.276   5.236   4.850
 8819SOL    HW127356   5.357   5.295   4.842
 8819SOL    HW227357   5.218   5.270   4.924
 8820SOL     OW27358   1.904   1.031   5.045
 8820SOL    HW127359   1.839   1.048   5.120
 8820SOL    HW227360   1.997   1.027   5.082
 8821SOL     OW27361   2.937   6.311   0.126
 8821SOL    HW127362   2.851   6.362   0.118
 8821SOL    HW227363   2.998   6.336   0.051
 8822SOL     OW27364   0.377   0.059   4.651
 8822SOL    HW127365   0.377   6.994   4.604
 8822SOL    HW227366   0.283   0.094   4.655
 8823SOL     OW27367   2.761   0.684   1.208
 8823SOL    HW127368   2.694   0.726   1.147
 8823SOL    HW227369   2.845   0.664   1.157
 8824SOL     OW27370   1.117   2.880   0.586
 8824SOL    HW127371   1.216   2.895   0.598
 8824SOL    HW227372   1.082   2.827   0.663
 8825SOL     OW27373   2.095   0.218   2.729
 8825SOL    HW127374   2.134   0.133   2.694
 8825SOL    HW227375   2.086   0.284   2.655
 8826SOL     OW27376   6.455   3.358   1.108
 8826SOL    HW127377   6.394   3.392   1.179
 8826SOL    HW227378   6.403   3.303   1.043
 8827SOL     OW27379   3.801   1.377   2.849
 8827SOL    HW127380   3.841   1.455   2.802
 8827SOL    HW227381   3.869   1.304   2.859
 8828SOL     OW27382   4.901   5.509   5.437
 8828SOL    HW127383   4.819   5.501   5.494
 8828SOL    HW227384   4.883   5.572   5.362
 8829SOL     OW27385   5.133   2.302   0.618
 8829SOL    HW127386   5.101   2.311   0.713
 8829SOL    HW227387   5.232   2.311   0.615
 8830SOL     OW27388   1.376   1.614   2.377
 8830SOL    HW127389   1.357   1.703   2.417
 8830SOL    HW227390   1.290   1.564   2.364
 8831SOL     OW27391   5.161   1.892   4.272
 8831SOL    HW127392   5.153   1.839   4.188
 8831SOL    HW227393   5.123   1.840   4.348
 8832SOL     OW27394   0.106   5.276   3.149
 8832SOL    HW127395   0.068   5.351   3.096
 8832SOL    HW227396   0.133   5.202   3.087
 8833SOL     OW27397   2.450   5.638   5.288
 8833SOL    HW127398   2.361   5.613   5.326
 8833SOL    HW227399   2.480   5.567   5.224
 8834SOL     OW27400   5.173   3.663   4.834
 8834SOL    HW127401   5.245   3.646   4.767
 8834SOL    HW227402   5.100   3.596   4.822
 8835SOL     OW27403   5.362   0.976   5.992
 8835SOL    HW127404   5.440   1.017   6.038
 8835SOL    HW227405   5.373   0.984   5.893
 8836SOL     OW27406   5.031   3.315   6.897
 8836SOL    HW127407   5.088   3.234   6.911
 8836SOL    HW227408   5.053   3.356   6.808
 8837SOL     OW27409   6.801   5.967   3.003
 8837SOL    HW127410   6.731   6.035   3.027
 8837SOL    HW227411   6.839   5.927   3.087
 8838SOL     OW27412   2.962   5.639   3.191
 8838SOL    HW127413   2.943   5.606   3.284
 8838SOL    HW227414   2.891   5.605   3.129
 8839SOL     OW27415   5.451   5.097   3.764
 8839SOL    HW127416   5.541   5.059   3.782
 8839SOL    HW227417   5.434   5.099   3.666
 8840SOL     OW27418   6.738   1.927   2.477
 8840SOL    HW127419   6.728   1.829   2.494
 8840SOL    HW227420   6.830   1.956   2.506
 8841SOL     OW27421   0.451   0.979   5.144
 8841SOL    HW127422   0.440   0.991   5.242
 8841SOL    HW227423   0.507   1.052   5.107
 8842SOL     OW27424   3.521   2.862   2.536
 8842SOL    HW127425   3.617   2.834   2.539
 8842SOL    HW227426   3.483   2.862   2.629
 8843SOL     OW27427   1.531   2.779   6.017
 8843SOL    HW127428   1.463   2.728   5.965
 8843SOL    HW227429   1.501   2.873   6.029
 8844SOL     OW27430   6.832   2.664   6.506
 8844SOL    HW127431   6.854   2.757   6.477
 8844SOL    HW227432   6.861   2.651   6.601
 8845SOL     OW27433   3.654   3.166   7.004
 8845SOL    HW127434   3.650   3.256   6.961
 8845SOL    HW227435   3.681   3.098   6.935
 8846SOL     OW27436   3.629   5.656   3.791
 8846SOL    HW127437   3.530   5.661   3.806
 8846SOL    HW227438   3.648   5.654   3.693
 8847SOL     OW27439   2.772   1.032   3.019
 8847SOL    HW127440   2.871   1.014   3.019
 8847SOL    HW227441   2.731   0.995   2.936
 8848SOL     OW27442   2.377   0.952   1.227
 8848SOL    HW127443   2.357   0.974   1.323
 8848SOL    HW227444   2.475   0.960   1.211
 8849SOL     OW27445   3.069   6.468   3.276
 8849SOL    HW127446   2.979   6.492   3.312
 8849SOL    HW227447   3.133   6.542   3.293
 8850SOL     OW27448   0.686   2.316   0.340
 8850SOL    HW127449   0.784   2.297   0.329
 8850SOL    HW227450   0.644   2.333   0.251
 8851SOL     OW27451   1.257   3.996   3.720
 8851SOL    HW127452   1.249   3.954   3.810
 8851SOL    HW227453   1.294   4.089   3.730
 8852SOL     OW27454   0.155   2.436   5.341
 8852SOL    HW127455   0.177   2.388   5.426
 8852SOL    HW227456   0.185   2.531   5.348
 8853SOL     OW27457   3.084   0.916   1.196
 8853SOL    HW127458   3.130   0.900   1.283
 8853SOL    HW227459   3.018   0.991   1.207
 8854SOL     OW27460   3.141   2.671   6.030
 8854SOL    HW127461   3.076   2.614   5.981
 8854SOL    HW227462   3.139   2.648   6.128
 8855SOL     OW27463   6.734   5.323   1.143
 8855SOL    HW127464   6.730   5.321   1.243
 8855SOL    HW227465   6.780   5.240   1.110
 8856SOL     OW27466   0.652   6.280   6.344
 8856SOL    HW127467   0.570   6.227   6.365
 8856SOL    HW227468   0.634   6.377   6.358
 8857SOL     OW27469   6.944   1.710   4.404
 8857SOL    HW127470   6.953   1.640   4.333
 8857SOL    HW227471   7.005   1.786   4.384
 8858SOL     OW27472   0.220   3.854   4.564
 8858SOL    HW127473   0.287   3.816   4.627
 8858SOL    HW227474   0.253   3.941   4.528
 8859SOL     OW27475   1.545   1.202   3.724
 8859SOL    HW127476   1.607   1.184   3.648
 8859SOL    HW227477   1.525   1.116   3.771
 8860SOL     OW27478   6.647   2.157   2.104
 8860SOL    HW127479   6.636   2.200   2.014
 8860SOL    HW227480   6.706   2.215   2.161
 8861SOL     OW27481   4.236   1.069   6.104
 8861SOL    HW127482   4.309   1.103   6.164
 8861SOL    HW227483   4.223   1.133   6.029
 8862SOL     OW27484   5.572   6.796   3.911
 8862SOL    HW127485   5.667   6.768   3.923
 8862SOL    HW227486   5.512   6.716   3.917
 8863SOL     OW27487   2.476   4.532   3.775
 8863SOL    HW127488   2.477   4.611   3.837
 8863SOL    HW227489   2.452   4.450   3.827
 8864SOL     OW27490   2.780   5.229   6.401
 8864SOL    HW127491   2.816   5.166   6.332
 8864SOL    HW227492   2.856   5.277   6.445
 8865SOL     OW27493   3.101   0.668   4.602
 8865SOL    HW127494   3.135   0.759   4.624
 8865SOL    HW227495   3.177   0.604   4.598
 8866SOL     OW27496   5.261   0.047   3.052
 8866SOL    HW127497   5.263   0.113   3.127
 8866SOL    HW227498   5.172   0.052   3.006
 8867SOL     OW27499   5.746   4.687   3.611
 8867SOL    HW127500   5.757   4.635   3.526
 8867SOL    HW227501   5.740   4.784   3.590
 8868SOL     OW27502   0.335   3.150   1.512
 8868SOL    HW127503   0.421   3.186   1.550
 8868SOL    HW227504   0.347   3.054   1.487
 8869SOL     OW27505   3.725   6.380   5.342
 8869SOL    HW127506   3.809   6.327   5.355
 8869SOL    HW227507   3.706   6.389   5.244
 8870SOL     OW27508   2.618   6.684   1.123
 8870SOL    HW127509   2.698   6.674   1.062
 8870SOL    HW227510   2.534   6.675   1.069
 8871SOL     OW27511   1.732   0.991   4.099
 8871SOL    HW127512   1.727   0.991   4.199
 8871SOL    HW227513   1.797   0.921   4.069
 8872SOL     OW27514   1.457   4.687   5.544
 8872SOL    HW127515   1.406   4.702   5.459
 8872SOL    HW227516   1.414   4.611   5.594
 8873SOL     OW27517   1.076   6.889   2.361
 8873SOL    HW127518   1.070   6.812   2.297
 8873SOL    HW227519   1.171   6.905   2.387
 8874SOL     OW27520   2.543   5.588   2.652
 8874SOL    HW127521   2.517   5.668   2.598
 8874SOL    HW227522   2.643   5.581   2.653
 8875SOL     OW27523   0.291   3.654   4.374
 8875SOL    HW127524   0.263   3.738   4.419
 8875SOL    HW227525   0.302   3.671   4.276
 8876SOL     OW27526   2.377   6.937   5.451
 8876SOL    HW127527   2.476   6.932   5.459
 8876SOL    HW227528   2.352   6.969   5.360
 8877SOL     OW27529   2.945   1.588   4.164
 8877SOL    HW127530   2.989   1.572   4.075
 8877SOL    HW227531   2.913   1.501   4.201
 8878SOL     OW27532   5.019   5.317   0.906
 8878SOL    HW127533   4.963   5.397   0.927
 8878SOL    HW227534   5.037   5.267   0.991
 8879SOL     OW27535   4.353   4.981   2.643
 8879SOL    HW127536   4.274   4.994   2.584
 8879SOL    HW227537   4.324   4.933   2.726
 8880SOL     OW27538   4.292   5.965   4.666
 8880SOL    HW127539   4.368   6.006   4.716
 8880SOL    HW227540   4.325   5.884   4.616
 8881SOL     OW27541   5.357   6.151   3.968
 8881SOL    HW127542   5.414   6.233   3.964
 8881SOL    HW227543   5.416   6.070   3.978
 8882SOL     OW27544   5.162   0.849   1.402
 8882SOL    HW127545   5.125   0.817   1.315
 8882SOL    HW227546   5.102   0.819   1.477
 8883SOL     OW27547   2.302   6.294   5.972
 8883SOL    HW127548   2.344   6.209   5.940
 8883SOL    HW227549   2.373   6.362   5.989
 8884SOL     OW27550   5.962   3.199   5.337
 8884SOL    HW127551   6.057   3.169   5.329
 8884SOL    HW227552   5.926   3.173   5.427
 8885SOL     OW27553   5.265   4.362   1.141
 8885SOL    HW127554   5.196   4.295   1.171
 8885SOL    HW227555   5.349   4.314   1.118
 8886SOL     OW27556   2.708   6.262   4.908
 8886SOL    HW127557   2.793   6.250   4.959
 8886SOL    HW227558   2.692   6.359   4.891
 8887SOL     OW27559   3.800   0.996   1.068
 8887SOL    HW127560   3.712   0.998   1.116
 8887SOL    HW227561   3.793   0.937   0.987
 8888SOL     OW27562   1.927   1.629   5.454
 8888SOL    HW127563   2.001   1.665   5.398
 8888SOL    HW227564   1.953   1.541   5.493
 8889SOL     OW27565   6.681   6.918   0.012
 8889SOL    HW127566   6.628   6.939   6.953
 8889SOL    HW227567   6.712   7.003   0.055
 8890SOL     OW27568   0.287   6.024   5.542
 8890SOL    HW127569   0.346   6.105   5.539
 8890SOL    HW227570   0.192   6.053   5.554
 8891SOL     OW27571   3.709   3.472   6.957
 8891SOL    HW127572   3.694   3.485   0.032
 8891SOL    HW227573   3.787   3.527   6.927
 8892SOL     OW27574   3.710   4.887   2.956
 8892SOL    HW127575   3.613   4.875   2.937
 8892SOL    HW227576   3.764   4.835   2.889
 8893SOL     OW27577   0.841   5.374   3.970
 8893SOL    HW127578   0.824   5.346   3.876
 8893SOL    HW227579   0.754   5.380   4.019
 8894SOL     OW27580   2.918   1.803   6.433
 8894SOL    HW127581   2.925   1.752   6.348
 8894SOL    HW227582   2.918   1.738   6.510
 8895SOL     OW27583   6.838   2.742   2.073
 8895SOL    HW127584   6.741   2.764   2.060
 8895SOL    HW227585   6.873   2.696   1.992
 8896SOL     OW27586   2.124   3.069   5.057
 8896SOL    HW127587   2.220   3.041   5.065
 8896SOL    HW227588   2.067   2.988   5.044
 8897SOL     OW27589   2.533   2.483   4.010
 8897SOL    HW127590   2.555   2.444   3.920
 8897SOL    HW227591   2.595   2.446   4.079
 8898SOL     OW27592   4.849   3.597   2.970
 8898SOL    HW127593   4.851   3.672   3.036
 8898SOL    HW227594   4.755   3.580   2.942
 8899SOL     OW27595   1.180   4.556   1.027
 8899SOL    HW127596   1.114   4.630   1.037
 8899SOL    HW227597   1.270   4.593   1.005
 8900SOL     OW27598   5.326   3.150   3.411
 8900SOL    HW127599   5.312   3.239   3.454
 8900SOL    HW227600   5.301   3.155   3.314
 8901SOL     OW27601   1.372   1.755   4.820
 8901SOL    HW127602   1.281   1.725   4.791
 8901SOL    HW227603   1.438   1.680   4.808
 8902SOL     OW27604   0.815   5.857   0.356
 8902SOL    HW127605   0.782   5.841   0.263
 8902SOL    HW227606   0.884   5.788   0.379
 8903SOL     OW27607   0.712   1.927   4.383
 8903SOL    HW127608   0.742   1.880   4.466
 8903SOL    HW227609   0.623   1.970   4.399
 8904SOL     OW27610   0.136   0.843   4.697
 8904SOL    HW127611   0.229   0.877   4.709
 8904SOL    HW227612   0.131   0.748   4.727
 8905SOL     OW27613   2.140   3.286   3.432
 8905SOL    HW127614   2.071   3.304   3.361
 8905SOL    HW227615   2.211   3.226   3.395
 8906SOL     OW27616   0.659   6.398   0.755
 8906SOL    HW127617   0.740   6.454   0.774
 8906SOL    HW227618   0.674   6.346   0.671
 8907SOL     OW27619   3.117   2.965   5.699
 8907SOL    HW127620   3.021   2.992   5.685
 8907SOL    HW227621   3.129   2.870   5.670
 8908SOL     OW27622   1.765   5.617   0.216
 8908SOL    HW127623   1.761   5.629   0.315
 8908SOL    HW227624   1.823   5.688   0.176
 8909SOL     OW27625   2.493   1.500   5.501
 8909SOL    HW127626   2.535   1.585   5.468
 8909SOL    HW227627   2.435   1.462   5.429
 8910SOL     OW27628   0.704   3.260   5.580
 8910SOL    HW127629   0.787   3.223   5.621
 8910SOL    HW227630   0.668   3.333   5.638
 8911SOL     OW27631   4.635   2.719   4.593
 8911SOL    HW127632   4.647   2.763   4.682
 8911SOL    HW227633   4.565   2.648   4.600
 8912SOL     OW27634   3.102   3.840   0.074
 8912SOL    HW127635   3.031   3.857   0.005
 8912SOL    HW227636   3.063   3.788   0.150
 8913SOL     OW27637   4.110   5.272   6.464
 8913SOL    HW127638   4.056   5.351   6.434
 8913SOL    HW227639   4.139   5.286   6.559
 8914SOL     OW27640   4.720   0.049   4.737
 8914SOL    HW127641   4.656   0.029   4.811
 8914SOL    HW227642   4.687   0.009   4.652
 8915SOL     OW27643   1.466   2.456   3.536
 8915SOL    HW127644   1.385   2.514   3.532
 8915SOL    HW227645   1.548   2.514   3.537
 8916SOL     OW27646   6.512   2.942   1.133
 8916SOL    HW127647   6.429   2.928   1.187
 8916SOL    HW227648   6.521   2.869   1.066
 8917SOL     OW27649   6.159   2.750   0.344
 8917SOL    HW127650   6.205   2.698   0.417
 8917SOL    HW227651   6.172   2.703   0.257
 8918SOL     OW27652   0.258   4.540   1.232
 8918SOL    HW127653   0.268   4.563   1.328
 8918SOL    HW227654   0.319   4.598   1.177
 8919SOL     OW27655   4.727   4.228   0.130
 8919SOL    HW127656   4.745   4.271   0.218
 8919SOL    HW227657   4.784   4.271   0.060
 8920SOL     OW27658   0.011   1.817   6.796
 8920SOL    HW127659   0.026   1.891   6.860
 8920SOL    HW227660   0.061   1.835   6.711
 8921SOL     OW27661   1.702   2.898   1.710
 8921SOL    HW127662   1.669   2.849   1.629
 8921SOL    HW227663   1.680   2.995   1.702
 8922SOL     OW27664   4.128   5.314   2.128
 8922SOL    HW127665   4.216   5.305   2.175
 8922SOL    HW227666   4.081   5.226   2.131
 8923SOL     OW27667   1.892   1.666   6.791
 8923SOL    HW127668   1.952   1.642   6.715
 8923SOL    HW227669   1.849   1.755   6.774
 8924SOL     OW27670   5.173   5.430   5.406
 8924SOL    HW127671   5.176   5.375   5.323
 8924SOL    HW227672   5.079   5.464   5.419
 8925SOL     OW27673   0.635   0.917   3.160
 8925SOL    HW127674   0.630   0.819   3.142
 8925SOL    HW227675   0.674   0.963   3.081
 8926SOL     OW27676   6.291   3.079   6.281
 8926SOL    HW127677   6.309   3.032   6.194
 8926SOL    HW227678   6.192   3.088   6.294
 8927SOL     OW27679   0.509   1.134   4.603
 8927SOL    HW127680   0.410   1.127   4.587
 8927SOL    HW227681   0.531   1.094   4.692
 8928SOL     OW27682   1.323   0.178   6.084
 8928SOL    HW127683   1.400   0.166   6.022
 8928SOL    HW227684   1.287   0.088   6.111
 8929SOL     OW27685   5.626   1.541   4.937
 8929SOL    HW127686   5.556   1.609   4.962
 8929SOL    HW227687   5.691   1.582   4.873
 8930SOL     OW27688   1.179   2.882   4.804
 8930SOL    HW127689   1.158   2.977   4.831
 8930SOL    HW227690   1.278   2.867   4.809
 8931SOL     OW27691   3.015   3.689   1.111
 8931SOL    HW127692   2.984   3.732   1.196
 8931SOL    HW227693   3.077   3.613   1.133
 8932SOL     OW27694   5.781   2.149   2.013
 8932SOL    HW127695   5.733   2.226   2.056
 8932SOL    HW227696   5.750   2.064   2.053
 8933SOL     OW27697   2.681   3.081   6.313
 8933SOL    HW127698   2.677   2.983   6.294
 8933SOL    HW227699   2.623   3.131   6.249
 8934SOL     OW27700   2.683   5.702   4.622
 8934SOL    HW127701   2.748   5.688   4.547
 8934SOL    HW227702   2.656   5.799   4.624
 8935SOL     OW27703   0.588   4.553   0.405
 8935SOL    HW127704   0.537   4.469   0.426
 8935SOL    HW227705   0.551   4.594   0.322
 8936SOL     OW27706   1.285   3.849   2.278
 8936SOL    HW127707   1.297   3.819   2.372
 8936SOL    HW227708   1.346   3.926   2.260
 8937SOL     OW27709   0.517   0.367   5.491
 8937SOL    HW127710   0.523   0.368   5.392
 8937SOL    HW227711   0.567   0.445   5.529
 8938SOL     OW27712   0.535   6.307   0.251
 8938SOL    HW127713   0.477   6.226   0.261
 8938SOL    HW227714   0.584   6.325   0.337
 8939SOL     OW27715   4.847   3.629   4.187
 8939SOL    HW127716   4.863   3.603   4.282
 8939SOL    HW227717   4.839   3.546   4.131
 8940SOL     OW27718   0.171   1.359   2.101
 8940SOL    HW127719   0.213   1.438   2.055
 8940SOL    HW227720   0.203   1.356   2.196
 8941SOL     OW27721   6.343   2.599   5.499
 8941SOL    HW127722   6.403   2.661   5.449
 8941SOL    HW227723   6.314   2.525   5.438
 8942SOL     OW27724   6.744   4.800   4.993
 8942SOL    HW127725   6.766   4.764   4.902
 8942SOL    HW227726   6.680   4.876   4.984
 8943SOL     OW27727   3.434   4.982   6.200
 8943SOL    HW127728   3.384   4.902   6.165
 8943SOL    HW227729   3.527   4.980   6.165
 8944SOL     OW27730   5.938   4.609   5.728
 8944SOL    HW127731   5.956   4.570   5.638
 8944SOL    HW227732   5.900   4.539   5.789
 8945SOL     OW27733   0.927   0.380   2.990
 8945SOL    HW127734   0.894   0.418   2.904
 8945SOL    HW227735   0.974   0.293   2.972
 8946SOL     OW27736   3.139   1.603   5.088
 8946SOL    HW127737   3.174   1.519   5.130
 8946SOL    HW227738   3.215   1.652   5.045
 8947SOL     OW27739   1.958   3.340   5.868
 8947SOL    HW127740   1.951   3.421   5.926
 8947SOL    HW227741   2.054   3.322   5.847
 8948SOL     OW27742   6.168   6.257   4.773
 8948SOL    HW127743   6.255   6.250   4.725
 8948SOL    HW227744   6.185   6.272   4.871
 8949SOL     OW27745   2.794   6.607   0.934
 8949SOL    HW127746   2.783   6.547   0.854
 8949SOL    HW227747   2.857   6.682   0.912
 8950SOL     OW27748   4.601   4.454   6.157
 8950SOL    HW127749   4.627   4.550   6.159
 8950SOL    HW227750   4.567   4.431   6.066
 8951SOL     OW27751   1.086   1.919   5.317
 8951SOL    HW127752   1.033   1.847   5.272
 8951SOL    HW227753   1.138   1.879   5.393
 8952SOL     OW27754   1.289   6.736   2.831
 8952SOL    HW127755   1.342   6.811   2.871
 8952SOL    HW227756   1.192   6.748   2.852
 8953SOL     OW27757   1.295   4.031   6.666
 8953SOL    HW127758   1.250   4.082   6.592
 8953SOL    HW227759   1.342   4.095   6.726
 8954SOL     OW27760   0.864   0.518   5.019
 8954SOL    HW127761   0.766   0.539   5.017
 8954SOL    HW227762   0.892   0.478   4.932
 8955SOL     OW27763   6.947   5.127   2.427
 8955SOL    HW127764   6.952   5.212   2.479
 8955SOL    HW227765   0.003   5.120   2.366
 8956SOL     OW27766   1.450   1.120   6.681
 8956SOL    HW127767   1.357   1.158   6.681
 8956SOL    HW227768   1.499   1.151   6.762
 8957SOL     OW27769   2.907   4.764   1.069
 8957SOL    HW127770   2.977   4.762   0.998
 8957SOL    HW227771   2.936   4.708   1.146
 8958SOL     OW27772   0.730   1.293   4.565
 8958SOL    HW127773   0.644   1.244   4.560
 8958SOL    HW227774   0.729   1.355   4.644
 8959SOL     OW27775   1.918   4.520   1.305
 8959SOL    HW127776   1.926   4.495   1.402
 8959SOL    HW227777   1.940   4.617   1.293
 8960SOL     OW27778   4.931   4.521   2.760
 8960SOL    HW127779   4.887   4.456   2.698
 8960SOL    HW227780   4.933   4.483   2.852
 8961SOL     OW27781   2.334   1.006   4.650
 8961SOL    HW127782   2.411   1.007   4.714
 8961SOL    HW227783   2.325   0.915   4.610
 8962SOL     OW27784   6.231   5.738   2.066
 8962SOL    HW127785   6.217   5.803   2.141
 8962SOL    HW227786   6.210   5.645   2.099
 8963SOL     OW27787   3.999   5.889   4.181
 8963SOL    HW127788   3.935   5.936   4.120
 8963SOL    HW227789   4.078   5.948   4.198
 8964SOL     OW27790   4.844   3.365   3.272
 8964SOL    HW127791   4.824   3.339   3.178
 8964SOL    HW227792   4.855   3.283   3.328
 8965SOL     OW27793   2.696   5.070   0.423
 8965SOL    HW127794   2.620   5.135   0.431
 8965SOL    HW227795   2.686   4.998   0.491
 8966SOL     OW27796   6.850   3.891   0.076
 8966SOL    HW127797   6.799   3.965   0.031
 8966SOL    HW227798   6.791   3.846   0.143
 8967SOL     OW27799   4.150   0.258   1.729
 8967SOL    HW127800   4.172   0.266   1.826
 8967SOL    HW227801   4.119   0.347   1.695
 8968SOL     OW27802   5.050   5.180   3.063
 8968SOL    HW127803   4.975   5.141   3.116
 8968SOL    HW227804   5.015   5.253   3.004
 8969SOL     OW27805   0.101   1.358   4.515
 8969SOL    HW127806   0.089   1.457   4.529
 8969SOL    HW227807   0.026   1.310   4.559
 8970SOL     OW27808   2.524   3.050   0.487
 8970SOL    HW127809   2.435   3.085   0.517
 8970SOL    HW227810   2.517   3.017   0.393
 8971SOL     OW27811   5.394   5.490   1.488
 8971SOL    HW127812   5.373   5.397   1.457
 8971SOL    HW227813   5.309   5.537   1.511
 8972SOL     OW27814   5.425   4.850   6.092
 8972SOL    HW127815   5.396   4.826   6.184
 8972SOL    HW227816   5.379   4.791   6.026
 8973SOL     OW27817   0.741   3.098   2.368
 8973SOL    HW127818   0.681   3.069   2.294
 8973SOL    HW227819   0.691   3.096   2.455
 8974SOL     OW27820   1.055   4.184   5.544
 8974SOL    HW127821   1.066   4.220   5.636
 8974SOL    HW227822   1.146   4.171   5.503
 8975SOL     OW27823   1.706   6.646   5.605
 8975SOL    HW127824   1.665   6.570   5.657
 8975SOL    HW227825   1.633   6.703   5.567
 8976SOL     OW27826   6.952   4.946   5.658
 8976SOL    HW127827   6.876   4.898   5.615
 8976SOL    HW227828   0.015   4.908   5.624
 8977SOL     OW27829   6.036   2.357   0.072
 8977SOL    HW127830   6.001   2.417   0.144
 8977SOL    HW227831   6.021   2.262   0.098
 8978SOL     OW27832   5.935   0.319   4.384
 8978SOL    HW127833   5.922   0.232   4.431
 8978SOL    HW227834   5.946   0.302   4.286
 8979SOL     OW27835   1.374   3.896   4.411
 8979SOL    HW127836   1.443   3.835   4.451
 8979SOL    HW227837   1.309   3.842   4.358
 8980SOL     OW27838   3.073   2.729   5.597
 8980SOL    HW127839   3.042   2.662   5.665
 8980SOL    HW227840   3.018   2.721   5.515
 8981SOL     OW27841   4.159   1.516   5.531
 8981SOL    HW127842   4.235   1.494   5.470
 8981SOL    HW227843   4.075   1.525   5.478
 8982SOL     OW27844   1.045   2.446   1.376
 8982SOL    HW127845   1.060   2.536   1.418
 8982SOL    HW227846   1.132   2.400   1.365
 8983SOL     OW27847   1.637   5.968   7.010
 8983SOL    HW127848   1.556   6.016   0.021
 8983SOL    HW227849   1.664   6.006   6.922
 8984SOL     OW27850   6.766   0.035   4.650
 8984SOL    HW127851   6.695   0.050   4.582
 8984SOL    HW227852   6.809   0.123   4.674
 8985SOL     OW27853   2.737   2.314   0.931
 8985SOL    HW127854   2.814   2.349   0.985
 8985SOL    HW227855   2.757   2.221   0.902
 8986SOL     OW27856   4.660   5.373   2.157
 8986SOL    HW127857   4.707   5.431   2.223
 8986SOL    HW227858   4.726   5.329   2.097
 8987SOL     OW27859   4.867   6.730   1.220
 8987SOL    HW127860   4.881   6.658   1.288
 8987SOL    HW227861   4.955   6.759   1.184
 8988SOL     OW27862   1.390   3.445   5.678
 8988SOL    HW127863   1.484   3.478   5.674
 8988SOL    HW227864   1.329   3.514   5.638
 8989SOL     OW27865   5.089   4.044   1.172
 8989SOL    HW127866   5.044   4.132   1.182
 8989SOL    HW227867   5.174   4.043   1.224
 8990SOL     OW27868   1.984   5.743   3.404
 8990SOL    HW127869   2.065   5.697   3.367
 8990SOL    HW227870   1.901   5.697   3.370
 8991SOL     OW27871   1.428   1.708   6.692
 8991SOL    HW127872   1.519   1.744   6.715
 8991SOL    HW227873   1.407   1.630   6.751
 8992SOL     OW27874   5.641   1.654   6.919
 8992SOL    HW127875   5.605   1.651   6.825
 8992SOL    HW227876   5.698   1.574   6.936
 8993SOL     OW27877   4.767   2.181   2.594
 8993SOL    HW127878   4.710   2.101   2.577
 8993SOL    HW227879   4.721   2.243   2.658
 8994SOL     OW27880   1.404   4.674   4.746
 8994SOL    HW127881   1.355   4.740   4.689
 8994SOL    HW227882   1.347   4.593   4.761
 8995SOL     OW27883   0.858   2.772   0.106
 8995SOL    HW127884   0.870   2.719   0.190
 8995SOL    HW227885   0.817   2.861   0.128
 8996SOL     OW27886   6.040   4.840   0.457
 8996SOL    HW127887   6.086   4.780   0.522
 8996SOL    HW227888   5.988   4.909   0.508
 8997SOL     OW27889   4.713   1.343   5.839
 8997SOL    HW127890   4.765   1.346   5.924
 8997SOL    HW227891   4.697   1.436   5.807
 8998SOL     OW27892   6.406   3.687   4.302
 8998SOL    HW127893   6.323   3.742   4.292
 8998SOL    HW227894   6.485   3.748   4.312
 8999SOL     OW27895   4.777   6.388   6.810
 8999SOL    HW127896   4.685   6.370   6.844
 8999SOL    HW227897   4.844   6.342   6.868
 9000SOL     OW27898   1.866   4.148   1.068
 9000SOL    HW127899   1.900   4.223   1.012
 9000SOL    HW227900   1.810   4.087   1.011
 9001SOL     OW27901   1.536   5.778   2.473
 9001SOL    HW127902   1.467   5.846   2.449
 9001SOL    HW227903   1.617   5.825   2.510
 9002SOL     OW27904   0.235   4.895   5.242
 9002SOL    HW127905   0.181   4.831   5.188
 9002SOL    HW227906   0.316   4.922   5.190
 9003SOL     OW27907   4.951   3.365   1.642
 9003SOL    HW127908   4.896   3.445   1.667
 9003SOL    HW227909   4.969   3.310   1.724
 9004SOL     OW27910   3.736   6.883   1.209
 9004SOL    HW127911   3.722   6.964   1.152
 9004SOL    HW227912   3.703   6.802   1.160
 9005SOL     OW27913   5.409   2.468   4.069
 9005SOL    HW127914   5.471   2.391   4.087
 9005SOL    HW227915   5.382   2.508   4.157
 9006SOL     OW27916   2.358   6.293   0.881
 9006SOL    HW127917   2.410   6.319   0.800
 9006SOL    HW227918   2.421   6.255   0.950
 9007SOL     OW27919   3.405   0.901   4.402
 9007SOL    HW127920   3.493   0.862   4.428
 9007SOL    HW227921   3.408   1.000   4.412
 9008SOL     OW27922   1.295   5.457   3.535
 9008SOL    HW127923   1.292   5.359   3.555
 9008SOL    HW227924   1.354   5.473   3.457
 9009SOL     OW27925   3.117   6.796   0.479
 9009SOL    HW127926   3.050   6.859   0.439
 9009SOL    HW227927   3.172   6.845   0.546
 9010SOL     OW27928   1.334   6.441   3.872
 9010SOL    HW127929   1.311   6.375   3.943
 9010SOL    HW227930   1.303   6.532   3.900
 9011SOL     OW27931   5.463   2.537   2.083
 9011SOL    HW127932   5.388   2.502   2.139
 9011SOL    HW227933   5.544   2.479   2.097
 9012SOL     OW27934   2.021   3.975   1.180
 9012SOL    HW127935   1.962   4.033   1.124
 9012SOL    HW227936   2.105   3.956   1.131
 9013SOL     OW27937   6.959   6.612   5.169
 9013SOL    HW127938   6.923   6.522   5.145
 9013SOL    HW227939   6.925   6.639   5.260
 9014SOL     OW27940   6.618   1.766   6.988
 9014SOL    HW127941   6.574   1.696   6.932
 9014SOL    HW227942   6.586   1.857   6.959
 9015SOL     OW27943   4.692   1.372   1.451
 9015SOL    HW127944   4.636   1.292   1.429
 9015SOL    HW227945   4.675   1.400   1.545
 9016SOL     OW27946   0.449   6.688   6.423
 9016SOL    HW127947   0.464   6.608   6.364
 9016SOL    HW227948   0.510   6.682   6.503
 9017SOL     OW27949   4.348   1.974   3.049
 9017SOL    HW127950   4.417   2.045   3.033
 9017SOL    HW227951   4.358   1.939   3.142
 9018SOL     OW27952   3.798   2.289   7.015
 9018SOL    HW127953   3.777   2.384   0.016
 9018SOL    HW227954   3.895   2.271   0.008
 9019SOL     OW27955   1.331   6.574   2.074
 9019SOL    HW127956   1.406   6.507   2.069
 9019SOL    HW227957   1.368   6.666   2.057
 9020SOL     OW27958   0.504   4.253   1.517
 9020SOL    HW127959   0.457   4.170   1.548
 9020SOL    HW227960   0.439   4.328   1.511
 9021SOL     OW27961   6.573   0.237   3.497
 9021SOL    HW127962   6.551   0.195   3.585
 9021SOL    HW227963   6.502   0.303   3.472
 9022SOL     OW27964   2.902   1.985   6.702
 9022SOL    HW127965   2.817   1.937   6.725
 9022SOL    HW227966   2.956   1.998   6.785
 9023SOL     OW27967   3.158   3.205   2.576
 9023SOL    HW127968   3.129   3.220   2.481
 9023SOL    HW227969   3.258   3.213   2.581
 9024SOL     OW27970   0.949   4.559   5.084
 9024SOL    HW127971   0.873   4.535   5.024
 9024SOL    HW227972   0.996   4.640   5.048
 9025SOL     OW27973   0.724   5.488   0.153
 9025SOL    HW127974   0.797   5.468   0.218
 9025SOL    HW227975   0.759   5.478   0.060
 9026SOL     OW27976   4.029   3.084   1.040
 9026SOL    HW127977   3.954   3.071   1.105
 9026SOL    HW227978   4.051   2.997   0.997
 9027SOL     OW27979   1.201   2.309   3.929
 9027SOL    HW127980   1.272   2.308   3.858
 9027SOL    HW227981   1.208   2.394   3.982
 9028SOL     OW27982   2.440   3.496   5.412
 9028SOL    HW127983   2.487   3.408   5.402
 9028SOL    HW227984   2.504   3.570   5.395
 9029SOL     OW27985   3.990   6.694   5.022
 9029SOL    HW127986   3.970   6.612   5.077
 9029SOL    HW227987   3.905   6.728   4.981
 9030SOL     OW27988   2.219   1.465   3.181
 9030SOL    HW127989   2.295   1.528   3.198
 9030SOL    HW227990   2.146   1.482   3.247
 9031SOL     OW27991   4.301   5.292   4.502
 9031SOL    HW127992   4.337   5.300   4.595
 9031SOL    HW227993   4.206   5.261   4.505
 9032SOL     OW27994   3.849   3.204   0.417
 9032SOL    HW127995   3.930   3.157   0.451
 9032SOL    HW227996   3.855   3.214   0.317
 9033SOL     OW27997   0.626   4.249   3.557
 9033SOL    HW127998   0.688   4.176   3.585
 9033SOL    HW227999   0.552   4.211   3.502
 9034SOL     OW28000   3.056   0.349   5.547
 9034SOL    HW128001   2.958   0.345   5.527
 9034SOL    HW228002   3.107   0.363   5.462
 9035SOL     OW28003   1.654   5.014   6.461
 9035SOL    HW128004   1.652   4.992   6.364
 9035SOL    HW228005   1.562   5.035   6.493
 9036SOL     OW28006   1.363   1.273   5.611
 9036SOL    HW128007   1.335   1.181   5.582
 9036SOL    HW228008   1.377   1.330   5.531
 9037SOL     OW28009   1.309   4.040   5.237
 9037SOL    HW128010   1.344   4.088   5.318
 9037SOL    HW228011   1.369   4.059   5.159
 9038SOL     OW28012   4.354   0.077   6.000
 9038SOL    HW128013   4.298   0.123   6.069
 9038SOL    HW228014   4.450   0.077   6.029
 9039SOL     OW28015   2.803   6.181   5.311
 9039SOL    HW128016   2.776   6.115   5.241
 9039SOL    HW228017   2.902   6.195   5.307
 9040SOL     OW28018   3.415   1.751   2.485
 9040SOL    HW128019   3.364   1.753   2.399
 9040SOL    HW228020   3.512   1.765   2.465
 9041SOL     OW28021   0.839   2.117   1.736
 9041SOL    HW128022   0.863   2.020   1.739
 9041SOL    HW228023   0.796   2.138   1.649
 9042SOL     OW28024   3.495   0.568   4.083
 9042SOL    HW128025   3.572   0.628   4.106
 9042SOL    HW228026   3.473   0.577   3.986
 9043SOL     OW28027   1.042   1.052   0.298
 9043SOL    HW128028   1.073   1.117   0.367
 9043SOL    HW228029   1.115   1.033   0.233
 9044SOL     OW28030   6.358   0.961   0.427
 9044SOL    HW128031   6.359   0.911   0.340
 9044SOL    HW228032   6.295   1.038   0.419
 9045SOL     OW28033   2.383   1.028   2.394
 9045SOL    HW128034   2.285   1.043   2.407
 9045SOL    HW228035   2.431   1.115   2.387
 9046SOL     OW28036   3.709   3.572   3.410
 9046SOL    HW128037   3.634   3.505   3.414
 9046SOL    HW228038   3.672   3.661   3.385
 9047SOL     OW28039   1.833   3.111   5.963
 9047SOL    HW128040   1.866   3.025   5.925
 9047SOL    HW228041   1.902   3.182   5.947
 9048SOL     OW28042   5.200   3.307   6.399
 9048SOL    HW128043   5.114   3.296   6.349
 9048SOL    HW228044   5.253   3.381   6.358
 9049SOL     OW28045   3.304   0.019   5.712
 9049SOL    HW128046   3.330   6.960   5.762
 9049SOL    HW228047   3.205   0.029   5.713
 9050SOL     OW28048   0.209   3.242   0.505
 9050SOL    HW128049   0.164   3.279   0.424
 9050SOL    HW228050   0.142   3.194   0.562
 9051SOL     OW28051   4.014   6.670   1.008
 9051SOL    HW128052   3.918   6.663   0.978
 9051SOL    HW228053   4.024   6.751   1.066
 9052SOL     OW28054   2.662   2.118   4.108
 9052SOL    HW128055   2.660   2.035   4.051
 9052SOL    HW228056   2.741   2.173   4.083
 9053SOL     OW28057   1.961   0.717   2.649
 9053SOL    HW128058   2.044   0.663   2.648
 9053SOL    HW228059   1.892   0.671   2.707
 9054SOL     OW28060   3.086   6.123   3.356
 9054SOL    HW128061   3.130   6.075   3.432
 9054SOL    HW228062   3.070   6.058   3.281
 9055SOL     OW28063   5.298   2.497   4.317
 9055SOL    HW128064   5.363   2.525   4.388
 9055SOL    HW228065   5.238   2.425   4.354
 9056SOL     OW28066   0.398   1.347   2.280
 9056SOL    HW128067   0.372   1.281   2.350
 9056SOL    HW228068   0.444   1.425   2.323
 9057SOL     OW28069   4.884   4.015   6.407
 9057SOL    HW128070   4.951   3.969   6.349
 9057SOL    HW228071   4.888   4.114   6.391
 9058SOL     OW28072   1.975   1.896   2.075
 9058SOL    HW128073   1.944   1.819   2.130
 9058SOL    HW228074   1.985   1.977   2.134
 9059SOL     OW28075   1.095   1.979   4.355
 9059SOL    HW128076   1.180   2.023   4.385
 9059SOL    HW228077   1.019   2.042   4.368
 9060SOL     OW28078   6.363   2.588   3.491
 9060SOL    HW128079   6.429   2.585   3.566
 9060SOL    HW228080   6.270   2.597   3.527
 9061SOL     OW28081   2.369   5.409   2.560
 9061SOL    HW128082   2.352   5.442   2.467
 9061SOL    HW228083   2.425   5.475   2.610
 9062SOL     OW28084   1.516   5.988   1.964
 9062SOL    HW128085   1.588   5.965   1.898
 9062SOL    HW228086   1.558   6.029   2.045
 9063SOL     OW28087   2.851   6.829   3.073
 9063SOL    HW128088   2.812   6.921   3.079
 9063SOL    HW228089   2.951   6.835   3.068
 9064SOL     OW28090   6.469   2.163   5.384
 9064SOL    HW128091   6.455   2.103   5.305
 9064SOL    HW228092   6.506   2.109   5.459
 9065SOL     OW28093   3.416   0.168   5.468
 9065SOL    HW128094   3.322   0.198   5.452
 9065SOL    HW228095   3.415   0.082   5.520
 9066SOL     OW28096   4.680   6.035   0.801
 9066SOL    HW128097   4.777   6.059   0.792
 9066SOL    HW228098   4.645   6.003   0.713
 9067SOL     OW28099   6.906   0.382   4.225
 9067SOL    HW128100   6.923   0.335   4.312
 9067SOL    HW228101   6.829   0.444   4.235
 9068SOL     OW28102   2.593   6.722   4.629
 9068SOL    HW128103   2.642   6.796   4.675
 9068SOL    HW228104   2.520   6.760   4.572
 9069SOL     OW28105   1.836   3.420   1.382
 9069SOL    HW128106   1.923   3.393   1.341
 9069SOL    HW228107   1.853   3.455   1.474
 9070SOL     OW28108   1.270   3.674   4.744
 9070SOL    HW128109   1.236   3.721   4.663
 9070SOL    HW228110   1.239   3.722   4.826
 9071SOL     OW28111   6.044   0.223   1.196
 9071SOL    HW128112   5.994   0.221   1.282
 9071SOL    HW228113   6.135   0.262   1.211
 9072SOL     OW28114   0.049   1.641   1.686
 9072SOL    HW128115   0.002   1.666   1.771
 9072SOL    HW228116   7.011   1.589   1.627
 9073SOL     OW28117   2.925   6.868   2.665
 9073SOL    HW128118   2.929   6.865   2.565
 9073SOL    HW228119   2.945   6.961   2.697
 9074SOL     OW28120   1.658   1.868   2.238
 9074SOL    HW128121   1.582   1.846   2.298
 9074SOL    HW228122   1.645   1.959   2.198
 9075SOL     OW28123   0.994   1.369   2.098
 9075SOL    HW128124   0.946   1.447   2.057
 9075SOL    HW228125   0.927   1.301   2.128
 9076SOL     OW28126   6.749   2.381   5.859
 9076SOL    HW128127   6.730   2.450   5.789
 9076SOL    HW228128   6.802   2.306   5.819
 9077SOL     OW28129   4.212   0.503   0.334
 9077SOL    HW128130   4.164   0.473   0.251
 9077SOL    HW228131   4.201   0.602   0.344
 9078SOL     OW28132   4.084   3.387   6.292
 9078SOL    HW128133   4.045   3.317   6.352
 9078SOL    HW228134   4.149   3.345   6.229
 9079SOL     OW28135   3.225   0.716   4.253
 9079SOL    HW128136   3.249   0.703   4.157
 9079SOL    HW228137   3.289   0.780   4.295
 9080SOL     OW28138   4.378   2.654   6.458
 9080SOL    HW128139   4.440   2.642   6.380
 9080SOL    HW228140   4.340   2.746   6.456
 9081SOL     OW28141   3.599   0.205   2.304
 9081SOL    HW128142   3.649   0.154   2.375
 9081SOL    HW228143   3.507   0.226   2.337
 9082SOL     OW28144   2.032   0.554   5.542
 9082SOL    HW128145   2.006   0.460   5.525
 9082SOL    HW228146   2.069   0.595   5.459
 9083SOL     OW28147   3.221   5.541   5.881
 9083SOL    HW128148   3.301   5.600   5.890
 9083SOL    HW228149   3.185   5.546   5.788
 9084SOL     OW28150   3.055   4.021   4.336
 9084SOL    HW128151   2.982   4.009   4.268
 9084SOL    HW228152   3.142   4.037   4.289
 9085SOL     OW28153   2.166   0.252   1.853
 9085SOL    HW128154   2.219   0.317   1.799
 9085SOL    HW228155   2.177   0.160   1.815
 9086SOL     OW28156   1.163   4.508   0.427
 9086SOL    HW128157   1.095   4.445   0.389
 9086SOL    HW228158   1.137   4.533   0.520
 9087SOL     OW28159   4.305   2.242   1.439
 9087SOL    HW128160   4.318   2.180   1.362
 9087SOL    HW228161   4.219   2.221   1.485
 9088SOL     OW28162   0.068   6.595   1.009
 9088SOL    HW128163   0.002   6.548   0.950
 9088SOL    HW228164   0.054   6.694   1.002
 9089SOL     OW28165   5.484   5.577   5.789
 9089SOL    HW128166   5.542   5.516   5.843
 9089SOL    HW228167   5.407   5.525   5.753
 9090SOL     OW28168   6.882   1.286   4.082
 9090SOL    HW128169   6.905   1.335   3.998
 9090SOL    HW228170   6.967   1.258   4.128
 9091SOL     OW28171   3.174   4.243   0.043
 9091SOL    HW128172   3.219   4.235   6.977
 9091SOL    HW228173   3.224   4.307   0.101
 9092SOL     OW28174   6.554   0.747   6.525
 9092SOL    HW128175   6.547   0.736   6.624
 9092SOL    HW228176   6.464   0.765   6.486
 9093SOL     OW28177   0.960   5.678   5.709
 9093SOL    HW128178   0.933   5.588   5.675
 9093SOL    HW228179   1.052   5.700   5.675
 9094SOL     OW28180   6.344   4.818   3.087
 9094SOL    HW128181   6.283   4.822   3.008
 9094SOL    HW228182   6.433   4.856   3.064
 9095SOL     OW28183   4.812   4.916   6.402
 9095SOL    HW128184   4.758   4.863   6.336
 9095SOL    HW228185   4.754   4.939   6.481
 9096SOL     OW28186   6.227   5.210   2.312
 9096SOL    HW128187   6.319   5.221   2.274
 9096SOL    HW228188   6.184   5.129   2.273
 9097SOL     OW28189   1.515   1.560   1.209
 9097SOL    HW128190   1.432   1.507   1.190
 9097SOL    HW228191   1.536   1.619   1.130
 9098SOL     OW28192   3.595   1.921   4.420
 9098SOL    HW128193   3.651   1.960   4.493
 9098SOL    HW228194   3.498   1.939   4.440
 9099SOL     OW28195   3.251   3.238   6.112
 9099SOL    HW128196   3.323   3.256   6.178
 9099SOL    HW228197   3.185   3.314   6.113
 9100SOL     OW28198   0.291   3.257   3.146
 9100SOL    HW128199   0.211   3.274   3.203
 9100SOL    HW228200   0.296   3.160   3.123
 9101SOL     OW28201   2.705   2.456   1.717
 9101SOL    HW128202   2.766   2.480   1.793
 9101SOL    HW228203   2.690   2.357   1.716
 9102SOL     OW28204   3.576   6.736   2.281
 9102SOL    HW128205   3.583   6.637   2.268
 9102SOL    HW228206   3.579   6.757   2.379
 9103SOL     OW28207   5.619   2.356   6.566
 9103SOL    HW128208   5.612   2.439   6.622
 9103SOL    HW228209   5.531   2.309   6.565
 9104SOL     OW28210   0.023   6.528   1.529
 9104SOL    HW128211   0.114   6.488   1.541
 9104SOL    HW228212   6.982   6.458   1.498
 9105SOL     OW28213   0.473   1.087   6.208
 9105SOL    HW128214   0.440   1.038   6.127
 9105SOL    HW228215   0.424   1.173   6.217
 9106SOL     OW28216   5.564   3.571   1.412
 9106SOL    HW128217   5.520   3.623   1.339
 9106SOL    HW228218   5.641   3.519   1.374
 9107SOL     OW28219   1.924   1.139   6.583
 9107SOL    HW128220   1.904   1.046   6.552
 9107SOL    HW228221   2.018   1.143   6.618
 9108SOL     OW28222   4.954   4.115   5.280
 9108SOL    HW128223   5.002   4.120   5.193
 9108SOL    HW228224   4.883   4.045   5.275
 9109SOL     OW28225   5.939   3.882   3.077
 9109SOL    HW128226   6.025   3.903   3.125
 9109SOL    HW228227   5.945   3.790   3.037
 9110SOL     OW28228   1.837   5.456   4.213
 9110SOL    HW128229   1.770   5.529   4.224
 9110SOL    HW228230   1.928   5.490   4.238
 9111SOL     OW28231   4.261   2.993   6.993
 9111SOL    HW128232   4.294   3.007   0.064
 9111SOL    HW228233   4.332   3.020   6.929
 9112SOL     OW28234   2.142   5.468   2.761
 9112SOL    HW128235   2.083   5.420   2.696
 9112SOL    HW228236   2.238   5.446   2.742
 9113SOL     OW28237   5.266   2.705   2.516
 9113SOL    HW128238   5.170   2.722   2.490
 9113SOL    HW228239   5.326   2.750   2.449
 9114SOL     OW28240   6.921   5.323   3.595
 9114SOL    HW128241   6.900   5.326   3.692
 9114SOL    HW228242   6.836   5.331   3.542
 9115SOL     OW28243   5.820   5.529   5.023
 9115SOL    HW128244   5.788   5.526   5.118
 9115SOL    HW228245   5.897   5.592   5.016
 9116SOL     OW28246   0.205   6.707   3.010
 9116SOL    HW128247   0.274   6.635   3.000
 9116SOL    HW228248   0.114   6.666   3.007
 9117SOL     OW28249   3.670   2.769   6.043
 9117SOL    HW128250   3.609   2.772   5.964
 9117SOL    HW228251   3.665   2.856   6.092
 9118SOL     OW28252   6.372   3.453   0.236
 9118SOL    HW128253   6.420   3.434   0.150
 9118SOL    HW228254   6.274   3.434   0.224
 9119SOL     OW28255   3.752   1.160   2.052
 9119SOL    HW128256   3.824   1.203   2.106
 9119SOL    HW228257   3.720   1.078   2.099
 9120SOL     OW28258   0.211   2.030   5.781
 9120SOL    HW128259   0.296   2.004   5.734
 9120SOL    HW228260   0.222   2.015   5.879
 9121SOL     OW28261   3.744   6.060   4.766
 9121SOL    HW128262   3.709   6.152   4.753
 9121SOL    HW228263   3.801   6.057   4.849
 9122SOL     OW28264   2.608   4.628   2.159
 9122SOL    HW128265   2.691   4.624   2.103
 9122SOL    HW228266   2.567   4.536   2.164
 9123SOL     OW28267   2.153   0.841   4.443
 9123SOL    HW128268   2.164   0.744   4.463
 9123SOL    HW228269   2.091   0.882   4.509
 9124SOL     OW28270   3.608   5.539   1.115
 9124SOL    HW128271   3.528   5.592   1.086
 9124SOL    HW228272   3.584   5.443   1.123
 9125SOL     OW28273   4.175   4.508   1.344
 9125SOL    HW128274   4.090   4.545   1.379
 9125SOL    HW228275   4.187   4.414   1.375
 9126SOL     OW28276   4.489   3.698   1.368
 9126SOL    HW128277   4.576   3.690   1.417
 9126SOL    HW228278   4.482   3.626   1.299
 9127SOL     OW28279   6.815   2.121   5.777
 9127SOL    HW128280   6.823   2.081   5.869
 9127SOL    HW228281   6.882   2.078   5.716
 9128SOL     OW28282   5.767   2.443   5.217
 9128SOL    HW128283   5.810   2.450   5.307
 9128SOL    HW228284   5.727   2.352   5.207
 9129SOL     OW28285   6.502   1.458   0.105
 9129SOL    HW128286   6.490   1.550   0.142
 9129SOL    HW228287   6.594   1.449   0.067
 9130SOL     OW28288   0.950   4.598   6.229
 9130SOL    HW128289   0.935   4.512   6.181
 9130SOL    HW228290   0.955   4.673   6.163
 9131SOL     OW28291   5.128   3.537   6.164
 9131SOL    HW128292   5.217   3.491   6.169
 9131SOL    HW228293   5.071   3.490   6.096
 9132SOL     OW28294   1.000   4.887   4.724
 9132SOL    HW128295   1.046   4.974   4.742
 9132SOL    HW228296   1.068   4.817   4.703
 9133SOL     OW28297   3.414   0.385   1.477
 9133SOL    HW128298   3.387   0.309   1.417
 9133SOL    HW228299   3.395   0.471   1.431
 9134SOL     OW28300   4.210   5.382   1.272
 9134SOL    HW128301   4.274   5.329   1.217
 9134SOL    HW228302   4.189   5.468   1.225
 9135SOL     OW28303   1.129   6.444   1.553
 9135SOL    HW128304   1.049   6.503   1.536
 9135SOL    HW228305   1.113   6.391   1.637
 9136SOL     OW28306   4.573   6.061   5.813
 9136SOL    HW128307   4.570   6.026   5.719
 9136SOL    HW228308   4.481   6.091   5.840
 9137SOL     OW28309   3.859   0.684   6.771
 9137SOL    HW128310   3.847   0.718   6.865
 9137SOL    HW228311   3.869   0.762   6.709
 9138SOL     OW28312   1.342   3.791   6.227
 9138SOL    HW128313   1.390   3.762   6.309
 9138SOL    HW228314   1.406   3.795   6.150
 9139SOL     OW28315   1.383   1.249   2.271
 9139SOL    HW128316   1.468   1.290   2.240
 9139SOL    HW228317   1.325   1.229   2.191
 9140SOL     OW28318   0.954   4.772   1.903
 9140SOL    HW128319   0.985   4.709   1.974
 9140SOL    HW228320   0.877   4.732   1.854
 9141SOL     OW28321   6.655   6.178   6.750
 9141SOL    HW128322   6.555   6.176   6.756
 9141SOL    HW228323   6.692   6.223   6.831
 9142SOL     OW28324   0.554   3.394   1.385
 9142SOL    HW128325   0.510   3.440   1.461
 9142SOL    HW228326   0.648   3.369   1.410
 9143SOL     OW28327   0.324   4.030   1.637
 9143SOL    HW128328   0.257   4.103   1.627
 9143SOL    HW228329   0.362   4.033   1.730
 9144SOL     OW28330   3.515   5.192   4.917
 9144SOL    HW128331   3.477   5.104   4.888
 9144SOL    HW228332   3.547   5.243   4.837
 9145SOL     OW28333   1.732   6.058   6.769
 9145SOL    HW128334   1.781   6.136   6.808
 9145SOL    HW228335   1.769   6.037   6.679
 9146SOL     OW28336   5.252   3.315   2.868
 9146SOL    HW128337   5.337   3.361   2.892
 9146SOL    HW228338   5.185   3.383   2.837
 9147SOL     OW28339   6.791   0.584   4.970
 9147SOL    HW128340   6.699   0.565   4.935
 9147SOL    HW228341   6.858   0.566   4.899
 9148SOL     OW28342   5.895   6.663   1.954
 9148SOL    HW128343   5.872   6.747   1.905
 9148SOL    HW228344   5.974   6.680   2.013
 9149SOL     OW28345   5.643   3.121   1.929
 9149SOL    HW128346   5.564   3.169   1.891
 9149SOL    HW228347   5.712   3.187   1.959
 9150SOL     OW28348   3.542   4.219   1.031
 9150SOL    HW128349   3.466   4.176   0.981
 9150SOL    HW228350   3.626   4.167   1.016
 9151SOL     OW28351   2.108   3.797   3.349
 9151SOL    HW128352   2.123   3.717   3.291
 9151SOL    HW228353   2.171   3.870   3.323
 9152SOL     OW28354   1.999   4.352   4.249
 9152SOL    HW128355   1.908   4.349   4.289
 9152SOL    HW228356   2.062   4.397   4.312
 9153SOL     OW28357   0.142   2.791   6.806
 9153SOL    HW128358   0.218   2.848   6.775
 9153SOL    HW228359   0.166   2.747   6.892
 9154SOL     OW28360   5.125   3.899   3.547
 9154SOL    HW128361   5.111   3.995   3.568
 9154SOL    HW228362   5.136   3.887   3.449
 9155SOL     OW28363   2.278   4.205   2.971
 9155SOL    HW128364   2.190   4.231   3.011
 9155SOL    HW228365   2.330   4.288   2.948
 9156SOL     OW28366   6.436   2.601   1.588
 9156SOL    HW128367   6.516   2.661   1.586
 9156SOL    HW228368   6.354   2.655   1.607
 9157SOL     OW28369   3.259   4.267   6.777
 9157SOL    HW128370   3.180   4.327   6.769
 9157SOL    HW228371   3.302   4.256   6.687
 9158SOL     OW28372   6.592   3.915   4.101
 9158SOL    HW128373   6.511   3.952   4.147
 9158SOL    HW228374   6.563   3.861   4.021
 9159SOL     OW28375   1.865   0.527   3.844
 9159SOL    HW128376   1.862   0.498   3.748
 9159SOL    HW228377   1.950   0.494   3.886
 9160SOL     OW28378   0.406   5.781   5.620
 9160SOL    HW128379   0.364   5.870   5.636
 9160SOL    HW228380   0.354   5.710   5.667
 9161SOL     OW28381   6.209   5.103   3.235
 9161SOL    HW128382   6.146   5.080   3.310
 9161SOL    HW228383   6.161   5.092   3.148
 9162SOL     OW28384   3.797   0.246   2.980
 9162SOL    HW128385   3.839   0.314   3.040
 9162SOL    HW228386   3.864   0.215   2.913
 9163SOL     OW28387   6.826   3.433   2.466
 9163SOL    HW128388   6.881   3.515   2.454
 9163SOL    HW228389   6.767   3.420   2.387
 9164SOL     OW28390   1.589   1.100   6.940
 9164SOL    HW128391   1.681   1.136   6.925
 9164SOL    HW228392   1.591   1.001   6.930
 9165SOL     OW28393   4.714   1.651   5.884
 9165SOL    HW128394   4.740   1.744   5.910
 9165SOL    HW228395   4.641   1.619   5.944
 9166SOL     OW28396   4.217   5.228   0.672
 9166SOL    HW128397   4.290   5.188   0.728
 9166SOL    HW228398   4.252   5.245   0.580
 9167SOL     OW28399   1.381   2.422   6.230
 9167SOL    HW128400   1.398   2.355   6.302
 9167SOL    HW228401   1.379   2.375   6.141
 9168SOL     OW28402   6.923   5.971   6.354
 9168SOL    HW128403   6.922   6.029   6.435
 9168SOL    HW228404   6.839   5.984   6.302
 9169SOL     OW28405   6.398   5.868   6.053
 9169SOL    HW128406   6.419   5.772   6.035
 9169SOL    HW228407   6.477   5.925   6.030
 9170SOL     OW28408   1.736   1.450   6.382
 9170SOL    HW128409   1.788   1.505   6.447
 9170SOL    HW228410   1.694   1.373   6.430
 9171SOL     OW28411   2.827   5.732   0.790
 9171SOL    HW128412   2.775   5.794   0.731
 9171SOL    HW228413   2.925   5.747   0.776
 9172SOL     OW28414   4.325   2.154   4.686
 9172SOL    HW128415   4.378   2.208   4.621
 9172SOL    HW228416   4.306   2.064   4.648
 9173SOL     OW28417   6.323   2.876   4.534
 9173SOL    HW128418   6.277   2.904   4.618
 9173SOL    HW228419   6.292   2.934   4.459
 9174SOL     OW28420   0.747   6.100   0.030
 9174SOL    HW128421   0.813   6.025   0.035
 9174SOL    HW228422   0.674   6.076   6.989
 9175SOL     OW28423   1.150   6.588   6.885
 9175SOL    HW128424   1.107   6.531   6.815
 9175SOL    HW228425   1.089   6.595   6.964
 9176SOL     OW28426   2.553   6.740   1.648
 9176SOL    HW128427   2.540   6.827   1.602
 9176SOL    HW228428   2.647   6.709   1.637
 9177SOL     OW28429   1.686   2.610   3.570
 9177SOL    HW128430   1.640   2.688   3.530
 9177SOL    HW228431   1.670   2.608   3.669
 9178SOL     OW28432   2.545   5.200   6.077
 9178SOL    HW128433   2.559   5.132   6.149
 9178SOL    HW228434   2.449   5.230   6.078
 9179SOL     OW28435   2.348   5.905   5.238
 9179SOL    HW128436   2.409   5.953   5.176
 9179SOL    HW228437   2.394   5.824   5.275
 9180SOL     OW28438   6.355   2.238   3.970
 9180SOL    HW128439   6.291   2.306   4.006
 9180SOL    HW228440   6.309   2.182   3.902
 9181SOL     OW28441   5.006   2.676   3.283
 9181SOL    HW128442   5.010   2.654   3.380
 9181SOL    HW228443   5.013   2.592   3.229
 9182SOL     OW28444   3.275   1.223   2.893
 9182SOL    HW128445   3.283   1.227   2.992
 9182SOL    HW228446   3.317   1.305   2.853
 9183SOL     OW28447   4.654   3.800   6.103
 9183SOL    HW128448   4.621   3.853   6.181
 9183SOL    HW228449   4.578   3.752   6.060
 9184SOL     OW28450   3.742   2.345   1.155
 9184SOL    HW128451   3.653   2.389   1.141
 9184SOL    HW228452   3.728   2.256   1.199
 9185SOL     OW28453   0.931   6.831   6.101
 9185SOL    HW128454   0.941   6.924   6.065
 9185SOL    HW228455   0.954   6.765   6.029
 9186SOL     OW28456   4.810   0.515   5.753
 9186SOL    HW128457   4.834   0.564   5.669
 9186SOL    HW228458   4.874   0.539   5.825
 9187SOL     OW28459   4.364   2.105   6.838
 9187SOL    HW128460   4.391   2.092   6.743
 9187SOL    HW228461   4.344   2.017   6.880
 9188SOL     OW28462   1.511   0.388   1.456
 9188SOL    HW128463   1.416   0.416   1.474
 9188SOL    HW228464   1.572   0.465   1.473
 9189SOL     OW28465   2.946   0.518   3.897
 9189SOL    HW128466   2.885   0.594   3.917
 9189SOL    HW228467   3.007   0.542   3.822
 9190SOL     OW28468   6.701   3.653   5.272
 9190SOL    HW128469   6.685   3.598   5.354
 9190SOL    HW228470   6.799   3.659   5.254
 9191SOL     OW28471   4.592   6.776   6.519
 9191SOL    HW128472   4.627   6.703   6.578
 9191SOL    HW228473   4.668   6.822   6.474
 9192SOL     OW28474   6.478   3.623   6.424
 9192SOL    HW128475   6.417   3.558   6.380
 9192SOL    HW228476   6.521   3.681   6.355
 9193SOL     OW28477   3.322   3.789   3.880
 9193SOL    HW128478   3.254   3.852   3.842
 9193SOL    HW228479   3.409   3.837   3.891
 9194SOL     OW28480   3.156   5.792   1.818
 9194SOL    HW128481   3.169   5.881   1.776
 9194SOL    HW228482   3.180   5.720   1.753
 9195SOL     OW28483   1.921   2.612   3.891
 9195SOL    HW128484   1.913   2.553   3.971
 9195SOL    HW228485   1.948   2.557   3.812
 9196SOL     OW28486   5.789   0.051   3.945
 9196SOL    HW128487   5.851   0.020   3.873
 9196SOL    HW228488   5.711   0.098   3.903
 9197SOL     OW28489   3.588   4.634   0.888
 9197SOL    HW128490   3.604   4.695   0.966
 9197SOL    HW228491   3.593   4.687   0.803
 9198SOL     OW28492   5.648   4.225   6.079
 9198SOL    HW128493   5.686   4.135   6.058
 9198SOL    HW228494   5.708   4.272   6.144
 9199SOL     OW28495   0.442   3.103   6.337
 9199SOL    HW128496   0.469   3.193   6.305
 9199SOL    HW228497   0.400   3.051   6.262
 9200SOL     OW28498   1.963   5.800   6.320
 9200SOL    HW128499   1.964   5.867   6.245
 9200SOL    HW228500   1.955   5.708   6.282
 9201SOL     OW28501   0.576   3.625   1.076
 9201SOL    HW128502   0.571   3.680   1.159
 9201SOL    HW228503   0.575   3.686   0.996
 9202SOL     OW28504   1.403   5.889   4.496
 9202SOL    HW128505   1.431   5.793   4.494
 9202SOL    HW228506   1.460   5.940   4.560
 9203SOL     OW28507   5.393   2.339   6.257
 9203SOL    HW128508   5.304   2.364   6.220
 9203SOL    HW228509   5.400   2.240   6.263
 9204SOL     OW28510   4.840   3.784   3.561
 9204SOL    HW128511   4.831   3.806   3.658
 9204SOL    HW228512   4.936   3.789   3.535
 9205SOL     OW28513   5.092   3.739   2.629
 9205SOL    HW128514   5.027   3.690   2.570
 9205SOL    HW228515   5.079   3.838   2.618
 9206SOL     OW28516   3.316   0.458   4.337
 9206SOL    HW128517   3.322   0.541   4.283
 9206SOL    HW228518   3.220   0.433   4.351
 9207SOL     OW28519   3.624   6.357   5.841
 9207SOL    HW128520   3.575   6.427   5.893
 9207SOL    HW228521   3.559   6.309   5.781
 9208SOL     OW28522   5.191   4.169   2.340
 9208SOL    HW128523   5.121   4.213   2.283
 9208SOL    HW228524   5.263   4.132   2.282
 9209SOL     OW28525   4.008   0.535   2.172
 9209SOL    HW128526   4.091   0.578   2.138
 9209SOL    HW228527   4.027   0.439   2.193
 9210SOL     OW28528   0.973   0.590   1.068
 9210SOL    HW128529   1.007   0.684   1.066
 9210SOL    HW228530   0.994   0.549   1.157
 9211SOL     OW28531   4.970   2.313   5.815
 9211SOL    HW128532   4.978   2.339   5.718
 9211SOL    HW228533   5.061   2.308   5.855
 9212SOL     OW28534   5.085   4.078   5.036
 9212SOL    HW128535   5.176   4.076   4.995
 9212SOL    HW228536   5.029   4.007   4.994
 9213SOL     OW28537   5.417   6.236   4.415
 9213SOL    HW128538   5.396   6.308   4.481
 9213SOL    HW228539   5.515   6.238   4.394
 9214SOL     OW28540   0.267   2.661   5.230
 9214SOL    HW128541   0.350   2.683   5.280
 9214SOL    HW228542   0.285   2.586   5.167
 9215SOL     OW28543   0.503   4.408   2.493
 9215SOL    HW128544   0.573   4.342   2.519
 9215SOL    HW228545   0.498   4.414   2.394
 9216SOL     OW28546   2.438   0.018   4.682
 9216SOL    HW128547   2.440   0.057   4.590
 9216SOL    HW228548   2.502   0.068   4.741
 9217SOL     OW28549   5.401   1.451   6.730
 9217SOL    HW128550   5.392   1.442   6.829
 9217SOL    HW228551   5.313   1.433   6.687
 9218SOL     OW28552   3.883   0.962   6.712
 9218SOL    HW128553   3.833   1.016   6.779
 9218SOL    HW228554   3.979   0.956   6.739
 9219SOL     OW28555   4.119   3.338   5.772
 9219SOL    HW128556   4.155   3.423   5.734
 9219SOL    HW228557   4.131   3.264   5.706
 9220SOL     OW28558   1.892   5.973   2.347
 9220SOL    HW128559   1.949   6.054   2.350
 9220SOL    HW228560   1.917   5.917   2.268
 9221SOL     OW28561   2.340   0.320   5.622
 9221SOL    HW128562   2.330   0.415   5.652
 9221SOL    HW228563   2.343   0.316   5.522
 9222SOL     OW28564   2.302   4.310   4.758
 9222SOL    HW128565   2.249   4.252   4.697
 9222SOL    HW228566   2.365   4.254   4.811
 9223SOL     OW28567   0.848   2.319   3.444
 9223SOL    HW128568   0.785   2.246   3.420
 9223SOL    HW228569   0.844   2.336   3.543
 9224SOL     OW28570   1.878   2.898   3.833
 9224SOL    HW128571   1.844   2.966   3.768
 9224SOL    HW228572   1.810   2.886   3.906
 9225SOL     OW28573   3.806   6.634   6.288
 9225SOL    HW128574   3.822   6.637   6.189
 9225SOL    HW228575   3.776   6.542   6.314
 9226SOL     OW28576   1.386   0.677   1.244
 9226SOL    HW128577   1.385   0.613   1.168
 9226SOL    HW228578   1.325   0.644   1.316
 9227SOL     OW28579   2.495   5.344   1.455
 9227SOL    HW128580   2.584   5.358   1.499
 9227SOL    HW228581   2.507   5.291   1.371
 9228SOL     OW28582   2.181   2.296   6.040
 9228SOL    HW128583   2.233   2.254   5.965
 9228SOL    HW228584   2.170   2.394   6.023
 9229SOL     OW28585   1.415   5.096   6.596
 9229SOL    HW128586   1.341   5.041   6.557
 9229SOL    HW228587   1.428   5.072   6.692
 9230SOL     OW28588   4.993   2.559   3.541
 9230SOL    HW128589   4.995   2.462   3.519
 9230SOL    HW228590   5.005   2.572   3.640
 9231SOL     OW28591   0.763   4.634   5.657
 9231SOL    HW128592   0.848   4.651   5.707
 9231SOL    HW228593   0.745   4.535   5.655
 9232SOL     OW28594   2.473   5.853   1.307
 9232SOL    HW128595   2.376   5.868   1.287
 9232SOL    HW228596   2.521   5.824   1.224
 9233SOL     OW28597   1.107   6.998   0.540
 9233SOL    HW128598   1.134   0.012   0.451
 9233SOL    HW228599   1.040   0.036   0.583
 9234SOL     OW28600   2.440   5.502   0.937
 9234SOL    HW128601   2.453   5.536   1.030
 9234SOL    HW228602   2.392   5.415   0.940
 9235SOL     OW28603   2.502   2.421   3.604
 9235SOL    HW128604   2.420   2.362   3.604
 9235SOL    HW228605   2.475   2.515   3.622
 9236SOL     OW28606   2.308   3.241   6.480
 9236SOL    HW128607   2.338   3.332   6.451
 9236SOL    HW228608   2.211   3.230   6.460
 9237SOL     OW28609   0.475   5.943   3.064
 9237SOL    HW128610   0.565   5.954   3.106
 9237SOL    HW228611   0.407   5.931   3.136
 9238SOL     OW28612   3.033   2.222   6.082
 9238SOL    HW128613   3.037   2.254   6.177
 9238SOL    HW228614   3.076   2.289   6.022
 9239SOL     OW28615   6.674   4.599   6.427
 9239SOL    HW128616   6.612   4.658   6.376
 9239SOL    HW228617   6.710   4.528   6.365
 9240SOL     OW28618   5.360   3.103   2.725
 9240SOL    HW128619   5.284   3.140   2.779
 9240SOL    HW228620   5.359   3.144   2.633
 9241SOL     OW28621   6.874   5.536   0.323
 9241SOL    HW128622   6.881   5.560   0.419
 9241SOL    HW228623   6.964   5.543   0.280
 9242SOL     OW28624   1.892   3.227   1.784
 9242SOL    HW128625   1.885   3.242   1.883
 9242SOL    HW228626   1.805   3.193   1.749
 9243SOL     OW28627   0.925   0.353   2.161
 9243SOL    HW128628   0.962   0.287   2.226
 9243SOL    HW228629   0.859   0.308   2.101
 9244SOL     OW28630   2.494   6.525   6.342
 9244SOL    HW128631   2.522   6.489   6.253
 9244SOL    HW228632   2.521   6.461   6.414
 9245SOL     OW28633   0.470   4.294   3.851
 9245SOL    HW128634   0.569   4.289   3.836
 9245SOL    HW228635   0.452   4.305   3.948
 9246SOL     OW28636   5.951   0.181   4.136
 9246SOL    HW128637   5.884   0.148   4.070
 9246SOL    HW228638   6.042   0.148   4.111
 9247SOL     OW28639   4.217   5.422   3.257
 9247SOL    HW128640   4.261   5.385   3.339
 9247SOL    HW228641   4.276   5.493   3.217
 9248SOL     OW28642   2.825   2.364   5.539
 9248SOL    HW128643   2.767   2.304   5.484
 9248SOL    HW228644   2.800   2.356   5.635
 9249SOL     OW28645   4.395   5.106   1.203
 9249SOL    HW128646   4.316   5.080   1.146
 9249SOL    HW228647   4.448   5.176   1.154
 9250SOL     OW28648   6.859   3.088   4.057
 9250SOL    HW128649   6.890   3.182   4.069
 9250SOL    HW228650   6.784   3.070   4.121
 9251SOL     OW28651   4.392   2.083   1.962
 9251SOL    HW128652   4.350   2.045   2.043
 9251SOL    HW228653   4.322   2.112   1.897
 9252SOL     OW28654   5.317   0.610   4.891
 9252SOL    HW128655   5.258   0.576   4.964
 9252SOL    HW228656   5.335   0.707   4.905
 9253SOL     OW28657   5.272   5.329   5.948
 9253SOL    HW128658   5.371   5.318   5.956
 9253SOL    HW228659   5.227   5.243   5.971
 9254SOL     OW28660   4.994   5.248   2.644
 9254SOL    HW128661   5.075   5.190   2.654
 9254SOL    HW228662   4.992   5.285   2.551
 9255SOL     OW28663   5.478   3.224   6.777
 9255SOL    HW128664   5.532   3.299   6.738
 9255SOL    HW228665   5.483   3.145   6.717
 9256SOL     OW28666   1.936   0.022   1.529
 9256SOL    HW128667   1.972   6.993   1.607
 9256SOL    HW228668   2.012   0.064   1.479
 9257SOL     OW28669   6.034   5.877   3.017
 9257SOL    HW128670   6.041   5.965   2.970
 9257SOL    HW228671   6.049   5.890   3.115
 9258SOL     OW28672   3.731   3.157   0.987
 9258SOL    HW128673   3.803   3.215   0.949
 9258SOL    HW228674   3.740   3.152   1.086
 9259SOL     OW28675   1.510   1.125   0.412
 9259SOL    HW128676   1.437   1.108   0.478
 9259SOL    HW228677   1.477   1.106   0.319
 9260SOL     OW28678   0.064   2.737   6.141
 9260SOL    HW128679   6.997   2.693   6.135
 9260SOL    HW228680   0.130   2.686   6.085
 9261SOL     OW28681   4.591   0.941   6.366
 9261SOL    HW128682   4.556   0.989   6.446
 9261SOL    HW228683   4.667   0.882   6.394
 9262SOL     OW28684   1.075   6.479   5.348
 9262SOL    HW128685   1.107   6.494   5.441
 9262SOL    HW228686   0.987   6.525   5.334
 9263SOL     OW28687   3.457   5.118   2.669
 9263SOL    HW128688   3.378   5.123   2.730
 9263SOL    HW228689   3.437   5.053   2.595
 9264SOL     OW28690   4.390   3.000   0.201
 9264SOL    HW128691   4.396   2.902   0.178
 9264SOL    HW228692   4.477   3.044   0.181
 9265SOL     OW28693   4.003   2.170   6.423
 9265SOL    HW128694   4.048   2.085   6.395
 9265SOL    HW228695   3.930   2.193   6.359
 9266SOL     OW28696   0.323   5.821   1.339
 9266SOL    HW128697   0.288   5.844   1.430
 9266SOL    HW228698   0.323   5.902   1.281
 9267SOL     OW28699   0.857   2.124   4.275
 9267SOL    HW128700   0.810   2.041   4.307
 9267SOL    HW228701   0.792   2.182   4.227
 9268SOL     OW28702   0.997   6.449   2.818
 9268SOL    HW128703   1.076   6.499   2.781
 9268SOL    HW228704   0.919   6.460   2.757
 9269SOL     OW28705   3.882   0.235   6.720
 9269SOL    HW128706   3.785   0.248   6.699
 9269SOL    HW228707   3.934   0.316   6.694
 9270SOL     OW28708   3.734   0.663   5.447
 9270SOL    HW128709   3.789   0.579   5.442
 9270SOL    HW228710   3.754   0.721   5.369
 9271SOL     OW28711   6.897   7.012   0.710
 9271SOL    HW128712   6.973   0.017   0.651
 9271SOL    HW228713   6.810   0.016   0.666
 9272SOL     OW28714   0.724   6.548   6.288
 9272SOL    HW128715   0.764   6.638   6.305
 9272SOL    HW228716   0.630   6.560   6.254
 9273SOL     OW28717   5.544   5.986   2.885
 9273SOL    HW128718   5.569   5.947   2.974
 9273SOL    HW228719   5.459   5.944   2.853
 9274SOL     OW28720   6.661   2.412   0.127
 9274SOL    HW128721   6.593   2.483   0.110
 9274SOL    HW228722   6.625   2.324   0.095
 9275SOL     OW28723   0.109   6.556   0.116
 9275SOL    HW128724   0.205   6.562   0.142
 9275SOL    HW228725   0.080   6.641   0.073
 9276SOL     OW28726   2.247   5.122   6.703
 9276SOL    HW128727   2.201   5.200   6.746
 9276SOL    HW228728   2.260   5.140   6.606
 9277SOL     OW28729   3.950   5.664   2.723
 9277SOL    HW128730   4.004   5.712   2.792
 9277SOL    HW228731   3.860   5.642   2.761
 9278SOL     OW28732   1.239   0.773   5.494
 9278SOL    HW128733   1.184   0.717   5.556
 9278SOL    HW228734   1.180   0.835   5.443
 9279SOL     OW28735   3.540   6.844   1.813
 9279SOL    HW128736   3.455   6.814   1.856
 9279SOL    HW228737   3.577   6.769   1.758
 9280SOL     OW28738   2.209   1.447   2.653
 9280SOL    HW128739   2.183   1.530   2.701
 9280SOL    HW228740   2.228   1.374   2.719
 9281SOL     OW28741   3.377   3.804   6.181
 9281SOL    HW128742   3.315   3.862   6.234
 9281SOL    HW228743   3.396   3.848   6.093
 9282SOL     OW28744   4.544   1.246   4.308
 9282SOL    HW128745   4.632   1.248   4.355
 9282SOL    HW228746   4.559   1.243   4.209
 9283SOL     OW28747   4.971   0.441   5.433
 9283SOL    HW128748   4.930   0.378   5.499
 9283SOL    HW228749   4.987   0.529   5.477
 9284SOL     OW28750   2.448   3.659   5.647
 9284SOL    HW128751   2.419   3.600   5.572
 9284SOL    HW228752   2.544   3.684   5.635
 9285SOL     OW28753   5.186   3.128   0.977
 9285SOL    HW128754   5.106   3.115   0.918
 9285SOL    HW228755   5.182   3.220   1.017
 9286SOL     OW28756   4.850   5.664   0.687
 9286SOL    HW128757   4.893   5.599   0.626
 9286SOL    HW228758   4.920   5.713   0.739
 9287SOL     OW28759   3.473   4.334   5.480
 9287SOL    HW128760   3.462   4.297   5.572
 9287SOL    HW228761   3.397   4.302   5.423
 9288SOL     OW28762   4.788   2.055   2.903
 9288SOL    HW128763   4.856   2.086   2.836
 9288SOL    HW228764   4.701   2.101   2.885
 9289SOL     OW28765   4.171   0.961   6.752
 9289SOL    HW128766   4.213   0.871   6.742
 9289SOL    HW228767   4.116   0.963   6.835
 9290SOL     OW28768   6.319   0.728   4.226
 9290SOL    HW128769   6.304   0.725   4.325
 9290SOL    HW228770   6.278   0.811   4.188
 9291SOL     OW28771   1.931   6.231   6.229
 9291SOL    HW128772   2.028   6.208   6.218
 9291SOL    HW228773   1.906   6.224   6.326
 9292SOL     OW28774   2.063   1.374   6.885
 9292SOL    HW128775   2.021   1.445   6.941
 9292SOL    HW228776   1.995   1.336   6.822
 9293SOL     OW28777   5.096   3.398   6.657
 9293SOL    HW128778   5.036   3.478   6.661
 9293SOL    HW228779   5.159   3.407   6.580
 9294SOL     OW28780   4.799   0.860   6.713
 9294SOL    HW128781   4.848   0.912   6.782
 9294SOL    HW228782   4.769   0.772   6.752
 9295SOL     OW28783   6.548   0.903   5.087
 9295SOL    HW128784   6.526   0.961   5.166
 9295SOL    HW228785   6.484   0.826   5.083
 9296SOL     OW28786   2.148   5.216   0.593
 9296SOL    HW128787   2.148   5.177   0.685
 9296SOL    HW228788   2.216   5.289   0.587
 9297SOL     OW28789   0.748   6.712   3.466
 9297SOL    HW128790   0.717   6.623   3.433
 9297SOL    HW228791   0.686   6.744   3.538
 9298SOL     OW28792   1.177   6.280   6.233
 9298SOL    HW128793   1.198   6.304   6.138
 9298SOL    HW228794   1.097   6.330   6.263
 9299SOL     OW28795   0.990   1.549   3.884
 9299SOL    HW128796   1.024   1.533   3.791
 9299SOL    HW228797   1.064   1.535   3.950
 9300SOL     OW28798   0.547   5.252   5.304
 9300SOL    HW128799   0.595   5.260   5.217
 9300SOL    HW228800   0.457   5.294   5.297
 9301SOL     OW28801   0.044   4.325   5.204
 9301SOL    HW128802   0.125   4.282   5.163
 9301SOL    HW228803   0.012   4.270   5.281
 9302SOL     OW28804   2.170   3.051   4.596
 9302SOL    HW128805   2.105   3.123   4.623
 9302SOL    HW228806   2.257   3.093   4.570
 9303SOL     OW28807   2.699   4.545   0.514
 9303SOL    HW128808   2.668   4.593   0.432
 9303SOL    HW228809   2.787   4.502   0.497
 9304SOL     OW28810   4.319   5.280   0.406
 9304SOL    HW128811   4.278   5.372   0.405
 9304SOL    HW228812   4.299   5.234   0.319
 9305SOL     OW28813   3.588   1.092   0.519
 9305SOL    HW128814   3.608   1.025   0.446
 9305SOL    HW228815   3.491   1.088   0.542
 9306SOL     OW28816   0.612   4.002   5.483
 9306SOL    HW128817   0.521   3.970   5.511
 9306SOL    HW228818   0.620   4.100   5.502
 9307SOL     OW28819   1.222   4.206   0.808
 9307SOL    HW128820   1.191   4.202   0.903
 9307SOL    HW228821   1.301   4.267   0.801
 9308SOL     OW28822   1.240   4.493   1.523
 9308SOL    HW128823   1.325   4.458   1.484
 9308SOL    HW228824   1.236   4.593   1.511
 9309SOL     OW28825   4.152   6.474   5.539
 9309SOL    HW128826   4.104   6.552   5.498
 9309SOL    HW228827   4.232   6.507   5.589
 9310SOL     OW28828   5.597   6.147   5.876
 9310SOL    HW128829   5.558   6.239   5.880
 9310SOL    HW228830   5.523   6.080   5.862
 9311SOL     OW28831   5.311   4.547   1.335
 9311SOL    HW128832   5.272   4.500   1.256
 9311SOL    HW228833   5.328   4.481   1.408
 9312SOL     OW28834   1.447   2.153   1.218
 9312SOL    HW128835   1.473   2.228   1.280
 9312SOL    HW228836   1.454   2.184   1.124
 9313SOL     OW28837   0.889   0.431   1.647
 9313SOL    HW128838   0.878   0.410   1.550
 9313SOL    HW228839   0.962   0.373   1.685
 9314SOL     OW28840   6.361   3.737   1.121
 9314SOL    HW128841   6.421   3.694   1.054
 9314SOL    HW228842   6.285   3.782   1.074
 9315SOL     OW28843   6.160   0.473   5.987
 9315SOL    HW128844   6.220   0.512   6.058
 9315SOL    HW228845   6.065   0.489   6.012
 9316SOL     OW28846   5.894   0.182   5.357
 9316SOL    HW128847   5.888   0.262   5.298
 9316SOL    HW228848   5.989   0.166   5.384
 9317SOL     OW28849   4.109   5.268   3.073
 9317SOL    HW128850   4.084   5.331   2.999
 9317SOL    HW228851   4.142   5.321   3.151
 9318SOL     OW28852   4.479   6.565   0.026
 9318SOL    HW128853   4.527   6.651   0.007
 9318SOL    HW228854   4.396   6.585   0.080
 9319SOL     OW28855   2.300   2.924   0.716
 9319SOL    HW128856   2.265   2.991   0.651
 9319SOL    HW228857   2.399   2.933   0.724
 9320SOL     OW28858   4.999   0.602   6.269
 9320SOL    HW128859   4.980   0.505   6.256
 9320SOL    HW228860   4.919   0.646   6.311
 9321SOL     OW28861   1.004   1.546   5.486
 9321SOL    HW128862   0.934   1.576   5.421
 9321SOL    HW228863   1.095   1.571   5.451
 9322SOL     OW28864   6.705   4.666   6.710
 9322SOL    HW128865   6.752   4.739   6.761
 9322SOL    HW228866   6.728   4.672   6.613
 9323SOL     OW28867   2.376   1.944   4.853
 9323SOL    HW128868   2.406   2.024   4.905
 9323SOL    HW228869   2.286   1.915   4.887
 9324SOL     OW28870   2.165   3.902   2.157
 9324SOL    HW128871   2.234   3.932   2.091
 9324SOL    HW228872   2.173   3.803   2.171
 9325SOL     OW28873   0.732   6.079   1.079
 9325SOL    HW128874   0.829   6.063   1.096
 9325SOL    HW228875   0.692   6.128   1.157
 9326SOL     OW28876   3.243   5.139   6.863
 9326SOL    HW128877   3.178   5.140   6.787
 9326SOL    HW228878   3.329   5.099   6.834
 9327SOL     OW28879   4.448   6.896   3.087
 9327SOL    HW128880   4.518   6.886   3.157
 9327SOL    HW228881   4.366   6.846   3.114
 9328SOL     OW28882   1.941   0.363   5.140
 9328SOL    HW128883   1.933   0.462   5.130
 9328SOL    HW228884   1.861   0.319   5.098
 9329SOL     OW28885   6.654   5.607   0.722
 9329SOL    HW128886   6.754   5.604   0.727
 9329SOL    HW228887   6.616   5.608   0.814
 9330SOL     OW28888   0.293   0.225   6.176
 9330SOL    HW128889   0.291   0.320   6.145
 9330SOL    HW228890   0.288   0.164   6.097
 9331SOL     OW28891   1.986   2.111   5.971
 9331SOL    HW128892   2.056   2.176   5.999
 9331SOL    HW228893   2.029   2.026   5.941
 9332SOL     OW28894   4.298   6.047   0.956
 9332SOL    HW128895   4.263   5.987   0.883
 9332SOL    HW228896   4.268   6.140   0.938
 9333SOL     OW28897   4.111   5.739   6.948
 9333SOL    HW128898   4.108   5.655   6.893
 9333SOL    HW228899   4.018   5.765   6.974
 9334SOL     OW28900   5.025   0.612   4.526
 9334SOL    HW128901   5.058   0.521   4.499
 9334SOL    HW228902   5.078   0.682   4.478
 9335SOL     OW28903   1.403   1.418   0.222
 9335SOL    HW128904   1.464   1.493   0.197
 9335SOL    HW228905   1.329   1.453   0.279
 9336SOL     OW28906   5.661   0.433   4.385
 9336SOL    HW128907   5.646   0.491   4.306
 9336SOL    HW228908   5.750   0.387   4.377
 9337SOL     OW28909   5.200   0.680   6.416
 9337SOL    HW128910   5.245   0.716   6.334
 9337SOL    HW228911   5.107   0.653   6.393
 9338SOL     OW28912   6.859   6.198   1.216
 9338SOL    HW128913   6.848   6.223   1.119
 9338SOL    HW228914   6.949   6.155   1.229
 9339SOL     OW28915   5.638   5.879   0.547
 9339SOL    HW128916   5.647   5.978   0.558
 9339SOL    HW228917   5.638   5.856   0.450
 9340SOL     OW28918   4.265   4.877   2.881
 9340SOL    HW128919   4.291   4.784   2.908
 9340SOL    HW228920   4.178   4.901   2.925
 9341SOL     OW28921   6.166   3.879   0.489
 9341SOL    HW128922   6.209   3.847   0.574
 9341SOL    HW228923   6.102   3.953   0.509
 9342SOL     OW28924   2.879   0.520   4.483
 9342SOL    HW128925   2.965   0.551   4.523
 9342SOL    HW228926   2.868   0.559   4.391
 9343SOL     OW28927   4.991   3.450   2.053
 9343SOL    HW128928   5.081   3.486   2.028
 9343SOL    HW228929   4.946   3.514   2.115
 9344SOL     OW28930   5.257   5.943   6.641
 9344SOL    HW128931   5.197   5.958   6.563
 9344SOL    HW228932   5.295   6.031   6.671
 9345SOL     OW28933   6.458   4.649   0.535
 9345SOL    HW128934   6.557   4.666   0.536
 9345SOL    HW228935   6.439   4.568   0.480
 9346SOL     OW28936   5.152   6.403   2.289
 9346SOL    HW128937   5.155   6.399   2.389
 9346SOL    HW228938   5.070   6.454   2.261
 9347SOL     OW28939   3.106   5.878   0.898
 9347SOL    HW128940   3.181   5.898   0.836
 9347SOL    HW228941   3.039   5.953   0.895
 9348SOL     OW28942   2.874   4.991   3.217
 9348SOL    HW128943   2.856   5.016   3.121
 9348SOL    HW228944   2.866   5.073   3.274
 9349SOL     OW28945   6.417   5.867   1.909
 9349SOL    HW128946   6.510   5.833   1.924
 9349SOL    HW228947   6.353   5.811   1.961
 9350SOL     OW28948   0.468   1.954   4.546
 9350SOL    HW128949   0.538   1.990   4.608
 9350SOL    HW228950   0.382   2.002   4.562
 9351SOL     OW28951   2.806   0.646   6.256
 9351SOL    HW128952   2.762   0.685   6.175
 9351SOL    HW228953   2.793   0.547   6.257
 9352SOL     OW28954   2.479   3.119   5.680
 9352SOL    HW128955   2.561   3.091   5.729
 9352SOL    HW228956   2.418   3.041   5.668
 9353SOL     OW28957   1.912   4.259   1.936
 9353SOL    HW128958   1.878   4.166   1.944
 9353SOL    HW228959   1.835   4.322   1.931
 9354SOL     OW28960   5.924   1.511   0.437
 9354SOL    HW128961   5.889   1.517   0.344
 9354SOL    HW228962   6.022   1.530   0.437
 9355SOL     OW28963   6.326   1.166   4.302
 9355SOL    HW128964   6.333   1.260   4.334
 9355SOL    HW228965   6.407   1.143   4.248
 9356SOL     OW28966   4.496   5.449   1.646
 9356SOL    HW128967   4.410   5.498   1.628
 9356SOL    HW228968   4.483   5.382   1.719
 9357SOL     OW28969   2.513   3.766   7.006
 9357SOL    HW128970   2.597   3.729   0.022
 9357SOL    HW228971   2.434   3.728   0.033
 9358SOL     OW28972   6.230   3.672   1.700
 9358SOL    HW128973   6.297   3.739   1.732
 9358SOL    HW228974   6.138   3.710   1.710
 9359SOL     OW28975   0.672   3.623   5.704
 9359SOL    HW128976   0.612   3.544   5.690
 9359SOL    HW228977   0.701   3.627   5.799
 9360SOL     OW28978   1.169   6.758   5.924
 9360SOL    HW128979   1.189   6.780   5.829
 9360SOL    HW228980   1.084   6.704   5.928
 9361SOL     OW28981   2.874   6.432   3.891
 9361SOL    HW128982   2.850   6.375   3.812
 9361SOL    HW228983   2.873   6.528   3.864
 9362SOL     OW28984   1.557   1.632   2.130
 9362SOL    HW128985   1.484   1.618   2.197
 9362SOL    HW228986   1.585   1.729   2.132
 9363SOL     OW28987   4.182   5.375   1.877
 9363SOL    HW128988   4.154   5.341   1.967
 9363SOL    HW228989   4.146   5.468   1.864
 9364SOL     OW28990   4.400   3.174   5.770
 9364SOL    HW128991   4.460   3.254   5.766
 9364SOL    HW228992   4.401   3.136   5.862
 9365SOL     OW28993   2.911   1.843   5.376
 9365SOL    HW128994   2.832   1.904   5.370
 9365SOL    HW228995   2.908   1.793   5.463
 9366SOL     OW28996   2.571   1.319   0.261
 9366SOL    HW128997   2.514   1.364   0.330
 9366SOL    HW228998   2.630   1.252   0.306
 9367SOL     OW28999   6.875   5.871   3.241
 9367SOL    HW129000   6.966   5.865   3.282
 9367SOL    HW229001   6.825   5.787   3.260
 9368SOL     OW29002   3.055   1.850   3.717
 9368SOL    HW129003   2.971   1.796   3.718
 9368SOL    HW229004   3.091   1.854   3.623
 9369SOL     OW29005   0.190   0.839   5.854
 9369SOL    HW129006   0.103   0.790   5.862
 9369SOL    HW229007   0.234   0.816   5.767
 9370SOL     OW29008   4.742   0.355   2.796
 9370SOL    HW129009   4.661   0.407   2.825
 9370SOL    HW229010   4.811   0.359   2.868
 9371SOL     OW29011   2.096   4.631   0.655
 9371SOL    HW129012   2.114   4.644   0.753
 9371SOL    HW229013   2.070   4.718   0.614
 9372SOL     OW29014   5.600   5.888   3.136
 9372SOL    HW129015   5.578   5.976   3.177
 9372SOL    HW229016   5.541   5.817   3.176
 9373SOL     OW29017   4.466   2.497   2.556
 9373SOL    HW129018   4.529   2.556   2.606
 9373SOL    HW229019   4.373   2.516   2.585
 9374SOL     OW29020   6.359   3.622   0.534
 9374SOL    HW129021   6.411   3.608   0.450
 9374SOL    HW229022   6.319   3.534   0.562
 9375SOL     OW29023   6.777   1.830   3.003
 9375SOL    HW129024   6.830   1.747   2.992
 9375SOL    HW229025   6.704   1.834   2.935
 9376SOL     OW29026   2.445   4.013   1.581
 9376SOL    HW129027   2.399   3.954   1.516
 9376SOL    HW229028   2.532   3.971   1.609
 9377SOL     OW29029   1.536   5.744   3.935
 9377SOL    HW129030   1.581   5.691   4.006
 9377SOL    HW229031   1.438   5.746   3.951
 9378SOL     OW29032   0.562   0.323   5.154
 9378SOL    HW129033   0.536   0.231   5.125
 9378SOL    HW229034   0.660   0.325   5.177
 9379SOL     OW29035   4.499   5.130   5.698
 9379SOL    HW129036   4.427   5.126   5.629
 9379SOL    HW229037   4.460   5.111   5.788
 9380SOL     OW29038   5.940   4.358   4.912
 9380SOL    HW129039   5.843   4.334   4.905
 9380SOL    HW229040   5.993   4.298   4.851
 9381SOL     OW29041   2.685   3.036   5.825
 9381SOL    HW129042   2.717   2.971   5.756
 9381SOL    HW229043   2.750   3.040   5.900
 9382SOL     OW29044   3.451   1.441   3.265
 9382SOL    HW129045   3.520   1.407   3.329
 9382SOL    HW229046   3.365   1.392   3.278
 9383SOL     OW29047   1.935   6.079   4.470
 9383SOL    HW129048   2.027   6.067   4.434
 9383SOL    HW229049   1.871   6.091   4.394
 9384SOL     OW29050   3.014   5.923   1.224
 9384SOL    HW129051   2.932   5.947   1.276
 9384SOL    HW229052   3.091   5.909   1.286
 9385SOL     OW29053   4.333   0.711   3.177
 9385SOL    HW129054   4.366   0.618   3.193
 9385SOL    HW229055   4.233   0.712   3.182
 9386SOL     OW29056   2.294   6.447   4.620
 9386SOL    HW129057   2.346   6.368   4.588
 9386SOL    HW229058   2.298   6.520   4.552
 9387SOL     OW29059   2.586   1.009   6.874
 9387SOL    HW129060   2.530   1.022   6.956
 9387SOL    HW229061   2.551   1.066   6.800
 9388SOL     OW29062   2.348   5.673   3.083
 9388SOL    HW129063   2.321   5.640   3.173
 9388SOL    HW229064   2.429   5.624   3.051
 9389SOL     OW29065   1.472   6.737   5.047
 9389SOL    HW129066   1.421   6.699   5.125
 9389SOL    HW229067   1.562   6.694   5.042
 9390SOL     OW29068   3.824   5.297   4.942
 9390SOL    HW129069   3.791   5.271   5.033
 9390SOL    HW229070   3.839   5.215   4.887
 9391SOL     OW29071   2.317   0.611   5.129
 9391SOL    HW129072   2.278   0.611   5.037
 9391SOL    HW229073   2.410   0.648   5.126
 9392SOL     OW29074   6.826   0.296   5.281
 9392SOL    HW129075   6.825   0.292   5.381
 9392SOL    HW229076   6.734   0.317   5.247
 9393SOL     OW29077   2.916   0.361   4.962
 9393SOL    HW129078   2.826   0.343   5.003
 9393SOL    HW229079   2.917   0.454   4.925
 9394SOL     OW29080   6.951   1.359   1.940
 9394SOL    HW129081   6.984   1.332   1.850
 9394SOL    HW229082   0.006   1.370   2.002
 9395SOL     OW29083   2.192   1.475   0.455
 9395SOL    HW129084   2.168   1.555   0.510
 9395SOL    HW229085   2.137   1.474   0.372
 9396SOL     OW29086   1.308   5.187   3.597
 9396SOL    HW129087   1.386   5.124   3.596
 9396SOL    HW229088   1.235   5.147   3.653
 9397SOL     OW29089   3.143   0.168   7.023
 9397SOL    HW129090   3.171   0.170   0.096
 9397SOL    HW229091   3.181   0.087   6.978
 9398SOL     OW29092   0.811   0.314   5.281
 9398SOL    HW129093   0.863   0.395   5.255
 9398SOL    HW229094   0.841   0.283   5.371
 9399SOL     OW29095   6.818   1.758   6.197
 9399SOL    HW129096   6.742   1.723   6.251
 9399SOL    HW229097   6.854   1.685   6.139
 9400SOL     OW29098   4.177   2.192   1.695
 9400SOL    HW129099   4.083   2.183   1.726
 9400SOL    HW229100   4.220   2.271   1.740
 9401SOL     OW29101   5.110   6.761   3.451
 9401SOL    HW129102   5.017   6.732   3.473
 9401SOL    HW229103   5.163   6.768   3.535
 9402SOL     OW29104   1.190   4.818   3.651
 9402SOL    HW129105   1.252   4.741   3.641
 9402SOL    HW229106   1.155   4.845   3.561
 9403SOL     OW29107   5.781   1.607   2.741
 9403SOL    HW129108   5.835   1.539   2.691
 9403SOL    HW229109   5.710   1.643   2.680
 9404SOL     OW29110   1.040   3.543   6.450
 9404SOL    HW129111   1.057   3.619   6.386
 9404SOL    HW229112   0.952   3.501   6.428
 9405SOL     OW29113   0.402   5.962   2.068
 9405SOL    HW129114   0.378   6.045   2.018
 9405SOL    HW229115   0.432   5.892   2.005
 9406SOL     OW29116   0.105   2.782   6.422
 9406SOL    HW129117   0.097   2.753   6.326
 9406SOL    HW229118   0.033   2.848   6.444
 9407SOL     OW29119   2.798   5.104   3.594
 9407SOL    HW129120   2.898   5.107   3.586
 9407SOL    HW229121   2.757   5.155   3.518
 9408SOL     OW29122   4.052   1.729   6.225
 9408SOL    HW129123   3.960   1.738   6.264
 9408SOL    HW229124   4.076   1.632   6.219
 9409SOL     OW29125   5.815   4.620   6.639
 9409SOL    HW129126   5.850   4.634   6.547
 9409SOL    HW229127   5.855   4.688   6.701
 9410SOL     OW29128   2.742   6.554   1.815
 9410SOL    HW129129   2.792   6.600   1.742
 9410SOL    HW229130   2.672   6.615   1.852
 9411SOL     OW29131   3.737   3.759   1.815
 9411SOL    HW129132   3.663   3.826   1.825
 9411SOL    HW229133   3.759   3.747   1.718
 9412SOL     OW29134   0.170   3.058   1.864
 9412SOL    HW129135   0.209   2.974   1.826
 9412SOL    HW229136   0.243   3.113   1.906
 9413SOL     OW29137   3.681   6.389   4.460
 9413SOL    HW129138   3.594   6.437   4.448
 9413SOL    HW229139   3.682   6.307   4.403
 9414SOL     OW29140   3.162   1.009   3.433
 9414SOL    HW129141   3.078   0.961   3.457
 9414SOL    HW229142   3.195   1.059   3.513
 9415SOL     OW29143   2.592   6.812   1.909
 9415SOL    HW129144   2.543   6.770   1.833
 9415SOL    HW229145   2.597   6.911   1.895
 9416SOL     OW29146   0.542   2.021   1.474
 9416SOL    HW129147   0.483   2.022   1.555
 9416SOL    HW229148   0.605   2.099   1.478
 9417SOL     OW29149   3.663   6.807   6.019
 9417SOL    HW129150   3.687   6.902   5.999
 9417SOL    HW229151   3.745   6.750   6.015
 9418SOL     OW29152   3.299   5.975   1.556
 9418SOL    HW129153   3.379   5.969   1.496
 9418SOL    HW229154   3.315   6.044   1.626
 9419SOL     OW29155   3.489   5.025   5.752
 9419SOL    HW129156   3.423   4.957   5.783
 9419SOL    HW229157   3.468   5.051   5.658
 9420SOL     OW29158   6.850   2.432   5.042
 9420SOL    HW129159   6.763   2.481   5.042
 9420SOL    HW229160   6.924   2.496   5.064
 9421SOL     OW29161   1.984   6.775   5.104
 9421SOL    HW129162   2.076   6.760   5.070
 9421SOL    HW229163   1.918   6.765   5.029
 9422SOL     OW29164   5.139   6.176   3.278
 9422SOL    HW129165   5.054   6.180   3.226
 9422SOL    HW229166   5.163   6.268   3.310
 9423SOL     OW29167   4.287   0.474   3.501
 9423SOL    HW129168   4.302   0.383   3.539
 9423SOL    HW229169   4.375   0.518   3.483
 9424SOL     OW29170   4.950   0.652   5.136
 9424SOL    HW129171   5.001   0.692   5.211
 9424SOL    HW229172   4.853   0.671   5.146
 9425SOL     OW29173   6.745   3.297   6.382
 9425SOL    HW129174   6.692   3.356   6.321
 9425SOL    HW229175   6.682   3.244   6.439
 9426SOL     OW29176   2.545   1.965   0.216
 9426SOL    HW129177   2.484   2.043   0.232
 9426SOL    HW229178   2.636   1.999   0.190
 9427SOL     OW29179   2.716   5.606   4.353
 9427SOL    HW129180   2.772   5.569   4.280
 9427SOL    HW229181   2.627   5.634   4.316
 9428SOL     OW29182   5.652   0.869   0.971
 9428SOL    HW129183   5.744   0.871   1.011
 9428SOL    HW229184   5.585   0.856   1.043
 9429SOL     OW29185   2.111   3.627   2.152
 9429SOL    HW129186   2.155   3.568   2.084
 9429SOL    HW229187   2.086   3.573   2.232
 9430SOL     OW29188   0.813   4.432   2.214
 9430SOL    HW129189   0.716   4.405   2.211
 9430SOL    HW229190   0.839   4.450   2.309
 9431SOL     OW29191   5.702   3.819   1.376
 9431SOL    HW129192   5.698   3.727   1.414
 9431SOL    HW229193   5.624   3.833   1.314
 9432SOL     OW29194   4.973   0.588   3.310
 9432SOL    HW129195   4.926   0.654   3.252
 9432SOL    HW229196   4.993   0.629   3.399
 9433SOL     OW29197   3.752   5.175   3.519
 9433SOL    HW129198   3.707   5.087   3.502
 9433SOL    HW229199   3.842   5.174   3.475
 9434SOL     OW29200   5.340   4.828   3.586
 9434SOL    HW129201   5.405   4.858   3.516
 9434SOL    HW229202   5.247   4.852   3.557
 9435SOL     OW29203   0.379   2.654   4.862
 9435SOL    HW129204   0.431   2.649   4.947
 9435SOL    HW229205   0.391   2.744   4.820
 9436SOL     OW29206   1.022   3.277   2.048
 9436SOL    HW129207   0.980   3.349   2.103
 9436SOL    HW229208   1.030   3.308   1.954
 9437SOL     OW29209   2.597   6.329   3.454
 9437SOL    HW129210   2.519   6.275   3.486
 9437SOL    HW229211   2.677   6.270   3.442
 9438SOL     OW29212   0.076   0.274   1.678
 9438SOL    HW129213   0.113   0.365   1.658
 9438SOL    HW229214   0.058   0.266   1.776
 9439SOL     OW29215   0.372   3.375   1.782
 9439SOL    HW129216   0.286   3.335   1.750
 9439SOL    HW229217   0.449   3.318   1.753
 9440SOL     OW29218   4.188   4.975   4.280
 9440SOL    HW129219   4.220   4.967   4.374
 9440SOL    HW229220   4.097   4.935   4.273
 9441SOL     OW29221   1.457   3.857   5.480
 9441SOL    HW129222   1.509   3.782   5.439
 9441SOL    HW229223   1.446   3.930   5.412
 9442SOL     OW29224   4.498   3.321   0.355
 9442SOL    HW129225   4.409   3.351   0.392
 9442SOL    HW229226   4.523   3.380   0.279
 9443SOL     OW29227   2.862   4.950   1.402
 9443SOL    HW129228   2.849   4.968   1.305
 9443SOL    HW229229   2.918   5.022   1.443
 9444SOL     OW29230   1.156   4.052   6.922
 9444SOL    HW129231   1.213   4.038   6.841
 9444SOL    HW229232   1.080   3.987   6.921
 9445SOL     OW29233   5.702   3.630   2.837
 9445SOL    HW129234   5.788   3.620   2.887
 9445SOL    HW229235   5.631   3.576   2.881
 9446SOL     OW29236   6.546   6.474   4.334
 9446SOL    HW129237   6.644   6.492   4.335
 9446SOL    HW229238   6.498   6.551   4.291
 9447SOL     OW29239   6.338   3.356   4.124
 9447SOL    HW129240   6.395   3.337   4.044
 9447SOL    HW229241   6.259   3.410   4.097
 9448SOL     OW29242   6.957   6.713   6.366
 9448SOL    HW129243   0.030   6.716   6.393
 9448SOL    HW229244   6.947   6.652   6.287
 9449SOL     OW29245   6.701   5.858   6.822
 9449SOL    HW129246   6.647   5.936   6.791
 9449SOL    HW229247   6.706   5.789   6.750
 9450SOL     OW29248   3.142   5.821   4.998
 9450SOL    HW129249   3.068   5.757   5.018
 9450SOL    HW229250   3.107   5.896   4.941
 9451SOL     OW29251   3.921   6.675   6.017
 9451SOL    HW129252   3.947   6.745   5.950
 9451SOL    HW229253   3.989   6.602   6.016
 9452SOL     OW29254   1.470   3.950   0.584
 9452SOL    HW129255   1.421   3.864   0.594
 9452SOL    HW229256   1.407   4.021   0.554
 9453SOL     OW29257   2.073   5.073   3.362
 9453SOL    HW129258   2.056   5.115   3.451
 9453SOL    HW229259   1.986   5.065   3.312
 9454SOL     OW29260   2.093   3.782   6.933
 9454SOL    HW129261   2.162   3.787   6.860
 9454SOL    HW229262   2.126   3.830   7.014
 9455SOL     OW29263   4.010   1.893   2.672
 9455SOL    HW129264   3.913   1.892   2.695
 9455SOL    HW229265   4.028   1.966   2.606
 9456SOL     OW29266   0.658   3.363   1.092
 9456SOL    HW129267   0.590   3.304   1.050
 9456SOL    HW229268   0.624   3.457   1.095
 9457SOL     OW29269   2.195   3.727   5.092
 9457SOL    HW129270   2.182   3.688   5.001
 9457SOL    HW229271   2.228   3.820   5.084
 9458SOL     OW29272   1.548   3.310   0.185
 9458SOL    HW129273   1.461   3.356   0.204
 9458SOL    HW229274   1.576   3.331   0.091
 9459SOL     OW29275   5.177   4.636   2.671
 9459SOL    HW129276   5.206   4.699   2.743
 9459SOL    HW229277   5.115   4.568   2.708
 9460SOL     OW29278   0.475   2.813   3.966
 9460SOL    HW129279   0.428   2.893   4.003
 9460SOL    HW229280   0.550   2.787   4.027
 9461SOL     OW29281   6.523   1.682   2.578
 9461SOL    HW129282   6.603   1.657   2.524
 9461SOL    HW229283   6.458   1.733   2.520
 9462SOL     OW29284   2.080   3.860   2.593
 9462SOL    HW129285   2.100   3.763   2.606
 9462SOL    HW229286   2.155   3.916   2.630
 9463SOL     OW29287   0.273   0.809   1.485
 9463SOL    HW129288   0.217   0.812   1.568
 9463SOL    HW229289   0.292   0.713   1.462
 9464SOL     OW29290   5.758   0.155   0.952
 9464SOL    HW129291   5.699   0.178   1.030
 9464SOL    HW229292   5.730   0.067   0.914
 9465SOL     OW29293   1.517   5.376   3.270
 9465SOL    HW129294   1.493   5.470   3.247
 9465SOL    HW229295   1.604   5.375   3.319
 9466SOL     OW29296   4.482   4.887   5.462
 9466SOL    HW129297   4.541   4.965   5.441
 9466SOL    HW229298   4.388   4.910   5.437
 9467SOL     OW29299   1.017   2.825   1.656
 9467SOL    HW129300   0.953   2.768   1.707
 9467SOL    HW229301   1.071   2.767   1.594
 9468SOL     OW29302   6.254   2.418   6.218
 9468SOL    HW129303   6.202   2.388   6.138
 9468SOL    HW229304   6.192   2.461   6.284
 9469SOL     OW29305   6.031   6.051   1.520
 9469SOL    HW129306   5.989   6.133   1.559
 9469SOL    HW229307   6.053   6.067   1.424
 9470SOL     OW29308   4.491   4.162   5.397
 9470SOL    HW129309   4.487   4.073   5.443
 9470SOL    HW229310   4.399   4.188   5.367
 9471SOL     OW29311   6.676   1.321   4.582
 9471SOL    HW129312   6.678   1.373   4.667
 9471SOL    HW229313   6.760   1.266   4.574
 9472SOL     OW29314   5.988   3.223   4.328
 9472SOL    HW129315   5.963   3.182   4.416
 9472SOL    HW229316   5.915   3.285   4.299
 9473SOL     OW29317   3.044   5.528   5.277
 9473SOL    HW129318   3.054   5.490   5.368
 9473SOL    HW229319   3.110   5.485   5.215
 9474SOL     OW29320   6.793   3.200   0.481
 9474SOL    HW129321   6.854   3.254   0.538
 9474SOL    HW229322   6.804   3.226   0.385
 9475SOL     OW29323   2.899   3.771   6.906
 9475SOL    HW129324   2.887   3.724   6.818
 9475SOL    HW229325   2.882   3.868   6.894
 9476SOL     OW29326   2.920   3.811   5.247
 9476SOL    HW129327   2.957   3.730   5.202
 9476SOL    HW229328   2.840   3.844   5.197
 9477SOL     OW29329   0.451   4.147   2.275
 9477SOL    HW129330   0.510   4.070   2.249
 9477SOL    HW229331   0.423   4.137   2.371
 9478SOL     OW29332   5.394   3.431   6.276
 9478SOL    HW129333   5.453   3.386   6.210
 9478SOL    HW229334   5.437   3.428   6.366
 9479SOL     OW29335   4.550   6.324   6.915
 9479SOL    HW129336   4.490   6.321   6.835
 9479SOL    HW229337   4.523   6.400   6.974
 9480SOL     OW29338   5.157   3.610   0.660
 9480SOL    HW129339   5.131   3.544   0.731
 9480SOL    HW229340   5.142   3.703   0.694
 9481SOL     OW29341   5.318   3.456   2.349
 9481SOL    HW129342   5.364   3.455   2.260
 9481SOL    HW229343   5.323   3.548   2.388
 9482SOL     OW29344   6.905   0.768   3.451
 9482SOL    HW129345   6.866   0.680   3.475
 9482SOL    HW229346   6.959   0.759   3.367
 9483SOL     OW29347   0.706   1.448   1.753
 9483SOL    HW129348   0.806   1.448   1.747
 9483SOL    HW229349   0.675   1.361   1.791
 9484SOL     OW29350   4.184   1.086   3.580
 9484SOL    HW129351   4.194   1.099   3.481
 9484SOL    HW229352   4.128   1.005   3.597
 9485SOL     OW29353   0.740   0.204   1.997
 9485SOL    HW129354   0.756   0.137   2.070
 9485SOL    HW229355   0.743   0.158   1.908
 9486SOL     OW29356   2.591   5.792   1.062
 9486SOL    HW129357   2.664   5.723   1.062
 9486SOL    HW229358   2.612   5.863   0.994
 9487SOL     OW29359   2.955   3.375   3.301
 9487SOL    HW129360   3.019   3.442   3.265
 9487SOL    HW229361   2.902   3.416   3.376
 9488SOL     OW29362   1.394   6.530   1.049
 9488SOL    HW129363   1.433   6.455   0.996
 9488SOL    HW229364   1.419   6.617   1.007
 9489SOL     OW29365   4.215   4.219   1.427
 9489SOL    HW129366   4.285   4.232   1.357
 9489SOL    HW229367   4.161   4.138   1.406
 9490SOL     OW29368   6.494   5.459   1.030
 9490SOL    HW129369   6.570   5.395   1.040
 9490SOL    HW229370   6.462   5.487   1.121
 9491SOL     OW29371   6.949   3.856   3.775
 9491SOL    HW129372   6.979   3.877   3.682
 9491SOL    HW229373   6.892   3.774   3.773
 9492SOL     OW29374   3.458   2.889   3.063
 9492SOL    HW129375   3.558   2.877   3.069
 9492SOL    HW229376   3.422   2.913   3.153
 9493SOL     OW29377   3.932   5.311   3.939
 9493SOL    HW129378   4.000   5.239   3.926
 9493SOL    HW229379   3.841   5.275   3.918
 9494SOL     OW29380   4.520   4.791   1.810
 9494SOL    HW129381   4.470   4.743   1.882
 9494SOL    HW229382   4.460   4.857   1.765
 9495SOL     OW29383   6.634   1.811   3.693
 9495SOL    HW129384   6.673   1.903   3.689
 9495SOL    HW229385   6.582   1.793   3.610
 9496SOL     OW29386   5.768   4.874   1.205
 9496SOL    HW129387   5.848   4.920   1.243
 9496SOL    HW229388   5.721   4.937   1.143
 9497SOL     OW29389   6.228   5.286   6.635
 9497SOL    HW129390   6.184   5.304   6.548
 9497SOL    HW229391   6.160   5.292   6.709
 9498SOL     OW29392   5.280   0.043   4.727
 9498SOL    HW129393   5.344   0.100   4.779
 9498SOL    HW229394   5.195   0.093   4.713
 9499SOL     OW29395   1.982   5.001   6.682
 9499SOL    HW129396   2.040   4.948   6.621
 9499SOL    HW229397   2.032   5.080   6.717
 9500SOL     OW29398   5.267   0.180   1.016
 9500SOL    HW129399   5.229   0.202   0.927
 9500SOL    HW229400   5.303   0.086   1.015
 9501SOL     OW29401   2.732   1.508   5.284
 9501SOL    HW129402   2.709   1.537   5.377
 9501SOL    HW229403   2.808   1.563   5.250
 9502SOL     OW29404   6.974   2.218   5.129
 9502SOL    HW129405   6.922   2.296   5.096
 9502SOL    HW229406   0.026   2.199   5.066
 9503SOL     OW29407   0.260   1.732   1.130
 9503SOL    HW129408   0.321   1.752   1.207
 9503SOL    HW229409   0.304   1.761   1.045
 9504SOL     OW29410   6.953   2.242   0.809
 9504SOL    HW129411   6.994   2.326   0.845
 9504SOL    HW229412   7.011   2.164   0.832
 9505SOL     OW29413   5.474   4.921   3.356
 9505SOL    HW129414   5.406   4.975   3.307
 9505SOL    HW229415   5.511   4.850   3.296
 9506SOL     OW29416   0.538   2.672   6.757
 9506SOL    HW129417   0.561   2.616   6.677
 9506SOL    HW229418   0.502   2.760   6.726
 9507SOL     OW29419   1.103   1.649   3.024
 9507SOL    HW129420   1.020   1.594   3.016
 9507SOL    HW229421   1.100   1.701   3.108
 9508SOL     OW29422   6.374   3.774   0.750
 9508SOL    HW129423   6.288   3.815   0.781
 9508SOL    HW229424   6.354   3.696   0.691
 9509SOL     OW29425   0.378   0.698   5.148
 9509SOL    HW129426   0.287   0.658   5.158
 9509SOL    HW229427   0.373   0.796   5.163
 9510SOL     OW29428   1.322   3.731   2.519
 9510SOL    HW129429   1.310   3.635   2.494
 9510SOL    HW229430   1.412   3.743   2.562
 9511SOL     OW29431   0.454   1.612   0.064
 9511SOL    HW129432   0.524   1.575   0.125
 9511SOL    HW229433   0.380   1.546   0.055
 9512SOL     OW29434   5.270   1.538   1.583
 9512SOL    HW129435   5.243   1.564   1.490
 9512SOL    HW229436   5.305   1.618   1.631
 9513SOL     OW29437   1.610   3.239   5.791
 9513SOL    HW129438   1.512   3.246   5.809
 9513SOL    HW229439   1.654   3.189   5.865
 9514SOL     OW29440   2.202   4.615   6.864
 9514SOL    HW129441   2.224   4.618   6.961
 9514SOL    HW229442   2.121   4.670   6.847
 9515SOL     OW29443   1.496   6.132   1.391
 9515SOL    HW129444   1.535   6.148   1.301
 9515SOL    HW229445   1.482   6.220   1.438
 9516SOL     OW29446   5.611   3.529   5.037
 9516SOL    HW129447   5.617   3.611   5.094
 9516SOL    HW229448   5.516   3.503   5.025
 9517SOL     OW29449   0.718   4.581   1.070
 9517SOL    HW129450   0.756   4.529   1.146
 9517SOL    HW229451   0.769   4.666   1.059
 9518SOL     OW29452   0.705   1.886   0.116
 9518SOL    HW129453   0.713   1.846   0.025
 9518SOL    HW229454   0.655   1.823   0.176
 9519SOL     OW29455   3.261   4.004   4.140
 9519SOL    HW129456   3.174   4.024   4.095
 9519SOL    HW229457   3.336   4.012   4.073
 9520SOL     OW29458   0.643   1.590   3.306
 9520SOL    HW129459   0.645   1.678   3.353
 9520SOL    HW229460   0.676   1.519   3.369
 9521SOL     OW29461   3.922   4.675   1.412
 9521SOL    HW129462   3.893   4.663   1.507
 9521SOL    HW229463   3.852   4.639   1.351
 9522SOL     OW29464   3.996   5.292   1.433
 9522SOL    HW129465   3.922   5.319   1.373
 9522SOL    HW229466   4.084   5.316   1.392
 9523SOL     OW29467   2.368   5.375   4.340
 9523SOL    HW129468   2.376   5.443   4.268
 9523SOL    HW229469   2.352   5.421   4.428
 9524SOL     OW29470   2.724   3.196   0.790
 9524SOL    HW129471   2.684   3.118   0.741
 9524SOL    HW229472   2.735   3.173   0.887
 9525SOL     OW29473   2.745   2.064   5.754
 9525SOL    HW129474   2.744   1.978   5.804
 9525SOL    HW229475   2.680   2.059   5.677
 9526SOL     OW29476   5.498   4.760   0.942
 9526SOL    HW129477   5.510   4.859   0.927
 9526SOL    HW229478   5.588   4.718   0.953
 9527SOL     OW29479   0.722   0.470   4.403
 9527SOL    HW129480   0.659   0.547   4.390
 9527SOL    HW229481   0.813   0.496   4.371
 9528SOL     OW29482   6.554   1.780   0.944
 9528SOL    HW129483   6.496   1.827   0.877
 9528SOL    HW229484   6.612   1.846   0.990
 9529SOL     OW29485   6.340   3.412   6.274
 9529SOL    HW129486   6.289   3.478   6.220
 9529SOL    HW229487   6.429   3.395   6.230
 9530SOL     OW29488   1.839   2.846   3.259
 9530SOL    HW129489   1.844   2.946   3.260
 9530SOL    HW229490   1.923   2.809   3.220
 9531SOL     OW29491   4.810   4.547   2.377
 9531SOL    HW129492   4.754   4.472   2.342
 9531SOL    HW229493   4.865   4.515   2.454
 9532SOL     OW29494   0.344   6.018   1.162
 9532SOL    HW129495   0.261   6.061   1.197
 9532SOL    HW229496   0.424   6.063   1.201
 9533SOL     OW29497   0.235   5.602   4.917
 9533SOL    HW129498   0.219   5.613   5.015
 9533SOL    HW229499   0.149   5.614   4.868
 9534SOL     OW29500   6.879   3.903   5.338
 9534SOL    HW129501   6.780   3.903   5.324
 9534SOL    HW229502   6.921   3.835   5.278
 9535SOL     OW29503   1.727   0.477   5.795
 9535SOL    HW129504   1.697   0.453   5.703
 9535SOL    HW229505   1.685   0.413   5.861
 9536SOL     OW29506   2.937   3.877   5.501
 9536SOL    HW129507   2.938   3.846   5.406
 9536SOL    HW229508   2.927   3.977   5.502
 9537SOL     OW29509   2.707   0.210   4.263
 9537SOL    HW129510   2.723   0.133   4.201
 9537SOL    HW229511   2.784   0.274   4.257
 9538SOL     OW29512   5.970   0.851   3.550
 9538SOL    HW129513   5.871   0.861   3.543
 9538SOL    HW229514   6.001   0.891   3.637
 9539SOL     OW29515   3.629   3.874   4.248
 9539SOL    HW129516   3.568   3.894   4.325
 9539SOL    HW229517   3.689   3.952   4.232
 9540SOL     OW29518   6.035   4.711   4.443
 9540SOL    HW129519   6.035   4.729   4.542
 9540SOL    HW229520   6.080   4.787   4.396
 9541SOL     OW29521   3.136   0.419   5.781
 9541SOL    HW129522   3.231   0.389   5.777
 9541SOL    HW229523   3.093   0.405   5.692
 9542SOL     OW29524   5.038   4.379   4.992
 9542SOL    HW129525   5.075   4.308   5.051
 9542SOL    HW229526   5.021   4.342   4.901
 9543SOL     OW29527   3.733   0.785   5.722
 9543SOL    HW129528   3.718   0.762   5.626
 9543SOL    HW229529   3.756   0.882   5.730
 9544SOL     OW29530   6.725   2.057   3.650
 9544SOL    HW129531   6.639   2.097   3.619
 9544SOL    HW229532   6.772   2.124   3.709
 9545SOL     OW29533   5.662   6.117   4.210
 9545SOL    HW129534   5.619   6.027   4.203
 9545SOL    HW229535   5.740   6.122   4.147
 9546SOL     OW29536   4.107   2.118   5.271
 9546SOL    HW129537   4.092   2.080   5.362
 9546SOL    HW229538   4.073   2.053   5.203
 9547SOL     OW29539   2.747   5.109   4.529
 9547SOL    HW129540   2.797   5.071   4.451
 9547SOL    HW229541   2.777   5.064   4.613
 9548SOL     OW29542   5.936   4.189   5.676
 9548SOL    HW129543   5.925   4.093   5.701
 9548SOL    HW229544   6.025   4.201   5.631
 9549SOL     OW29545   2.738   2.652   1.538
 9549SOL    HW129546   2.717   2.595   1.458
 9549SOL    HW229547   2.735   2.596   1.621
 9550SOL     OW29548   6.970   1.250   0.227
 9550SOL    HW129549   7.000   1.168   0.274
 9550SOL    HW229550   6.946   1.321   0.294
 9551SOL     OW29551   5.675   1.983   5.859
 9551SOL    HW129552   5.674   2.083   5.868
 9551SOL    HW229553   5.710   1.957   5.769
 9552SOL     OW29554   1.647   6.797   4.225
 9552SOL    HW129555   1.654   6.873   4.290
 9552SOL    HW229556   1.723   6.802   4.160
 9553SOL     OW29557   6.245   2.410   6.922
 9553SOL    HW129558   6.170   2.415   6.988
 9553SOL    HW229559   6.231   2.332   6.861
 9554SOL     OW29560   2.696   0.069   1.900
 9554SOL    HW129561   2.759   0.068   1.823
 9554SOL    HW229562   2.666   0.163   1.917
 9555SOL     OW29563   0.988   0.776   2.874
 9555SOL    HW129564   1.072   0.826   2.894
 9555SOL    HW229565   0.987   0.750   2.777
 9556SOL     OW29566   1.885   3.958   1.718
 9556SOL    HW129567   1.985   3.966   1.712
 9556SOL    HW229568   1.842   4.013   1.647
 9557SOL     OW29569   6.805   5.543   1.919
 9557SOL    HW129570   6.843   5.571   1.830
 9557SOL    HW229571   6.877   5.545   1.988
 9558SOL     OW29572   5.986   6.194   5.464
 9558SOL    HW129573   5.888   6.191   5.447
 9558SOL    HW229574   6.005   6.164   5.558
 9559SOL     OW29575   0.219   4.870   1.375
 9559SOL    HW129576   0.208   4.912   1.465
 9559SOL    HW229577   0.298   4.809   1.375
 9560SOL     OW29578   1.816   1.573   2.993
 9560SOL    HW129579   1.820   1.668   3.025
 9560SOL    HW229580   1.736   1.529   3.033
 9561SOL     OW29581   2.017   0.476   0.513
 9561SOL    HW129582   1.933   0.433   0.544
 9561SOL    HW229583   1.995   0.561   0.465
 9562SOL     OW29584   2.748   0.368   5.477
 9562SOL    HW129585   2.726   0.408   5.388
 9562SOL    HW229586   2.679   0.396   5.543
 9563SOL     OW29587   6.913   6.110   0.676
 9563SOL    HW129588   6.816   6.131   0.687
 9563SOL    HW229589   6.939   6.121   0.580
 9564SOL     OW29590   2.835   0.231   0.275
 9564SOL    HW129591   2.741   0.211   0.299
 9564SOL    HW229592   2.844   0.236   0.175
 9565SOL     OW29593   3.578   0.570   4.885
 9565SOL    HW129594   3.552   0.487   4.835
 9565SOL    HW229595   3.677   0.577   4.890
 9566SOL     OW29596   2.414   4.857   0.077
 9566SOL    HW129597   2.403   4.777   0.136
 9566SOL    HW229598   2.506   4.857   0.038
 9567SOL     OW29599   4.744   5.202   1.150
 9567SOL    HW129600   4.662   5.259   1.152
 9567SOL    HW229601   4.783   5.197   1.242
 9568SOL     OW29602   4.222   2.344   6.443
 9568SOL    HW129603   4.263   2.393   6.520
 9568SOL    HW229604   4.144   2.290   6.476
 9569SOL     OW29605   6.817   1.394   2.202
 9569SOL    HW129606   6.823   1.333   2.123
 9569SOL    HW229607   6.766   1.476   2.176
 9570SOL     OW29608   0.939   3.459   2.233
 9570SOL    HW129609   0.905   3.428   2.322
 9570SOL    HW229610   0.915   3.555   2.220
 9571SOL     OW29611   3.591   4.191   6.026
 9571SOL    HW129612   3.512   4.203   6.086
 9571SOL    HW229613   3.584   4.256   5.950
 9572SOL     OW29614   2.355   5.256   2.123
 9572SOL    HW129615   2.366   5.205   2.039
 9572SOL    HW229616   2.307   5.342   2.104
 9573SOL     OW29617   0.649   2.955   6.889
 9573SOL    HW129618   0.643   3.054   6.881
 9573SOL    HW229619   0.613   2.927   6.978
 9574SOL     OW29620   4.120   3.361   3.454
 9574SOL    HW129621   4.050   3.336   3.388
 9574SOL    HW229622   4.096   3.324   3.544
 9575SOL     OW29623   0.900   0.966   0.990
 9575SOL    HW129624   0.824   0.913   0.953
 9575SOL    HW229625   0.881   1.063   0.979
 9576SOL     OW29626   2.029   0.582   1.761
 9576SOL    HW129627   1.960   0.652   1.743
 9576SOL    HW229628   2.095   0.580   1.686
 9577SOL     OW29629   1.228   0.631   6.142
 9577SOL    HW129630   1.189   0.665   6.227
 9577SOL    HW229631   1.182   0.546   6.114
 9578SOL     OW29632   0.335   3.997   3.133
 9578SOL    HW129633   0.434   3.997   3.150
 9578SOL    HW229634   0.300   3.904   3.145
 9579SOL     OW29635   1.628   5.108   2.579
 9579SOL    HW129636   1.536   5.074   2.558
 9579SOL    HW229637   1.636   5.124   2.677
 9580SOL     OW29638   4.641   3.528   0.511
 9580SOL    HW129639   4.628   3.443   0.460
 9580SOL    HW229640   4.736   3.558   0.501
 9581SOL     OW29641   0.393   5.010   5.729
 9581SOL    HW129642   0.396   4.917   5.765
 9581SOL    HW229643   0.445   5.071   5.790
 9582SOL     OW29644   4.897   5.423   6.169
 9582SOL    HW129645   4.990   5.438   6.135
 9582SOL    HW229646   4.882   5.325   6.184
 9583SOL     OW29647   3.744   4.033   0.992
 9583SOL    HW129648   3.748   3.933   0.995
 9583SOL    HW229649   3.837   4.070   0.999
 9584SOL     OW29650   6.979   5.604   6.900
 9584SOL    HW129651   0.032   5.557   6.944
 9584SOL    HW229652   7.011   5.650   6.817
 9585SOL     OW29653   0.057   0.120   4.247
 9585SOL    HW129654   0.014   0.209   4.232
 9585SOL    HW229655   7.009   0.049   4.245
 9586SOL     OW29656   5.618   4.753   2.019
 9586SOL    HW129657   5.585   4.673   2.069
 9586SOL    HW229658   5.618   4.833   2.079
 9587SOL     OW29659   0.590   0.687   1.868
 9587SOL    HW129660   0.570   0.735   1.783
 9587SOL    HW229661   0.598   0.589   1.851
 9588SOL     OW29662   6.535   1.519   1.249
 9588SOL    HW129663   6.585   1.548   1.168
 9588SOL    HW229664   6.439   1.547   1.241
 9589SOL     OW29665   2.135   4.894   6.491
 9589SOL    HW129666   2.228   4.881   6.525
 9589SOL    HW229667   2.133   4.876   6.392
 9590SOL     OW29668   6.578   3.208   2.113
 9590SOL    HW129669   6.555   3.115   2.143
 9590SOL    HW229670   6.643   3.203   2.037
 9591SOL     OW29671   3.194   6.050   6.268
 9591SOL    HW129672   3.187   5.960   6.311
 9591SOL    HW229673   3.142   6.116   6.321
 9592SOL     OW29674   3.965   4.161   1.072
 9592SOL    HW129675   4.020   4.092   1.118
 9592SOL    HW229676   3.987   4.251   1.108
 9593SOL     OW29677   0.168   1.031   5.441
 9593SOL    HW129678   0.102   0.956   5.442
 9593SOL    HW229679   0.158   1.085   5.524
 9594SOL     OW29680   1.754   5.874   2.567
 9594SOL    HW129681   1.821   5.915   2.504
 9594SOL    HW229682   1.796   5.796   2.613
 9595SOL     OW29683   0.757   4.340   5.275
 9595SOL    HW129684   0.826   4.301   5.213
 9595SOL    HW229685   0.767   4.300   5.365
 9596SOL     OW29686   6.710   5.750   6.522
 9596SOL    HW129687   6.763   5.783   6.444
 9596SOL    HW229688   6.736   5.656   6.543
 9597SOL     OW29689   0.754   4.436   1.294
 9597SOL    HW129690   0.771   4.488   1.378
 9597SOL    HW229691   0.683   4.368   1.310
 9598SOL     OW29692   1.384   3.260   4.032
 9598SOL    HW129693   1.327   3.229   4.108
 9598SOL    HW229694   1.423   3.349   4.055
 9599SOL     OW29695   4.337   6.992   4.932
 9599SOL    HW129696   4.427   7.013   4.969
 9599SOL    HW229697   4.332   7.023   4.837
 9600SOL     OW29698   1.905   0.452   6.641
 9600SOL    HW129699   1.930   0.444   6.738
 9600SOL    HW229700   1.986   0.473   6.587
 9601SOL     OW29701   5.292   4.086   1.328
 9601SOL    HW129702   5.377   4.131   1.298
 9601SOL    HW229703   5.294   4.076   1.427
 9602SOL     OW29704   6.600   5.222   6.371
 9602SOL    HW129705   6.629   5.142   6.423
 9602SOL    HW229706   6.600   5.199   6.273
 9603SOL     OW29707   3.879   1.570   3.871
 9603SOL    HW129708   3.871   1.627   3.952
 9603SOL    HW229709   3.913   1.625   3.795
 9604SOL     OW29710   4.168   0.147   6.904
 9604SOL    HW129711   4.256   0.169   6.946
 9604SOL    HW229712   4.171   0.054   6.867
 9605SOL     OW29713   0.737   5.413   3.413
 9605SOL    HW129714   0.707   5.320   3.392
 9605SOL    HW229715   0.824   5.431   3.368
 9606SOL     OW29716   2.080   6.428   6.009
 9606SOL    HW129717   2.076   6.448   6.107
 9606SOL    HW229718   2.174   6.407   5.983
 9607SOL     OW29719   1.566   1.777   0.400
 9607SOL    HW129720   1.622   1.701   0.435
 9607SOL    HW229721   1.601   1.863   0.436
 9608SOL     OW29722   6.784   6.061   2.639
 9608SOL    HW129723   6.794   5.974   2.687
 9608SOL    HW229724   6.700   6.059   2.585
 9609SOL     OW29725   1.878   4.006   6.398
 9609SOL    HW129726   1.895   3.908   6.389
 9609SOL    HW229727   1.956   4.049   6.443
 9610SOL     OW29728   1.737   4.894   4.072
 9610SOL    HW129729   1.691   4.972   4.115
 9610SOL    HW229730   1.833   4.917   4.056
 9611SOL     OW29731   0.140   6.460   6.578
 9611SOL    HW129732   0.240   6.450   6.574
 9611SOL    HW229733   0.115   6.511   6.660
 9612SOL     OW29734   0.929   3.947   1.903
 9612SOL    HW129735   1.003   3.881   1.888
 9612SOL    HW229736   0.927   3.972   2.000
 9613SOL     OW29737   4.895   6.317   3.220
 9613SOL    HW129738   4.957   6.378   3.169
 9613SOL    HW229739   4.873   6.359   3.308
 9614SOL     OW29740   3.149   2.123   0.380
 9614SOL    HW129741   3.145   2.173   0.466
 9614SOL    HW229742   3.166   2.188   0.305
 9615SOL     OW29743   0.520   0.201   0.942
 9615SOL    HW129744   0.491   0.106   0.959
 9615SOL    HW229745   0.614   0.213   0.975
 9616SOL     OW29746   4.449   3.455   1.240
 9616SOL    HW129747   4.429   3.417   1.149
 9616SOL    HW229748   4.518   3.399   1.285
 9617SOL     OW29749   2.295   2.911   3.759
 9617SOL    HW129750   2.214   2.864   3.724
 9617SOL    HW229751   2.316   2.878   3.851
 9618SOL     OW29752   3.653   6.887   5.647
 9618SOL    HW129753   3.593   6.899   5.569
 9618SOL    HW229754   3.657   6.790   5.671
 9619SOL     OW29755   1.138   6.843   0.111
 9619SOL    HW129756   1.217   6.881   0.063
 9619SOL    HW229757   1.160   6.750   0.142
 9620SOL     OW29758   4.195   2.302   6.791
 9620SOL    HW129759   4.250   2.231   6.835
 9620SOL    HW229760   4.253   2.381   6.770
 9621SOL     OW29761   0.780   0.901   2.167
 9621SOL    HW129762   0.685   0.900   2.136
 9621SOL    HW229763   0.786   0.947   2.255
 9622SOL     OW29764   6.691   0.663   0.193
 9622SOL    HW129765   6.651   0.571   0.196
 9622SOL    HW229766   6.682   0.701   0.101
 9623SOL     OW29767   3.179   4.635   5.653
 9623SOL    HW129768   3.129   4.706   5.703
 9623SOL    HW229769   3.119   4.593   5.585
 9624SOL     OW29770   6.300   4.390   2.883
 9624SOL    HW129771   6.226   4.442   2.841
 9624SOL    HW229772   6.366   4.362   2.813
 9625SOL     OW29773   4.862   5.725   0.375
 9625SOL    HW129774   4.870   5.640   0.427
 9625SOL    HW229775   4.773   5.768   0.395
 9626SOL     OW29776   2.715   6.443   0.063
 9626SOL    HW129777   2.683   6.378   7.018
 9626SOL    HW229778   2.730   6.532   0.020
 9627SOL     OW29779   0.101   4.791   2.993
 9627SOL    HW129780   0.003   4.774   2.983
 9627SOL    HW229781   0.152   4.719   2.947
 9628SOL     OW29782   5.593   5.237   6.918
 9628SOL    HW129783   5.660   5.300   6.878
 9628SOL    HW229784   5.586   5.254   7.017
 9629SOL     OW29785   0.409   6.436   3.149
 9629SOL    HW129786   0.469   6.362   3.118
 9629SOL    HW229787   0.454   6.524   3.137
 9630SOL     OW29788   6.273   6.481   5.375
 9630SOL    HW129789   6.248   6.543   5.301
 9630SOL    HW229790   6.349   6.521   5.427
 9631SOL     OW29791   6.014   0.503   0.053
 9631SOL    HW129792   6.080   0.432   0.026
 9631SOL    HW229793   5.932   0.495   7.019
 9632SOL     OW29794   2.386   5.313   3.018
 9632SOL    HW129795   2.437   5.300   2.933
 9632SOL    HW229796   2.289   5.299   3.001
 9633SOL     OW29797   4.842   5.065   7.010
 9633SOL    HW129798   4.893   5.132   6.955
 9633SOL    HW229799   4.906   5.006   0.036
 9634SOL     OW29800   0.931   6.883   4.889
 9634SOL    HW129801   0.941   6.843   4.798
 9634SOL    HW229802   0.836   6.907   4.905
 9635SOL     OW29803   1.227   4.535   5.777
 9635SOL    HW129804   1.233   4.497   5.684
 9635SOL    HW229805   1.241   4.461   5.843
 9636SOL     OW29806   4.344   1.587   5.885
 9636SOL    HW129807   4.347   1.505   5.828
 9636SOL    HW229808   4.249   1.619   5.892
 9637SOL     OW29809   2.369   1.943   6.957
 9637SOL    HW129810   2.315   1.937   0.018
 9637SOL    HW229811   2.461   1.908   6.973
 9638SOL     OW29812   7.016   3.200   0.176
 9638SOL    HW129813   6.934   3.248   0.144
 9638SOL    HW229814   0.070   3.265   0.180
 9639SOL     OW29815   4.188   1.640   2.209
 9639SOL    HW129816   4.139   1.601   2.287
 9639SOL    HW229817   4.256   1.575   2.176
 9640SOL     OW29818   3.077   1.888   3.204
 9640SOL    HW129819   3.173   1.873   3.178
 9640SOL    HW229820   3.019   1.826   3.151
 9641SOL     OW29821   5.304   6.224   0.849
 9641SOL    HW129822   5.303   6.323   0.836
 9641SOL    HW229823   5.396   6.195   0.873
 9642SOL     OW29824   2.689   6.181   4.490
 9642SOL    HW129825   2.686   6.280   4.480
 9642SOL    HW229826   2.779   6.147   4.463
 9643SOL     OW29827   6.250   4.246   4.263
 9643SOL    HW129828   6.301   4.181   4.320
 9643SOL    HW229829   6.302   4.265   4.180
 9644SOL     OW29830   0.660   5.176   4.421
 9644SOL    HW129831   0.739   5.145   4.368
 9644SOL    HW229832   0.577   5.131   4.386
 9645SOL     OW29833   3.509   5.063   3.718
 9645SOL    HW129834   3.544   5.157   3.717
 9645SOL    HW229835   3.516   5.024   3.627
 9646SOL     OW29836   2.879   4.829   2.150
 9646SOL    HW129837   2.858   4.742   2.106
 9646SOL    HW229838   2.814   4.898   2.119
 9647SOL     OW29839   0.602   5.791   1.410
 9647SOL    HW129840   0.619   5.718   1.344
 9647SOL    HW229841   0.504   5.810   1.415
 9648SOL     OW29842   3.448   2.010   6.990
 9648SOL    HW129843   3.526   2.050   6.941
 9648SOL    HW229844   3.363   2.049   6.954
 9649SOL     OW29845   2.670   5.222   6.879
 9649SOL    HW129846   2.768   5.218   6.897
 9649SOL    HW229847   2.645   5.314   6.850
 9650SOL     OW29848   4.784   4.647   3.102
 9650SOL    HW129849   4.761   4.631   3.006
 9650SOL    HW229850   4.880   4.623   3.117
 9651SOL     OW29851   6.499   0.692   6.818
 9651SOL    HW129852   6.533   0.747   6.894
 9651SOL    HW229853   6.426   0.632   6.852
 9652SOL     OW29854   1.967   4.360   0.923
 9652SOL    HW129855   1.924   4.432   0.977
 9652SOL    HW229856   1.943   4.370   0.827
 9653SOL     OW29857   4.581   5.252   4.909
 9653SOL    HW129858   4.547   5.200   4.831
 9653SOL    HW229859   4.681   5.259   4.903
 9654SOL     OW29860   3.796   3.305   2.270
 9654SOL    HW129861   3.883   3.263   2.296
 9654SOL    HW229862   3.806   3.350   2.180
 9655SOL     OW29863   6.632   0.836   7.005
 9655SOL    HW129864   6.728   0.860   6.991
 9655SOL    HW229865   6.579   0.919   7.023
 9656SOL     OW29866   4.115   2.132   0.889
 9656SOL    HW129867   4.119   2.231   0.879
 9656SOL    HW229868   4.101   2.109   0.985
 9657SOL     OW29869   6.215   1.778   3.266
 9657SOL    HW129870   6.249   1.788   3.173
 9657SOL    HW229871   6.180   1.685   3.279
 9658SOL     OW29872   5.637   1.762   2.573
 9658SOL    HW129873   5.600   1.852   2.553
 9658SOL    HW229874   5.603   1.696   2.505
 9659SOL     OW29875   6.783   3.727   0.727
 9659SOL    HW129876   6.880   3.711   0.709
 9659SOL    HW229877   6.747   3.796   0.664
 9660SOL     OW29878   0.081   6.526   2.260
 9660SOL    HW129879   0.112   6.542   2.354
 9660SOL    HW229880   0.143   6.461   2.215
 9661SOL     OW29881   3.040   6.411   1.656
 9661SOL    HW129882   2.992   6.324   1.663
 9661SOL    HW229883   2.993   6.480   1.712
 9662SOL     OW29884   4.959   2.771   5.290
 9662SOL    HW129885   5.012   2.701   5.242
 9662SOL    HW229886   5.014   2.855   5.295
 9663SOL     OW29887   0.014   5.997   3.668
 9663SOL    HW129888   6.961   6.035   3.721
 9663SOL    HW229889   7.018   5.902   3.645
 9664SOL     OW29890   5.772   6.489   4.035
 9664SOL    HW129891   5.691   6.466   3.981
 9664SOL    HW229892   5.762   6.580   4.075
 9665SOL     OW29893   4.767   6.906   0.189
 9665SOL    HW129894   4.833   6.890   0.116
 9665SOL    HW229895   4.675   6.915   0.150
 9666SOL     OW29896   6.140   3.784   1.342
 9666SOL    HW129897   6.105   3.703   1.387
 9666SOL    HW229898   6.232   3.767   1.307
 9667SOL     OW29899   4.050   3.409   5.164
 9667SOL    HW129900   3.973   3.377   5.109
 9667SOL    HW229901   4.096   3.331   5.207
 9668SOL     OW29902   6.998   0.916   6.185
 9668SOL    HW129903   0.031   0.929   6.267
 9668SOL    HW229904   6.977   0.819   6.174
 9669SOL     OW29905   1.399   0.205   2.111
 9669SOL    HW129906   1.367   0.290   2.070
 9669SOL    HW229907   1.343   0.129   2.078
 9670SOL     OW29908   5.962   4.762   6.829
 9670SOL    HW129909   5.924   4.836   6.883
 9670SOL    HW229910   6.059   4.779   6.812
 9671SOL     OW29911   5.840   4.958   6.997
 9671SOL    HW129912   5.894   5.037   0.003
 9671SOL    HW229913   5.744   4.985   6.989
 9672SOL     OW29914   1.881   6.023   4.045
 9672SOL    HW129915   1.955   6.084   4.016
 9672SOL    HW229916   1.822   6.004   3.967
 9673SOL     OW29917   5.438   3.641   0.433
 9673SOL    HW129918   5.414   3.556   0.480
 9673SOL    HW229919   5.519   3.627   0.377
 9674SOL     OW29920   2.877   6.161   2.973
 9674SOL    HW129921   2.809   6.107   2.924
 9674SOL    HW229922   2.891   6.123   3.064
 9675SOL     OW29923   5.709   2.234   0.446
 9675SOL    HW129924   5.747   2.173   0.515
 9675SOL    HW229925   5.665   2.180   0.374
 9676SOL     OW29926   1.279   3.676   5.595
 9676SOL    HW129927   1.200   3.683   5.534
 9676SOL    HW229928   1.346   3.746   5.571
 9677SOL     OW29929   1.487   5.130   5.163
 9677SOL    HW129930   1.537   5.180   5.234
 9677SOL    HW229931   1.536   5.046   5.140
 9678SOL     OW29932   3.405   3.605   3.244
 9678SOL    HW129933   3.310   3.607   3.272
 9678SOL    HW229934   3.446   3.517   3.271
 9679SOL     OW29935   2.294   0.878   2.169
 9679SOL    HW129936   2.331   0.932   2.244
 9679SOL    HW229937   2.222   0.931   2.123
 9680SOL     OW29938   5.111   0.961   2.809
 9680SOL    HW129939   5.131   0.992   2.716
 9680SOL    HW229940   5.012   0.955   2.821
 9681SOL     OW29941   2.807   1.186   0.349
 9681SOL    HW129942   2.796   1.110   0.285
 9681SOL    HW229943   2.860   1.157   0.428
 9682SOL     OW29944   5.272   4.835   3.926
 9682SOL    HW129945   5.183   4.873   3.902
 9682SOL    HW229946   5.331   4.907   3.962
 9683SOL     OW29947   2.655   5.503   0.761
 9683SOL    HW129948   2.576   5.514   0.821
 9683SOL    HW229949   2.722   5.574   0.782
 9684SOL     OW29950   6.957   3.088   5.702
 9684SOL    HW129951   7.008   3.081   5.787
 9684SOL    HW229952   6.963   3.181   5.666
 9685SOL     OW29953   2.669   4.545   1.056
 9685SOL    HW129954   2.718   4.464   1.086
 9685SOL    HW229955   2.728   4.625   1.063
 9686SOL     OW29956   6.588   1.442   6.406
 9686SOL    HW129957   6.493   1.447   6.434
 9686SOL    HW229958   6.594   1.455   6.307
 9687SOL     OW29959   1.875   0.704   4.113
 9687SOL    HW129960   1.850   0.608   4.119
 9687SOL    HW229961   1.883   0.743   4.206
 9688SOL     OW29962   0.485   2.840   2.599
 9688SOL    HW129963   0.562   2.780   2.622
 9688SOL    HW229964   0.514   2.936   2.607
 9689SOL     OW29965   1.522   5.551   6.709
 9689SOL    HW129966   1.458   5.486   6.666
 9689SOL    HW229967   1.575   5.597   6.638
 9690SOL     OW29968   5.747   5.824   6.672
 9690SOL    HW129969   5.730   5.900   6.734
 9690SOL    HW229970   5.677   5.754   6.685
 9691SOL     OW29971   3.008   5.183   1.512
 9691SOL    HW129972   3.096   5.179   1.464
 9691SOL    HW229973   3.023   5.174   1.610
 9692SOL     OW29974   3.852   5.357   2.501
 9692SOL    HW129975   3.931   5.305   2.468
 9692SOL    HW229976   3.802   5.302   2.568
 9693SOL     OW29977   5.964   4.810   1.533
 9693SOL    HW129978   6.047   4.768   1.568
 9693SOL    HW229979   5.933   4.881   1.597
 9694SOL     OW29980   2.028   0.951   6.950
 9694SOL    HW129981   1.985   1.033   6.988
 9694SOL    HW229982   2.090   0.911   7.017
 9695SOL     OW29983   0.138   3.815   2.385
 9695SOL    HW129984   0.133   3.860   2.296
 9695SOL    HW229985   0.114   3.881   2.457
 9696SOL     OW29986   5.303   3.419   0.541
 9696SOL    HW129987   5.246   3.476   0.600
 9696SOL    HW229988   5.297   3.324   0.571
 9697SOL     OW29989   0.229   5.868   6.951
 9697SOL    HW129990   0.166   5.940   6.982
 9697SOL    HW229991   0.236   5.871   6.852
 9698SOL     OW29992   4.570   1.109   5.907
 9698SOL    HW129993   4.614   1.198   5.898
 9698SOL    HW229994   4.573   1.079   6.002
 9699SOL     OW29995   6.645   5.083   6.700
 9699SOL    HW129996   6.739   5.116   6.702
 9699SOL    HW229997   6.582   5.160   6.710
 9700SOL     OW29998   4.434   5.111   4.689
 9700SOL    HW129999   4.447   5.012   4.676
 9700SOL    HW230000   4.444   5.157   4.602
 9701SOL     OW30001   3.896   4.893   5.429
 9701SOL    HW130002   3.947   4.816   5.466
 9701SOL    HW230003   3.812   4.906   5.481
 9702SOL     OW30004   4.590   0.307   0.003
 9702SOL    HW130005   4.616   0.321   0.099
 9702SOL    HW230006   4.661   0.254   6.980
 9703SOL     OW30007   4.485   4.606   3.699
 9703SOL    HW130008   4.540   4.676   3.654
 9703SOL    HW230009   4.544   4.544   3.750
 9704SOL     OW30010   3.427   0.999   2.819
 9704SOL    HW130011   3.526   1.009   2.831
 9704SOL    HW230012   3.381   1.083   2.847
 9705SOL     OW30013   5.973   4.768   6.310
 9705SOL    HW130014   5.891   4.823   6.328
 9705SOL    HW230015   5.958   4.710   6.231
 9706SOL     OW30016   0.492   3.229   0.894
 9706SOL    HW130017   0.401   3.246   0.932
 9706SOL    HW230018   0.495   3.137   0.855
 9707SOL     OW30019   6.678   4.845   2.077
 9707SOL    HW130020   6.589   4.799   2.078
 9707SOL    HW230021   6.730   4.815   1.997
 9708SOL     OW30022   1.276   2.045   2.583
 9708SOL    HW130023   1.305   2.130   2.539
 9708SOL    HW230024   1.184   2.057   2.622
 9709SOL     OW30025   6.067   6.239   3.291
 9709SOL    HW130026   6.085   6.190   3.375
 9709SOL    HW230027   6.137   6.217   3.223
 9710SOL     OW30028   0.249   1.225   1.670
 9710SOL    HW130029   0.253   1.213   1.570
 9710SOL    HW230030   0.154   1.214   1.700
 9711SOL     OW30031   2.263   4.956   6.040
 9711SOL    HW130032   2.306   4.915   6.120
 9711SOL    HW230033   2.251   4.885   5.970
 9712SOL     OW30034   6.110   4.199   6.484
 9712SOL    HW130035   6.061   4.281   6.454
 9712SOL    HW230036   6.065   4.162   6.566
 9713SOL     OW30037   1.343   5.175   3.137
 9713SOL    HW130038   1.405   5.249   3.158
 9713SOL    HW230039   1.389   5.107   3.080
 9714SOL     OW30040   3.124   0.603   0.258
 9714SOL    HW130041   3.045   0.584   0.200
 9714SOL    HW230042   3.151   0.699   0.250
 9715SOL     OW30043   5.257   4.144   6.370
 9715SOL    HW130044   5.199   4.084   6.425
 9715SOL    HW230045   5.225   4.144   6.275
 9716SOL     OW30046   3.874   3.212   0.149
 9716SOL    HW130047   3.934   3.248   0.077
 9716SOL    HW230048   3.781   3.203   0.113
 9717SOL     OW30049   5.127   6.128   5.777
 9717SOL    HW130050   5.060   6.055   5.788
 9717SOL    HW230051   5.214   6.100   5.818
 9718SOL     OW30052   4.767   2.564   0.396
 9718SOL    HW130053   4.795   2.613   0.313
 9718SOL    HW230054   4.763   2.628   0.473
 9719SOL     OW30055   6.440   1.747   6.243
 9719SOL    HW130056   6.520   1.690   6.261
 9719SOL    HW230057   6.387   1.757   6.328
 9720SOL     OW30058   6.842   5.538   2.288
 9720SOL    HW130059   6.915   5.606   2.293
 9720SOL    HW230060   6.850   5.475   2.366
 9721SOL     OW30061   0.186   2.476   1.653
 9721SOL    HW130062   0.138   2.550   1.606
 9721SOL    HW230063   0.134   2.391   1.643
 9722SOL     OW30064   6.407   0.075   3.927
 9722SOL    HW130065   6.399   0.162   3.877
 9722SOL    HW230066   6.503   0.058   3.948
 9723SOL     OW30067   2.294   6.608   3.192
 9723SOL    HW130068   2.299   6.556   3.107
 9723SOL    HW230069   2.232   6.561   3.256
 9724SOL     OW30070   1.445   4.535   0.386
 9724SOL    HW130071   1.515   4.571   0.447
 9724SOL    HW230072   1.367   4.501   0.440
 9725SOL     OW30073   3.712   4.527   6.310
 9725SOL    HW130074   3.766   4.499   6.389
 9725SOL    HW230075   3.771   4.533   6.229
 9726SOL     OW30076   5.353   0.283   3.947
 9726SOL    HW130077   5.446   0.318   3.930
 9726SOL    HW230078   5.299   0.354   3.992
 9727SOL     OW30079   0.634   4.112   5.752
 9727SOL    HW130080   0.718   4.065   5.727
 9727SOL    HW230081   0.603   4.079   5.842
 9728SOL     OW30082   0.406   0.718   6.112
 9728SOL    HW130083   0.448   0.802   6.076
 9728SOL    HW230084   0.384   0.732   6.209
 9729SOL     OW30085   0.986   4.483   3.151
 9729SOL    HW130086   0.981   4.457   3.247
 9729SOL    HW230087   1.081   4.493   3.123
 9730SOL     OW30088   1.053   3.666   3.649
 9730SOL    HW130089   1.042   3.752   3.599
 9730SOL    HW230090   1.078   3.685   3.744
 9731SOL     OW30091   4.540   4.522   1.001
 9731SOL    HW130092   4.442   4.527   1.020
 9731SOL    HW230093   4.584   4.464   1.069
 9732SOL     OW30094   6.006   5.463   3.072
 9732SOL    HW130095   6.059   5.439   3.153
 9732SOL    HW230096   6.059   5.444   2.990
 9733SOL     OW30097   5.575   5.111   0.627
 9733SOL    HW130098   5.652   5.167   0.598
 9733SOL    HW230099   5.579   5.022   0.581
 9734SOL     OW30100   6.431   1.433   2.155
 9734SOL    HW130101   6.465   1.378   2.231
 9734SOL    HW230102   6.349   1.482   2.184
 9735SOL     OW30103   2.721   4.755   3.355
 9735SOL    HW130104   2.819   4.739   3.352
 9735SOL    HW230105   2.676   4.679   3.402
 9736SOL     OW30106   6.106   1.735   6.900
 9736SOL    HW130107   6.185   1.793   6.882
 9736SOL    HW230108   6.109   1.702   6.994
 9737SOL     OW30109   5.801   2.458   3.994
 9737SOL    HW130110   5.870   2.505   4.049
 9737SOL    HW230111   5.732   2.418   4.054
 9738SOL     OW30112   1.558   0.123   1.228
 9738SOL    HW130113   1.540   0.113   1.326
 9738SOL    HW230114   1.484   0.083   1.175
 9739SOL     OW30115   6.044   4.603   2.046
 9739SOL    HW130116   5.975   4.642   1.986
 9739SOL    HW230117   6.050   4.504   2.030
 9740SOL     OW30118   6.553   2.620   3.071
 9740SOL    HW130119   6.602   2.650   3.153
 9740SOL    HW230120   6.456   2.611   3.091
 9741SOL     OW30121   5.056   1.304   3.373
 9741SOL    HW130122   5.060   1.353   3.286
 9741SOL    HW230123   5.032   1.208   3.356
 9742SOL     OW30124   4.508   6.607   1.489
 9742SOL    HW130125   4.470   6.628   1.399
 9742SOL    HW230126   4.565   6.684   1.519
 9743SOL     OW30127   0.812   1.918   4.940
 9743SOL    HW130128   0.773   2.010   4.946
 9743SOL    HW230129   0.910   1.922   4.958
 9744SOL     OW30130   0.515   0.278   3.144
 9744SOL    HW130131   0.533   0.374   3.123
 9744SOL    HW230132   0.433   0.248   3.095
 9745SOL     OW30133   6.542   2.651   5.974
 9745SOL    HW130134   6.635   2.690   5.977
 9745SOL    HW230135   6.548   2.552   5.976
 9746SOL     OW30136   6.488   0.954   5.752
 9746SOL    HW130137   6.557   0.887   5.724
 9746SOL    HW230138   6.427   0.971   5.675
 9747SOL     OW30139   2.130   0.869   1.069
 9747SOL    HW130140   2.229   0.861   1.069
 9747SOL    HW230141   2.097   0.882   1.163
 9748SOL     OW30142   0.376   1.578   3.394
 9748SOL    HW130143   0.473   1.581   3.418
 9748SOL    HW230144   0.328   1.653   3.440
 9749SOL     OW30145   2.069   1.587   5.189
 9749SOL    HW130146   2.082   1.528   5.109
 9749SOL    HW230147   1.985   1.639   5.178
 9750SOL     OW30148   5.848   4.562   3.867
 9750SOL    HW130149   5.814   4.469   3.855
 9750SOL    HW230150   5.832   4.614   3.783
 9751SOL     OW30151   0.454   0.817   0.583
 9751SOL    HW130152   0.405   0.770   0.656
 9751SOL    HW230153   0.391   0.837   0.508
 9752SOL     OW30154   4.917   1.864   5.838
 9752SOL    HW130155   4.975   1.791   5.875
 9752SOL    HW230156   4.953   1.893   5.749
 9753SOL     OW30157   6.039   6.055   5.743
 9753SOL    HW130158   6.044   6.031   5.840
 9753SOL    HW230159   6.004   6.147   5.733
 9754SOL     OW30160   0.876   1.520   6.653
 9754SOL    HW130161   0.942   1.542   6.580
 9754SOL    HW230162   0.923   1.470   6.726
 9755SOL     OW30163   4.203   3.563   4.972
 9755SOL    HW130164   4.295   3.545   4.936
 9755SOL    HW230165   4.182   3.495   5.043
 9756SOL     OW30166   5.758   3.183   0.837
 9756SOL    HW130167   5.816   3.265   0.845
 9756SOL    HW230168   5.684   3.201   0.772
 9757SOL     OW30169   6.168   4.003   3.686
 9757SOL    HW130170   6.184   3.909   3.655
 9757SOL    HW230171   6.194   4.011   3.782
 9758SOL     OW30172   2.478   0.011   6.824
 9758SOL    HW130173   2.575   7.009   6.823
 9758SOL    HW230174   2.468   0.109   6.811
 9759SOL     OW30175   2.013   6.918   6.877
 9759SOL    HW130176   2.102   6.944   6.841
 9759SOL    HW230177   1.991   6.975   6.956
 9760SOL     OW30178   4.930   3.355   5.132
 9760SOL    HW130179   4.983   3.388   5.210
 9760SOL    HW230180   4.894   3.434   5.081
 9761SOL     OW30181   6.182   0.709   2.578
 9761SOL    HW130182   6.266   0.704   2.524
 9761SOL    HW230183   6.155   0.616   2.606
 9762SOL     OW30184   3.947   1.775   4.447
 9762SOL    HW130185   4.021   1.731   4.497
 9762SOL    HW230186   3.875   1.803   4.510
 9763SOL     OW30187   4.936   2.309   2.039
 9763SOL    HW130188   5.030   2.308   2.006
 9763SOL    HW230189   4.873   2.327   1.963
 9764SOL     OW30190   0.578   2.983   3.158
 9764SOL    HW130191   0.590   2.948   3.251
 9764SOL    HW230192   0.631   3.067   3.147
 9765SOL     OW30193   6.674   1.498   3.229
 9765SOL    HW130194   6.632   1.507   3.139
 9765SOL    HW230195   6.644   1.574   3.287
 9766SOL     OW30196   2.630   0.495   3.448
 9766SOL    HW130197   2.665   0.574   3.399
 9766SOL    HW230198   2.692   0.417   3.435
 9767SOL     OW30199   4.920   1.472   5.499
 9767SOL    HW130200   4.990   1.542   5.513
 9767SOL    HW230201   4.835   1.501   5.542
 9768SOL     OW30202   5.934   1.921   3.107
 9768SOL    HW130203   5.874   1.993   3.069
 9768SOL    HW230204   6.023   1.961   3.130
 9769SOL     OW30205   2.879   0.695   2.700
 9769SOL    HW130206   2.943   0.772   2.697
 9769SOL    HW230207   2.860   0.664   2.607
 9770SOL     OW30208   5.696   0.066   0.144
 9770SOL    HW130209   5.792   0.066   0.115
 9770SOL    HW230210   5.640   0.025   0.073
 9771SOL     OW30211   3.061   5.076   0.965
 9771SOL    HW130212   3.086   5.169   0.993
 9771SOL    HW230213   2.987   5.043   1.024
 9772SOL     OW30214   1.319   6.104   3.106
 9772SOL    HW130215   1.294   6.189   3.059
 9772SOL    HW230216   1.253   6.086   3.179
 9773SOL     OW30217   4.962   6.118   4.297
 9773SOL    HW130218   4.979   6.098   4.201
 9773SOL    HW230219   5.046   6.149   4.341
 9774SOL     OW30220   6.658   5.019   1.801
 9774SOL    HW130221   6.712   5.086   1.852
 9774SOL    HW230222   6.560   5.040   1.812
 9775SOL     OW30223   2.251   0.995   3.741
 9775SOL    HW130224   2.281   0.979   3.646
 9775SOL    HW230225   2.258   1.092   3.762
 9776SOL     OW30226   0.995   4.828   4.299
 9776SOL    HW130227   1.011   4.906   4.238
 9776SOL    HW230228   0.900   4.828   4.329
 9777SOL     OW30229   5.272   4.474   6.036
 9777SOL    HW130230   5.243   4.536   5.963
 9777SOL    HW230231   5.372   4.468   6.037
 9778SOL     OW30232   0.517   0.713   3.428
 9778SOL    HW130233   0.572   0.632   3.407
 9778SOL    HW230234   0.575   0.786   3.464
 9779SOL     OW30235   1.989   0.805   4.858
 9779SOL    HW130236   2.085   0.788   4.836
 9779SOL    HW230237   1.979   0.899   4.892
 9780SOL     OW30238   2.328   1.597   1.087
 9780SOL    HW130239   2.390   1.622   1.013
 9780SOL    HW230240   2.234   1.614   1.060
 9781SOL     OW30241   1.843   3.795   4.419
 9781SOL    HW130242   1.937   3.766   4.439
 9781SOL    HW230243   1.812   3.859   4.489
 9782SOL     OW30244   6.836   0.485   1.620
 9782SOL    HW130245   6.935   0.477   1.608
 9782SOL    HW230246   6.796   0.536   1.543
 9783SOL     OW30247   5.139   1.876   3.238
 9783SOL    HW130248   5.172   1.812   3.308
 9783SOL    HW230249   5.151   1.836   3.148
 9784SOL     OW30250   4.147   1.331   4.484
 9784SOL    HW130251   4.148   1.231   4.483
 9784SOL    HW230252   4.167   1.365   4.393
 9785SOL     OW30253   0.145   3.964   5.752
 9785SOL    HW130254   0.168   3.988   5.846
 9785SOL    HW230255   0.045   3.954   5.744
 9786SOL     OW30256   2.352   4.394   6.746
 9786SOL    HW130257   2.383   4.344   6.826
 9786SOL    HW230258   2.291   4.468   6.774
 9787SOL     OW30259   4.283   3.469   1.797
 9787SOL    HW130260   4.383   3.469   1.793
 9787SOL    HW230261   4.253   3.396   1.859
 9788SOL     OW30262   0.766   0.734   3.646
 9788SOL    HW130263   0.797   0.794   3.573
 9788SOL    HW230264   0.816   0.755   3.730
 9789SOL     OW30265   1.317   5.680   0.246
 9789SOL    HW130266   1.371   5.619   0.188
 9789SOL    HW230267   1.347   5.669   0.341
 9790SOL     OW30268   5.984   3.799   5.412
 9790SOL    HW130269   5.912   3.764   5.471
 9790SOL    HW230270   5.965   3.774   5.317
 9791SOL     OW30271   0.279   1.248   2.758
 9791SOL    HW130272   0.290   1.262   2.857
 9791SOL    HW230273   0.259   1.152   2.740
 9792SOL     OW30274   5.200   5.475   1.753
 9792SOL    HW130275   5.250   5.560   1.770
 9792SOL    HW230276   5.262   5.397   1.761
 9793SOL     OW30277   5.064   5.143   3.470
 9793SOL    HW130278   5.128   5.173   3.399
 9793SOL    HW230279   5.029   5.052   3.446
 9794SOL     OW30280   6.240   4.020   0.148
 9794SOL    HW130281   6.309   4.042   0.216
 9794SOL    HW230282   6.265   4.059   0.060
 9795SOL     OW30283   1.747   1.995   3.981
 9795SOL    HW130284   1.716   2.067   3.919
 9795SOL    HW230285   1.815   2.032   4.044
 9796SOL     OW30286   4.309   2.502   1.542
 9796SOL    HW130287   4.336   2.422   1.489
 9796SOL    HW230288   4.360   2.503   1.629
 9797SOL     OW30289   3.078   5.180   6.664
 9797SOL    HW130290   3.120   5.118   6.598
 9797SOL    HW230291   3.044   5.261   6.617
 9798SOL     OW30292   2.749   0.224   0.962
 9798SOL    HW130293   2.751   0.125   0.950
 9798SOL    HW230294   2.803   0.249   1.043
 9799SOL     OW30295   3.535   3.812   3.405
 9799SOL    HW130296   3.531   3.789   3.502
 9799SOL    HW230297   3.460   3.766   3.357
 9800SOL     OW30298   3.675   6.433   5.084
 9800SOL    HW130299   3.590   6.380   5.089
 9800SOL    HW230300   3.735   6.392   5.015
 9801SOL     OW30301   4.883   4.133   0.443
 9801SOL    HW130302   4.787   4.116   0.467
 9801SOL    HW230303   4.903   4.089   0.355
 9802SOL     OW30304   0.791   2.901   1.830
 9802SOL    HW130305   0.856   2.959   1.880
 9802SOL    HW230306   0.747   2.838   1.895
 9803SOL     OW30307   6.387   1.452   6.867
 9803SOL    HW130308   6.398   1.444   6.966
 9803SOL    HW230309   6.383   1.361   6.826
 9804SOL     OW30310   1.204   6.347   2.986
 9804SOL    HW130311   1.117   6.364   2.938
 9804SOL    HW230312   1.276   6.403   2.944
 9805SOL     OW30313   1.263   6.208   5.516
 9805SOL    HW130314   1.176   6.207   5.466
 9805SOL    HW230315   1.279   6.118   5.557
 9806SOL     OW30316   1.469   1.472   0.835
 9806SOL    HW130317   1.537   1.545   0.833
 9806SOL    HW230318   1.513   1.385   0.813
 9807SOL     OW30319   2.004   3.117   0.335
 9807SOL    HW130320   1.932   3.186   0.348
 9807SOL    HW230321   1.984   3.062   0.254
 9808SOL     OW30322   5.892   1.686   5.488
 9808SOL    HW130323   5.979   1.703   5.442
 9808SOL    HW230324   5.872   1.588   5.485
 9809SOL     OW30325   0.496   2.046   7.020
 9809SOL    HW130326   0.551   2.020   0.077
 9809SOL    HW230327   0.449   1.965   6.984
 9810SOL     OW30328   2.709   2.413   4.202
 9810SOL    HW130329   2.709   2.358   4.286
 9810SOL    HW230330   2.700   2.510   4.226
 9811SOL     OW30331   5.643   5.665   3.938
 9811SOL    HW130332   5.671   5.757   3.911
 9811SOL    HW230333   5.628   5.609   3.857
 9812SOL     OW30334   3.152   2.388   5.655
 9812SOL    HW130335   3.243   2.355   5.681
 9812SOL    HW230336   3.138   2.373   5.557
 9813SOL     OW30337   6.029   0.521   6.624
 9813SOL    HW130338   6.041   0.422   6.618
 9813SOL    HW230339   5.934   0.542   6.647
 9814SOL     OW30340   0.238   0.951   0.156
 9814SOL    HW130341   0.143   0.927   0.178
 9814SOL    HW230342   0.239   1.039   0.108
 9815SOL     OW30343   5.718   3.933   2.803
 9815SOL    HW130344   5.718   3.836   2.828
 9815SOL    HW230345   5.638   3.977   2.843
 9816SOL     OW30346   0.233   2.012   6.066
 9816SOL    HW130347   0.166   1.940   6.086
 9816SOL    HW230348   0.321   1.988   6.107
 9817SOL     OW30349   2.843   5.413   3.079
 9817SOL    HW130350   2.872   5.420   2.983
 9817SOL    HW230351   2.840   5.317   3.106
 9818SOL     OW30352   1.758   0.648   4.425
 9818SOL    HW130353   1.796   0.558   4.446
 9818SOL    HW230354   1.686   0.670   4.491
 9819SOL     OW30355   4.707   2.776   4.889
 9819SOL    HW130356   4.702   2.809   4.983
 9819SOL    HW230357   4.800   2.789   4.854
 9820SOL     OW30358   3.534   3.312   6.191
 9820SOL    HW130359   3.533   3.411   6.200
 9820SOL    HW230360   3.559   3.287   6.098
 9821SOL     OW30361   4.768   0.895   0.592
 9821SOL    HW130362   4.828   0.975   0.586
 9821SOL    HW230363   4.784   0.847   0.678
 9822SOL     OW30364   2.660   5.448   3.593
 9822SOL    HW130365   2.578   5.441   3.536
 9822SOL    HW230366   2.634   5.450   3.689
 9823SOL     OW30367   2.355   0.060   1.691
 9823SOL    HW130368   2.297   0.037   1.613
 9823SOL    HW230369   2.389   0.153   1.682
 9824SOL     OW30370   2.021   5.640   4.370
 9824SOL    HW130371   2.098   5.690   4.411
 9824SOL    HW230372   1.972   5.701   4.308
 9825SOL     OW30373   5.515   6.592   4.646
 9825SOL    HW130374   5.495   6.666   4.709
 9825SOL    HW230375   5.442   6.523   4.650
 9826SOL     OW30376   3.326   6.465   5.603
 9826SOL    HW130377   3.345   6.381   5.654
 9826SOL    HW230378   3.373   6.463   5.515
 9827SOL     OW30379   1.790   3.914   3.270
 9827SOL    HW130380   1.717   3.919   3.338
 9827SOL    HW230381   1.848   3.834   3.290
 9828SOL     OW30382   3.201   2.720   5.265
 9828SOL    HW130383   3.164   2.638   5.222
 9828SOL    HW230384   3.266   2.694   5.337
 9829SOL     OW30385   4.389   5.883   6.197
 9829SOL    HW130386   4.481   5.918   6.179
 9829SOL    HW230387   4.338   5.950   6.250
 9830SOL     OW30388   5.123   1.688   1.938
 9830SOL    HW130389   5.161   1.626   2.007
 9830SOL    HW230390   5.194   1.713   1.873
 9831SOL     OW30391   1.172   4.448   2.438
 9831SOL    HW130392   1.214   4.467   2.349
 9831SOL    HW230393   1.105   4.375   2.429
 9832SOL     OW30394   4.829   5.856   1.851
 9832SOL    HW130395   4.874   5.916   1.917
 9832SOL    HW230396   4.872   5.766   1.853
 9833SOL     OW30397   3.488   3.375   3.367
 9833SOL    HW130398   3.548   3.297   3.384
 9833SOL    HW230399   3.393   3.347   3.377
 9834SOL     OW30400   1.893   4.499   5.299
 9834SOL    HW130401   1.895   4.588   5.254
 9834SOL    HW230402   1.945   4.504   5.385
 9835SOL     OW30403   3.635   3.265   4.362
 9835SOL    HW130404   3.548   3.310   4.339
 9835SOL    HW230405   3.645   3.263   4.462
 9836SOL     OW30406   0.649   4.164   4.326
 9836SOL    HW130407   0.629   4.182   4.422
 9836SOL    HW230408   0.694   4.076   4.317
 9837SOL     OW30409   4.787   0.430   2.500
 9837SOL    HW130410   4.696   0.390   2.496
 9837SOL    HW230411   4.820   0.429   2.594
 9838SOL     OW30412   1.390   6.743   0.442
 9838SOL    HW130413   1.449   6.662   0.439
 9838SOL    HW230414   1.344   6.747   0.531
 9839SOL     OW30415   4.832   6.169   2.975
 9839SOL    HW130416   4.923   6.208   2.958
 9839SOL    HW230417   4.812   6.173   3.073
 9840SOL     OW30418   4.821   1.648   0.423
 9840SOL    HW130419   4.752   1.688   0.483
 9840SOL    HW230420   4.890   1.717   0.401
 9841SOL     OW30421   1.443   4.469   3.839
 9841SOL    HW130422   1.520   4.523   3.803
 9841SOL    HW230423   1.358   4.520   3.825
 9842SOL     OW30424   3.062   3.240   1.049
 9842SOL    HW130425   3.005   3.271   0.973
 9842SOL    HW230426   3.136   3.306   1.063
 9843SOL     OW30427   0.015   6.915   1.750
 9843SOL    HW130428   7.007   6.917   1.655
 9843SOL    HW230429   0.055   7.003   1.774
 9844SOL     OW30430   6.137   1.209   4.001
 9844SOL    HW130431   6.147   1.187   3.904
 9844SOL    HW230432   6.191   1.146   4.056
 9845SOL     OW30433   1.571   2.483   2.839
 9845SOL    HW130434   1.566   2.414   2.766
 9845SOL    HW230435   1.639   2.552   2.815
 9846SOL     OW30436   4.257   2.137   0.653
 9846SOL    HW130437   4.212   2.211   0.602
 9846SOL    HW230438   4.204   2.117   0.736
 9847SOL     OW30439   4.114   3.260   2.276
 9847SOL    HW130440   4.081   3.210   2.356
 9847SOL    HW230441   4.101   3.359   2.291
 9848SOL     OW30442   4.065   4.965   6.128
 9848SOL    HW130443   4.154   4.998   6.097
 9848SOL    HW230444   4.000   4.966   6.051
 9849SOL     OW30445   0.804   6.947   6.562
 9849SOL    HW130446   0.842   6.879   6.625
 9849SOL    HW230447   0.844   0.014   6.582
 9850SOL     OW30448   0.233   0.673   3.774
 9850SOL    HW130449   0.325   0.700   3.745
 9850SOL    HW230450   0.228   0.673   3.874
 9851SOL     OW30451   2.286   6.715   4.452
 9851SOL    HW130452   2.237   6.694   4.367
 9851SOL    HW230453   2.228   6.773   4.510
 9852SOL     OW30454   1.644   1.680   5.150
 9852SOL    HW130455   1.671   1.715   5.240
 9852SOL    HW230456   1.699   1.724   5.079
 9853SOL     OW30457   6.415   3.284   5.249
 9853SOL    HW130458   6.376   3.316   5.335
 9853SOL    HW230459   6.488   3.347   5.220
 9854SOL     OW30460   0.336   5.531   4.141
 9854SOL    HW130461   0.296   5.620   4.162
 9854SOL    HW230462   0.435   5.534   4.157
 9855SOL     OW30463   2.196   3.650   0.463
 9855SOL    HW130464   2.159   3.560   0.485
 9855SOL    HW230465   2.130   3.720   0.490
 9856SOL     OW30466   5.612   4.549   4.083
 9856SOL    HW130467   5.608   4.640   4.042
 9856SOL    HW230468   5.670   4.552   4.164
 9857SOL     OW30469   5.652   2.772   2.749
 9857SOL    HW130470   5.647   2.865   2.785
 9857SOL    HW230471   5.615   2.770   2.657
 9858SOL     OW30472   0.441   6.869   1.440
 9858SOL    HW130473   0.351   6.824   1.441
 9858SOL    HW230474   0.474   6.878   1.534
 9859SOL     OW30475   6.652   4.516   4.263
 9859SOL    HW130476   6.553   4.513   4.276
 9859SOL    HW230477   6.674   4.492   4.169
 9860SOL     OW30478   1.500   2.578   4.753
 9860SOL    HW130479   1.520   2.510   4.824
 9860SOL    HW230480   1.523   2.540   4.664
 9861SOL     OW30481   2.994   0.483   3.366
 9861SOL    HW130482   2.949   0.408   3.414
 9861SOL    HW230483   2.936   0.516   3.291
 9862SOL     OW30484   2.665   3.877   0.586
 9862SOL    HW130485   2.573   3.875   0.624
 9862SOL    HW230486   2.730   3.842   0.653
 9863SOL     OW30487   3.248   5.785   1.117
 9863SOL    HW130488   3.188   5.825   1.048
 9863SOL    HW230489   3.219   5.815   1.208
 9864SOL     OW30490   3.581   0.495   5.190
 9864SOL    HW130491   3.637   0.517   5.111
 9864SOL    HW230492   3.520   0.572   5.211
 9865SOL     OW30493   1.176   6.274   4.269
 9865SOL    HW130494   1.209   6.190   4.227
 9865SOL    HW230495   1.077   6.282   4.254
 9866SOL     OW30496   6.270   4.325   4.971
 9866SOL    HW130497   6.296   4.421   4.964
 9866SOL    HW230498   6.331   4.279   5.035
 9867SOL     OW30499   6.480   2.225   2.774
 9867SOL    HW130500   6.539   2.180   2.708
 9867SOL    HW230501   6.384   2.211   2.749
 9868SOL     OW30502   0.837   3.451   4.323
 9868SOL    HW130503   0.765   3.506   4.283
 9868SOL    HW230504   0.816   3.433   4.419
 9869SOL     OW30505   0.451   2.869   0.901
 9869SOL    HW130506   0.497   2.818   0.829
 9869SOL    HW230507   0.517   2.893   0.972
 9870SOL     OW30508   4.282   6.724   2.743
 9870SOL    HW130509   4.247   6.632   2.757
 9870SOL    HW230510   4.261   6.781   2.822
 9871SOL     OW30511   6.435   3.150   5.926
 9871SOL    HW130512   6.411   3.066   5.974
 9871SOL    HW230513   6.516   3.135   5.869
 9872SOL     OW30514   2.626   5.232   4.833
 9872SOL    HW130515   2.618   5.332   4.836
 9872SOL    HW230516   2.664   5.205   4.744
 9873SOL     OW30517   2.226   2.289   6.539
 9873SOL    HW130518   2.273   2.373   6.567
 9873SOL    HW230519   2.250   2.267   6.445
 9874SOL     OW30520   0.231   3.488   5.679
 9874SOL    HW130521   0.136   3.459   5.665
 9874SOL    HW230522   0.232   3.584   5.708
 9875SOL     OW30523   6.795   5.827   2.776
 9875SOL    HW130524   6.807   5.875   2.863
 9875SOL    HW230525   6.703   5.787   2.773
 9876SOL     OW30526   5.389   0.881   3.747
 9876SOL    HW130527   5.422   0.827   3.669
 9876SOL    HW230528   5.373   0.821   3.825
 9877SOL     OW30529   6.697   4.505   4.543
 9877SOL    HW130530   6.681   4.511   4.445
 9877SOL    HW230531   6.669   4.415   4.576
 9878SOL     OW30532   2.592   3.831   6.105
 9878SOL    HW130533   2.617   3.784   6.189
 9878SOL    HW230534   2.567   3.764   6.035
 9879SOL     OW30535   6.882   4.758   5.229
 9879SOL    HW130536   6.927   4.670   5.210
 9879SOL    HW230537   6.811   4.775   5.161
 9880SOL     OW30538   2.232   0.230   1.006
 9880SOL    HW130539   2.174   0.233   0.924
 9880SOL    HW230540   2.220   0.315   1.058
 9881SOL     OW30541   6.711   1.439   4.325
 9881SOL    HW130542   6.714   1.399   4.416
 9881SOL    HW230543   6.804   1.448   4.290
 9882SOL     OW30544   3.247   3.525   5.606
 9882SOL    HW130545   3.234   3.624   5.595
 9882SOL    HW230546   3.270   3.485   5.518
 9883SOL     OW30547   1.004   6.134   1.619
 9883SOL    HW130548   0.941   6.070   1.575
 9883SOL    HW230549   1.072   6.165   1.552
 9884SOL     OW30550   3.804   2.282   0.880
 9884SOL    HW130551   3.816   2.188   0.848
 9884SOL    HW230552   3.801   2.284   0.980
 9885SOL     OW30553   0.535   3.385   4.470
 9885SOL    HW130554   0.537   3.431   4.381
 9885SOL    HW230555   0.452   3.411   4.519
 9886SOL     OW30556   6.923   6.511   2.035
 9886SOL    HW130557   6.957   6.582   1.974
 9886SOL    HW230558   6.959   6.526   2.127
 9887SOL     OW30559   3.226   0.317   0.254
 9887SOL    HW130560   3.211   0.416   0.263
 9887SOL    HW230561   3.269   0.282   0.337
 9888SOL     OW30562   5.674   5.873   3.468
 9888SOL    HW130563   5.604   5.828   3.524
 9888SOL    HW230564   5.686   5.822   3.382
 9889SOL     OW30565   1.077   5.076   2.493
 9889SOL    HW130566   1.011   5.134   2.541
 9889SOL    HW230567   1.157   5.062   2.552
 9890SOL     OW30568   6.636   3.178   1.320
 9890SOL    HW130569   6.582   3.241   1.264
 9890SOL    HW230570   6.575   3.107   1.358
 9891SOL     OW30571   5.308   4.830   1.326
 9891SOL    HW130572   5.309   4.735   1.295
 9891SOL    HW230573   5.220   4.851   1.368
 9892SOL     OW30574   2.487   5.544   3.363
 9892SOL    HW130575   2.525   5.537   3.270
 9892SOL    HW230576   2.394   5.508   3.363
 9893SOL     OW30577   6.432   6.417   2.813
 9893SOL    HW130578   6.401   6.426   2.718
 9893SOL    HW230579   6.433   6.321   2.838
 9894SOL     OW30580   2.533   1.369   6.659
 9894SOL    HW130581   2.455   1.350   6.719
 9894SOL    HW230582   2.525   1.314   6.576
 9895SOL     OW30583   6.339   2.212   5.769
 9895SOL    HW130584   6.258   2.203   5.710
 9895SOL    HW230585   6.382   2.300   5.754
 9896SOL     OW30586   4.853   2.218   0.033
 9896SOL    HW130587   4.762   2.250   0.006
 9896SOL    HW230588   4.915   2.296   0.037
 9897SOL     OW30589   4.863   0.531   2.243
 9897SOL    HW130590   4.823   0.509   2.331
 9897SOL    HW230591   4.927   0.608   2.253
 9898SOL     OW30592   0.646   5.178   4.702
 9898SOL    HW130593   0.592   5.106   4.747
 9898SOL    HW230594   0.667   5.151   4.609
 9899SOL     OW30595   6.214   4.743   2.211
 9899SOL    HW130596   6.303   4.704   2.190
 9899SOL    HW230597   6.142   4.689   2.168
 9900SOL     OW30598   2.083   1.690   2.735
 9900SOL    HW130599   2.101   1.666   2.830
 9900SOL    HW230600   2.072   1.789   2.727
 9901SOL     OW30601   1.364   2.439   0.472
 9901SOL    HW130602   1.423   2.460   0.550
 9901SOL    HW230603   1.421   2.423   0.391
 9902SOL     OW30604   3.407   3.156   1.380
 9902SOL    HW130605   3.506   3.169   1.386
 9902SOL    HW230606   3.375   3.104   1.460
 9903SOL     OW30607   4.639   6.810   2.338
 9903SOL    HW130608   4.611   6.717   2.364
 9903SOL    HW230609   4.690   6.852   2.413
 9904SOL     OW30610   6.475   3.653   6.910
 9904SOL    HW130611   6.492   3.727   6.975
 9904SOL    HW230612   6.495   3.685   6.817
 9905SOL     OW30613   1.545   6.507   0.380
 9905SOL    HW130614   1.477   6.434   0.378
 9905SOL    HW230615   1.636   6.468   0.387
 9906SOL     OW30616   1.758   3.701   0.169
 9906SOL    HW130617   1.768   3.671   0.074
 9906SOL    HW230618   1.688   3.772   0.174
 9907SOL     OW30619   2.769   0.021   3.453
 9907SOL    HW130620   2.683   0.043   3.499
 9907SOL    HW230621   2.773   6.946   3.437
 9908SOL     OW30622   0.384   3.851   5.510
 9908SOL    HW130623   0.409   3.797   5.429
 9908SOL    HW230624   0.363   3.789   5.585
 9909SOL     OW30625   3.560   0.021   3.210
 9909SOL    HW130626   3.587   0.086   3.139
 9909SOL    HW230627   3.522   0.070   3.288
 9910SOL     OW30628   0.816   5.472   1.579
 9910SOL    HW130629   0.716   5.471   1.585
 9910SOL    HW230630   0.854   5.402   1.639
 9911SOL     OW30631   4.781   5.589   2.858
 9911SOL    HW130632   4.777   5.591   2.758
 9911SOL    HW230633   4.838   5.665   2.890
 9912SOL     OW30634   4.273   1.010   1.920
 9912SOL    HW130635   4.192   0.993   1.864
 9912SOL    HW230636   4.347   0.950   1.891
 9913SOL     OW30637   6.527   2.966   2.282
 9913SOL    HW130638   6.522   3.021   2.366
 9913SOL    HW230639   6.442   2.915   2.271
 9914SOL     OW30640   0.905   0.699   5.929
 9914SOL    HW130641   0.843   0.766   5.971
 9914SOL    HW230642   0.869   0.607   5.944
 9915SOL     OW30643   4.793   2.832   4.152
 9915SOL    HW130644   4.756   2.852   4.243
 9915SOL    HW230645   4.837   2.913   4.115
 9916SOL     OW30646   2.729   2.311   3.747
 9916SOL    HW130647   2.680   2.385   3.701
 9916SOL    HW230648   2.678   2.226   3.737
 9917SOL     OW30649   3.133   3.074   4.239
 9917SOL    HW130650   3.212   3.025   4.200
 9917SOL    HW230651   3.125   3.052   4.336
 9918SOL     OW30652   0.753   1.849   0.832
 9918SOL    HW130653   0.730   1.944   0.855
 9918SOL    HW230654   0.733   1.790   0.909
 9919SOL     OW30655   2.162   5.246   1.867
 9919SOL    HW130656   2.202   5.258   1.776
 9919SOL    HW230657   2.182   5.326   1.923
 9920SOL     OW30658   3.538   1.064   3.150
 9920SOL    HW130659   3.497   1.090   3.237
 9920SOL    HW230660   3.585   1.143   3.110
 9921SOL     OW30661   5.677   6.269   4.439
 9921SOL    HW130662   5.682   6.203   4.364
 9921SOL    HW230663   5.715   6.228   4.522
 9922SOL     OW30664   4.840   4.429   1.001
 9922SOL    HW130665   4.916   4.421   0.937
 9922SOL    HW230666   4.786   4.345   1.000
 9923SOL     OW30667   6.929   3.254   0.725
 9923SOL    HW130668   6.902   3.344   0.691
 9923SOL    HW230669   6.969   3.263   0.816
 9924SOL     OW30670   5.366   2.063   2.697
 9924SOL    HW130671   5.452   2.045   2.649
 9924SOL    HW230672   5.364   2.158   2.728
 9925SOL     OW30673   2.240   4.192   5.174
 9925SOL    HW130674   2.158   4.215   5.122
 9925SOL    HW230675   2.284   4.111   5.136
 9926SOL     OW30676   3.044   2.499   1.509
 9926SOL    HW130677   3.023   2.585   1.555
 9926SOL    HW230678   3.035   2.424   1.574
 9927SOL     OW30679   0.868   2.231   1.454
 9927SOL    HW130680   0.903   2.144   1.418
 9927SOL    HW230681   0.938   2.301   1.447
 9928SOL     OW30682   6.374   4.505   2.347
 9928SOL    HW130683   6.280   4.476   2.331
 9928SOL    HW230684   6.400   4.483   2.441
 9929SOL     OW30685   2.760   4.080   5.319
 9929SOL    HW130686   2.723   4.088   5.412
 9929SOL    HW230687   2.692   4.036   5.260
 9930SOL     OW30688   0.387   0.029   5.521
 9930SOL    HW130689   0.347   7.006   5.441
 9930SOL    HW230690   0.363   7.001   5.604
 9931SOL     OW30691   0.284   5.293   4.896
 9931SOL    HW130692   0.260   5.256   4.986
 9931SOL    HW230693   0.281   5.393   4.900
 9932SOL     OW30694   1.412   2.098   0.199
 9932SOL    HW130695   1.436   2.024   0.137
 9932SOL    HW230696   1.455   2.183   0.169
 9933SOL     OW30697   2.005   1.092   4.177
 9933SOL    HW130698   1.962   1.018   4.229
 9933SOL    HW230699   1.935   1.137   4.121
 9934SOL     OW30700   6.082   1.916   0.128
 9934SOL    HW130701   6.108   1.820   0.118
 9934SOL    HW230702   6.000   1.922   0.185
 9935SOL     OW30703   2.160   1.309   0.648
 9935SOL    HW130704   2.169   1.359   0.562
 9935SOL    HW230705   2.225   1.233   0.649
 9936SOL     OW30706   6.032   5.035   6.271
 9936SOL    HW130707   6.002   4.944   6.302
 9936SOL    HW230708   5.999   5.104   6.335
 9937SOL     OW30709   1.100   0.974   3.279
 9937SOL    HW130710   1.127   0.973   3.182
 9937SOL    HW230711   1.140   0.895   3.325
 9938SOL     OW30712   5.928   0.343   3.775
 9938SOL    HW130713   5.984   0.421   3.748
 9938SOL    HW230714   5.937   0.270   3.707
 9939SOL     OW30715   1.937   2.988   1.126
 9939SOL    HW130716   1.984   2.986   1.037
 9939SOL    HW230717   1.994   2.943   1.194
 9940SOL     OW30718   0.913   0.501   3.466
 9940SOL    HW130719   1.008   0.504   3.436
 9940SOL    HW230720   0.903   0.553   3.551
 9941SOL     OW30721   3.206   5.471   5.597
 9941SOL    HW130722   3.215   5.556   5.544
 9941SOL    HW230723   3.276   5.406   5.568
 9942SOL     OW30724   4.789   5.600   2.587
 9942SOL    HW130725   4.783   5.700   2.579
 9942SOL    HW230726   4.839   5.563   2.508
 9943SOL     OW30727   0.291   4.484   6.023
 9943SOL    HW130728   0.349   4.419   5.974
 9943SOL    HW230729   0.340   4.521   6.102
 9944SOL     OW30730   0.095   5.742   6.363
 9944SOL    HW130731   0.036   5.820   6.383
 9944SOL    HW230732   0.045   5.657   6.383
 9945SOL     OW30733   5.431   4.017   6.630
 9945SOL    HW130734   5.344   3.996   6.587
 9945SOL    HW230735   5.482   4.081   6.572
 9946SOL     OW30736   6.435   6.865   3.352
 9946SOL    HW130737   6.522   6.901   3.319
 9946SOL    HW230738   6.443   6.766   3.364
 9947SOL     OW30739   1.824   1.513   3.728
 9947SOL    HW130740   1.817   1.610   3.706
 9947SOL    HW230741   1.817   1.458   3.645
 9948SOL     OW30742   6.837   5.500   4.935
 9948SOL    HW130743   6.818   5.416   4.884
 9948SOL    HW230744   6.921   5.543   4.900
 9949SOL     OW30745   6.994   4.864   4.373
 9949SOL    HW130746   6.924   4.890   4.306
 9949SOL    HW230747   6.998   4.765   4.380
 9950SOL     OW30748   6.664   5.453   5.790
 9950SOL    HW130749   6.587   5.514   5.808
 9950SOL    HW230750   6.703   5.423   5.877
 9951SOL     OW30751   1.417   1.905   2.903
 9951SOL    HW130752   1.479   1.982   2.913
 9951SOL    HW230753   1.465   1.829   2.860
 9952SOL     OW30754   1.387   3.995   1.395
 9952SOL    HW130755   1.302   3.948   1.417
 9952SOL    HW230756   1.372   4.094   1.396
 9953SOL     OW30757   5.371   2.258   3.420
 9953SOL    HW130758   5.417   2.347   3.427
 9953SOL    HW230759   5.432   2.187   3.454
 9954SOL     OW30760   1.662   0.642   4.939
 9954SOL    HW130761   1.695   0.548   4.933
 9954SOL    HW230762   1.607   0.654   5.021
 9955SOL     OW30763   4.653   3.893   6.676
 9955SOL    HW130764   4.722   3.962   6.700
 9955SOL    HW230765   4.578   3.896   6.743
 9956SOL     OW30766   0.230   4.145   2.501
 9956SOL    HW130767   0.150   4.164   2.559
 9956SOL    HW230768   0.311   4.135   2.559
 9957SOL     OW30769   5.490   6.907   1.829
 9957SOL    HW130770   5.473   6.930   1.733
 9957SOL    HW230771   5.588   6.902   1.846
 9958SOL     OW30772   3.015   5.793   5.684
 9958SOL    HW130773   2.969   5.868   5.636
 9958SOL    HW230774   3.002   5.804   5.783
 9959SOL     OW30775   4.192   3.289   1.980
 9959SOL    HW130776   4.253   3.210   1.965
 9959SOL    HW230777   4.156   3.285   2.073
 9960SOL     OW30778   0.485   6.468   1.281
 9960SOL    HW130779   0.543   6.531   1.333
 9960SOL    HW230780   0.494   6.487   1.184
 9961SOL     OW30781   2.419   4.448   2.524
 9961SOL    HW130782   2.377   4.383   2.587
 9961SOL    HW230783   2.498   4.490   2.568
 9962SOL     OW30784   3.987   0.814   2.307
 9962SOL    HW130785   3.977   0.728   2.257
 9962SOL    HW230786   4.020   0.885   2.244
 9963SOL     OW30787   2.403   3.573   6.509
 9963SOL    HW130788   2.447   3.630   6.579
 9963SOL    HW230789   2.466   3.500   6.482
 9964SOL     OW30790   3.685   4.859   5.646
 9964SOL    HW130791   3.635   4.912   5.715
 9964SOL    HW230792   3.709   4.769   5.683
 9965SOL     OW30793   3.152   5.652   4.681
 9965SOL    HW130794   3.120   5.639   4.775
 9965SOL    HW230795   3.075   5.677   4.622
 9966SOL     OW30796   2.759   5.543   2.206
 9966SOL    HW130797   2.841   5.514   2.256
 9966SOL    HW230798   2.726   5.467   2.150
 9967SOL     OW30799   6.154   5.331   2.827
 9967SOL    HW130800   6.250   5.309   2.849
 9967SOL    HW230801   6.137   5.312   2.731
 9968SOL     OW30802   3.807   5.491   6.931
 9968SOL    HW130803   3.745   5.413   6.920
 9968SOL    HW230804   3.800   5.552   6.852
 9969SOL     OW30805   1.551   2.945   4.578
 9969SOL    HW130806   1.647   2.921   4.559
 9969SOL    HW230807   1.526   2.911   4.669
 9970SOL     OW30808   6.506   5.057   1.154
 9970SOL    HW130809   6.515   5.100   1.244
 9970SOL    HW230810   6.578   4.989   1.142
 9971SOL     OW30811   2.309   3.097   1.212
 9971SOL    HW130812   2.333   3.112   1.116
 9971SOL    HW230813   2.391   3.072   1.264
 9972SOL     OW30814   2.755   4.088   0.919
 9972SOL    HW130815   2.758   3.990   0.941
 9972SOL    HW230816   2.681   4.106   0.855
 9973SOL     OW30817   4.068   2.211   4.363
 9973SOL    HW130818   4.051   2.114   4.349
 9973SOL    HW230819   4.065   2.259   4.275
 9974SOL     OW30820   0.261   3.092   2.614
 9974SOL    HW130821   0.186   3.152   2.639
 9974SOL    HW230822   0.250   3.004   2.661
 9975SOL     OW30823   0.138   5.043   6.197
 9975SOL    HW130824   0.236   5.061   6.193
 9975SOL    HW230825   0.092   5.089   6.121
 9976SOL     OW30826   0.985   5.356   5.449
 9976SOL    HW130827   0.935   5.277   5.485
 9976SOL    HW230828   1.072   5.366   5.497
 9977SOL     OW30829   5.991   4.891   5.757
 9977SOL    HW130830   5.981   4.793   5.740
 9977SOL    HW230831   6.037   4.905   5.845
 9978SOL     OW30832   6.342   1.566   5.585
 9978SOL    HW130833   6.430   1.599   5.551
 9978SOL    HW230834   6.356   1.501   5.659
 9979SOL     OW30835   6.884   3.968   6.759
 9979SOL    HW130836   6.872   3.873   6.733
 9979SOL    HW230837   6.805   3.999   6.811
 9980SOL     OW30838   1.780   0.340   0.519
 9980SOL    HW130839   1.719   0.405   0.474
 9980SOL    HW230840   1.726   0.266   0.559
 9981SOL     OW30841   2.494   2.123   0.492
 9981SOL    HW130842   2.515   2.091   0.584
 9981SOL    HW230843   2.402   2.163   0.490
 9982SOL     OW30844   1.349   1.083   4.412
 9982SOL    HW130845   1.445   1.078   4.441
 9982SOL    HW230846   1.332   1.171   4.368
 9983SOL     OW30847   0.586   1.249   2.076
 9983SOL    HW130848   0.520   1.292   2.139
 9983SOL    HW230849   0.536   1.205   2.002
 9984SOL     OW30850   0.957   6.563   0.055
 9984SOL    HW130851   1.037   6.550   0.113
 9984SOL    HW230852   0.891   6.489   0.071
 9985SOL     OW30853   3.007   6.395   0.924
 9985SOL    HW130854   2.927   6.379   0.867
 9985SOL    HW230855   2.980   6.398   1.020
 9986SOL     OW30856   5.663   4.998   0.988
 9986SOL    HW130857   5.594   5.052   0.940
 9986SOL    HW230858   5.705   4.933   0.925
 9987SOL     OW30859   6.293   2.469   2.669
 9987SOL    HW130860   6.224   2.397   2.676
 9987SOL    HW230861   6.380   2.430   2.638
 9988SOL     OW30862   6.495   5.243   4.320
 9988SOL    HW130863   6.437   5.267   4.243
 9988SOL    HW230864   6.453   5.273   4.405
 9989SOL     OW30865   6.314   4.217   2.587
 9989SOL    HW130866   6.345   4.310   2.569
 9989SOL    HW230867   6.359   4.154   2.523
 9990SOL     OW30868   2.295   6.835   3.581
 9990SOL    HW130869   2.255   6.746   3.601
 9990SOL    HW230870   2.223   6.905   3.582
 9991SOL     OW30871   2.199   3.144   3.977
 9991SOL    HW130872   2.258   3.064   3.984
 9991SOL    HW230873   2.165   3.153   3.884
 9992SOL     OW30874   3.937   3.576   0.768
 9992SOL    HW130875   3.904   3.518   0.694
 9992SOL    HW230876   4.017   3.628   0.737
 9993SOL     OW30877   4.033   6.695   3.399
 9993SOL    HW130878   4.067   6.602   3.413
 9993SOL    HW230879   4.024   6.740   3.488
 9994SOL     OW30880   6.690   4.506   2.564
 9994SOL    HW130881   6.701   4.582   2.628
 9994SOL    HW230882   6.715   4.537   2.472
 9995SOL     OW30883   3.363   0.800   3.434
 9995SOL    HW130884   3.337   0.896   3.442
 9995SOL    HW230885   3.428   0.778   3.507
 9996SOL     OW30886   2.780   3.379   1.769
 9996SOL    HW130887   2.698   3.322   1.762
 9996SOL    HW230888   2.788   3.415   1.862
 9997SOL     OW30889   5.022   0.785   2.007
 9997SOL    HW130890   4.986   0.695   2.030
 9997SOL    HW230891   4.979   0.818   1.923
 9998SOL     OW30892   5.822   3.520   2.474
 9998SOL    HW130893   5.735   3.475   2.493
 9998SOL    HW230894   5.807   3.598   2.413
 9999SOL     OW30895   0.487   5.705   4.838
 9999SOL    HW130896   0.544   5.687   4.918
 9999SOL    HW230897   0.391   5.690   4.861
10000SOL     OW30898   5.390   1.911   0.469
10000SOL    HW130899   5.311   1.937   0.525
10000SOL    HW230900   5.440   1.992   0.442
10001SOL     OW30901   3.911   0.712   1.442
10001SOL    HW130902   3.937   0.668   1.528
10001SOL    HW230903   3.848   0.787   1.460
10002SOL     OW30904   2.057   1.083   1.751
10002SOL    HW130905   2.048   1.161   1.689
10002SOL    HW230906   1.997   1.009   1.720
10003SOL     OW30907   3.035   2.221   2.292
10003SOL    HW130908   3.075   2.308   2.321
10003SOL    HW230909   2.986   2.233   2.206
10004SOL     OW30910   5.381   2.909   5.160
10004SOL    HW130911   5.393   2.832   5.097
10004SOL    HW230912   5.400   2.879   5.253
10005SOL     OW30913   3.584   5.705   2.127
10005SOL    HW130914   3.609   5.611   2.104
10005SOL    HW230915   3.584   5.716   2.227
10006SOL     OW30916   6.163   0.106   5.439
10006SOL    HW130917   6.160   0.018   5.487
10006SOL    HW230918   6.153   0.090   5.340
10007SOL     OW30919   0.576   3.350   3.865
10007SOL    HW130920   0.593   3.254   3.886
10007SOL    HW230921   0.654   3.387   3.813
10008SOL     OW30922   4.754   1.122   3.467
10008SOL    HW130923   4.727   1.216   3.450
10008SOL    HW230924   4.845   1.121   3.509
10009SOL     OW30925   1.433   4.375   1.379
10009SOL    HW130926   1.514   4.317   1.384
10009SOL    HW230927   1.459   4.468   1.355
10010SOL     OW30928   2.560   6.241   0.440
10010SOL    HW130929   2.623   6.181   0.391
10010SOL    HW230930   2.482   6.263   0.380
10011SOL     OW30931   0.594   4.160   6.177
10011SOL    HW130932   0.595   4.259   6.165
10011SOL    HW230933   0.609   4.116   6.088
10012SOL     OW30934   5.285   0.511   2.383
10012SOL    HW130935   5.311   0.415   2.383
10012SOL    HW230936   5.337   0.560   2.312
10013SOL     OW30937   1.588   1.805   3.697
10013SOL    HW130938   1.686   1.807   3.715
10013SOL    HW230939   1.540   1.857   3.768
10014SOL     OW30940   0.981   1.182   1.260
10014SOL    HW130941   0.914   1.189   1.187
10014SOL    HW230942   1.071   1.160   1.221
10015SOL     OW30943   3.985   5.396   0.078
10015SOL    HW130944   3.924   5.335   0.129
10015SOL    HW230945   3.934   5.438   0.003
10016SOL     OW30946   1.319   0.559   4.931
10016SOL    HW130947   1.385   0.607   4.989
10016SOL    HW230948   1.335   0.460   4.936
10017SOL     OW30949   1.607   1.376   3.063
10017SOL    HW130950   1.696   1.340   3.092
10017SOL    HW230951   1.537   1.349   3.128
10018SOL     OW30952   6.654   4.930   6.355
10018SOL    HW130953   6.562   4.912   6.389
10018SOL    HW230954   6.658   4.908   6.257
10019SOL     OW30955   0.373   2.060   3.302
10019SOL    HW130956   0.427   1.978   3.282
10019SOL    HW230957   0.279   2.046   3.271
10020SOL     OW30958   0.777   0.827   1.204
10020SOL    HW130959   0.807   0.850   1.297
10020SOL    HW230960   0.833   0.876   1.138
10021SOL     OW30961   1.042   2.395   2.566
10021SOL    HW130962   1.074   2.384   2.660
10021SOL    HW230963   1.067   2.314   2.513
10022SOL     OW30964   3.669   6.817   0.715
10022SOL    HW130965   3.695   6.779   0.626
10022SOL    HW230966   3.675   6.745   0.784
10023SOL     OW30967   2.420   4.575   4.802
10023SOL    HW130968   2.389   4.490   4.759
10023SOL    HW230969   2.362   4.651   4.771
10024SOL     OW30970   2.036   5.907   1.513
10024SOL    HW130971   1.941   5.936   1.498
10024SOL    HW230972   2.074   5.871   1.428
10025SOL     OW30973   2.043   2.823   2.015
10025SOL    HW130974   2.052   2.891   2.087
10025SOL    HW230975   2.004   2.866   1.933
10026SOL     OW30976   5.086   0.013   3.431
10026SOL    HW130977   5.165   0.068   3.402
10026SOL    HW230978   5.106   6.939   3.414
10027SOL     OW30979   0.480   3.029   5.218
10027SOL    HW130980   0.421   3.079   5.281
10027SOL    HW230981   0.494   3.083   5.135
10028SOL     OW30982   1.896   1.679   2.227
10028SOL    HW130983   1.876   1.622   2.148
10028SOL    HW230984   1.812   1.721   2.260
10029SOL     OW30985   1.854   1.803   3.773
10029SOL    HW130986   1.952   1.810   3.790
10029SOL    HW230987   1.808   1.887   3.803
10030SOL     OW30988   3.309   0.476   4.634
10030SOL    HW130989   3.381   0.436   4.692
10030SOL    HW230990   3.292   0.415   4.557
10031SOL     OW30991   5.623   4.626   4.640
10031SOL    HW130992   5.558   4.562   4.598
10031SOL    HW230993   5.598   4.720   4.616
10032SOL     OW30994   4.297   0.532   5.207
10032SOL    HW130995   4.332   0.439   5.211
10032SOL    HW230996   4.229   0.540   5.134
10033SOL     OW30997   4.428   2.428   3.615
10033SOL    HW130998   4.475   2.492   3.554
10033SOL    HW230999   4.444   2.455   3.710
10034SOL     OW31000   3.588   0.329   4.170
10034SOL    HW131001   3.633   0.346   4.258
10034SOL    HW231002   3.559   0.417   4.131
10035SOL     OW31003   6.463   4.785   1.418
10035SOL    HW131004   6.492   4.724   1.493
10035SOL    HW231005   6.387   4.841   1.449
10036SOL     OW31006   6.520   0.522   0.482
10036SOL    HW131007   6.433   0.521   0.433
10036SOL    HW231008   6.522   0.597   0.547
10037SOL     OW31009   5.652   1.191   0.350
10037SOL    HW131010   5.664   1.290   0.353
10037SOL    HW231011   5.583   1.168   0.282
10038SOL     OW31012   4.077   0.031   6.575
10038SOL    HW131013   4.008   0.081   6.628
10038SOL    HW231014   4.159   0.087   6.564
10039SOL     OW31015   4.143   6.797   5.233
10039SOL    HW131016   4.114   6.724   5.294
10039SOL    HW231017   4.131   6.768   5.138
10040SOL     OW31018   4.052   5.767   5.958
10040SOL    HW131019   3.975   5.730   6.010
10040SOL    HW231020   4.064   5.864   5.982
10041SOL     OW31021   4.089   6.061   6.712
10041SOL    HW131022   4.009   6.027   6.663
10041SOL    HW231023   4.060   6.105   6.797
10042SOL     OW31024   1.697   2.224   4.969
10042SOL    HW131025   1.614   2.180   4.937
10042SOL    HW231026   1.760   2.237   4.893
10043SOL     OW31027   0.606   2.394   4.586
10043SOL    HW131028   0.618   2.492   4.568
10043SOL    HW231029   0.520   2.363   4.547
10044SOL     OW31030   3.074   1.486   4.680
10044SOL    HW131031   3.087   1.492   4.581
10044SOL    HW231032   3.063   1.578   4.717
10045SOL     OW31033   5.317   6.946   4.095
10045SOL    HW131034   5.403   6.914   4.056
10045SOL    HW231035   5.244   6.936   4.027
10046SOL     OW31036   1.602   3.889   1.275
10046SOL    HW131037   1.676   3.856   1.334
10046SOL    HW231038   1.523   3.913   1.330
10047SOL     OW31039   6.467   3.029   5.142
10047SOL    HW131040   6.544   3.018   5.080
10047SOL    HW231041   6.457   3.125   5.167
10048SOL     OW31042   6.119   1.755   2.434
10048SOL    HW131043   6.062   1.797   2.505
10048SOL    HW231044   6.063   1.696   2.377
10049SOL     OW31045   0.613   0.315   6.505
10049SOL    HW131046   0.536   0.264   6.467
10049SOL    HW231047   0.595   0.336   6.601
10050SOL     OW31048   6.072   2.378   4.783
10050SOL    HW131049   6.078   2.380   4.883
10050SOL    HW231050   6.064   2.283   4.752
10051SOL     OW31051   6.289   2.302   5.014
10051SOL    HW131052   6.312   2.352   5.097
10051SOL    HW231053   6.355   2.324   4.942
10052SOL     OW31054   2.786   2.349   2.816
10052SOL    HW131055   2.860   2.374   2.754
10052SOL    HW231056   2.816   2.361   2.910
10053SOL     OW31057   3.148   6.091   1.796
10053SOL    HW131058   3.155   6.107   1.894
10053SOL    HW231059   3.228   6.129   1.750
10054SOL     OW31060   5.191   5.226   6.483
10054SOL    HW131061   5.123   5.298   6.499
10054SOL    HW231062   5.219   5.186   6.570
10055SOL     OW31063   6.280   2.060   4.893
10055SOL    HW131064   6.290   2.151   4.933
10055SOL    HW231065   6.220   2.064   4.814
10056SOL     OW31066   5.612   4.286   2.305
10056SOL    HW131067   5.570   4.253   2.390
10056SOL    HW231068   5.687   4.225   2.279
10057SOL     OW31069   4.069   1.957   4.284
10057SOL    HW131070   4.021   1.884   4.334
10057SOL    HW231071   4.027   1.968   4.194
10058SOL     OW31072   0.559   3.981   4.679
10058SOL    HW131073   0.610   3.902   4.647
10058SOL    HW231074   0.619   4.061   4.681
10059SOL     OW31075   5.483   0.797   1.180
10059SOL    HW131076   5.539   0.734   1.233
10059SOL    HW231077   5.456   0.875   1.237
10060SOL     OW31078   1.678   1.743   1.651
10060SOL    HW131079   1.736   1.779   1.724
10060SOL    HW231080   1.587   1.722   1.688
10061SOL     OW31081   4.726   1.550   4.272
10061SOL    HW131082   4.754   1.576   4.180
10061SOL    HW231083   4.798   1.574   4.337
10062SOL     OW31084   6.615   0.066   4.118
10062SOL    HW131085   6.585   0.158   4.093
10062SOL    HW231086   6.700   0.045   4.071
10063SOL     OW31087   2.283   0.668   3.786
10063SOL    HW131088   2.216   0.730   3.744
10063SOL    HW231089   2.336   0.622   3.716
10064SOL     OW31090   4.683   0.063   0.455
10064SOL    HW131091   4.652   6.992   0.438
10064SOL    HW231092   4.779   0.072   0.430
10065SOL     OW31093   2.012   0.063   2.167
10065SOL    HW131094   2.066   0.145   2.146
10065SOL    HW231095   2.074   7.008   2.179
10066SOL     OW31096   0.882   2.459   3.672
10066SOL    HW131097   0.968   2.498   3.638
10066SOL    HW231098   0.813   2.532   3.678
10067SOL     OW31099   6.479   4.303   4.697
10067SOL    HW131100   6.559   4.310   4.756
10067SOL    HW231101   6.407   4.365   4.730
10068SOL     OW31102   0.113   3.428   2.899
10068SOL    HW131103   0.061   3.362   2.843
10068SOL    HW231104   0.198   3.385   2.930
10069SOL     OW31105   2.548   5.023   3.040
10069SOL    HW131106   2.544   5.022   3.140
10069SOL    HW231107   2.498   4.945   3.004
10070SOL     OW31108   6.350   6.865   5.226
10070SOL    HW131109   6.310   6.944   5.180
10070SOL    HW231110   6.329   6.782   5.174
10071SOL     OW31111   6.162   5.901   4.211
10071SOL    HW131112   6.230   5.911   4.139
10071SOL    HW231113   6.141   5.804   4.224
10072SOL     OW31114   7.015   6.531   4.115
10072SOL    HW131115   0.087   6.535   4.145
10072SOL    HW231116   7.003   6.456   4.051
10073SOL     OW31117   5.683   4.009   5.476
10073SOL    HW131118   5.706   4.105   5.462
10073SOL    HW231119   5.674   3.991   5.574
10074SOL     OW31120   1.753   0.615   5.328
10074SOL    HW131121   1.789   0.695   5.377
10074SOL    HW231122   1.771   0.625   5.230
10075SOL     OW31123   1.896   2.906   2.806
10075SOL    HW131124   1.857   2.827   2.853
10075SOL    HW231125   1.944   2.875   2.724
10076SOL     OW31126   0.495   0.207   3.870
10076SOL    HW131127   0.539   0.296   3.861
10076SOL    HW231128   0.548   0.150   3.933
10077SOL     OW31129   4.017   3.191   6.456
10077SOL    HW131130   4.005   3.105   6.407
10077SOL    HW231131   4.102   3.187   6.509
10078SOL     OW31132   0.360   5.205   4.106
10078SOL    HW131133   0.353   5.302   4.129
10078SOL    HW231134   0.271   5.172   4.072
10079SOL     OW31135   6.773   4.048   2.813
10079SOL    HW131136   6.783   4.042   2.913
10079SOL    HW231137   6.727   3.965   2.780
10080SOL     OW31138   4.524   1.223   5.586
10080SOL    HW131139   4.565   1.180   5.666
10080SOL    HW231140   4.525   1.323   5.596
10081SOL     OW31141   0.226   0.226   0.754
10081SOL    HW131142   0.176   0.162   0.695
10081SOL    HW231143   0.207   0.205   0.850
10082SOL     OW31144   0.348   5.158   1.494
10082SOL    HW131145   0.250   5.172   1.482
10082SOL    HW231146   0.398   5.220   1.433
10083SOL     OW31147   4.682   0.949   3.259
10083SOL    HW131148   4.589   0.967   3.228
10083SOL    HW231149   4.698   0.993   3.347
10084SOL     OW31150   2.102   0.917   5.455
10084SOL    HW131151   2.011   0.881   5.476
10084SOL    HW231152   2.141   0.960   5.537
10085SOL     OW31153   2.482   5.647   1.496
10085SOL    HW131154   2.468   5.561   1.447
10085SOL    HW231155   2.494   5.721   1.430
10086SOL     OW31156   4.186   5.844   2.433
10086SOL    HW131157   4.286   5.844   2.427
10086SOL    HW231158   4.155   5.767   2.489
10087SOL     OW31159   6.847   6.831   3.795
10087SOL    HW131160   6.761   6.792   3.762
10087SOL    HW231161   6.888   6.885   3.722
10088SOL     OW31162   6.502   0.623   1.636
10088SOL    HW131163   6.414   0.641   1.680
10088SOL    HW231164   6.545   0.544   1.679
10089SOL     OW31165   2.840   1.895   2.140
10089SOL    HW131166   2.792   1.857   2.219
10089SOL    HW231167   2.936   1.867   2.143
10090SOL     OW31168   1.392   4.948   1.326
10090SOL    HW131169   1.445   5.015   1.377
10090SOL    HW231170   1.350   4.883   1.389
10091SOL     OW31171   0.442   4.340   6.541
10091SOL    HW131172   0.452   4.256   6.489
10091SOL    HW231173   0.346   4.366   6.545
10092SOL     OW31174   2.145   2.499   5.509
10092SOL    HW131175   2.061   2.546   5.536
10092SOL    HW231176   2.219   2.565   5.500
10093SOL     OW31177   6.530   2.907   4.879
10093SOL    HW131178   6.572   2.874   4.795
10093SOL    HW231179   6.473   2.987   4.859
10094SOL     OW31180   2.682   5.778   2.343
10094SOL    HW131181   2.590   5.799   2.376
10094SOL    HW231182   2.675   5.721   2.261
10095SOL     OW31183   6.023   1.891   5.257
10095SOL    HW131184   6.048   1.799   5.287
10095SOL    HW231185   5.949   1.884   5.189
10096SOL     OW31186   4.378   5.229   3.051
10096SOL    HW131187   4.280   5.219   3.030
10096SOL    HW231188   4.425   5.267   2.972
10097SOL     OW31189   0.467   1.332   0.278
10097SOL    HW131190   0.489   1.401   0.348
10097SOL    HW231191   0.494   1.242   0.311
10098SOL     OW31192   2.935   0.567   4.795
10098SOL    HW131193   2.887   0.509   4.730
10098SOL    HW231194   3.008   0.617   4.749
10099SOL     OW31195   0.175   5.072   1.206
10099SOL    HW131196   0.195   4.976   1.225
10099SOL    HW231197   0.217   5.097   1.119
10100SOL     OW31198   5.009   0.072   4.760
10100SOL    HW131199   5.025   0.171   4.769
10100SOL    HW231200   4.911   0.054   4.762
10101SOL     OW31201   6.470   3.822   1.800
10101SOL    HW131202   6.545   3.769   1.841
10101SOL    HW231203   6.455   3.905   1.853
10102SOL     OW31204   0.532   1.531   2.459
10102SOL    HW131205   0.605   1.494   2.517
10102SOL    HW231206   0.444   1.520   2.505
10103SOL     OW31207   2.477   0.443   6.006
10103SOL    HW131208   2.405   0.395   6.055
10103SOL    HW231209   2.548   0.379   5.977
10104SOL     OW31210   2.154   1.816   3.796
10104SOL    HW131211   2.248   1.794   3.769
10104SOL    HW231212   2.137   1.914   3.786
10105SOL     OW31213   1.296   1.019   0.626
10105SOL    HW131214   1.312   0.995   0.722
10105SOL    HW231215   1.201   1.049   0.615
10106SOL     OW31216   4.092   6.538   0.447
10106SOL    HW131217   4.186   6.505   0.444
10106SOL    HW231218   4.031   6.464   0.473
10107SOL     OW31219   6.386   1.445   5.841
10107SOL    HW131220   6.426   1.533   5.866
10107SOL    HW231221   6.311   1.423   5.904
10108SOL     OW31222   6.582   0.206   6.823
10108SOL    HW131223   6.590   0.107   6.812
10108SOL    HW231224   6.504   0.239   6.770
10109SOL     OW31225   5.499   6.980   0.302
10109SOL    HW131226   5.579   7.004   0.246
10109SOL    HW231227   5.449   0.040   0.326
10110SOL     OW31228   3.658   5.414   4.667
10110SOL    HW131229   3.661   5.465   4.581
10110SOL    HW231230   3.740   5.359   4.676
10111SOL     OW31231   5.756   3.454   3.655
10111SOL    HW131232   5.838   3.432   3.708
10111SOL    HW231233   5.742   3.384   3.585
10112SOL     OW31234   5.540   3.468   3.832
10112SOL    HW131235   5.607   3.497   3.764
10112SOL    HW231236   5.584   3.411   3.901
10113SOL     OW31237   4.129   0.390   0.068
10113SOL    HW131238   4.077   0.307   0.046
10113SOL    HW231239   4.208   0.396   0.008
10114SOL     OW31240   4.884   1.375   0.943
10114SOL    HW131241   4.810   1.309   0.954
10114SOL    HW231242   4.879   1.444   1.015
10115SOL     OW31243   3.784   0.866   4.824
10115SOL    HW131244   3.846   0.938   4.856
10115SOL    HW231245   3.692   0.904   4.814
10116SOL     OW31246   0.782   6.360   0.101
10116SOL    HW131247   0.800   6.264   0.080
10116SOL    HW231248   0.694   6.367   0.148
10117SOL     OW31249   6.648   5.858   5.753
10117SOL    HW131250   6.601   5.770   5.753
10117SOL    HW231251   6.737   5.848   5.708
10118SOL     OW31252   2.213   4.562   2.344
10118SOL    HW131253   2.203   4.501   2.422
10118SOL    HW231254   2.123   4.592   2.312
10119SOL     OW31255   0.106   5.751   4.347
10119SOL    HW131256   0.127   5.700   4.264
10119SOL    HW231257   0.191   5.785   4.387
10120SOL     OW31258   2.030   3.478   4.998
10120SOL    HW131259   2.030   3.426   5.084
10120SOL    HW231260   1.999   3.571   5.016
10121SOL     OW31261   6.273   3.336   6.848
10121SOL    HW131262   6.237   3.281   6.924
10121SOL    HW231263   6.220   3.421   6.842
10122SOL     OW31264   6.181   3.381   2.186
10122SOL    HW131265   6.198   3.470   2.143
10122SOL    HW231266   6.104   3.389   2.249
10123SOL     OW31267   5.110   6.646   6.808
10123SOL    HW131268   5.129   6.549   6.826
10123SOL    HW231269   5.039   6.653   6.738
10124SOL     OW31270   1.286   4.130   0.536
10124SOL    HW131271   1.208   4.139   0.474
10124SOL    HW231272   1.257   4.149   0.630
10125SOL     OW31273   1.807   0.649   2.028
10125SOL    HW131274   1.875   0.586   2.066
10125SOL    HW231275   1.845   0.741   2.025
10126SOL     OW31276   6.693   6.815   6.403
10126SOL    HW131277   6.785   6.790   6.371
10126SOL    HW231278   6.674   6.910   6.380
10127SOL     OW31279   2.753   4.549   6.304
10127SOL    HW131280   2.738   4.450   6.312
10127SOL    HW231281   2.691   4.597   6.366
10128SOL     OW31282   2.740   1.284   0.755
10128SOL    HW131283   2.742   1.374   0.712
10128SOL    HW231284   2.689   1.288   0.841
10129SOL     OW31285   5.799   1.696   2.138
10129SOL    HW131286   5.838   1.665   2.051
10129SOL    HW231287   5.860   1.670   2.213
10130SOL     OW31288   1.369   3.360   1.630
10130SOL    HW131289   1.383   3.441   1.573
10130SOL    HW231290   1.408   3.280   1.585
10131SOL     OW31291   1.239   6.888   4.859
10131SOL    HW131292   1.301   6.844   4.923
10131SOL    HW231293   1.145   6.859   4.877
10132SOL     OW31294   3.848   0.833   3.937
10132SOL    HW131295   3.809   0.759   3.881
10132SOL    HW231296   3.914   0.795   4.001
10133SOL     OW31297   3.845   6.692   0.500
10133SOL    HW131298   3.774   6.621   0.497
10133SOL    HW231299   3.934   6.651   0.480
10134SOL     OW31300   7.005   6.532   2.978
10134SOL    HW131301   0.067   6.480   2.971
10134SOL    HW231302   6.927   6.471   2.968
10135SOL     OW31303   5.162   2.964   3.544
10135SOL    HW131304   5.224   2.886   3.537
10135SOL    HW231305   5.189   3.034   3.478
10136SOL     OW31306   5.439   1.077   2.416
10136SOL    HW131307   5.502   1.081   2.338
10136SOL    HW231308   5.469   1.141   2.486
10137SOL     OW31309   6.949   3.439   4.615
10137SOL    HW131310   6.895   3.481   4.542
10137SOL    HW231311   0.020   3.425   4.584
10138SOL     OW31312   5.415   3.547   6.948
10138SOL    HW131313   5.387   3.491   0.002
10138SOL    HW231314   5.346   3.617   6.929
10139SOL     OW31315   2.923   3.479   3.592
10139SOL    HW131316   2.859   3.491   3.668
10139SOL    HW231317   2.993   3.412   3.617
10140SOL     OW31318   6.075   5.589   6.843
10140SOL    HW131319   6.048   5.506   6.794
10140SOL    HW231320   6.002   5.617   6.905
10141SOL     OW31321   3.831   1.078   5.691
10141SOL    HW131322   3.866   1.137   5.619
10141SOL    HW231323   3.904   1.057   5.756
10142SOL     OW31324   6.735   6.805   5.686
10142SOL    HW131325   6.709   6.900   5.672
10142SOL    HW231326   6.691   6.770   5.769
10143SOL     OW31327   5.217   1.098   6.932
10143SOL    HW131328   5.256   1.032   6.996
10143SOL    HW231329   5.242   1.073   6.839
10144SOL     OW31330   3.226   0.721   5.794
10144SOL    HW131331   3.295   0.649   5.799
10144SOL    HW231332   3.259   0.796   5.737
10145SOL     OW31333   3.034   5.138   4.114
10145SOL    HW131334   2.940   5.115   4.139
10145SOL    HW231335   3.066   5.076   4.044
10146SOL     OW31336   4.559   4.526   4.747
10146SOL    HW131337   4.558   4.625   4.732
10146SOL    HW231338   4.487   4.502   4.813
10147SOL     OW31339   5.416   4.027   5.375
10147SOL    HW131340   5.367   3.957   5.323
10147SOL    HW231341   5.502   3.990   5.408
10148SOL     OW31342   5.420   5.117   6.077
10148SOL    HW131343   5.482   5.038   6.079
10148SOL    HW231344   5.327   5.087   6.057
10149SOL     OW31345   5.745   3.430   1.273
10149SOL    HW131346   5.773   3.335   1.287
10149SOL    HW231347   5.648   3.434   1.249
10150SOL     OW31348   3.572   3.239   0.726
10150SOL    HW131349   3.652   3.178   0.732
10150SOL    HW231350   3.598   3.330   0.756
10151SOL     OW31351   0.442   5.811   0.090
10151SOL    HW131352   0.394   5.855   0.014
10151SOL    HW231353   0.404   5.720   0.105
10152SOL     OW31354   6.758   6.071   4.302
10152SOL    HW131355   6.663   6.042   4.291
10152SOL    HW231356   6.819   5.994   4.284
10153SOL     OW31357   4.387   5.794   3.510
10153SOL    HW131358   4.302   5.790   3.564
10153SOL    HW231359   4.431   5.704   3.511
10154SOL     OW31360   4.011   6.477   5.228
10154SOL    HW131361   3.940   6.537   5.265
10154SOL    HW231362   4.003   6.386   5.270
10155SOL     OW31363   3.677   2.249   6.202
10155SOL    HW131364   3.631   2.278   6.118
10155SOL    HW231365   3.621   2.274   6.281
10156SOL     OW31366   5.732   0.933   2.183
10156SOL    HW131367   5.691   0.868   2.248
10156SOL    HW231368   5.784   0.882   2.115
10157SOL     OW31369   0.180   1.729   0.671
10157SOL    HW131370   0.093   1.700   0.710
10157SOL    HW231371   0.164   1.778   0.585
10158SOL     OW31372   6.092   5.596   0.834
10158SOL    HW131373   6.154   5.593   0.756
10158SOL    HW231374   6.045   5.684   0.836
10159SOL     OW31375   2.250   3.109   0.544
10159SOL    HW131376   2.178   3.077   0.483
10159SOL    HW231377   2.235   3.206   0.566
10160SOL     OW31378   1.828   3.223   2.067
10160SOL    HW131379   1.773   3.287   2.119
10160SOL    HW231380   1.782   3.134   2.063
10161SOL     OW31381   3.916   3.356   0.930
10161SOL    HW131382   4.000   3.303   0.918
10161SOL    HW231383   3.912   3.428   0.860
10162SOL     OW31384   3.967   4.687   1.107
10162SOL    HW131385   3.925   4.730   1.187
10162SOL    HW231386   4.005   4.757   1.047
10163SOL     OW31387   6.265   4.132   6.774
10163SOL    HW131388   6.191   4.084   6.821
10163SOL    HW231389   6.289   4.215   6.825
10164SOL     OW31390   6.069   3.249   4.017
10164SOL    HW131391   6.056   3.328   4.076
10164SOL    HW231392   5.999   3.249   3.945
10165SOL     OW31393   6.668   1.240   3.278
10165SOL    HW131394   6.602   1.210   3.210
10165SOL    HW231395   6.674   1.340   3.277
10166SOL     OW31396   3.342   1.761   1.864
10166SOL    HW131397   3.385   1.678   1.898
10166SOL    HW231398   3.398   1.840   1.888
10167SOL     OW31399   1.273   4.618   6.803
10167SOL    HW131400   1.366   4.652   6.819
10167SOL    HW231401   1.264   4.525   6.840
10168SOL     OW31402   5.475   2.798   6.465
10168SOL    HW131403   5.564   2.840   6.446
10168SOL    HW231404   5.449   2.739   6.389
10169SOL     OW31405   7.018   4.434   3.359
10169SOL    HW131406   0.084   4.466   3.325
10169SOL    HW231407   6.982   4.501   3.424
10170SOL     OW31408   6.559   5.480   5.476
10170SOL    HW131409   6.580   5.443   5.566
10170SOL    HW231410   6.494   5.420   5.429
10171SOL     OW31411   0.057   2.300   4.393
10171SOL    HW131412   0.082   2.397   4.398
10171SOL    HW231413   0.103   2.257   4.316
10172SOL     OW31414   0.809   6.063   5.298
10172SOL    HW131415   0.746   6.013   5.239
10172SOL    HW231416   0.777   6.059   5.393
10173SOL     OW31417   1.968   2.524   0.402
10173SOL    HW131418   1.973   2.582   0.321
10173SOL    HW231419   1.875   2.488   0.412
10174SOL     OW31420   5.267   4.484   3.610
10174SOL    HW131421   5.172   4.476   3.581
10174SOL    HW231422   5.328   4.457   3.536
10175SOL     OW31423   5.689   1.738   2.966
10175SOL    HW131424   5.693   1.720   2.868
10175SOL    HW231425   5.623   1.810   2.984
10176SOL     OW31426   0.295   3.197   5.584
10176SOL    HW131427   0.265   3.279   5.633
10176SOL    HW231428   0.371   3.221   5.523
10177SOL     OW31429   2.272   1.280   1.583
10177SOL    HW131430   2.363   1.301   1.618
10177SOL    HW231431   2.203   1.332   1.634
10178SOL     OW31432   0.311   1.038   6.618
10178SOL    HW131433   0.367   1.093   6.680
10178SOL    HW231434   0.369   0.989   6.554
10179SOL     OW31435   0.796   2.862   6.693
10179SOL    HW131436   0.770   2.873   6.789
10179SOL    HW231437   0.741   2.923   6.637
10180SOL     OW31438   3.942   0.977   5.935
10180SOL    HW131439   3.876   0.955   6.006
10180SOL    HW231440   4.031   0.939   5.959
10181SOL     OW31441   6.356   3.553   1.491
10181SOL    HW131442   6.282   3.593   1.545
10181SOL    HW231443   6.318   3.486   1.427
10182SOL     OW31444   4.630   0.417   1.788
10182SOL    HW131445   4.639   0.430   1.887
10182SOL    HW231446   4.542   0.454   1.757
10183SOL     OW31447   6.335   2.971   6.605
10183SOL    HW131448   6.243   3.007   6.617
10183SOL    HW231449   6.398   3.045   6.583
10184SOL     OW31450   4.078   1.467   6.164
10184SOL    HW131451   4.150   1.445   6.098
10184SOL    HW231452   4.006   1.398   6.159
10185SOL     OW31453   6.109   6.079   2.804
10185SOL    HW131454   6.011   6.096   2.807
10185SOL    HW231455   6.137   6.057   2.711
10186SOL     OW31456   5.200   3.798   4.181
10186SOL    HW131457   5.278   3.763   4.129
10186SOL    HW231458   5.173   3.729   4.249
10187SOL     OW31459   1.213   3.586   0.270
10187SOL    HW131460   1.206   3.497   0.225
10187SOL    HW231461   1.184   3.577   0.365
10188SOL     OW31462   4.166   4.609   0.434
10188SOL    HW131463   4.119   4.590   0.347
10188SOL    HW231464   4.163   4.527   0.491
10189SOL     OW31465   0.709   1.261   6.581
10189SOL    HW131466   0.786   1.315   6.546
10189SOL    HW231467   0.733   1.164   6.582
10190SOL     OW31468   4.733   2.980   1.409
10190SOL    HW131469   4.661   2.939   1.353
10190SOL    HW231470   4.709   3.076   1.429
10191SOL     OW31471   3.914   5.949   6.548
10191SOL    HW131472   3.862   5.866   6.528
10191SOL    HW231473   3.851   6.025   6.560
10192SOL     OW31474   4.402   1.408   5.414
10192SOL    HW131475   4.391   1.368   5.322
10192SOL    HW231476   4.470   1.480   5.411
10193SOL     OW31477   3.741   2.930   2.087
10193SOL    HW131478   3.700   2.977   2.165
10193SOL    HW231479   3.672   2.871   2.045
10194SOL     OW31480   5.140   6.185   5.508
10194SOL    HW131481   5.049   6.159   5.477
10194SOL    HW231482   5.163   6.134   5.591
10195SOL     OW31483   6.617   5.938   0.499
10195SOL    HW131484   6.639   5.963   0.405
10195SOL    HW231485   6.638   6.014   0.560
10196SOL     OW31486   4.180   2.060   3.881
10196SOL    HW131487   4.188   1.961   3.877
10196SOL    HW231488   4.272   2.100   3.889
10197SOL     OW31489   5.618   1.802   4.571
10197SOL    HW131490   5.653   1.778   4.662
10197SOL    HW231491   5.694   1.828   4.512
10198SOL     OW31492   2.657   6.843   2.750
10198SOL    HW131493   2.752   6.847   2.781
10198SOL    HW231494   2.653   6.799   2.661
10199SOL     OW31495   1.381   2.875   0.659
10199SOL    HW131496   1.453   2.938   0.690
10199SOL    HW231497   1.401   2.783   0.691
10200SOL     OW31498   4.930   2.937   5.991
10200SOL    HW131499   5.018   2.980   5.973
10200SOL    HW231500   4.865   3.006   6.024
10201SOL     OW31501   1.218   5.103   0.373
10201SOL    HW131502   1.161   5.154   0.308
10201SOL    HW231503   1.312   5.134   0.366
10202SOL     OW31504   2.991   4.989   0.535
10202SOL    HW131505   2.954   5.067   0.485
10202SOL    HW231506   2.935   4.908   0.517
10203SOL     OW31507   6.940   2.746   2.844
10203SOL    HW131508   6.853   2.720   2.803
10203SOL    HW231509   7.015   2.699   2.798
10204SOL     OW31510   4.101   5.592   6.732
10204SOL    HW131511   4.146   5.503   6.722
10204SOL    HW231512   4.009   5.588   6.695
10205SOL     OW31513   2.478   0.631   1.772
10205SOL    HW131514   2.542   0.662   1.703
10205SOL    HW231515   2.483   0.690   1.852
10206SOL     OW31516   0.027   6.971   6.763
10206SOL    HW131517   7.004   6.911   6.697
10206SOL    HW231518   0.104   7.017   6.718
10207SOL     OW31519   0.503   2.412   0.107
10207SOL    HW131520   0.446   2.370   0.037
10207SOL    HW231521   0.549   2.493   0.070
10208SOL     OW31522   6.143   5.100   4.269
10208SOL    HW131523   6.199   5.060   4.341
10208SOL    HW231524   6.059   5.048   4.259
10209SOL     OW31525   0.206   6.706   6.456
10209SOL    HW131526   0.170   6.618   6.489
10209SOL    HW231527   0.303   6.696   6.437
10210SOL     OW31528   4.584   6.343   1.511
10210SOL    HW131529   4.510   6.300   1.563
10210SOL    HW231530   4.559   6.437   1.489
10211SOL     OW31531   4.863   5.963   4.687
10211SOL    HW131532   4.906   6.049   4.716
10211SOL    HW231533   4.886   5.890   4.751
10212SOL     OW31534   0.635   0.117   5.563
10212SOL    HW131535   0.617   0.211   5.535
10212SOL    HW231536   0.551   0.063   5.555
10213SOL     OW31537   5.566   2.448   1.714
10213SOL    HW131538   5.528   2.366   1.758
10213SOL    HW231539   5.492   2.499   1.670
10214SOL     OW31540   0.209   1.781   1.517
10214SOL    HW131541   0.186   1.878   1.519
10214SOL    HW231542   0.144   1.730   1.573
10215SOL     OW31543   3.764   3.278   3.861
10215SOL    HW131544   3.671   3.242   3.861
10215SOL    HW231545   3.784   3.318   3.771
10216SOL     OW31546   6.974   1.152   1.384
10216SOL    HW131547   6.998   1.058   1.405
10216SOL    HW231548   0.034   1.208   1.380
10217SOL     OW31549   2.293   1.831   3.461
10217SOL    HW131550   2.207   1.780   3.461
10217SOL    HW231551   2.352   1.797   3.534
10218SOL     OW31552   0.872   0.852   1.443
10218SOL    HW131553   0.881   0.947   1.472
10218SOL    HW231554   0.867   0.792   1.523
10219SOL     OW31555   0.194   2.347   2.657
10219SOL    HW131556   0.163   2.291   2.734
10219SOL    HW231557   0.288   2.324   2.635
10220SOL     OW31558   4.591   1.930   1.096
10220SOL    HW131559   4.690   1.921   1.098
10220SOL    HW231560   4.561   1.953   1.004
10221SOL     OW31561   1.893   4.315   4.585
10221SOL    HW131562   1.859   4.302   4.492
10221SOL    HW231563   1.856   4.400   4.623
10222SOL     OW31564   2.946   4.282   5.273
10222SOL    HW131565   2.921   4.374   5.242
10222SOL    HW231566   2.863   4.232   5.298
10223SOL     OW31567   2.833   5.060   1.136
10223SOL    HW131568   2.808   5.150   1.174
10223SOL    HW231569   2.767   5.033   1.066
10224SOL     OW31570   6.336   2.491   5.806
10224SOL    HW131571   6.334   2.507   5.707
10224SOL    HW231572   6.379   2.569   5.851
10225SOL     OW31573   1.858   5.953   5.397
10225SOL    HW131574   1.951   5.985   5.417
10225SOL    HW231575   1.806   6.028   5.356
10226SOL     OW31576   1.959   0.223   6.088
10226SOL    HW131577   1.881   0.252   6.144
10226SOL    HW231578   1.963   0.280   6.005
10227SOL     OW31579   5.136   4.954   0.180
10227SOL    HW131580   5.211   4.895   0.209
10227SOL    HW231581   5.140   4.967   0.081
10228SOL     OW31582   0.740   6.170   1.984
10228SOL    HW131583   0.704   6.089   2.031
10228SOL    HW231584   0.838   6.158   1.968
10229SOL     OW31585   1.983   2.775   4.991
10229SOL    HW131586   1.964   2.791   5.088
10229SOL    HW231587   2.081   2.779   4.975
10230SOL     OW31588   6.211   6.493   3.242
10230SOL    HW131589   6.279   6.513   3.172
10230SOL    HW231590   6.153   6.574   3.256
10231SOL     OW31591   6.289   4.934   4.998
10231SOL    HW131592   6.308   4.960   5.092
10231SOL    HW231593   6.199   4.969   4.971
10232SOL     OW31594   3.250   1.586   3.537
10232SOL    HW131595   3.345   1.575   3.567
10232SOL    HW231596   3.236   1.678   3.502
10233SOL     OW31597   3.715   3.925   4.981
10233SOL    HW131598   3.679   3.840   4.943
10233SOL    HW231599   3.684   3.937   5.075
10234SOL     OW31600   5.057   0.895   0.378
10234SOL    HW131601   5.098   0.813   0.419
10234SOL    HW231602   5.028   0.957   0.450
10235SOL     OW31603   3.281   2.205   1.290
10235SOL    HW131604   3.357   2.149   1.256
10235SOL    HW231605   3.221   2.148   1.346
10236SOL     OW31606   1.645   1.234   1.631
10236SOL    HW131607   1.599   1.193   1.552
10236SOL    HW231608   1.580   1.288   1.684
10237SOL     OW31609   7.009   5.078   6.453
10237SOL    HW131610   6.957   4.993   6.453
10237SOL    HW231611   0.046   5.080   6.372
10238SOL     OW31612   4.044   3.902   2.272
10238SOL    HW131613   3.969   3.946   2.322
10238SOL    HW231614   4.105   3.857   2.337
10239SOL     OW31615   2.224   3.697   5.849
10239SOL    HW131616   2.294   3.757   5.810
10239SOL    HW231617   2.139   3.709   5.798
10240SOL     OW31618   2.017   4.213   2.252
10240SOL    HW131619   1.971   4.155   2.185
10240SOL    HW231620   2.061   4.157   2.322
10241SOL     OW31621   0.112   6.244   3.560
10241SOL    HW131622   0.166   6.252   3.476
10241SOL    HW231623   0.112   6.149   3.590
10242SOL     OW31624   0.602   1.113   1.577
10242SOL    HW131625   0.564   1.063   1.499
10242SOL    HW231626   0.689   1.155   1.550
10243SOL     OW31627   2.434   4.470   2.952
10243SOL    HW131628   2.462   4.504   2.862
10243SOL    HW231629   2.486   4.517   3.023
10244SOL     OW31630   1.604   4.357   1.032
10244SOL    HW131631   1.682   4.419   1.023
10244SOL    HW231632   1.556   4.351   0.945
10245SOL     OW31633   3.737   4.116   1.315
10245SOL    HW131634   3.797   4.141   1.239
10245SOL    HW231635   3.665   4.054   1.282
10246SOL     OW31636   3.303   3.177   3.479
10246SOL    HW131637   3.247   3.141   3.553
10246SOL    HW231638   3.269   3.144   3.392
10247SOL     OW31639   0.195   4.424   6.586
10247SOL    HW131640   0.207   4.490   6.511
10247SOL    HW231641   0.163   4.471   6.667
10248SOL     OW31642   1.785   6.546   2.877
10248SOL    HW131643   1.720   6.607   2.922
10248SOL    HW231644   1.743   6.505   2.796
10249SOL     OW31645   2.355   6.065   6.706
10249SOL    HW131646   2.387   6.129   6.776
10249SOL    HW231647   2.411   5.983   6.708
10250SOL     OW31648   6.450   2.330   1.941
10250SOL    HW131649   6.531   2.283   1.906
10250SOL    HW231650   6.368   2.283   1.908
10251SOL     OW31651   2.244   1.225   4.808
10251SOL    HW131652   2.328   1.214   4.860
10251SOL    HW231653   2.220   1.137   4.765
10252SOL     OW31654   4.051   4.693   5.795
10252SOL    HW131655   4.128   4.723   5.739
10252SOL    HW231656   3.973   4.670   5.735
10253SOL     OW31657   2.457   0.187   0.532
10253SOL    HW131658   2.428   0.095   0.556
10253SOL    HW231659   2.543   0.209   0.579
10254SOL     OW31660   4.840   1.157   5.706
10254SOL    HW131661   4.910   1.199   5.648
10254SOL    HW231662   4.802   1.226   5.767
10255SOL     OW31663   2.520   6.167   1.057
10255SOL    HW131664   2.592   6.228   1.089
10255SOL    HW231665   2.450   6.157   1.128
10256SOL     OW31666   4.980   1.704   1.498
10256SOL    HW131667   4.971   1.642   1.576
10256SOL    HW231668   4.928   1.787   1.516
10257SOL     OW31669   2.019   4.673   4.429
10257SOL    HW131670   2.071   4.594   4.398
10257SOL    HW231671   2.071   4.720   4.501
10258SOL     OW31672   3.293   1.115   3.645
10258SOL    HW131673   3.293   1.207   3.685
10258SOL    HW231674   3.325   1.049   3.712
10259SOL     OW31675   1.099   5.095   3.162
10259SOL    HW131676   1.194   5.124   3.168
10259SOL    HW231677   1.039   5.175   3.170
10260SOL     OW31678   1.900   1.090   3.690
10260SOL    HW131679   1.911   1.011   3.751
10260SOL    HW231680   1.946   1.071   3.603
10261SOL     OW31681   6.672   5.139   2.412
10261SOL    HW131682   6.769   5.151   2.395
10261SOL    HW231683   6.626   5.112   2.327
10262SOL     OW31684   2.613   6.846   5.190
10262SOL    HW131685   2.550   6.769   5.196
10262SOL    HW231686   2.610   6.884   5.098
10263SOL     OW31687   5.416   6.986   6.517
10263SOL    HW131688   5.402   6.977   6.616
10263SOL    HW231689   5.511   7.010   6.498
10264SOL     OW31690   6.083   6.928   6.876
10264SOL    HW131691   6.028   6.998   6.922
10264SOL    HW231692   6.157   6.973   6.824
10265SOL     OW31693   2.402   2.816   1.640
10265SOL    HW131694   2.349   2.898   1.659
10265SOL    HW231695   2.500   2.839   1.640
10266SOL     OW31696   4.000   3.558   4.073
10266SOL    HW131697   4.068   3.547   4.001
10266SOL    HW231698   3.949   3.473   4.085
10267SOL     OW31699   5.900   2.551   6.537
10267SOL    HW131700   5.862   2.460   6.553
10267SOL    HW231701   5.887   2.607   6.619
10268SOL     OW31702   6.294   5.724   2.380
10268SOL    HW131703   6.357   5.658   2.338
10268SOL    HW231704   6.320   5.816   2.352
10269SOL     OW31705   0.266   3.628   6.990
10269SOL    HW131706   0.217   3.565   6.930
10269SOL    HW231707   0.204   3.701   7.020
10270SOL     OW31708   3.927   4.788   2.762
10270SOL    HW131709   3.964   4.755   2.849
10270SOL    HW231710   3.986   4.758   2.687
10271SOL     OW31711   3.301   2.487   6.252
10271SOL    HW131712   3.307   2.583   6.281
10271SOL    HW231713   3.377   2.436   6.292
10272SOL     OW31714   1.356   1.733   5.112
10272SOL    HW131715   1.331   1.788   5.033
10272SOL    HW231716   1.453   1.710   5.107
10273SOL     OW31717   3.179   5.427   2.750
10273SOL    HW131718   3.198   5.441   2.847
10273SOL    HW231719   3.128   5.506   2.714
10274SOL     OW31720   1.006   5.875   5.346
10274SOL    HW131721   0.979   5.971   5.346
10274SOL    HW231722   1.005   5.840   5.252
10275SOL     OW31723   0.175   6.548   1.934
10275SOL    HW131724   0.197   6.562   2.031
10275SOL    HW231725   0.206   6.626   1.881
10276SOL     OW31726   5.205   4.940   5.630
10276SOL    HW131727   5.282   4.993   5.664
10276SOL    HW231728   5.226   4.842   5.638
10277SOL     OW31729   1.471   5.502   4.220
10277SOL    HW131730   1.384   5.517   4.173
10277SOL    HW231731   1.541   5.560   4.180
10278SOL     OW31732   0.452   2.122   4.266
10278SOL    HW131733   0.537   2.140   4.215
10278SOL    HW231734   0.377   2.112   4.201
10279SOL     OW31735   2.118   4.917   4.336
10279SOL    HW131736   2.070   4.831   4.352
10279SOL    HW231737   2.215   4.898   4.318
10280SOL     OW31738   0.044   3.018   0.649
10280SOL    HW131739   7.005   3.088   0.685
10280SOL    HW231740   0.084   2.968   0.726
10281SOL     OW31741   5.710   1.360   2.453
10281SOL    HW131742   5.719   1.287   2.385
10281SOL    HW231743   5.656   1.435   2.415
10282SOL     OW31744   4.904   3.186   4.271
10282SOL    HW131745   4.859   3.127   4.337
10282SOL    HW231746   4.929   3.132   4.190
10283SOL     OW31747   1.107   3.320   0.778
10283SOL    HW131748   1.087   3.237   0.727
10283SOL    HW231749   1.151   3.387   0.717
10284SOL     OW31750   5.376   2.641   4.977
10284SOL    HW131751   5.460   2.614   5.023
10284SOL    HW231752   5.323   2.560   4.952
10285SOL     OW31753   6.080   0.101   2.806
10285SOL    HW131754   6.125   0.046   2.736
10285SOL    HW231755   6.139   0.178   2.832
10286SOL     OW31756   3.479   1.706   3.225
10286SOL    HW131757   3.420   1.748   3.156
10286SOL    HW231758   3.454   1.610   3.236
10287SOL     OW31759   2.033   6.938   1.106
10287SOL    HW131760   1.989   7.008   1.049
10287SOL    HW231761   2.100   6.982   1.166
10288SOL     OW31762   4.743   5.925   3.094
10288SOL    HW131763   4.789   6.002   3.051
10288SOL    HW231764   4.651   5.916   3.056
10289SOL     OW31765   2.180   6.764   0.269
10289SOL    HW131766   2.086   6.733   0.279
10289SOL    HW231767   2.196   6.792   0.175
10290SOL     OW31768   3.289   3.919   2.842
10290SOL    HW131769   3.348   4.000   2.839
10290SOL    HW231770   3.221   3.925   2.769
10291SOL     OW31771   4.425   1.365   2.876
10291SOL    HW131772   4.461   1.287   2.824
10291SOL    HW231773   4.344   1.336   2.928
10292SOL     OW31774   1.802   1.071   5.287
10292SOL    HW131775   1.837   1.008   5.356
10292SOL    HW231776   1.762   1.151   5.331
10293SOL     OW31777   2.103   4.337   2.587
10293SOL    HW131778   2.157   4.268   2.539
10293SOL    HW231779   2.029   4.293   2.638
10294SOL     OW31780   5.645   3.133   3.057
10294SOL    HW131781   5.728   3.188   3.066
10294SOL    HW231782   5.595   3.135   3.144
10295SOL     OW31783   0.012   4.532   5.432
10295SOL    HW131784   6.945   4.491   5.414
10295SOL    HW231785   0.054   4.559   5.346
10296SOL     OW31786   5.102   1.342   6.962
10296SOL    HW131787   5.159   1.260   6.965
10296SOL    HW231788   5.033   1.331   6.891
10297SOL     OW31789   1.845   0.018   6.317
10297SOL    HW131790   1.831   0.064   6.404
10297SOL    HW231791   1.785   0.059   6.248
10298SOL     OW31792   2.833   4.569   1.610
10298SOL    HW131793   2.864   4.550   1.703
10298SOL    HW231794   2.733   4.577   1.608
10299SOL     OW31795   4.950   4.856   2.931
10299SOL    HW131796   4.953   4.928   2.862
10299SOL    HW231797   5.010   4.781   2.904
10300SOL     OW31798   1.653   4.110   2.698
10300SOL    HW131799   1.646   4.151   2.607
10300SOL    HW231800   1.612   4.019   2.696
10301SOL     OW31801   4.987   2.350   4.181
10301SOL    HW131802   4.888   2.341   4.166
10301SOL    HW231803   5.015   2.444   4.163
10302SOL     OW31804   2.172   0.177   4.147
10302SOL    HW131805   2.151   0.214   4.057
10302SOL    HW231806   2.106   0.212   4.213
10303SOL     OW31807   2.067   6.306   3.054
10303SOL    HW131808   2.065   6.406   3.059
10303SOL    HW231809   1.998   6.268   3.116
10304SOL     OW31810   5.719   6.916   1.536
10304SOL    HW131811   5.623   6.944   1.541
10304SOL    HW231812   5.776   6.996   1.517
10305SOL     OW31813   0.869   4.391   6.842
10305SOL    HW131814   0.943   4.354   6.898
10305SOL    HW231815   0.843   4.481   6.876
10306SOL     OW31816   4.836   6.912   6.480
10306SOL    HW131817   4.862   6.945   6.389
10306SOL    HW231818   4.793   6.987   6.531
10307SOL     OW31819   2.178   2.340   5.255
10307SOL    HW131820   2.163   2.396   5.337
10307SOL    HW231821   2.216   2.398   5.182
10308SOL     OW31822   2.008   4.112   3.382
10308SOL    HW131823   1.937   4.164   3.333
10308SOL    HW231824   2.065   4.064   3.315
10309SOL     OW31825   6.796   1.425   5.209
10309SOL    HW131826   6.770   1.432   5.113
10309SOL    HW231827   6.859   1.349   5.221
10310SOL     OW31828   3.202   3.683   0.896
10310SOL    HW131829   3.214   3.589   0.864
10310SOL    HW231830   3.122   3.687   0.957
10311SOL     OW31831   7.001   6.134   0.415
10311SOL    HW131832   6.925   6.091   0.367
10311SOL    HW231833   7.010   6.229   0.386
10312SOL     OW31834   3.790   6.231   2.557
10312SOL    HW131835   3.806   6.326   2.584
10312SOL    HW231836   3.837   6.213   2.471
10313SOL     OW31837   4.978   6.505   1.362
10313SOL    HW131838   5.072   6.513   1.328
10313SOL    HW231839   4.965   6.415   1.403
10314SOL     OW31840   6.533   1.012   1.870
10314SOL    HW131841   6.551   1.082   1.939
10314SOL    HW231842   6.575   1.040   1.783
10315SOL     OW31843   4.791   5.687   5.199
10315SOL    HW131844   4.797   5.781   5.166
10315SOL    HW231845   4.701   5.671   5.239
10316SOL     OW31846   6.402   1.560   4.104
10316SOL    HW131847   6.422   1.610   4.020
10316SOL    HW231848   6.320   1.600   4.147
10317SOL     OW31849   4.412   5.675   4.495
10317SOL    HW131850   4.405   5.583   4.534
10317SOL    HW231851   4.470   5.731   4.554
10318SOL     OW31852   5.132   6.015   6.937
10318SOL    HW131853   5.178   5.955   6.873
10318SOL    HW231854   5.163   5.996   0.007
10319SOL     OW31855   1.235   3.022   5.079
10319SOL    HW131856   1.222   3.119   5.059
10319SOL    HW231857   1.215   3.004   5.175
10320SOL     OW31858   0.235   0.757   2.889
10320SOL    HW131859   0.188   0.686   2.837
10320SOL    HW231860   0.295   0.715   2.957
10321SOL     OW31861   4.149   1.939   1.584
10321SOL    HW131862   4.174   2.035   1.601
10321SOL    HW231863   4.123   1.896   1.670
10322SOL     OW31864   6.561   5.608   5.220
10322SOL    HW131865   6.475   5.585   5.176
10322SOL    HW231866   6.582   5.540   5.291
10323SOL     OW31867   5.808   2.752   5.751
10323SOL    HW131868   5.901   2.768   5.718
10323SOL    HW231869   5.783   2.822   5.818
10324SOL     OW31870   3.616   3.447   2.429
10324SOL    HW131871   3.674   3.525   2.449
10324SOL    HW231872   3.667   3.381   2.374
10325SOL     OW31873   0.350   4.092   1.957
10325SOL    HW131874   0.432   4.113   2.010
10325SOL    HW231875   0.333   3.993   1.960
10326SOL     OW31876   3.606   4.234   0.237
10326SOL    HW131877   3.524   4.292   0.246
10326SOL    HW231878   3.603   4.186   0.150
10327SOL     OW31879   2.610   1.900   1.514
10327SOL    HW131880   2.550   1.945   1.580
10327SOL    HW231881   2.600   1.801   1.523
10328SOL     OW31882   5.711   2.891   0.883
10328SOL    HW131883   5.763   2.976   0.898
10328SOL    HW231884   5.694   2.879   0.785
10329SOL     OW31885   3.543   0.165   3.898
10329SOL    HW131886   3.523   0.082   3.950
10329SOL    HW231887   3.530   0.245   3.956
10330SOL     OW31888   4.476   0.249   2.412
10330SOL    HW131889   4.542   0.230   2.339
10330SOL    HW231890   4.515   0.221   2.500
10331SOL     OW31891   6.974   1.189   5.220
10331SOL    HW131892   0.031   1.236   5.183
10331SOL    HW231893   6.943   1.120   5.154
10332SOL     OW31894   6.241   0.902   0.683
10332SOL    HW131895   6.310   0.937   0.620
10332SOL    HW231896   6.149   0.921   0.648
10333SOL     OW31897   6.313   4.129   4.546
10333SOL    HW131898   6.245   4.133   4.619
10333SOL    HW231899   6.392   4.184   4.571
10334SOL     OW31900   3.948   6.372   3.616
10334SOL    HW131901   3.929   6.406   3.709
10334SOL    HW231902   3.997   6.442   3.565
10335SOL     OW31903   3.042   4.425   6.767
10335SOL    HW131904   3.097   4.497   6.725
10335SOL    HW231905   2.951   4.424   6.726
10336SOL     OW31906   6.776   6.358   2.963
10336SOL    HW131907   6.836   6.282   2.939
10336SOL    HW231908   6.758   6.414   2.882
10337SOL     OW31909   0.098   6.601   5.765
10337SOL    HW131910   0.127   6.566   5.854
10337SOL    HW231911   0.086   6.700   5.771
10338SOL     OW31912   2.077   6.197   2.347
10338SOL    HW131913   2.058   6.167   2.441
10338SOL    HW231914   2.163   6.249   2.346
10339SOL     OW31915   3.428   4.988   0.055
10339SOL    HW131916   3.368   4.911   0.075
10339SOL    HW231917   3.478   4.970   6.994
10340SOL     OW31918   2.156   4.969   1.312
10340SOL    HW131919   2.172   4.965   1.411
10340SOL    HW231920   2.135   5.064   1.286
10341SOL     OW31921   1.920   3.557   1.603
10341SOL    HW131922   1.986   3.613   1.552
10341SOL    HW231923   1.952   3.544   1.696
10342SOL     OW31924   1.038   6.989   5.459
10342SOL    HW131925   1.119   6.976   5.401
10342SOL    HW231926   1.048   6.934   5.542
10343SOL     OW31927   3.397   5.884   6.964
10343SOL    HW131928   3.422   5.825   0.018
10343SOL    HW231929   3.314   5.848   6.921
10344SOL     OW31930   4.600   4.223   1.641
10344SOL    HW131931   4.527   4.222   1.710
10344SOL    HW231932   4.670   4.156   1.667
10345SOL     OW31933   1.432   1.139   0.152
10345SOL    HW131934   1.392   1.228   0.172
10345SOL    HW231935   1.452   1.133   0.054
10346SOL     OW31936   6.598   6.976   1.642
10346SOL    HW131937   6.580   6.982   1.544
10346SOL    HW231938   6.677   0.010   1.664
10347SOL     OW31939   4.882   1.917   2.472
10347SOL    HW131940   4.897   1.928   2.374
10347SOL    HW231941   4.797   1.962   2.498
10348SOL     OW31942   6.253   1.222   0.361
10348SOL    HW131943   6.278   1.273   0.278
10348SOL    HW231944   6.156   1.235   0.380
10349SOL     OW31945   6.922   1.028   1.110
10349SOL    HW131946   6.950   0.967   1.184
10349SOL    HW231947   6.967   1.116   1.121
10350SOL     OW31948   2.023   6.914   5.428
10350SOL    HW131949   2.022   6.933   5.526
10350SOL    HW231950   2.090   6.974   5.383
10351SOL     OW31951   4.357   5.199   6.361
10351SOL    HW131952   4.266   5.218   6.398
10351SOL    HW231953   4.400   5.285   6.333
10352SOL     OW31954   4.535   2.357   6.426
10352SOL    HW131955   4.529   2.328   6.331
10352SOL    HW231956   4.474   2.436   6.440
10353SOL     OW31957   0.431   2.884   5.953
10353SOL    HW131958   0.436   2.792   5.992
10353SOL    HW231959   0.423   2.878   5.854
10354SOL     OW31960   6.050   2.552   2.065
10354SOL    HW131961   6.128   2.491   2.083
10354SOL    HW231962   5.988   2.508   2.000
10355SOL     OW31963   1.731   7.006   2.127
10355SOL    HW131964   1.682   0.005   2.211
10355SOL    HW231965   1.813   0.039   2.120
10356SOL     OW31966   6.913   4.606   6.261
10356SOL    HW131967   6.859   4.559   6.191
10356SOL    HW231968   6.933   4.699   6.231
10357SOL     OW31969   2.830   3.105   6.527
10357SOL    HW131970   2.768   3.077   6.453
10357SOL    HW231971   2.876   3.190   6.500
10358SOL     OW31972   6.457   3.258   3.594
10358SOL    HW131973   6.432   3.262   3.691
10358SOL    HW231974   6.463   3.162   3.565
10359SOL     OW31975   6.745   1.596   1.095
10359SOL    HW131976   6.826   1.646   1.125
10359SOL    HW231977   6.690   1.655   1.035
10360SOL     OW31978   4.029   5.871   2.140
10360SOL    HW131979   4.045   5.774   2.159
10360SOL    HW231980   3.984   5.913   2.219
10361SOL     OW31981   2.669   0.638   2.890
10361SOL    HW131982   2.639   0.545   2.911
10361SOL    HW231983   2.747   0.635   2.828
10362SOL     OW31984   0.536   5.036   3.961
10362SOL    HW131985   0.509   5.112   4.020
10362SOL    HW231986   0.565   4.959   4.017
10363SOL     OW31987   4.472   2.233   0.910
10363SOL    HW131988   4.562   2.232   0.955
10363SOL    HW231989   4.459   2.147   0.860
10364SOL     OW31990   4.068   3.767   2.505
10364SOL    HW131991   3.968   3.773   2.504
10364SOL    HW231992   4.097   3.702   2.575
10365SOL     OW31993   5.056   4.327   5.405
10365SOL    HW131994   4.998   4.408   5.396
10365SOL    HW231995   5.009   4.248   5.366
10366SOL     OW31996   4.843   0.272   3.887
10366SOL    HW131997   4.847   0.371   3.874
10366SOL    HW231998   4.908   0.245   3.958
10367SOL     OW31999   6.875   1.475   1.598
10367SOL    HW132000   6.847   1.444   1.507
10367SOL    HW232001   6.795   1.508   1.648
10368SOL     OW32002   2.382   0.451   2.143
10368SOL    HW132003   2.352   0.535   2.098
10368SOL    HW232004   2.459   0.470   2.203
10369SOL     OW32005   4.282   1.366   5.129
10369SOL    HW132006   4.322   1.396   5.043
10369SOL    HW232007   4.302   1.269   5.144
10370SOL     OW32008   5.796   1.809   5.123
10370SOL    HW132009   5.723   1.747   5.151
10370SOL    HW232010   5.763   1.867   5.048
10371SOL     OW32011   1.970   5.797   4.161
10371SOL    HW132012   2.028   5.743   4.100
10371SOL    HW232013   1.939   5.879   4.113
10372SOL     OW32014   1.653   0.994   0.861
10372SOL    HW132015   1.555   0.989   0.843
10372SOL    HW232016   1.703   0.999   0.774
10373SOL     OW32017   1.825   6.745   4.882
10373SOL    HW132018   1.774   6.828   4.860
10373SOL    HW232019   1.818   6.680   4.807
10374SOL     OW32020   4.054   0.721   3.074
10374SOL    HW132021   4.055   0.777   2.991
10374SOL    HW232022   3.970   0.739   3.126
10375SOL     OW32023   2.681   1.416   6.341
10375SOL    HW132024   2.704   1.391   6.435
10375SOL    HW232025   2.584   1.442   6.336
10376SOL     OW32026   1.278   5.819   3.845
10376SOL    HW132027   1.244   5.750   3.781
10376SOL    HW232028   1.291   5.906   3.798
10377SOL     OW32029   6.806   1.259   3.638
10377SOL    HW132030   6.844   1.241   3.547
10377SOL    HW232031   6.772   1.174   3.677
10378SOL     OW32032   6.062   0.184   5.912
10378SOL    HW132033   6.008   0.102   5.892
10378SOL    HW232034   6.023   0.231   5.990
10379SOL     OW32035   3.174   6.760   4.324
10379SOL    HW132036   3.086   6.800   4.349
10379SOL    HW232037   3.188   6.768   4.226
10380SOL     OW32038   0.632   2.112   4.716
10380SOL    HW132039   0.717   2.134   4.669
10380SOL    HW232040   0.583   2.197   4.737
10381SOL     OW32041   4.374   4.364   0.409
10381SOL    HW132042   4.278   4.352   0.431
10381SOL    HW232043   4.386   4.450   0.358
10382SOL     OW32044   2.130   4.901   0.554
10382SOL    HW132045   2.088   4.882   0.466
10382SOL    HW232046   2.130   4.999   0.572
10383SOL     OW32047   6.558   3.978   0.748
10383SOL    HW132048   6.489   4.043   0.779
10383SOL    HW232049   6.521   3.885   0.751
10384SOL     OW32050   0.285   6.965   0.801
10384SOL    HW132051   0.364   7.009   0.758
10384SOL    HW232052   0.264   6.880   0.753
10385SOL     OW32053   3.240   6.722   5.682
10385SOL    HW132054   3.263   6.629   5.655
10385SOL    HW232055   3.318   6.764   5.728
10386SOL     OW32056   6.430   1.973   5.860
10386SOL    HW132057   6.343   1.925   5.869
10386SOL    HW232058   6.414   2.066   5.828
10387SOL     OW32059   4.721   1.743   2.848
10387SOL    HW132060   4.756   1.837   2.851
10387SOL    HW232061   4.622   1.744   2.855
10388SOL     OW32062   2.219   5.981   2.255
10388SOL    HW132063   2.226   5.927   2.339
10388SOL    HW232064   2.193   6.075   2.278
10389SOL     OW32065   0.157   6.880   1.219
10389SOL    HW132066   0.214   6.952   1.259
10389SOL    HW232067   0.198   6.791   1.238
10390SOL     OW32068   1.931   2.445   1.662
10390SOL    HW132069   1.944   2.382   1.739
10390SOL    HW232070   2.001   2.517   1.666
10391SOL     OW32071   1.205   5.551   4.135
10391SOL    HW132072   1.156   5.524   4.218
10391SOL    HW232073   1.164   5.507   4.056
10392SOL     OW32074   6.785   4.369   0.178
10392SOL    HW132075   6.804   4.467   0.170
10392SOL    HW232076   6.827   4.335   0.262
10393SOL     OW32077   1.986   2.310   2.275
10393SOL    HW132078   1.951   2.217   2.290
10393SOL    HW232079   2.086   2.308   2.275
10394SOL     OW32080   2.470   6.016   4.433
10394SOL    HW132081   2.547   6.059   4.481
10394SOL    HW232082   2.407   5.977   4.500
10395SOL     OW32083   0.016   0.881   3.666
10395SOL    HW132084   7.011   0.831   3.584
10395SOL    HW232085   0.064   0.819   3.728
10396SOL     OW32086   2.446   0.519   4.248
10396SOL    HW132087   2.534   0.552   4.212
10396SOL    HW232088   2.442   0.536   4.347
10397SOL     OW32089   3.203   1.784   4.113
10397SOL    HW132090   3.104   1.789   4.117
10397SOL    HW232091   3.235   1.703   4.163
10398SOL     OW32092   5.803   2.152   0.780
10398SOL    HW132093   5.765   2.073   0.732
10398SOL    HW232094   5.728   2.201   0.827
10399SOL     OW32095   4.211   1.920   4.573
10399SOL    HW132096   4.206   1.882   4.665
10399SOL    HW232097   4.128   1.971   4.553
10400SOL     OW32098   3.848   5.962   1.064
10400SOL    HW132099   3.786   5.954   0.987
10400SOL    HW232100   3.795   5.977   1.148
10401SOL     OW32101   0.212   0.014   2.612
10401SOL    HW132102   0.260   0.100   2.595
10401SOL    HW232103   0.207   7.020   2.710
10402SOL     OW32104   0.161   2.758   5.690
10402SOL    HW132105   0.167   2.716   5.600
10402SOL    HW232106   0.228   2.832   5.698
10403SOL     OW32107   5.456   1.291   2.606
10403SOL    HW132108   5.427   1.332   2.693
10403SOL    HW232109   5.544   1.329   2.579
10404SOL     OW32110   0.395   6.659   4.119
10404SOL    HW132111   0.486   6.635   4.086
10404SOL    HW232112   0.347   6.713   4.049
10405SOL     OW32113   1.332   5.377   4.808
10405SOL    HW132114   1.425   5.413   4.797
10405SOL    HW232115   1.279   5.439   4.865
10406SOL     OW32116   1.992   3.277   5.197
10406SOL    HW132117   2.046   3.221   5.135
10406SOL    HW232118   1.992   3.235   5.288
10407SOL     OW32119   2.209   0.591   6.696
10407SOL    HW132120   2.304   0.617   6.715
10407SOL    HW232121   2.150   0.671   6.706
10408SOL     OW32122   3.385   6.187   1.735
10408SOL    HW132123   3.411   6.221   1.826
10408SOL    HW232124   3.438   6.235   1.666
10409SOL     OW32125   0.292   3.682   0.761
10409SOL    HW132126   0.385   3.693   0.794
10409SOL    HW232127   0.259   3.590   0.784
10410SOL     OW32128   5.429   1.857   1.174
10410SOL    HW132129   5.372   1.847   1.092
10410SOL    HW232130   5.441   1.768   1.218
10411SOL     OW32131   3.961   5.305   4.569
10411SOL    HW132132   3.993   5.399   4.567
10411SOL    HW232133   3.998   5.258   4.649
10412SOL     OW32134   0.302   1.084   0.646
10412SOL    HW132135   0.264   1.138   0.571
10412SOL    HW232136   0.247   1.001   0.659
10413SOL     OW32137   0.158   2.136   1.038
10413SOL    HW132138   0.129   2.082   0.959
10413SOL    HW232139   0.257   2.131   1.048
10414SOL     OW32140   4.094   6.456   5.990
10414SOL    HW132141   4.167   6.521   5.968
10414SOL    HW232142   4.134   6.373   6.029
10415SOL     OW32143   2.376   4.293   3.943
10415SOL    HW132144   2.389   4.264   3.848
10415SOL    HW232145   2.285   4.264   3.975
10416SOL     OW32146   6.009   0.675   5.193
10416SOL    HW132147   6.024   0.680   5.292
10416SOL    HW232148   5.957   0.755   5.163
10417SOL     OW32149   4.548   4.402   4.237
10417SOL    HW132150   4.485   4.479   4.237
10417SOL    HW232151   4.576   4.382   4.142
10418SOL     OW32152   6.242   3.928   5.660
10418SOL    HW132153   6.326   3.981   5.667
10418SOL    HW232154   6.163   3.989   5.676
10419SOL     OW32155   3.200   0.390   5.336
10419SOL    HW132156   3.119   0.435   5.299
10419SOL    HW232157   3.256   0.355   5.261
10420SOL     OW32158   6.696   3.426   3.642
10420SOL    HW132159   6.702   3.327   3.656
10420SOL    HW232160   6.643   3.445   3.560
10421SOL     OW32161   1.526   3.285   4.739
10421SOL    HW132162   1.565   3.353   4.801
10421SOL    HW232163   1.598   3.222   4.709
10422SOL     OW32164   6.707   3.498   5.522
10422SOL    HW132165   6.682   3.563   5.594
10422SOL    HW232166   6.770   3.430   5.560
10423SOL     OW32167   4.450   4.763   5.157
10423SOL    HW132168   4.356   4.732   5.171
10423SOL    HW232169   4.448   4.851   5.108
10424SOL     OW32170   3.982   2.469   0.273
10424SOL    HW132171   4.008   2.555   0.317
10424SOL    HW232172   3.918   2.488   0.198
10425SOL     OW32173   0.785   5.917   2.099
10425SOL    HW132174   0.754   5.834   2.146
10425SOL    HW232175   0.806   5.895   2.003
10426SOL     OW32176   5.536   3.707   5.656
10426SOL    HW132177   5.460   3.768   5.675
10426SOL    HW232178   5.561   3.657   5.739
10427SOL     OW32179   4.908   6.947   6.948
10427SOL    HW132180   5.001   6.974   6.924
10427SOL    HW232181   4.884   6.864   6.898
10428SOL     OW32182   2.494   1.863   4.459
10428SOL    HW132183   2.431   1.932   4.496
10428SOL    HW232184   2.588   1.898   4.463
10429SOL     OW32185   0.867   3.952   3.062
10429SOL    HW132186   0.915   4.040   3.058
10429SOL    HW232187   0.922   3.882   3.014
10430SOL     OW32188   4.056   6.497   4.782
10430SOL    HW132189   4.104   6.559   4.844
10430SOL    HW232190   4.112   6.478   4.702
10431SOL     OW32191   3.008   1.099   4.166
10431SOL    HW132192   3.099   1.086   4.126
10431SOL    HW232193   3.018   1.127   4.261
10432SOL     OW32194   0.421   1.895   5.608
10432SOL    HW132195   0.364   1.941   5.540
10432SOL    HW232196   0.369   1.819   5.648
10433SOL     OW32197   0.243   6.209   2.792
10433SOL    HW132198   0.186   6.252   2.722
10433SOL    HW232199   0.196   6.126   2.826
10434SOL     OW32200   4.599   6.305   4.667
10434SOL    HW132201   4.539   6.247   4.611
10434SOL    HW232202   4.681   6.329   4.614
10435SOL     OW32203   2.113   1.809   6.311
10435SOL    HW132204   2.210   1.831   6.312
10435SOL    HW232205   2.065   1.874   6.252
10436SOL     OW32206   6.262   3.927   3.963
10436SOL    HW132207   6.291   3.983   4.041
10436SOL    HW232208   6.162   3.927   3.958
10437SOL     OW32209   5.966   4.825   5.121
10437SOL    HW132210   6.034   4.885   5.079
10437SOL    HW232211   5.920   4.773   5.049
10438SOL     OW32212   0.339   6.036   5.881
10438SOL    HW132213   0.324   6.119   5.829
10438SOL    HW232214   0.265   5.972   5.866
10439SOL     OW32215   5.738   1.281   4.951
10439SOL    HW132216   5.697   1.251   4.864
10439SOL    HW232217   5.739   1.381   4.954
10440SOL     OW32218   6.945   6.827   6.958
10440SOL    HW132219   6.955   6.871   6.868
10440SOL    HW232220   6.852   6.838   6.991
10441SOL     OW32221   2.803   1.423   1.014
10441SOL    HW132222   2.718   1.424   1.068
10441SOL    HW232223   2.880   1.404   1.075
10442SOL     OW32224   4.224   0.056   5.159
10442SOL    HW132225   4.252   0.025   5.068
10442SOL    HW232226   4.190   7.001   5.211
10443SOL     OW32227   5.993   2.866   3.223
10443SOL    HW132228   5.901   2.871   3.185
10443SOL    HW232229   6.057   2.837   3.152
10444SOL     OW32230   3.524   5.365   2.375
10444SOL    HW132231   3.600   5.426   2.350
10444SOL    HW232232   3.561   5.279   2.408
10445SOL     OW32233   0.651   3.984   2.836
10445SOL    HW132234   0.638   3.917   2.763
10445SOL    HW232235   0.711   3.945   2.906
10446SOL     OW32236   1.930   3.751   6.481
10446SOL    HW132237   1.872   3.692   6.426
10446SOL    HW232238   1.929   3.719   6.576
10447SOL     OW32239   6.806   0.354   2.476
10447SOL    HW132240   6.880   0.409   2.514
10447SOL    HW232241   6.820   0.258   2.501
10448SOL     OW32242   3.353   0.245   2.446
10448SOL    HW132243   3.343   0.306   2.524
10448SOL    HW232244   3.313   0.156   2.467
10449SOL     OW32245   2.759   5.720   6.613
10449SOL    HW132246   2.746   5.730   6.515
10449SOL    HW232247   2.675   5.746   6.661
10450SOL     OW32248   6.803   1.411   6.576
10450SOL    HW132249   6.751   1.409   6.490
10450SOL    HW232250   6.743   1.440   6.650
10451SOL     OW32251   3.312   0.048   2.946
10451SOL    HW132252   3.408   0.076   2.953
10451SOL    HW232253   3.305   6.972   2.958
10452SOL     OW32254   6.731   3.231   2.634
10452SOL    HW132255   6.747   3.267   2.542
10452SOL    HW232256   6.681   3.298   2.688
10453SOL     OW32257   4.807   6.428   1.752
10453SOL    HW132258   4.768   6.477   1.674
10453SOL    HW232259   4.792   6.329   1.740
10454SOL     OW32260   5.128   1.311   0.777
10454SOL    HW132261   5.216   1.278   0.812
10454SOL    HW232262   5.066   1.327   0.854
10455SOL     OW32263   0.270   6.090   3.799
10455SOL    HW132264   0.231   5.998   3.792
10455SOL    HW232265   0.199   6.153   3.833
10456SOL     OW32266   0.656   5.804   1.028
10456SOL    HW132267   0.667   5.903   1.038
10456SOL    HW232268   0.672   5.760   1.116
10457SOL     OW32269   3.942   2.790   0.458
10457SOL    HW132270   3.969   2.788   0.554
10457SOL    HW232271   4.020   2.766   0.400
10458SOL     OW32272   6.273   7.017   6.665
10458SOL    HW132273   6.341   6.946   6.677
10458SOL    HW232274   6.225   7.003   6.578
10459SOL     OW32275   4.231   5.514   1.561
10459SOL    HW132276   4.253   5.511   1.463
10459SOL    HW232277   4.132   5.518   1.573
10460SOL     OW32278   1.072   4.009   2.144
10460SOL    HW132279   1.161   3.999   2.101
10460SOL    HW232280   1.066   3.950   2.224
10461SOL     OW32281   6.024   4.749   5.380
10461SOL    HW132282   6.026   4.792   5.289
10461SOL    HW232283   5.991   4.816   5.447
10462SOL     OW32284   5.919   2.497   3.074
10462SOL    HW132285   5.870   2.530   3.155
10462SOL    HW232286   5.901   2.558   2.997
10463SOL     OW32287   4.449   1.896   5.755
10463SOL    HW132288   4.381   1.959   5.793
10463SOL    HW232289   4.532   1.899   5.810
10464SOL     OW32290   5.879   6.395   1.849
10464SOL    HW132291   5.960   6.352   1.889
10464SOL    HW232292   5.874   6.490   1.881
10465SOL     OW32293   4.715   5.814   1.590
10465SOL    HW132294   4.728   5.836   1.687
10465SOL    HW232295   4.618   5.807   1.570
10466SOL     OW32296   4.955   4.822   5.463
10466SOL    HW132297   4.909   4.874   5.391
10466SOL    HW232298   5.044   4.862   5.481
10467SOL     OW32299   1.566   2.250   0.623
10467SOL    HW132300   1.551   2.338   0.667
10467SOL    HW232301   1.543   2.176   0.687
10468SOL     OW32302   3.978   4.782   3.878
10468SOL    HW132303   3.930   4.836   3.809
10468SOL    HW232304   4.022   4.704   3.835
10469SOL     OW32305   4.414   4.015   5.767
10469SOL    HW132306   4.380   4.044   5.856
10469SOL    HW232307   4.507   4.049   5.753
10470SOL     OW32308   2.311   1.235   3.292
10470SOL    HW132309   2.395   1.192   3.259
10470SOL    HW232310   2.306   1.329   3.259
10471SOL     OW32311   2.409   6.889   0.512
10471SOL    HW132312   2.459   6.876   0.426
10471SOL    HW232313   2.318   6.848   0.504
10472SOL     OW32314   2.832   5.694   0.424
10472SOL    HW132315   2.923   5.734   0.411
10472SOL    HW232316   2.769   5.764   0.457
10473SOL     OW32317   6.158   6.578   6.018
10473SOL    HW132318   6.209   6.557   5.934
10473SOL    HW232319   6.212   6.639   6.075
10474SOL     OW32320   4.429   0.988   4.187
10474SOL    HW132321   4.442   1.031   4.098
10474SOL    HW232322   4.374   0.906   4.176
10475SOL     OW32323   3.198   6.676   1.591
10475SOL    HW132324   3.289   6.680   1.550
10475SOL    HW232325   3.206   6.646   1.687
10476SOL     OW32326   5.484   6.392   5.877
10476SOL    HW132327   5.385   6.397   5.860
10476SOL    HW232328   5.505   6.440   5.962
10477SOL     OW32329   6.927   0.967   5.019
10477SOL    HW132330   0.003   0.968   5.002
10477SOL    HW232331   6.880   1.008   4.941
10478SOL     OW32332   6.559   6.703   0.081
10478SOL    HW132333   6.623   6.767   0.039
10478SOL    HW232334   6.549   6.723   0.178
10479SOL     OW32335   6.857   1.661   1.895
10479SOL    HW132336   6.870   1.582   1.955
10479SOL    HW232337   6.778   1.646   1.836
10480SOL     OW32338   0.809   1.146   1.997
10480SOL    HW132339   0.826   1.078   2.068
10480SOL    HW232340   0.745   1.215   2.032
10481SOL     OW32341   2.114   6.320   3.749
10481SOL    HW132342   2.035   6.380   3.764
10481SOL    HW232343   2.123   6.300   3.652
10482SOL     OW32344   6.368   5.200   4.588
10482SOL    HW132345   6.360   5.105   4.557
10482SOL    HW232346   6.447   5.208   4.649
10483SOL     OW32347   5.190   5.271   0.531
10483SOL    HW132348   5.159   5.254   0.437
10483SOL    HW232349   5.114   5.254   0.594
10484SOL     OW32350   4.887   1.475   2.044
10484SOL    HW132351   4.946   1.396   2.027
10484SOL    HW232352   4.938   1.542   2.098
10485SOL     OW32353   3.406   4.413   0.285
10485SOL    HW132354   3.386   4.476   0.210
10485SOL    HW232355   3.375   4.453   0.371
10486SOL     OW32356   0.315   0.517   0.383
10486SOL    HW132357   0.301   0.612   0.356
10486SOL    HW232358   0.324   0.512   0.482
10487SOL     OW32359   4.739   0.239   1.969
10487SOL    HW132360   4.767   0.143   1.966
10487SOL    HW232361   4.729   0.274   1.876
10488SOL     OW32362   3.454   1.762   5.332
10488SOL    HW132363   3.383   1.823   5.296
10488SOL    HW232364   3.465   1.778   5.430
10489SOL     OW32365   0.823   6.885   5.292
10489SOL    HW132366   0.877   6.921   5.368
10489SOL    HW232367   0.857   6.923   5.206
10490SOL     OW32368   5.894   1.717   0.870
10490SOL    HW132369   5.868   1.686   0.779
10490SOL    HW232370   5.936   1.807   0.864
10491SOL     OW32371   1.866   2.903   0.178
10491SOL    HW132372   1.784   2.931   0.229
10491SOL    HW232373   1.863   2.804   0.163
10492SOL     OW32374   5.929   3.913   5.660
10492SOL    HW132375   5.834   3.883   5.665
10492SOL    HW232376   5.980   3.853   5.599
10493SOL     OW32377   3.482   0.864   1.779
10493SOL    HW132378   3.384   0.877   1.793
10493SOL    HW232379   3.518   0.806   1.852
10494SOL     OW32380   5.441   3.904   6.050
10494SOL    HW132381   5.385   3.907   6.133
10494SOL    HW232382   5.462   3.997   6.020
10495SOL     OW32383   2.368   0.019   0.075
10495SOL    HW132384   2.402   7.023   7.005
10495SOL    HW232385   2.394   0.112   0.101
10496SOL     OW32386   0.032   4.674   6.734
10496SOL    HW132387   0.042   4.768   6.766
10496SOL    HW232388   6.965   4.639   6.762
10497SOL     OW32389   2.270   6.950   2.117
10497SOL    HW132390   2.261   6.862   2.164
10497SOL    HW232391   2.290   6.934   2.021
10498SOL     OW32392   3.175   5.527   1.233
10498SOL    HW132393   3.084   5.538   1.274
10498SOL    HW232394   3.203   5.613   1.191
10499SOL     OW32395   3.254   6.998   2.474
10499SOL    HW132396   3.182   6.989   2.405
10499SOL    HW232397   3.298   6.910   2.488
10500SOL     OW32398   6.956   1.581   6.022
10500SOL    HW132399   6.905   1.517   5.965
10500SOL    HW232400   6.988   1.657   5.966
10501SOL     OW32401   2.149   5.872   2.975
10501SOL    HW132402   2.200   5.793   3.010
10501SOL    HW232403   2.177   5.954   3.024
10502SOL     OW32404   2.668   0.224   0.684
10502SOL    HW132405   2.693   0.229   0.780
10502SOL    HW232406   2.751   0.214   0.628
10503SOL     OW32407   4.099   2.790   0.683
10503SOL    HW132408   4.049   2.799   0.770
10503SOL    HW232409   4.192   2.760   0.701
10504SOL     OW32410   1.834   1.484   0.022
10504SOL    HW132411   1.783   1.404   7.016
10504SOL    HW232412   1.799   1.565   6.999
10505SOL     OW32413   5.225   6.183   0.279
10505SOL    HW132414   5.251   6.188   0.376
10505SOL    HW232415   5.166   6.261   0.257
10506SOL     OW32416   6.957   5.274   0.449
10506SOL    HW132417   6.875   5.256   0.503
10506SOL    HW232418   6.950   5.364   0.406
10507SOL     OW32419   1.743   0.287   0.050
10507SOL    HW132420   1.693   0.221   0.107
10507SOL    HW232421   1.774   0.241   6.989
10508SOL     OW32422   6.312   6.816   4.831
10508SOL    HW132423   6.310   6.724   4.791
10508SOL    HW232424   6.406   6.841   4.852
10509SOL     OW32425   1.008   5.921   4.281
10509SOL    HW132426   1.060   5.907   4.365
10509SOL    HW232427   1.059   5.882   4.204
10510SOL     OW32428   4.626   6.027   6.234
10510SOL    HW132429   4.703   6.005   6.174
10510SOL    HW232430   4.643   5.988   6.324
10511SOL     OW32431   4.347   1.648   1.803
10511SOL    HW132432   4.366   1.713   1.876
10511SOL    HW232433   4.402   1.670   1.723
10512SOL     OW32434   4.167   0.213   5.462
10512SOL    HW132435   4.147   0.309   5.479
10512SOL    HW232436   4.084   0.158   5.472
10513SOL     OW32437   6.429   2.621   4.475
10513SOL    HW132438   6.385   2.705   4.505
10513SOL    HW232439   6.524   2.620   4.504
10514SOL     OW32440   6.686   3.772   0.294
10514SOL    HW132441   6.680   3.835   0.371
10514SOL    HW232442   6.717   3.683   0.326
10515SOL     OW32443   0.791   3.527   2.936
10515SOL    HW132444   0.825   3.448   2.987
10515SOL    HW232445   0.726   3.578   2.993
10516SOL     OW32446   3.908   1.013   0.658
10516SOL    HW132447   3.833   1.079   0.650
10516SOL    HW232448   3.882   0.940   0.721
10517SOL     OW32449   0.521   2.868   2.306
10517SOL    HW132450   0.540   2.779   2.266
10517SOL    HW232451   0.490   2.856   2.400
10518SOL     OW32452   0.940   5.442   6.518
10518SOL    HW132453   0.927   5.499   6.600
10518SOL    HW232454   0.987   5.495   6.448
10519SOL     OW32455   2.236   3.450   6.779
10519SOL    HW132456   2.237   3.506   6.696
10519SOL    HW232457   2.165   3.379   6.770
10520SOL     OW32458   1.055   2.843   6.588
10520SOL    HW132459   0.960   2.849   6.618
10520SOL    HW232460   1.076   2.749   6.562
10521SOL     OW32461   6.099   6.410   2.060
10521SOL    HW132462   6.032   6.355   2.109
10521SOL    HW232463   6.172   6.438   2.122
10522SOL     OW32464   6.712   0.628   6.017
10522SOL    HW132465   6.725   0.711   5.963
10522SOL    HW232466   6.738   0.645   6.112
10523SOL     OW32467   0.100   5.142   4.059
10523SOL    HW132468   0.094   5.191   3.972
10523SOL    HW232469   0.008   5.116   4.089
10524SOL     OW32470   2.008   0.511   4.786
10524SOL    HW132471   2.036   0.573   4.714
10524SOL    HW232472   1.920   0.542   4.824
10525SOL     OW32473   3.582   6.801   6.390
10525SOL    HW132474   3.564   6.896   6.364
10525SOL    HW232475   3.670   6.772   6.354
10526SOL     OW32476   1.056   6.785   3.682
10526SOL    HW132477   1.058   6.715   3.754
10526SOL    HW232478   0.999   6.862   3.713
10527SOL     OW32479   6.757   1.536   4.748
10527SOL    HW132480   6.726   1.631   4.745
10527SOL    HW232481   6.855   1.532   4.730
10528SOL     OW32482   2.004   3.546   6.047
10528SOL    HW132483   1.945   3.599   6.108
10528SOL    HW232484   2.080   3.603   6.017
10529SOL     OW32485   2.517   5.962   3.723
10529SOL    HW132486   2.441   5.943   3.784
10529SOL    HW232487   2.559   5.875   3.695
10530SOL     OW32488   2.215   0.448   6.328
10530SOL    HW132489   2.310   0.478   6.340
10530SOL    HW232490   2.210   0.377   6.259
10531SOL     OW32491   1.180   2.744   3.826
10531SOL    HW132492   1.211   2.810   3.757
10531SOL    HW232493   1.183   2.787   3.916
10532SOL     OW32494   1.468   4.745   5.976
10532SOL    HW132495   1.396   4.769   5.911
10532SOL    HW232496   1.453   4.653   6.011
10533SOL     OW32497   2.443   1.233   4.996
10533SOL    HW132498   2.418   1.318   5.043
10533SOL    HW232499   2.542   1.232   4.981
10534SOL     OW32500   6.260   5.630   1.465
10534SOL    HW132501   6.275   5.699   1.535
10534SOL    HW232502   6.311   5.653   1.383
10535SOL     OW32503   1.010   2.066   1.155
10535SOL    HW132504   1.074   2.139   1.181
10535SOL    HW232505   0.917   2.102   1.156
10536SOL     OW32506   3.913   0.463   3.124
10536SOL    HW132507   3.853   0.527   3.173
10536SOL    HW232508   3.983   0.515   3.074
10537SOL     OW32509   3.796   5.142   4.443
10537SOL    HW132510   3.861   5.187   4.504
10537SOL    HW232511   3.790   5.194   4.358
10538SOL     OW32512   5.003   1.700   0.014
10538SOL    HW132513   5.064   1.628   7.002
10538SOL    HW232514   4.908   1.669   0.009
10539SOL     OW32515   0.210   3.657   0.369
10539SOL    HW132516   0.282   3.627   0.305
10539SOL    HW232517   0.143   3.713   0.319
10540SOL     OW32518   1.274   2.748   5.056
10540SOL    HW132519   1.273   2.847   5.069
10540SOL    HW232520   1.211   2.724   4.983
10541SOL     OW32521   3.830   4.038   2.427
10541SOL    HW132522   3.747   4.005   2.472
10541SOL    HW232523   3.893   4.073   2.496
10542SOL     OW32524   6.774   0.309   5.543
10542SOL    HW132525   6.777   0.366   5.625
10542SOL    HW232526   6.680   0.308   5.507
10543SOL     OW32527   0.461   0.914   5.503
10543SOL    HW132528   0.497   1.004   5.479
10543SOL    HW232529   0.361   0.913   5.491
10544SOL     OW32530   2.025   6.499   2.049
10544SOL    HW132531   2.033   6.403   2.022
10544SOL    HW232532   1.953   6.543   1.996
10545SOL     OW32533   5.980   1.139   2.676
10545SOL    HW132534   5.941   1.060   2.629
10545SOL    HW232535   6.077   1.145   2.655
10546SOL     OW32536   1.624   0.825   6.942
10546SOL    HW132537   1.716   0.786   6.933
10546SOL    HW232538   1.560   0.753   6.973
10547SOL     OW32539   6.158   2.834   2.058
10547SOL    HW132540   6.246   2.829   2.011
10547SOL    HW232541   6.103   2.754   2.035
10548SOL     OW32542   5.324   4.556   4.618
10548SOL    HW132543   5.277   4.535   4.532
10548SOL    HW232544   5.260   4.600   4.681
10549SOL     OW32545   6.831   6.794   2.069
10549SOL    HW132546   6.757   6.861   2.077
10549SOL    HW232547   6.794   6.709   2.031
10550SOL     OW32548   4.255   6.015   4.206
10550SOL    HW132549   4.318   5.937   4.201
10550SOL    HW232550   4.266   6.062   4.293
10551SOL     OW32551   1.401   2.579   6.440
10551SOL    HW132552   1.395   2.530   6.353
10551SOL    HW232553   1.365   2.521   6.513
10552SOL     OW32554   3.255   1.399   6.550
10552SOL    HW132555   3.219   1.454   6.474
10552SOL    HW232556   3.204   1.314   6.557
10553SOL     OW32557   0.798   4.890   1.367
10553SOL    HW132558   0.862   4.963   1.342
10553SOL    HW232559   0.704   4.925   1.361
10554SOL     OW32560   5.546   5.268   0.172
10554SOL    HW132561   5.634   5.305   0.203
10554SOL    HW232562   5.531   5.178   0.214
10555SOL     OW32563   1.875   3.570   0.374
10555SOL    HW132564   1.852   3.473   0.384
10555SOL    HW232565   1.812   3.612   0.308
10556SOL     OW32566   2.314   2.114   5.236
10556SOL    HW132567   2.277   2.021   5.246
10556SOL    HW232568   2.245   2.180   5.266
10557SOL     OW32569   2.559   2.365   3.101
10557SOL    HW132570   2.538   2.420   3.183
10557SOL    HW232571   2.502   2.283   3.101
10558SOL     OW32572   3.977   0.916   3.664
10558SOL    HW132573   3.993   0.874   3.753
10558SOL    HW232574   3.935   1.006   3.677
10559SOL     OW32575   5.039   0.305   1.093
10559SOL    HW132576   5.121   0.268   1.050
10559SOL    HW232577   5.057   0.324   1.190
10560SOL     OW32578   3.598   6.085   3.550
10560SOL    HW132579   3.637   6.139   3.475
10560SOL    HW232580   3.622   6.127   3.637
10561SOL     OW32581   3.268   4.480   0.528
10561SOL    HW132582   3.340   4.420   0.563
10561SOL    HW232583   3.282   4.573   0.562
10562SOL     OW32584   4.582   5.764   0.315
10562SOL    HW132585   4.577   5.821   0.233
10562SOL    HW232586   4.581   5.667   0.288
10563SOL     OW32587   0.727   1.417   3.496
10563SOL    HW132588   0.657   1.394   3.564
10563SOL    HW232589   0.803   1.463   3.541
10564SOL     OW32590   5.604   6.398   1.778
10564SOL    HW132591   5.624   6.406   1.680
10564SOL    HW232592   5.622   6.305   1.809
10565SOL     OW32593   6.800   0.688   6.276
10565SOL    HW132594   6.817   0.747   6.355
10565SOL    HW232595   6.796   0.593   6.306
10566SOL     OW32596   3.800   2.536   0.087
10566SOL    HW132597   3.801   2.610   0.019
10566SOL    HW232598   3.716   2.542   0.142
10567SOL     OW32599   3.016   1.943   4.304
10567SOL    HW132600   3.004   2.004   4.382
10567SOL    HW232601   3.074   1.987   4.235
10568SOL     OW32602   6.225   2.313   1.193
10568SOL    HW132603   6.274   2.227   1.208
10568SOL    HW232604   6.259   2.358   1.111
10569SOL     OW32605   5.426   2.175   2.084
10569SOL    HW132606   5.509   2.136   2.123
10569SOL    HW232607   5.350   2.162   2.148
10570SOL     OW32608   1.822   5.021   3.253
10570SOL    HW132609   1.762   5.087   3.209
10570SOL    HW232610   1.771   4.938   3.274
10571SOL     OW32611   6.980   5.371   5.445
10571SOL    HW132612   7.005   5.283   5.403
10571SOL    HW232613   6.948   5.434   5.375
10572SOL     OW32614   0.137   3.632   3.589
10572SOL    HW132615   0.044   3.602   3.566
10572SOL    HW232616   0.133   3.724   3.628
10573SOL     OW32617   4.672   6.991   5.216
10573SOL    HW132618   4.624   0.043   5.262
10573SOL    HW232619   4.620   6.906   5.226
10574SOL     OW32620   1.544   1.462   3.845
10574SOL    HW132621   1.559   1.363   3.841
10574SOL    HW232622   1.627   1.507   3.877
10575SOL     OW32623   6.831   1.391   2.904
10575SOL    HW132624   6.753   1.441   2.941
10575SOL    HW232625   6.799   1.304   2.865
10576SOL     OW32626   0.202   6.006   5.034
10576SOL    HW132627   0.291   5.966   5.055
10576SOL    HW232628   0.143   6.001   5.114
10577SOL     OW32629   1.718   2.818   0.560
10577SOL    HW132630   1.644   2.854   0.503
10577SOL    HW232631   1.805   2.858   0.530
10578SOL     OW32632   5.647   1.082   2.844
10578SOL    HW132633   5.667   1.180   2.855
10578SOL    HW232634   5.674   1.052   2.753
10579SOL     OW32635   4.364   2.097   1.197
10579SOL    HW132636   4.431   2.028   1.167
10579SOL    HW232637   4.306   2.122   1.119
10580SOL     OW32638   6.885   0.410   0.164
10580SOL    HW132639   6.956   0.476   0.139
10580SOL    HW232640   6.851   0.365   0.081
10581SOL     OW32641   0.035   0.272   3.094
10581SOL    HW132642   0.013   0.191   3.040
10581SOL    HW232643   6.974   0.308   3.136
10582SOL     OW32644   5.125   4.962   6.950
10582SOL    HW132645   5.144   4.870   6.917
10582SOL    HW232646   5.099   5.021   6.874
10583SOL     OW32647   4.098   1.578   5.094
10583SOL    HW132648   4.159   1.500   5.105
10583SOL    HW232649   4.124   1.651   5.157
10584SOL     OW32650   6.859   6.321   1.461
10584SOL    HW132651   6.769   6.314   1.504
10584SOL    HW232652   6.852   6.297   1.364
10585SOL     OW32653   2.115   2.971   5.898
10585SOL    HW132654   2.051   2.923   5.957
10585SOL    HW232655   2.177   3.027   5.954
10586SOL     OW32656   0.176   4.768   4.863
10586SOL    HW132657   0.170   4.764   4.764
10586SOL    HW232658   0.157   4.861   4.895
10587SOL     OW32659   6.063   3.988   6.862
10587SOL    HW132660   6.116   3.909   6.895
10587SOL    HW232661   5.967   3.977   6.887
10588SOL     OW32662   0.248   3.746   3.152
10588SOL    HW132663   0.303   3.705   3.080
10588SOL    HW232664   0.243   3.683   3.230
10589SOL     OW32665   6.010   1.026   4.456
10589SOL    HW132666   6.000   0.936   4.497
10589SOL    HW232667   6.042   1.091   4.525
10590SOL     OW32668   1.364   0.133   1.819
10590SOL    HW132669   1.275   0.129   1.863
10590SOL    HW232670   1.381   0.226   1.785
10591SOL     OW32671   1.034   1.795   6.613
10591SOL    HW132672   0.961   1.790   6.682
10591SOL    HW232673   1.099   1.867   6.639
10592SOL     OW32674   5.980   3.520   1.381
10592SOL    HW132675   5.999   3.427   1.411
10592SOL    HW232676   5.884   3.527   1.354
10593SOL     OW32677   2.356   5.069   0.370
10593SOL    HW132678   2.337   5.117   0.284
10593SOL    HW232679   2.338   5.130   0.447
10594SOL     OW32680   5.093   0.194   2.514
10594SOL    HW132681   5.038   0.150   2.585
10594SOL    HW232682   5.181   0.148   2.507
10595SOL     OW32683   3.515   6.916   5.408
10595SOL    HW132684   3.499   6.818   5.395
10595SOL    HW232685   3.533   6.959   5.319
10596SOL     OW32686   4.421   0.619   0.084
10596SOL    HW132687   4.396   0.544   0.024
10596SOL    HW232688   4.368   0.614   0.168
10597SOL     OW32689   3.742   1.415   4.842
10597SOL    HW132690   3.825   1.397   4.789
10597SOL    HW232691   3.663   1.411   4.782
10598SOL     OW32692   2.782   2.467   0.260
10598SOL    HW132693   2.859   2.442   0.201
10598SOL    HW232694   2.763   2.392   0.324
10599SOL     OW32695   4.693   2.695   6.632
10599SOL    HW132696   4.776   2.749   6.613
10599SOL    HW232697   4.628   2.751   6.682
10600SOL     OW32698   2.129   2.482   0.615
10600SOL    HW132699   2.082   2.528   0.691
10600SOL    HW232700   2.075   2.494   0.532
10601SOL     OW32701   1.614   4.234   6.204
10601SOL    HW132702   1.714   4.240   6.210
10601SOL    HW232703   1.575   4.243   6.295
10602SOL     OW32704   4.464   1.619   3.426
10602SOL    HW132705   4.483   1.615   3.524
10602SOL    HW232706   4.526   1.557   3.377
10603SOL     OW32707   2.742   5.717   3.875
10603SOL    HW132708   2.822   5.691   3.820
10603SOL    HW232709   2.766   5.797   3.931
10604SOL     OW32710   6.103   4.028   5.312
10604SOL    HW132711   6.004   4.041   5.307
10604SOL    HW232712   6.123   3.934   5.340
10605SOL     OW32713   2.089   5.230   1.261
10605SOL    HW132714   1.989   5.242   1.265
10605SOL    HW232715   2.132   5.319   1.246
10606SOL     OW32716   6.979   0.260   1.951
10606SOL    HW132717   6.881   0.245   1.937
10606SOL    HW232718   6.995   0.292   2.044
10607SOL     OW32719   4.160   4.690   6.057
10607SOL    HW132720   4.140   4.705   5.961
10607SOL    HW232721   4.107   4.754   6.113
10608SOL     OW32722   5.245   2.402   5.382
10608SOL    HW132723   5.180   2.458   5.432
10608SOL    HW232724   5.338   2.436   5.398
10609SOL     OW32725   3.012   6.511   1.220
10609SOL    HW132726   3.050   6.603   1.211
10609SOL    HW232727   2.932   6.514   1.281
10610SOL     OW32728   1.254   2.901   5.735
10610SOL    HW132729   1.321   2.946   5.676
10610SOL    HW232730   1.216   2.968   5.800
10611SOL     OW32731   4.211   3.858   5.488
10611SOL    HW132732   4.166   3.941   5.522
10611SOL    HW232733   4.310   3.873   5.486
10612SOL     OW32734   2.808   0.643   5.464
10612SOL    HW132735   2.782   0.549   5.486
10612SOL    HW232736   2.739   0.705   5.500
10613SOL     OW32737   6.367   6.783   5.701
10613SOL    HW132738   6.287   6.815   5.650
10613SOL    HW232739   6.440   6.760   5.637
10614SOL     OW32740   6.413   2.226   4.428
10614SOL    HW132741   6.489   2.270   4.380
10614SOL    HW232742   6.444   2.141   4.470
10615SOL     OW32743   3.204   6.110   5.822
10615SOL    HW132744   3.219   6.113   5.921
10615SOL    HW232745   3.107   6.100   5.803
10616SOL     OW32746   2.509   6.348   0.668
10616SOL    HW132747   2.598   6.357   0.712
10616SOL    HW232748   2.519   6.299   0.581
10617SOL     OW32749   2.548   2.458   1.064
10617SOL    HW132750   2.606   2.410   0.999
10617SOL    HW232751   2.568   2.556   1.061
10618SOL     OW32752   7.021   3.767   6.506
10618SOL    HW132753   6.975   3.837   6.451
10618SOL    HW232754   6.953   3.716   6.559
10619SOL     OW32755   0.191   4.304   2.243
10619SOL    HW132756   0.249   4.235   2.286
10619SOL    HW232757   0.116   4.327   2.305
10620SOL     OW32758   1.526   5.448   5.567
10620SOL    HW132759   1.587   5.398   5.506
10620SOL    HW232760   1.534   5.546   5.549
10621SOL     OW32761   1.394   6.242   1.712
10621SOL    HW132762   1.493   6.231   1.706
10621SOL    HW232763   1.364   6.314   1.649
10622SOL     OW32764   4.785   0.998   1.320
10622SOL    HW132765   4.860   1.035   1.374
10622SOL    HW232766   4.698   1.026   1.361
10623SOL     OW32767   0.008   4.594   4.346
10623SOL    HW132768   0.072   4.576   4.272
10623SOL    HW232769   6.949   4.537   4.334
10624SOL     OW32770   0.472   1.948   4.869
10624SOL    HW132771   0.534   2.027   4.865
10624SOL    HW232772   0.505   1.877   4.808
10625SOL     OW32773   0.533   3.913   0.042
10625SOL    HW132774   0.622   3.928   0.085
10625SOL    HW232775   0.527   3.967   6.981
10626SOL     OW32776   2.494   3.366   0.764
10626SOL    HW132777   2.418   3.329   0.818
10626SOL    HW232778   2.574   3.308   0.776
10627SOL     OW32779   5.590   6.455   0.762
10627SOL    HW132780   5.659   6.433   0.693
10627SOL    HW232781   5.572   6.553   0.760
10628SOL     OW32782   4.550   5.550   0.135
10628SOL    HW132783   4.592   5.566   0.046
10628SOL    HW232784   4.456   5.520   0.122
10629SOL     OW32785   2.830   4.889   4.967
10629SOL    HW132786   2.838   4.796   5.001
10629SOL    HW232787   2.759   4.937   5.020
10630SOL     OW32788   6.625   1.398   3.996
10630SOL    HW132789   6.561   1.451   4.052
10630SOL    HW232790   6.681   1.341   4.056
10631SOL     OW32791   2.198   5.469   4.803
10631SOL    HW132792   2.126   5.464   4.734
10631SOL    HW232793   2.160   5.501   4.889
10632SOL     OW32794   5.959   1.809   3.777
10632SOL    HW132795   5.941   1.714   3.752
10632SOL    HW232796   5.872   1.859   3.784
10633SOL     OW32797   2.682   3.611   1.642
10633SOL    HW132798   2.695   3.520   1.681
10633SOL    HW232799   2.586   3.637   1.649
10634SOL     OW32800   3.063   5.348   1.060
10634SOL    HW132801   3.129   5.412   1.101
10634SOL    HW232802   2.990   5.330   1.126
10635SOL     OW32803   3.600   1.470   1.103
10635SOL    HW132804   3.574   1.382   1.064
10635SOL    HW232805   3.564   1.544   1.046
10636SOL     OW32806   0.877   1.115   1.507
10636SOL    HW132807   0.934   1.149   1.432
10636SOL    HW232808   0.894   1.169   1.589
10637SOL     OW32809   2.843   4.651   5.657
10637SOL    HW132810   2.896   4.588   5.714
10637SOL    HW232811   2.828   4.610   5.567
10638SOL     OW32812   0.044   5.533   2.951
10638SOL    HW132813   7.020   5.601   3.007
10638SOL    HW232814   0.045   5.563   2.856
10639SOL     OW32815   0.988   3.477   2.771
10639SOL    HW132816   0.966   3.384   2.743
10639SOL    HW232817   0.911   3.516   2.821
10640SOL     OW32818   3.626   0.350   5.731
10640SOL    HW132819   3.674   0.438   5.741
10640SOL    HW232820   3.641   0.295   5.813
10641SOL     OW32821   3.721   2.293   0.451
10641SOL    HW132822   3.716   2.289   0.352
10641SOL    HW232823   3.633   2.264   0.490
10642SOL     OW32824   6.375   3.145   1.883
10642SOL    HW132825   6.383   3.168   1.786
10642SOL    HW232826   6.445   3.195   1.935
10643SOL     OW32827   2.302   5.110   5.245
10643SOL    HW132828   2.323   5.181   5.178
10643SOL    HW232829   2.303   5.150   5.337
10644SOL     OW32830   5.479   2.567   3.233
10644SOL    HW132831   5.539   2.558   3.313
10644SOL    HW232832   5.413   2.640   3.250
10645SOL     OW32833   0.885   1.427   5.091
10645SOL    HW132834   0.803   1.467   5.048
10645SOL    HW232835   0.878   1.328   5.089
10646SOL     OW32836   0.333   1.307   6.234
10646SOL    HW132837   0.260   1.374   6.223
10646SOL    HW232838   0.400   1.341   6.299
10647SOL     OW32839   3.485   5.574   6.886
10647SOL    HW132840   3.449   5.500   6.943
10647SOL    HW232841   3.502   5.541   6.794
10648SOL     OW32842   5.158   4.176   6.078
10648SOL    HW132843   5.240   4.177   6.021
10648SOL    HW232844   5.077   4.174   6.020
10649SOL     OW32845   0.609   4.278   3.256
10649SOL    HW132846   0.663   4.351   3.298
10649SOL    HW232847   0.550   4.317   3.185
10650SOL     OW32848   1.235   6.049   3.384
10650SOL    HW132849   1.154   6.022   3.436
10650SOL    HW232850   1.261   6.142   3.409
10651SOL     OW32851   4.858   6.976   6.206
10651SOL    HW132852   4.808   6.899   6.244
10651SOL    HW232853   4.898   6.951   6.117
10652SOL     OW32854   3.834   0.071   6.301
10652SOL    HW132855   3.901   0.002   6.275
10652SOL    HW232856   3.847   0.096   6.397
10653SOL     OW32857   5.620   3.811   4.308
10653SOL    HW132858   5.536   3.801   4.360
10653SOL    HW232859   5.603   3.866   4.226
10654SOL     OW32860   3.923   1.461   0.868
10654SOL    HW132861   3.960   1.385   0.922
10654SOL    HW232862   3.960   1.547   0.902
10655SOL     OW32863   2.706   5.570   1.388
10655SOL    HW132864   2.642   5.615   1.450
10655SOL    HW232865   2.800   5.594   1.414
10656SOL     OW32866   6.509   2.480   1.342
10656SOL    HW132867   6.480   2.505   1.434
10656SOL    HW232868   6.606   2.503   1.331
10657SOL     OW32869   6.623   0.322   6.538
10657SOL    HW132870   6.635   0.354   6.632
10657SOL    HW232871   6.682   0.375   6.477
10658SOL     OW32872   6.225   3.733   4.693
10658SOL    HW132873   6.274   3.674   4.757
10658SOL    HW232874   6.161   3.791   4.742
10659SOL     OW32875   0.064   5.871   0.893
10659SOL    HW132876   7.008   5.871   0.954
10659SOL    HW232877   0.064   5.956   0.839
10660SOL     OW32878   5.520   4.392   6.716
10660SOL    HW132879   5.509   4.436   6.627
10660SOL    HW232880   5.613   4.356   6.724
10661SOL     OW32881   0.247   6.430   2.944
10661SOL    HW132882   0.310   6.412   3.020
10661SOL    HW232883   0.258   6.360   2.874
10662SOL     OW32884   5.560   0.701   2.214
10662SOL    HW132885   5.651   0.660   2.203
10662SOL    HW232886   5.546   0.725   2.310
10663SOL     OW32887   0.700   0.575   2.144
10663SOL    HW132888   0.722   0.660   2.193
10663SOL    HW232889   0.706   0.591   2.046
10664SOL     OW32890   1.651   4.812   4.627
10664SOL    HW132891   1.656   4.912   4.635
10664SOL    HW232892   1.562   4.781   4.661
10665SOL     OW32893   0.704   0.853   0.835
10665SOL    HW132894   0.637   0.920   0.802
10665SOL    HW232895   0.684   0.764   0.794
10666SOL     OW32896   3.129   4.234   0.556
10666SOL    HW132897   3.162   4.328   0.563
10666SOL    HW232898   3.031   4.232   0.574
10667SOL     OW32899   4.144   3.195   5.299
10667SOL    HW132900   4.131   3.177   5.396
10667SOL    HW232901   4.092   3.128   5.245
10668SOL     OW32902   1.448   1.886   5.312
10668SOL    HW132903   1.542   1.876   5.344
10668SOL    HW232904   1.439   1.847   5.220
10669SOL     OW32905   6.057   6.749   0.940
10669SOL    HW132906   6.067   6.844   0.973
10669SOL    HW232907   6.024   6.692   1.015
10670SOL     OW32908   4.808   3.899   5.247
10670SOL    HW132909   4.719   3.872   5.212
10670SOL    HW232910   4.878   3.836   5.213
10671SOL     OW32911   2.554   2.064   2.521
10671SOL    HW132912   2.588   2.004   2.594
10671SOL    HW232913   2.630   2.095   2.465
10672SOL     OW32914   6.766   2.131   0.597
10672SOL    HW132915   6.774   2.204   0.529
10672SOL    HW232916   6.798   2.164   0.685
10673SOL     OW32917   1.332   1.809   0.066
10673SOL    HW132918   1.246   1.785   0.112
10673SOL    HW232919   1.394   1.730   0.070
10674SOL     OW32920   3.151   4.060   1.115
10674SOL    HW132921   3.092   3.983   1.094
10674SOL    HW232922   3.101   4.127   1.170
10675SOL     OW32923   1.881   0.697   5.721
10675SOL    HW132924   1.806   0.646   5.763
10675SOL    HW232925   1.935   0.636   5.664
10676SOL     OW32926   6.203   6.231   6.058
10676SOL    HW132927   6.212   6.291   6.138
10676SOL    HW232928   6.276   6.252   5.993
10677SOL     OW32929   1.088   0.351   1.824
10677SOL    HW132930   1.091   0.277   1.890
10677SOL    HW232931   1.061   0.436   1.870
10678SOL     OW32932   3.723   5.468   2.091
10678SOL    HW132933   3.778   5.491   2.171
10678SOL    HW232934   3.770   5.500   2.008
10679SOL     OW32935   5.185   4.421   5.621
10679SOL    HW132936   5.127   4.373   5.556
10679SOL    HW232937   5.186   4.519   5.600
10680SOL     OW32938   2.516   1.800   4.122
10680SOL    HW132939   2.525   1.824   4.219
10680SOL    HW232940   2.446   1.730   4.111
10681SOL     OW32941   0.223   4.145   6.898
10681SOL    HW132942   0.245   4.116   6.805
10681SOL    HW232943   0.134   4.191   6.898
10682SOL     OW32944   2.116   2.298   3.321
10682SOL    HW132945   2.134   2.209   3.280
10682SOL    HW232946   2.182   2.315   3.395
10683SOL     OW32947   3.974   1.806   3.764
10683SOL    HW132948   4.024   1.806   3.677
10683SOL    HW232949   3.921   1.890   3.772
10684SOL     OW32950   4.671   3.669   0.742
10684SOL    HW132951   4.715   3.756   0.717
10684SOL    HW232952   4.654   3.616   0.659
10685SOL     OW32953   6.120   4.415   2.376
10685SOL    HW132954   6.058   4.476   2.326
10685SOL    HW232955   6.074   4.381   2.458
10686SOL     OW32956   3.542   5.466   6.634
10686SOL    HW132957   3.472   5.429   6.574
10686SOL    HW232958   3.629   5.470   6.585
10687SOL     OW32959   0.101   5.115   1.848
10687SOL    HW132960   0.087   5.046   1.918
10687SOL    HW232961   0.013   5.141   1.808
10688SOL     OW32962   6.580   4.908   3.017
10688SOL    HW132963   6.655   4.953   3.065
10688SOL    HW232964   6.618   4.846   2.948
10689SOL     OW32965   0.701   0.099   4.040
10689SOL    HW132966   0.790   0.055   4.049
10689SOL    HW232967   0.698   0.181   4.098
10690SOL     OW32968   6.322   5.232   4.106
10690SOL    HW132969   6.273   5.315   4.079
10690SOL    HW232970   6.260   5.170   4.154
10691SOL     OW32971   6.990   1.549   2.352
10691SOL    HW132972   6.939   1.500   2.282
10691SOL    HW232973   0.041   1.602   2.309
10692SOL     OW32974   3.575   4.942   3.461
10692SOL    HW132975   3.497   4.888   3.429
10692SOL    HW232976   3.650   4.934   3.395
10693SOL     OW32977   1.688   0.508   1.847
10693SOL    HW132978   1.727   0.556   1.925
10693SOL    HW232979   1.733   0.420   1.836
10694SOL     OW32980   3.548   6.358   1.612
10694SOL    HW132981   3.542   6.369   1.712
10694SOL    HW232982   3.617   6.420   1.575
10695SOL     OW32983   6.127   2.262   2.674
10695SOL    HW132984   6.168   2.171   2.663
10695SOL    HW232985   6.056   2.258   2.744
10696SOL     OW32986   6.712   4.768   2.342
10696SOL    HW132987   6.701   4.853   2.393
10696SOL    HW232988   6.726   4.789   2.245
10697SOL     OW32989   0.069   6.190   4.301
10697SOL    HW132990   0.146   6.172   4.363
10697SOL    HW232991   7.015   6.131   4.325
10698SOL     OW32992   3.843   6.476   3.842
10698SOL    HW132993   3.823   6.426   3.926
10698SOL    HW232994   3.890   6.561   3.864
10699SOL     OW32995   4.629   1.778   2.336
10699SOL    HW132996   4.695   1.830   2.282
10699SOL    HW232997   4.662   1.684   2.348
10700SOL     OW32998   1.143   0.080   0.248
10700SOL    HW132999   1.216   0.148   0.246
10700SOL    HW233000   1.167   0.003   0.189
10701SOL     OW33001   3.710   6.016   0.140
10701SOL    HW133002   3.652   5.959   0.197
10701SOL    HW233003   3.752   6.087   0.197
10702SOL     OW33004   6.704   2.622   2.854
10702SOL    HW133005   6.759   2.540   2.871
10702SOL    HW233006   6.639   2.635   2.929
10703SOL     OW33007   4.060   3.280   4.187
10703SOL    HW133008   4.012   3.237   4.263
10703SOL    HW233009   4.134   3.338   4.222
10704SOL     OW33010   5.627   5.659   1.716
10704SOL    HW133011   5.688   5.660   1.795
10704SOL    HW233012   5.573   5.743   1.714
10705SOL     OW33013   0.311   3.488   1.160
10705SOL    HW133014   0.246   3.540   1.215
10705SOL    HW233015   0.398   3.536   1.156
10706SOL     OW33016   4.738   6.451   2.046
10706SOL    HW133017   4.749   6.431   1.949
10706SOL    HW233018   4.668   6.391   2.084
10707SOL     OW33019   0.572   0.570   4.987
10707SOL    HW133020   0.508   0.627   5.039
10707SOL    HW233021   0.579   0.481   5.031
10708SOL     OW33022   4.656   0.502   2.054
10708SOL    HW133023   4.735   0.526   2.110
10708SOL    HW233024   4.648   0.403   2.048
10709SOL     OW33025   6.576   1.460   5.000
10709SOL    HW133026   6.590   1.529   4.929
10709SOL    HW233027   6.588   1.369   4.960
10710SOL     OW33028   1.018   6.483   5.022
10710SOL    HW133029   1.097   6.525   4.977
10710SOL    HW233030   1.034   6.479   5.121
10711SOL     OW33031   2.592   0.056   3.747
10711SOL    HW133032   2.688   0.074   3.769
10711SOL    HW233033   2.579   6.981   3.734
10712SOL     OW33034   3.743   0.648   2.678
10712SOL    HW133035   3.655   0.676   2.715
10712SOL    HW233036   3.798   0.729   2.657
10713SOL     OW33037   1.846   4.664   2.037
10713SOL    HW133038   1.781   4.732   2.071
10713SOL    HW233039   1.798   4.595   1.983
10714SOL     OW33040   6.693   2.605   5.276
10714SOL    HW133041   6.603   2.572   5.248
10714SOL    HW233042   6.712   2.692   5.231
10715SOL     OW33043   4.448   0.826   2.922
10715SOL    HW133044   4.506   0.908   2.925
10715SOL    HW233045   4.466   0.771   3.003
10716SOL     OW33046   0.181   2.762   3.360
10716SOL    HW133047   0.225   2.681   3.321
10716SOL    HW233048   0.085   2.764   3.333
10717SOL     OW33049   0.965   2.339   0.987
10717SOL    HW133050   0.891   2.295   1.037
10717SOL    HW233051   1.051   2.291   1.004
10718SOL     OW33052   6.172   4.918   0.215
10718SOL    HW133053   6.264   4.949   0.239
10718SOL    HW233054   6.138   4.855   0.286
10719SOL     OW33055   4.377   5.827   1.664
10719SOL    HW133056   4.334   5.741   1.637
10719SOL    HW233057   4.322   5.904   1.632
10720SOL     OW33058   0.188   4.206   6.258
10720SOL    HW133059   0.276   4.169   6.286
10720SOL    HW233060   0.122   4.195   6.333
10721SOL     OW33061   6.685   2.322   4.245
10721SOL    HW133062   6.702   2.267   4.163
10721SOL    HW233063   6.631   2.403   4.220
10722SOL     OW33064   6.933   2.939   0.432
10722SOL    HW133065   6.853   2.998   0.420
10722SOL    HW233066   6.989   2.973   0.507
10723SOL     OW33067   5.670   3.842   6.524
10723SOL    HW133068   5.589   3.844   6.583
10723SOL    HW233069   5.713   3.933   6.523
10724SOL     OW33070   3.372   0.272   5.814
10724SOL    HW133071   3.450   0.303   5.760
10724SOL    HW233072   3.338   0.186   5.777
10725SOL     OW33073   6.877   4.986   4.148
10725SOL    HW133074   6.836   4.895   4.133
10725SOL    HW233075   6.805   5.052   4.167
10726SOL     OW33076   5.795   6.943   5.300
10726SOL    HW133077   5.757   6.952   5.208
10726SOL    HW233078   5.834   0.007   5.329
10727SOL     OW33079   1.869   5.127   5.362
10727SOL    HW133080   1.937   5.118   5.289
10727SOL    HW233081   1.831   5.037   5.383
10728SOL     OW33082   6.236   6.513   2.304
10728SOL    HW133083   6.252   6.558   2.392
10728SOL    HW233084   6.182   6.430   2.318
10729SOL     OW33085   6.430   1.504   2.770
10729SOL    HW133086   6.466   1.551   2.689
10729SOL    HW233087   6.332   1.523   2.779
10730SOL     OW33088   2.620   6.397   1.484
10730SOL    HW133089   2.657   6.383   1.576
10730SOL    HW233090   2.672   6.342   1.418
10731SOL     OW33091   2.507   5.597   0.484
10731SOL    HW133092   2.600   5.569   0.508
10731SOL    HW233093   2.510   5.661   0.407
10732SOL     OW33094   6.469   0.199   2.860
10732SOL    HW133095   6.428   0.251   2.934
10732SOL    HW233096   6.436   0.233   2.772
10733SOL     OW33097   5.543   2.076   0.260
10733SOL    HW133098   5.455   2.111   0.226
10733SOL    HW233099   5.608   2.072   0.184
10734SOL     OW33100   1.200   0.934   6.880
10734SOL    HW133101   1.114   0.885   6.901
10734SOL    HW233102   1.264   0.871   6.837
10735SOL     OW33103   1.036   4.928   2.278
10735SOL    HW133104   1.061   4.987   2.355
10735SOL    HW233105   1.119   4.892   2.236
10736SOL     OW33106   0.477   1.137   3.310
10736SOL    HW133107   0.566   1.181   3.319
10736SOL    HW233108   0.487   1.054   3.255
10737SOL     OW33109   0.702   2.446   0.748
10737SOL    HW133110   0.684   2.505   0.827
10737SOL    HW233111   0.785   2.394   0.764
10738SOL     OW33112   2.494   0.032   2.800
10738SOL    HW133113   2.541   6.966   2.792
10738SOL    HW233114   2.482   0.055   2.896
10739SOL     OW33115   6.921   1.663   2.686
10739SOL    HW133116   6.978   1.729   2.637
10739SOL    HW233117   6.951   1.570   2.665
10740SOL     OW33118   1.407   5.731   5.791
10740SOL    HW133119   1.349   5.780   5.855
10740SOL    HW233120   1.452   5.655   5.837
10741SOL     OW33121   1.091   1.355   3.320
10741SOL    HW133122   1.131   1.445   3.300
10741SOL    HW233123   1.156   1.302   3.375
10742SOL     OW33124   6.096   6.806   2.088
10742SOL    HW133125   6.107   6.900   2.120
10742SOL    HW233126   6.180   6.776   2.043
10743SOL     OW33127   2.962   2.233   3.867
10743SOL    HW133128   3.044   2.205   3.816
10743SOL    HW233129   2.893   2.267   3.802
10744SOL     OW33130   3.105   1.605   2.528
10744SOL    HW133131   3.038   1.532   2.512
10744SOL    HW233132   3.197   1.568   2.522
10745SOL     OW33133   1.922   4.590   0.204
10745SOL    HW133134   1.988   4.650   0.250
10745SOL    HW233135   1.957   4.497   0.204
10746SOL     OW33136   1.756   5.897   1.460
10746SOL    HW133137   1.683   5.920   1.395
10746SOL    HW233138   1.796   5.809   1.436
10747SOL     OW33139   5.355   1.474   3.089
10747SOL    HW133140   5.430   1.530   3.125
10747SOL    HW233141   5.372   1.378   3.111
10748SOL     OW33142   5.679   5.827   0.903
10748SOL    HW133143   5.604   5.850   0.841
10748SOL    HW233144   5.702   5.730   0.893
10749SOL     OW33145   0.165   5.076   2.940
10749SOL    HW133146   0.097   5.116   2.878
10749SOL    HW233147   0.134   4.987   2.971
10750SOL     OW33148   4.748   4.280   4.706
10750SOL    HW133149   4.846   4.267   4.723
10750SOL    HW233150   4.723   4.373   4.729
10751SOL     OW33151   1.206   3.279   5.009
10751SOL    HW133152   1.306   3.287   5.014
10751SOL    HW233153   1.166   3.317   5.092
10752SOL     OW33154   6.344   4.094   6.407
10752SOL    HW133155   6.253   4.111   6.446
10752SOL    HW233156   6.404   4.171   6.427
10753SOL     OW33157   6.239   0.130   3.664
10753SOL    HW133158   6.299   0.204   3.694
10753SOL    HW233159   6.294   0.051   3.639
10754SOL     OW33160   1.731   2.415   2.262
10754SOL    HW133161   1.698   2.367   2.343
10754SOL    HW233162   1.811   2.367   2.225
10755SOL     OW33163   6.939   1.764   0.813
10755SOL    HW133164   6.894   1.744   0.727
10755SOL    HW233165   6.872   1.803   0.877
10756SOL     OW33166   6.288   3.369   0.622
10756SOL    HW133167   6.379   3.335   0.598
10756SOL    HW233168   6.219   3.304   0.590
10757SOL     OW33169   0.003   3.494   0.485
10757SOL    HW133170   0.061   3.549   0.425
10757SOL    HW233171   6.999   3.548   0.565
10758SOL     OW33172   0.576   5.646   5.376
10758SOL    HW133173   0.502   5.670   5.439
10758SOL    HW233174   0.554   5.561   5.329
10759SOL     OW33175   2.143   2.905   6.564
10759SOL    HW133176   2.128   2.886   6.661
10759SOL    HW233177   2.241   2.915   6.547
10760SOL     OW33178   0.225   6.423   1.131
10760SOL    HW133179   0.319   6.446   1.106
10760SOL    HW233180   0.163   6.494   1.097
10761SOL     OW33181   1.089   2.619   6.455
10761SOL    HW133182   1.137   2.573   6.381
10761SOL    HW233183   1.057   2.552   6.522
10762SOL     OW33184   4.726   0.988   5.041
10762SOL    HW133185   4.789   0.974   4.965
10762SOL    HW233186   4.643   0.934   5.025
10763SOL     OW33187   4.236   0.288   1.335
10763SOL    HW133188   4.223   0.360   1.403
10763SOL    HW233189   4.147   0.246   1.314
10764SOL     OW33190   5.116   1.709   6.257
10764SOL    HW133191   5.048   1.664   6.314
10764SOL    HW233192   5.168   1.774   6.312
10765SOL     OW33193   5.699   1.420   1.676
10765SOL    HW133194   5.774   1.374   1.629
10765SOL    HW233195   5.616   1.364   1.669
10766SOL     OW33196   2.670   3.537   0.449
10766SOL    HW133197   2.726   3.466   0.493
10766SOL    HW233198   2.728   3.595   0.392
10767SOL     OW33199   1.181   6.974   0.815
10767SOL    HW133200   1.162   6.994   0.719
10767SOL    HW233201   1.175   0.035   0.868
10768SOL     OW33202   5.664   5.811   0.291
10768SOL    HW133203   5.705   5.721   0.270
10768SOL    HW233204   5.614   5.844   0.211
10769SOL     OW33205   3.167   5.096   5.641
10769SOL    HW133206   3.096   5.164   5.657
10769SOL    HW233207   3.199   5.102   5.547
10770SOL     OW33208   5.456   0.558   5.256
10770SOL    HW133209   5.379   0.493   5.256
10770SOL    HW233210   5.515   0.538   5.335
10771SOL     OW33211   4.652   0.206   5.377
10771SOL    HW133212   4.558   0.238   5.374
10771SOL    HW233213   4.691   0.223   5.468
10772SOL     OW33214   0.028   0.341   3.575
10772SOL    HW133215   0.053   0.365   3.669
10772SOL    HW233216   6.951   0.330   3.570
10773SOL     OW33217   6.516   4.993   6.950
10773SOL    HW133218   6.612   5.019   6.948
10773SOL    HW233219   6.497   4.929   6.876
10774SOL     OW33220   1.244   2.433   1.031
10774SOL    HW133221   1.244   2.485   1.116
10774SOL    HW233222   1.200   2.488   0.959
10775SOL     OW33223   2.249   4.430   0.674
10775SOL    HW133224   2.198   4.515   0.663
10775SOL    HW233225   2.186   4.353   0.664
10776SOL     OW33226   0.315   6.403   1.498
10776SOL    HW133227   0.333   6.305   1.509
10776SOL    HW233228   0.386   6.443   1.440
10777SOL     OW33229   4.088   0.036   3.271
10777SOL    HW133230   4.020   6.993   3.240
10777SOL    HW233231   4.045   0.125   3.286
10778SOL     OW33232   6.605   6.722   4.786
10778SOL    HW133233   6.550   6.657   4.733
10778SOL    HW233234   6.677   6.759   4.728
10779SOL     OW33235   7.004   4.799   2.412
10779SOL    HW133236   6.917   4.829   2.451
10779SOL    HW233237   0.057   4.838   2.465
10780SOL     OW33238   0.385   5.972   3.596
10780SOL    HW133239   0.485   5.966   3.595
10780SOL    HW233240   0.355   6.021   3.678
10781SOL     OW33241   4.790   1.970   4.521
10781SOL    HW133242   4.693   1.994   4.511
10781SOL    HW233243   4.807   1.883   4.476
10782SOL     OW33244   6.606   2.654   3.335
10782SOL    HW133245   6.684   2.670   3.396
10782SOL    HW233246   6.538   2.598   3.381
10783SOL     OW33247   1.923   3.314   2.565
10783SOL    HW133248   1.846   3.324   2.629
10783SOL    HW233249   1.898   3.249   2.493
10784SOL     OW33250   2.385   6.693   1.002
10784SOL    HW133251   2.356   6.765   0.939
10784SOL    HW233252   2.305   6.642   1.035
10785SOL     OW33253   1.982   4.845   1.675
10785SOL    HW133254   2.011   4.751   1.690
10785SOL    HW233255   2.060   4.902   1.650
10786SOL     OW33256   5.408   2.820   1.732
10786SOL    HW133257   5.389   2.725   1.705
10786SOL    HW233258   5.471   2.820   1.810
10787SOL     OW33259   3.563   1.405   4.644
10787SOL    HW133260   3.621   1.368   4.570
10787SOL    HW233261   3.520   1.490   4.612
10788SOL     OW33262   2.365   4.173   0.378
10788SOL    HW133263   2.443   4.114   0.357
10788SOL    HW233264   2.399   4.260   0.415
10789SOL     OW33265   5.754   0.780   0.479
10789SOL    HW133266   5.849   0.751   0.468
10789SOL    HW233267   5.746   0.836   0.562
10790SOL     OW33268   0.573   0.668   5.354
10790SOL    HW133269   0.535   0.742   5.409
10790SOL    HW233270   0.516   0.654   5.272
10791SOL     OW33271   1.501   1.644   1.853
10791SOL    HW133272   1.514   1.601   1.943
10791SOL    HW233273   1.521   1.742   1.861
10792SOL     OW33274   3.283   3.037   1.644
10792SOL    HW133275   3.328   3.103   1.704
10792SOL    HW233276   3.194   3.072   1.616
10793SOL     OW33277   5.587   2.213   3.868
10793SOL    HW133278   5.620   2.229   3.962
10793SOL    HW233279   5.502   2.161   3.872
10794SOL     OW33280   3.519   3.992   1.837
10794SOL    HW133281   3.439   4.050   1.852
10794SOL    HW233282   3.602   4.044   1.856
10795SOL     OW33283   6.483   4.219   2.992
10795SOL    HW133284   6.414   4.289   2.971
10795SOL    HW233285   6.472   4.141   2.930
10796SOL     OW33286   3.561   0.045   6.316
10796SOL    HW133287   3.654   0.078   6.298
10796SOL    HW233288   3.495   0.106   6.273
10797SOL     OW33289   3.899   2.432   0.668
10797SOL    HW133290   3.821   2.443   0.607
10797SOL    HW233291   3.869   2.391   0.754
10798SOL     OW33292   2.191   0.239   0.487
10798SOL    HW133293   2.149   0.329   0.502
10798SOL    HW233294   2.290   0.246   0.498
10799SOL     OW33295   3.555   2.087   2.232
10799SOL    HW133296   3.461   2.074   2.261
10799SOL    HW233297   3.557   2.141   2.147
10800SOL     OW33298   2.020   5.934   0.327
10800SOL    HW133299   2.111   5.976   0.336
10800SOL    HW233300   1.987   5.906   0.417
10801SOL     OW33301   1.354   0.662   4.003
10801SOL    HW133302   1.320   0.754   4.025
10801SOL    HW233303   1.450   0.669   3.974
10802SOL     OW33304   2.289   2.866   4.778
10802SOL    HW133305   2.321   2.913   4.861
10802SOL    HW233306   2.236   2.930   4.722
10803SOL     OW33307   5.184   4.602   4.882
10803SOL    HW133308   5.147   4.519   4.923
10803SOL    HW233309   5.126   4.680   4.906
10804SOL     OW33310   6.816   4.649   0.957
10804SOL    HW133311   6.845   4.559   0.925
10804SOL    HW233312   6.813   4.712   0.879
10805SOL     OW33313   3.536   0.694   6.831
10805SOL    HW133314   3.625   0.667   6.794
10805SOL    HW233315   3.538   0.692   6.931
10806SOL     OW33316   5.432   3.971   0.105
10806SOL    HW133317   5.442   4.070   0.115
10806SOL    HW233318   5.455   3.944   0.012
10807SOL     OW33319   3.644   6.758   3.366
10807SOL    HW133320   3.652   6.695   3.444
10807SOL    HW233321   3.565   6.732   3.310
10808SOL     OW33322   6.506   3.843   0.084
10808SOL    HW133323   6.587   3.822   0.138
10808SOL    HW233324   6.424   3.826   0.139
10809SOL     OW33325   2.890   0.412   4.192
10809SOL    HW133326   2.944   0.387   4.112
10809SOL    HW233327   2.897   0.510   4.209
10810SOL     OW33328   1.122   1.718   6.337
10810SOL    HW133329   1.087   1.771   6.414
10810SOL    HW233330   1.221   1.706   6.346
10811SOL     OW33331   4.036   5.127   5.350
10811SOL    HW133332   3.979   5.047   5.366
10811SOL    HW233333   4.016   5.197   5.418
10812SOL     OW33334   0.555   3.890   1.754
10812SOL    HW133335   0.587   3.937   1.672
10812SOL    HW233336   0.599   3.801   1.761
10813SOL     OW33337   2.762   6.366   0.746
10813SOL    HW133338   2.825   6.290   0.757
10813SOL    HW233339   2.777   6.409   0.657
10814SOL     OW33340   1.031   0.656   5.664
10814SOL    HW133341   0.946   0.664   5.612
10814SOL    HW233342   1.067   0.563   5.656
10815SOL     OW33343   5.032   4.858   3.460
10815SOL    HW133344   5.026   4.867   3.361
10815SOL    HW233345   4.982   4.777   3.489
10816SOL     OW33346   1.833   1.478   2.403
10816SOL    HW133347   1.897   1.427   2.460
10816SOL    HW233348   1.884   1.537   2.340
10817SOL     OW33349   5.574   6.762   2.983
10817SOL    HW133350   5.611   6.775   2.891
10817SOL    HW233351   5.495   6.701   2.979
10818SOL     OW33352   5.735   2.270   5.665
10818SOL    HW133353   5.775   2.244   5.577
10818SOL    HW233354   5.641   2.238   5.670
10819SOL     OW33355   0.468   4.060   6.799
10819SOL    HW133356   0.420   4.114   6.868
10819SOL    HW233357   0.444   3.963   6.810
10820SOL     OW33358   0.054   6.716   4.560
10820SOL    HW133359   0.073   6.681   4.468
10820SOL    HW233360   0.081   6.649   4.628
10821SOL     OW33361   5.939   6.669   2.857
10821SOL    HW133362   5.985   6.754   2.881
10821SOL    HW233363   5.850   6.690   2.816
10822SOL     OW33364   1.694   2.706   2.678
10822SOL    HW133365   1.616   2.655   2.642
10822SOL    HW233366   1.661   2.780   2.737
10823SOL     OW33367   1.924   5.205   1.712
10823SOL    HW133368   1.929   5.135   1.641
10823SOL    HW233369   2.012   5.210   1.760
10824SOL     OW33370   5.127   6.908   3.884
10824SOL    HW133371   5.035   6.930   3.851
10824SOL    HW233372   5.142   6.810   3.879
10825SOL     OW33373   2.579   0.435   0.898
10825SOL    HW133374   2.613   0.351   0.939
10825SOL    HW233375   2.647   0.472   0.835
10826SOL     OW33376   6.517   3.615   2.997
10826SOL    HW133377   6.515   3.559   3.080
10826SOL    HW233378   6.462   3.571   2.926
10827SOL     OW33379   5.990   3.628   3.572
10827SOL    HW133380   5.893   3.615   3.593
10827SOL    HW233381   6.044   3.622   3.656
10828SOL     OW33382   1.303   5.943   2.408
10828SOL    HW133383   1.219   5.893   2.385
10828SOL    HW233384   1.336   5.992   2.328
10829SOL     OW33385   2.896   3.503   0.956
10829SOL    HW133386   2.801   3.483   0.981
10829SOL    HW233387   2.925   3.589   0.999
10830SOL     OW33388   5.156   2.156   3.207
10830SOL    HW133389   5.226   2.201   3.262
10830SOL    HW233390   5.157   2.058   3.226
10831SOL     OW33391   4.979   6.663   1.800
10831SOL    HW133392   5.055   6.608   1.835
10831SOL    HW233393   4.895   6.608   1.802
10832SOL     OW33394   0.328   2.510   1.080
10832SOL    HW133395   0.328   2.450   1.000
10832SOL    HW233396   0.315   2.456   1.163
10833SOL     OW33397   1.611   0.588   3.888
10833SOL    HW133398   1.708   0.565   3.897
10833SOL    HW233399   1.593   0.623   3.796
10834SOL     OW33400   1.127   1.682   6.057
10834SOL    HW133401   1.227   1.684   6.049
10834SOL    HW233402   1.102   1.675   6.154
10835SOL     OW33403   5.445   1.480   0.964
10835SOL    HW133404   5.409   1.547   0.899
10835SOL    HW233405   5.523   1.519   1.013
10836SOL     OW33406   0.071   1.484   5.735
10836SOL    HW133407   0.023   1.409   5.781
10836SOL    HW233408   0.037   1.493   5.641
10837SOL     OW33409   0.038   4.659   0.070
10837SOL    HW133410   0.040   4.562   0.045
10837SOL    HW233411   0.125   4.702   0.044
10838SOL     OW33412   5.669   0.335   4.831
10838SOL    HW133413   5.663   0.412   4.894
10838SOL    HW233414   5.765   0.318   4.808
10839SOL     OW33415   2.832   2.953   0.573
10839SOL    HW133416   2.830   2.885   0.646
10839SOL    HW233417   2.914   2.941   0.518
10840SOL     OW33418   3.769   5.766   1.296
10840SOL    HW133419   3.752   5.742   1.201
10840SOL    HW233420   3.698   5.726   1.354
10841SOL     OW33421   3.038   5.791   5.973
10841SOL    HW133422   2.941   5.770   5.986
10841SOL    HW233423   3.093   5.711   5.998
10842SOL     OW33424   6.090   3.543   1.112
10842SOL    HW133425   6.058   3.531   1.206
10842SOL    HW233426   6.078   3.638   1.083
10843SOL     OW33427   0.483   1.628   1.876
10843SOL    HW133428   0.400   1.576   1.854
10843SOL    HW233429   0.563   1.570   1.863
10844SOL     OW33430   0.675   6.535   4.416
10844SOL    HW133431   0.762   6.535   4.367
10844SOL    HW233432   0.693   6.549   4.514
10845SOL     OW33433   2.054   0.896   1.319
10845SOL    HW133434   1.975   0.860   1.369
10845SOL    HW233435   2.105   0.958   1.379
10846SOL     OW33436   4.401   2.494   0.924
10846SOL    HW133437   4.425   2.399   0.904
10846SOL    HW233438   4.410   2.512   1.022
10847SOL     OW33439   2.336   1.726   6.803
10847SOL    HW133440   2.272   1.747   6.729
10847SOL    HW233441   2.356   1.810   6.855
10848SOL     OW33442   2.932   2.238   6.590
10848SOL    HW133443   2.896   2.181   6.664
10848SOL    HW233444   2.949   2.182   6.509
10849SOL     OW33445   3.941   4.868   4.165
10849SOL    HW133446   3.842   4.877   4.182
10849SOL    HW233447   3.955   4.815   4.081
10850SOL     OW33448   4.001   6.644   6.916
10850SOL    HW133449   4.050   6.719   6.960
10850SOL    HW233450   4.053   6.613   6.836
10851SOL     OW33451   2.553   2.303   6.291
10851SOL    HW133452   2.556   2.235   6.365
10851SOL    HW233453   2.621   2.279   6.222
10852SOL     OW33454   0.699   0.121   6.311
10852SOL    HW133455   0.667   0.211   6.340
10852SOL    HW233456   0.627   0.053   6.326
10853SOL     OW33457   3.730   1.693   4.742
10853SOL    HW133458   3.810   1.635   4.759
10853SOL    HW233459   3.666   1.686   4.818
10854SOL     OW33460   6.307   0.121   6.285
10854SOL    HW133461   6.306   0.149   6.189
10854SOL    HW233462   6.302   0.202   6.344
10855SOL     OW33463   3.057   6.192   2.660
10855SOL    HW133464   3.143   6.238   2.636
10855SOL    HW233465   2.984   6.260   2.670
10856SOL     OW33466   5.841   0.807   1.184
10856SOL    HW133467   5.862   0.881   1.248
10856SOL    HW233468   5.921   0.787   1.128
10857SOL     OW33469   5.542   2.971   3.656
10857SOL    HW133470   5.445   2.974   3.631
10857SOL    HW233471   5.551   2.961   3.755
10858SOL     OW33472   1.593   2.755   6.714
10858SOL    HW133473   1.677   2.760   6.661
10858SOL    HW233474   1.528   2.823   6.679
10859SOL     OW33475   1.714   3.773   3.575
10859SOL    HW133476   1.630   3.809   3.614
10859SOL    HW233477   1.785   3.844   3.577
10860SOL     OW33478   6.768   1.130   6.330
10860SOL    HW133479   6.739   1.192   6.257
10860SOL    HW233480   6.818   1.053   6.291
10861SOL     OW33481   3.745   2.593   1.722
10861SOL    HW133482   3.829   2.582   1.668
10861SOL    HW233483   3.725   2.507   1.770
10862SOL     OW33484   2.574   1.638   6.547
10862SOL    HW133485   2.670   1.654   6.526
10862SOL    HW233486   2.565   1.554   6.601
10863SOL     OW33487   3.287   1.208   2.485
10863SOL    HW133488   3.204   1.196   2.431
10863SOL    HW233489   3.334   1.292   2.457
10864SOL     OW33490   2.470   4.322   1.231
10864SOL    HW133491   2.375   4.335   1.205
10864SOL    HW233492   2.524   4.302   1.149
10865SOL     OW33493   5.925   2.629   3.375
10865SOL    HW133494   5.923   2.671   3.466
10865SOL    HW233495   5.959   2.695   3.308
10866SOL     OW33496   5.634   3.149   1.079
10866SOL    HW133497   5.656   3.061   1.120
10866SOL    HW233498   5.677   3.156   0.990
10867SOL     OW33499   2.562   2.959   0.757
10867SOL    HW133500   2.601   2.900   0.827
10867SOL    HW233501   2.600   2.935   0.668
10868SOL     OW33502   1.610   2.133   2.889
10868SOL    HW133503   1.672   2.124   2.967
10868SOL    HW233504   1.655   2.186   2.817
10869NA      NA33505   0.760   2.433   6.447
10870NA      NA33506   4.543   4.516   5.135
10871NA      NA33507   2.417   4.666   2.298
10872NA      NA33508   5.306   4.662   3.762
10873NA      NA33509   4.259   2.320   5.245
10874NA      NA33510   3.392   4.185   1.497
10875NA      NA33511   1.069   4.705   0.316
10876NA      NA33512   4.086   4.311   1.647
10877NA      NA33513   4.720   4.581   0.855
10878NA      NA33514   3.537   1.114   5.246
10879NA      NA33515   5.577   5.637   1.475
10880NA      NA33516   1.131   0.777   5.878
10881NA      NA33517   4.922   4.931   2.102
10882NA      NA33518   3.438   3.039   0.733
   7.02275   7.02275   7.02275
