Generated by trjconv : CNT in water t= 550.00000
33518
    1C        C    1   2.845   2.773   4.747
    1C        C    2   2.902   2.721   4.865
    1C        C    3   2.842   2.766   4.983
    1C        C    4   2.849   2.776   4.260
    1C        C    5   2.902   2.731   4.383
    1C        C    6   2.845   2.773   4.505
    1C        C    7   3.015   2.643   4.626
    1C        C    8   2.898   2.722   4.626
    1C        C    9   3.079   2.602   4.745
    1C        C   10   3.013   2.633   4.866
    1C        C   11   3.182   2.490   4.976
    1C        C   12   3.056   2.553   4.972
    1C        C   13   2.856   2.778   3.772
    1C        C   14   2.907   2.728   3.894
    1C        C   15   2.849   2.774   4.014
    1C        C   16   3.021   2.655   4.139
    1C        C   17   2.901   2.729   4.138
    1C        C   18   3.085   2.621   4.260
    1C        C   19   3.022   2.657   4.382
    1C        C   20   3.211   2.561   4.505
    1C        C   21   3.081   2.618   4.504
    1C        C   22   3.280   2.542   4.626
    1C        C   23   3.211   2.550   4.749
    1C        C   24   3.416   2.483   4.867
    1C        C   25   3.273   2.499   4.867
    1C        C   26   3.490   2.475   4.985
    1C        C   27   2.852   2.769   3.282
    1C        C   28   2.906   2.726   3.405
    1C        C   29   2.852   2.773   3.526
    1C        C   30   3.017   2.643   3.651
    1C        C   31   2.903   2.726   3.650
    1C        C   32   3.080   2.606   3.772
    1C        C   33   3.020   2.643   3.894
    1C        C   34   3.208   2.550   4.019
    1C        C   35   3.081   2.613   4.018
    1C        C   36   3.280   2.537   4.139
    1C        C   37   3.215   2.565   4.261
    1C        C   38   3.416   2.507   4.381
    1C        C   39   3.278   2.534   4.384
    1C        C   40   3.489   2.501   4.502
    1C        C   41   3.418   2.511   4.624
    1C        C   42   3.630   2.479   4.746
    1C        C   43   3.488   2.489   4.745
    1C        C   44   3.706   2.482   4.865
    1C        C   45   3.629   2.477   4.982
    1C        C   46   2.842   2.756   2.795
    1C        C   47   2.901   2.719   2.918
    1C        C   48   2.846   2.767   3.039
    1C        C   49   3.020   2.641   3.164
    1C        C   50   2.903   2.720   3.160
    1C        C   51   3.081   2.603   3.286
    1C        C   52   3.021   2.643   3.407
    1C        C   53   3.212   2.554   3.529
    1C        C   54   3.082   2.609   3.530
    1C        C   55   3.279   2.533   3.651
    1C        C   56   3.213   2.558   3.774
    1C        C   57   3.416   2.506   3.896
    1C        C   58   3.277   2.532   3.897
    1C        C   59   3.490   2.507   4.016
    1C        C   60   3.419   2.512   4.138
    1C        C   61   3.630   2.498   4.260
    1C        C   62   3.488   2.496   4.260
    1C        C   63   3.701   2.503   4.381
    1C        C   64   3.630   2.502   4.503
    1C        C   65   3.835   2.543   4.619
    1C        C   66   3.700   2.502   4.626
    1C        C   67   3.903   2.561   4.742
    1C        C   68   3.842   2.520   4.863
    1C        C   69   4.052   2.582   4.976
    1C        C   70   3.921   2.534   4.978
    1C        C   71   2.827   2.736   2.310
    1C        C   72   2.887   2.695   2.431
    1C        C   73   2.835   2.749   2.551
    1C        C   74   3.013   2.632   2.673
    1C        C   75   2.894   2.708   2.673
    1C        C   76   3.076   2.601   2.796
    1C        C   77   3.017   2.639   2.919
    1C        C   78   3.210   2.550   3.038
    1C        C   79   3.081   2.610   3.041
    1C        C   80   3.278   2.529   3.160
    1C        C   81   3.212   2.549   3.283
    1C        C   82   3.416   2.500   3.403
    1C        C   83   3.278   2.528   3.407
    1C        C   84   3.486   2.498   3.526
    1C        C   85   3.418   2.505   3.649
    1C        C   86   3.626   2.497   3.771
    1C        C   87   3.484   2.494   3.773
    1C        C   88   3.699   2.505   3.891
    1C        C   89   3.631   2.501   4.016
    1C        C   90   3.838   2.542   4.135
    1C        C   91   3.701   2.508   4.138
    1C        C   92   3.905   2.564   4.257
    1C        C   93   3.839   2.537   4.379
    1C        C   94   4.032   2.628   4.499
    1C        C   95   3.908   2.561   4.500
    1C        C   96   4.094   2.665   4.621
    1C        C   97   4.033   2.620   4.740
    1C        C   98   4.190   2.765   4.862
    1C        C   99   4.098   2.655   4.861
    1C        C  100   4.219   2.833   4.980
    1C        C  101   2.824   2.733   2.069
    1C        C  102   2.990   2.594   2.193
    1C        C  103   2.876   2.680   2.188
    1C        C  104   3.066   2.575   2.311
    1C        C  105   3.007   2.622   2.431
    1C        C  106   3.203   2.534   2.549
    1C        C  107   3.072   2.588   2.552
    1C        C  108   3.272   2.521   2.672
    1C        C  109   3.207   2.548   2.794
    1C        C  110   3.413   2.497   2.914
    1C        C  111   3.274   2.522   2.915
    1C        C  112   3.486   2.491   3.035
    1C        C  113   3.415   2.499   3.158
    1C        C  114   3.626   2.494   3.282
    1C        C  115   3.485   2.488   3.280
    1C        C  116   3.697   2.507   3.403
    1C        C  117   3.628   2.499   3.526
    1C        C  118   3.835   2.537   3.646
    1C        C  119   3.697   2.507   3.649
    1C        C  120   3.900   2.565   3.768
    1C        C  121   3.835   2.542   3.892
    1C        C  122   4.027   2.635   4.013
    1C        C  123   3.904   2.565   4.012
    1C        C  124   4.087   2.673   4.135
    1C        C  125   4.031   2.628   4.257
    1C        C  126   4.200   2.759   4.376
    1C        C  127   4.093   2.668   4.378
    1C        C  128   4.244   2.817   4.498
    1C        C  129   4.198   2.760   4.618
    1C        C  130   4.321   2.935   4.741
    1C        C  131   4.243   2.816   4.740
    1C        C  132   4.352   3.003   4.861
    1C        C  133   4.286   2.955   4.974
    1C        C  134   3.173   2.473   2.081
    1C        C  135   3.038   2.514   2.084
    1C        C  136   3.261   2.479   2.189
    1C        C  137   3.197   2.519   2.308
    1C        C  138   3.408   2.481   2.428
    1C        C  139   3.269   2.503   2.429
    1C        C  140   3.483   2.482   2.548
    1C        C  141   3.412   2.498   2.669
    1C        C  142   3.623   2.490   2.793
    1C        C  143   3.482   2.495   2.791
    1C        C  144   3.696   2.497   2.914
    1C        C  145   3.627   2.490   3.037
    1C        C  146   3.833   2.534   3.157
    1C        C  147   3.696   2.500   3.159
    1C        C  148   3.900   2.561   3.278
    1C        C  149   3.835   2.537   3.401
    1C        C  150   4.027   2.626   3.522
    1C        C  151   3.901   2.561   3.524
    1C        C  152   4.086   2.665   3.644
    1C        C  153   4.024   2.633   3.767
    1C        C  154   4.196   2.758   3.888
    1C        C  155   4.081   2.675   3.889
    1C        C  156   4.247   2.808   4.009
    1C        C  157   4.197   2.762   4.133
    1C        C  158   4.337   2.922   4.254
    1C        C  159   4.250   2.811   4.254
    1C        C  160   4.372   2.988   4.374
    1C        C  161   4.321   2.935   4.495
    1C        C  162   4.429   3.116   4.616
    1C        C  163   4.360   2.993   4.618
    1C        C  164   4.458   3.186   4.736
    1C        C  165   4.426   3.123   4.858
    1C        C  166   4.511   3.320   4.971
    1C        C  167   4.480   3.184   4.972
    1C        C  168   3.473   2.432   2.073
    1C        C  169   3.401   2.457   2.190
    1C        C  170   3.622   2.471   2.307
    1C        C  171   3.480   2.469   2.307
    1C        C  172   3.696   2.484   2.426
    1C        C  173   3.624   2.488   2.547
    1C        C  174   3.829   2.535   2.666
    1C        C  175   3.693   2.500   2.670
    1C        C  176   3.895   2.559   2.789
    1C        C  177   3.832   2.534   2.913
    1C        C  178   4.028   2.618   3.033
    1C        C  179   3.901   2.556   3.034
    1C        C  180   4.090   2.657   3.154
    1C        C  181   4.027   2.623   3.276
    1C        C  182   4.195   2.752   3.398
    1C        C  183   4.087   2.661   3.398
    1C        C  184   4.248   2.800   3.520
    1C        C  185   4.198   2.751   3.642
    1C        C  186   4.334   2.913   3.765
    1C        C  187   4.250   2.800   3.764
    1C        C  188   4.371   2.977   3.886
    1C        C  189   4.337   2.917   4.009
    1C        C  190   4.442   3.103   4.128
    1C        C  191   4.379   2.976   4.130
    1C        C  192   4.462   3.174   4.249
    1C        C  193   4.438   3.113   4.373
    1C        C  194   4.497   3.317   4.488
    1C        C  195   4.462   3.180   4.495
    1C        C  196   4.514   3.387   4.609
    1C        C  197   4.499   3.322   4.733
    1C        C  198   4.555   3.533   4.852
    1C        C  199   4.532   3.392   4.853
    1C        C  200   4.580   3.619   4.964
    1C        C  201   3.612   2.421   2.072
    1C        C  202   3.829   2.505   2.183
    1C        C  203   3.692   2.461   2.184
    1C        C  204   3.902   2.535   2.301
    1C        C  205   3.835   2.511   2.423
    1C        C  206   4.022   2.616   2.545
    1C        C  207   3.898   2.550   2.544
    1C        C  208   4.085   2.653   2.666
    1C        C  209   4.023   2.619   2.788
    1C        C  210   4.193   2.747   2.908
    1C        C  211   4.083   2.658   2.910
    1C        C  212   4.246   2.797   3.030
    1C        C  213   4.200   2.746   3.153
    1C        C  214   4.338   2.907   3.272
    1C        C  215   4.248   2.798   3.276
    1C        C  216   4.372   2.968   3.394
    1C        C  217   4.334   2.912   3.518
    1C        C  218   4.419   3.105   3.640
    1C        C  219   4.367   2.973   3.641
    1C        C  220   4.449   3.172   3.761
    1C        C  221   4.433   3.104   3.884
    1C        C  222   4.502   3.304   4.000
    1C        C  223   4.466   3.168   4.005
    1C        C  224   4.510   3.379   4.120
    1C        C  225   4.500   3.310   4.243
    1C        C  226   4.510   3.524   4.365
    1C        C  227   4.509   3.383   4.364
    1C        C  228   4.517   3.597   4.486
    1C        C  229   4.530   3.528   4.608
    1C        C  230   4.501   3.740   4.723
    1C        C  231   4.535   3.602   4.729
    1C        C  232   4.495   3.817   4.841
    1C        C  233   4.544   3.754   4.957
    1C        C  234   4.023   2.604   2.062
    1C        C  235   3.899   2.541   2.067
    1C        C  236   4.086   2.643   2.181
    1C        C  237   4.027   2.602   2.302
    1C        C  238   4.201   2.731   2.420
    1C        C  239   4.084   2.650   2.422
    1C        C  240   4.251   2.784   2.541
    1C        C  241   4.195   2.742   2.664
    1C        C  242   4.331   2.905   2.783
    1C        C  243   4.247   2.791   2.785
    1C        C  244   4.373   2.965   2.904
    1C        C  245   4.333   2.908   3.027
    1C        C  246   4.433   3.094   3.150
    1C        C  247   4.374   2.966   3.149
    1C        C  248   4.456   3.161   3.273
    1C        C  249   4.432   3.097   3.396
    1C        C  250   4.486   3.303   3.515
    1C        C  251   4.452   3.166   3.518
    1C        C  252   4.493   3.375   3.637
    1C        C  253   4.490   3.307   3.761
    1C        C  254   4.519   3.519   3.878
    1C        C  255   4.515   3.378   3.880
    1C        C  256   4.519   3.592   3.999
    1C        C  257   4.514   3.520   4.121
    1C        C  258   4.491   3.733   4.240
    1C        C  259   4.508   3.593   4.241
    1C        C  260   4.470   3.802   4.361
    1C        C  261   4.481   3.733   4.484
    1C        C  262   4.427   3.942   4.604
    1C        C  263   4.474   3.809   4.603
    1C        C  264   4.404   4.012   4.724
    1C        C  265   4.440   3.947   4.844
    1C        C  266   4.323   4.130   4.956
    1C        C  267   4.390   4.008   4.959
    1C        C  268   4.264   2.771   2.062
    1C        C  269   4.200   2.727   2.178
    1C        C  270   4.340   2.891   2.298
    1C        C  271   4.250   2.781   2.298
    1C        C  272   4.378   2.955   2.418
    1C        C  273   4.342   2.893   2.540
    1C        C  274   4.441   3.084   2.662
    1C        C  275   4.376   2.959   2.660
    1C        C  276   4.464   3.156   2.781
    1C        C  277   4.437   3.091   2.904
    1C        C  278   4.498   3.293   3.023
    1C        C  279   4.462   3.157   3.026
    1C        C  280   4.500   3.364   3.145
    1C        C  281   4.488   3.298   3.270
    1C        C  282   4.505   3.511   3.390
    1C        C  283   4.497   3.370   3.391
    1C        C  284   4.507   3.584   3.511
    1C        C  285   4.509   3.515   3.634
    1C        C  286   4.487   3.728   3.750
    1C        C  287   4.509   3.588   3.755
    1C        C  288   4.471   3.795   3.873
    1C        C  289   4.493   3.731   3.997
    1C        C  290   4.427   3.934   4.117
    1C        C  291   4.480   3.803   4.118
    1C        C  292   4.398   4.002   4.238
    1C        C  293   4.423   3.936   4.360
    1C        C  294   4.328   4.128   4.480
    1C        C  295   4.398   4.005   4.481
    1C        C  296   4.284   4.190   4.599
    1C        C  297   4.325   4.131   4.721
    1C        C  298   4.196   4.311   4.840
    1C        C  299   4.279   4.194   4.840
    1C        C  300   4.165   4.398   4.949
    1C        C  301   4.349   2.882   2.061
    1C        C  302   4.467   3.067   2.177
    1C        C  303   4.396   2.943   2.178
    1C        C  304   4.479   3.144   2.295
    1C        C  305   4.437   3.083   2.416
    1C        C  306   4.500   3.283   2.536
    1C        C  307   4.470   3.145   2.538
    1C        C  308   4.508   3.358   2.656
    1C        C  309   4.499   3.293   2.781
    1C        C  310   4.523   3.505   2.900
    1C        C  311   4.515   3.364   2.902
    1C        C  312   4.515   3.575   3.023
    1C        C  313   4.511   3.504   3.145
    1C        C  314   4.492   3.719   3.263
    1C        C  315   4.507   3.578   3.266
    1C        C  316   4.480   3.792   3.383
    1C        C  317   4.489   3.725   3.507
    1C        C  318   4.430   3.931   3.626
    1C        C  319   4.473   3.796   3.627
    1C        C  320   4.397   3.993   3.749
    1C        C  321   4.423   3.928   3.872
    1C        C  322   4.323   4.116   3.991
    1C        C  323   4.399   3.997   3.993
    1C        C  324   4.281   4.173   4.114
    1C        C  325   4.328   4.125   4.237
    1C        C  326   4.190   4.289   4.354
    1C        C  327   4.286   4.186   4.358
    1C        C  328   4.135   4.340   4.474
    1C        C  329   4.188   4.293   4.596
    1C        C  330   4.024   4.433   4.712
    1C        C  331   4.141   4.351   4.715
    1C        C  332   3.970   4.490   4.829
    1C        C  333   4.049   4.477   4.944
    1C        C  334   4.547   3.266   2.057
    1C        C  335   4.531   3.127   2.063
    1C        C  336   4.529   3.349   2.169
    1C        C  337   4.506   3.283   2.292
    1C        C  338   4.518   3.495   2.413
    1C        C  339   4.510   3.354   2.414
    1C        C  340   4.513   3.569   2.533
    1C        C  341   4.517   3.498   2.656
    1C        C  342   4.489   3.711   2.773
    1C        C  343   4.517   3.572   2.776
    1C        C  344   4.477   3.780   2.895
    1C        C  345   4.491   3.714   3.019
    1C        C  346   4.424   3.917   3.136
    1C        C  347   4.474   3.785   3.140
    1C        C  348   4.392   3.982   3.257
    1C        C  349   4.427   3.924   3.381
    1C        C  350   4.323   4.109   3.504
    1C        C  351   4.402   3.992   3.502
    1C        C  352   4.279   4.167   3.625
    1C        C  353   4.323   4.113   3.747
    1C        C  354   4.176   4.267   3.867
    1C        C  355   4.280   4.171   3.869
    1C        C  356   4.122   4.315   3.989
    1C        C  357   4.179   4.271   4.110
    1C        C  358   4.013   4.402   4.229
    1C        C  359   4.134   4.329   4.230
    1C        C  360   3.950   4.441   4.349
    1C        C  361   4.014   4.412   4.471
    1C        C  362   3.826   4.513   4.593
    1C        C  363   3.957   4.461   4.591
    1C        C  364   3.764   4.555   4.713
    1C        C  365   3.838   4.542   4.832
    1C        C  366   3.631   4.591   4.950
    1C        C  367   3.768   4.567   4.950
    1C        C  368   4.503   3.563   2.052
    1C        C  369   4.517   3.489   2.170
    1C        C  370   4.503   3.705   2.287
    1C        C  371   4.517   3.565   2.290
    1C        C  372   4.484   3.779   2.406
    1C        C  373   4.497   3.709   2.528
    1C        C  374   4.431   3.913   2.649
    1C        C  375   4.478   3.779   2.650
    1C        C  376   4.395   3.976   2.770
    1C        C  377   4.428   3.913   2.893
    1C        C  378   4.324   4.102   3.011
    1C        C  379   4.397   3.981   3.013
    1C        C  380   4.283   4.161   3.133
    1C        C  381   4.325   4.106   3.256
    1C        C  382   4.178   4.256   3.375
    1C        C  383   4.282   4.161   3.379
    1C        C  384   4.123   4.305   3.496
    1C        C  385   4.179   4.267   3.620
    1C        C  386   4.006   4.387   3.743
    1C        C  387   4.123   4.309   3.743
    1C        C  388   3.941   4.424   3.863
    1C        C  389   4.003   4.392   3.986
    1C        C  390   3.816   4.488   4.107
    1C        C  391   3.947   4.435   4.108
    1C        C  392   3.747   4.509   4.229
    1C        C  393   3.819   4.496   4.350
    1C        C  394   3.616   4.555   4.476
    1C        C  395   3.755   4.527   4.472
    1C        C  396   3.547   4.567   4.598
    1C        C  397   3.623   4.570   4.717
    1C        C  398   3.411   4.545   4.838
    1C        C  399   3.549   4.575   4.837
    1C        C  400   3.340   4.514   4.955
    1C        C  401   4.501   3.702   2.050
    1C        C  402   4.458   3.916   2.165
    1C        C  403   4.493   3.779   2.167
    1C        C  404   4.414   3.977   2.284
    1C        C  405   4.439   3.913   2.407
    1C        C  406   4.333   4.100   2.525
    1C        C  407   4.409   3.981   2.527
    1C        C  408   4.284   4.155   2.645
    1C        C  409   4.321   4.096   2.768
    1C        C  410   4.173   4.250   2.890
    1C        C  411   4.278   4.155   2.889
    1C        C  412   4.122   4.298   3.012
    1C        C  413   4.177   4.255   3.135
    1C        C  414   4.002   4.382   3.254
    1C        C  415   4.121   4.305   3.255
    1C        C  416   3.942   4.415   3.377
    1C        C  417   4.004   4.381   3.499
    1C        C  418   3.812   4.473   3.617
    1C        C  419   3.942   4.417   3.621
    1C        C  420   3.747   4.503   3.739
    1C        C  421   3.811   4.481   3.864
    1C        C  422   3.607   4.528   3.988
    1C        C  423   3.747   4.511   3.986
    1C        C  424   3.539   4.535   4.112
    1C        C  425   3.609   4.536   4.234
    1C        C  426   3.400   4.563   4.356
    1C        C  427   3.541   4.556   4.357
    1C        C  428   3.330   4.556   4.479
    1C        C  429   3.405   4.561   4.599
    1C        C  430   3.195   4.520   4.721
    1C        C  431   3.334   4.546   4.720
    1C        C  432   3.124   4.499   4.843
    1C        C  433   3.203   4.497   4.958
    1C        C  434   4.379   4.123   2.049
    1C        C  435   4.445   4.000   2.054
    1C        C  436   4.298   4.158   2.162
    1C        C  437   4.332   4.094   2.284
    1C        C  438   4.184   4.252   2.403
    1C        C  439   4.287   4.155   2.403
    1C        C  440   4.126   4.297   2.523
    1C        C  441   4.182   4.253   2.645
    1C        C  442   4.005   4.373   2.763
    1C        C  443   4.122   4.295   2.766
    1C        C  444   3.944   4.410   2.885
    1C        C  445   4.001   4.370   3.008
    1C        C  446   3.811   4.466   3.129
    1C        C  447   3.941   4.409   3.130
    1C        C  448   3.746   4.491   3.252
    1C        C  449   3.811   4.470   3.375
    1C        C  450   3.605   4.524   3.497
    1C        C  451   3.743   4.496   3.496
    1C        C  452   3.538   4.534   3.621
    1C        C  453   3.610   4.536   3.742
    1C        C  454   3.399   4.542   3.866
    1C        C  455   3.540   4.542   3.865
    1C        C  456   3.328   4.542   3.988
    1C        C  457   3.398   4.546   4.110
    1C        C  458   3.195   4.504   4.237
    1C        C  459   3.331   4.543   4.234
    1C        C  460   3.129   4.482   4.360
    1C        C  461   3.194   4.519   4.480
    1C        C  462   2.997   4.434   4.602
    1C        C  463   3.125   4.495   4.601
    1C        C  464   2.932   4.399   4.723
    1C        C  465   2.992   4.443   4.844
    1C        C  466   2.803   4.334   4.958
    1C        C  467   2.907   4.429   4.958
    1C        C  468   4.120   4.284   2.042
    1C        C  469   4.186   4.247   2.160
    1C        C  470   4.008   4.371   2.277
    1C        C  471   4.131   4.298   2.280
    1C        C  472   3.942   4.401   2.398
    1C        C  473   4.005   4.371   2.521
    1C        C  474   3.809   4.459   2.642
    1C        C  475   3.940   4.406   2.642
    1C        C  476   3.744   4.486   2.764
    1C        C  477   3.812   4.462   2.885
    1C        C  478   3.605   4.512   3.009
    1C        C  479   3.744   4.486   3.007
    1C        C  480   3.535   4.524   3.132
    1C        C  481   3.608   4.523   3.253
    1C        C  482   3.395   4.537   3.378
    1C        C  483   3.536   4.535   3.374
    1C        C  484   3.325   4.534   3.500
    1C        C  485   3.396   4.538   3.622
    1C        C  486   3.188   4.507   3.745
    1C        C  487   3.326   4.536   3.744
    1C        C  488   3.124   4.485   3.869
    1C        C  489   3.191   4.506   3.992
    1C        C  490   3.001   4.418   4.115
    1C        C  491   3.127   4.482   4.115
    1C        C  492   2.942   4.384   4.239
    1C        C  493   3.001   4.422   4.361
    1C        C  494   2.826   4.304   4.482
    1C        C  495   2.936   4.392   4.483
    1C        C  496   2.769   4.258   4.603
    1C        C  497   2.820   4.311   4.723
    1C        C  498   2.664   4.164   4.847
    1C        C  499   2.754   4.272   4.842
    1C        C  500   2.586   4.121   4.955
    1C        C  501   4.005   4.361   2.039
    1C        C  502   3.814   4.462   2.155
    1C        C  503   3.942   4.404   2.157
    1C        C  504   3.742   4.474   2.276
    1C        C  505   3.811   4.454   2.397
    1C        C  506   3.605   4.509   2.520
    1C        C  507   3.743   4.478   2.518
    1C        C  508   3.535   4.515   2.643
    1C        C  509   3.605   4.514   2.765
    1C        C  510   3.394   4.526   2.887
    1C        C  511   3.535   4.525   2.887
    1C        C  512   3.324   4.519   3.010
    1C        C  513   3.394   4.527   3.132
    1C        C  514   3.189   4.490   3.255
    1C        C  515   3.325   4.528   3.255
    1C        C  516   3.123   4.466   3.378
    1C        C  517   3.188   4.499   3.499
    1C        C  518   2.999   4.411   3.627
    1C        C  519   3.123   4.479   3.623
    1C        C  520   2.938   4.376   3.749
    1C        C  521   3.000   4.417   3.869
    1C        C  522   2.837   4.285   3.997
    1C        C  523   2.942   4.379   3.992
    1C        C  524   2.790   4.232   4.119
    1C        C  525   2.836   4.291   4.239
    1C        C  526   2.699   4.131   4.364
    1C        C  527   2.779   4.247   4.361
    1C        C  528   2.659   4.074   4.487
    1C        C  529   2.688   4.142   4.607
    1C        C  530   2.578   3.962   4.731
    1C        C  531   2.641   4.089   4.729
    1C        C  532   2.537   3.903   4.854
    1C        C  533   2.521   3.997   4.961
    1C        C  534   3.619   4.559   2.043
    1C        C  535   3.749   4.508   2.039
    1C        C  536   3.534   4.538   2.156
    1C        C  537   3.605   4.511   2.277
    1C        C  538   3.393   4.517   2.402
    1C        C  539   3.534   4.518   2.399
    1C        C  540   3.320   4.515   2.523
    1C        C  541   3.394   4.520   2.643
    1C        C  542   3.184   4.488   2.767
    1C        C  543   3.322   4.518   2.765
    1C        C  544   3.118   4.465   2.890
    1C        C  545   3.187   4.485   3.011
    1C        C  546   2.996   4.399   3.135
    1C        C  547   3.120   4.468   3.134
    1C        C  548   2.936   4.369   3.259
    1C        C  549   2.993   4.409   3.382
    1C        C  550   2.831   4.278   3.507
    1C        C  551   2.937   4.371   3.506
    1C        C  552   2.778   4.233   3.630
    1C        C  553   2.829   4.286   3.750
    1C        C  554   2.700   4.122   3.878
    1C        C  555   2.786   4.234   3.874
    1C        C  556   2.659   4.064   4.000
    1C        C  557   2.700   4.123   4.122
    1C        C  558   2.596   3.940   4.247
    1C        C  559   2.663   4.064   4.245
    1C        C  560   2.564   3.879   4.371
    1C        C  561   2.596   3.948   4.490
    1C        C  562   2.523   3.750   4.615
    1C        C  563   2.561   3.886   4.613
    1C        C  564   2.509   3.683   4.739
    1C        C  565   2.515   3.762   4.857
    1C        C  566   2.527   3.549   4.980
    1C        C  567   2.530   3.688   4.975
    1C        C  568   3.329   4.467   2.042
    1C        C  569   3.394   4.511   2.158
    1C        C  570   3.184   4.477   2.281
    1C        C  571   3.322   4.512   2.280
    1C        C  572   3.114   4.455   2.402
    1C        C  573   3.182   4.483   2.523
    1C        C  574   2.989   4.404   2.649
    1C        C  575   3.114   4.469   2.646
    1C        C  576   2.930   4.362   2.771
    1C        C  577   2.991   4.404   2.891
    1C        C  578   2.825   4.272   3.015
    1C        C  579   2.935   4.361   3.014
    1C        C  580   2.780   4.223   3.140
    1C        C  581   2.829   4.277   3.261
    1C        C  582   2.698   4.113   3.387
    1C        C  583   2.782   4.226   3.385
    1C        C  584   2.664   4.053   3.511
    1C        C  585   2.696   4.117   3.632
    1C        C  586   2.599   3.934   3.753
    1C        C  587   2.661   4.061   3.757
    1C        C  588   2.578   3.870   3.877
    1C        C  589   2.600   3.936   4.000
    1C        C  590   2.536   3.739   4.128
    1C        C  591   2.572   3.875   4.124
    1C        C  592   2.524   3.671   4.252
    1C        C  593   2.530   3.742   4.374
    1C        C  594   2.514   3.533   4.500
    1C        C  595   2.518   3.674   4.497
    1C        C  596   2.521   3.465   4.624
    1C        C  597   2.511   3.541   4.743
    1C        C  598   2.530   3.328   4.865
    1C        C  599   2.521   3.469   4.865
    1C        C  600   2.533   3.248   4.980
    1C        C  601   3.196   4.430   2.048
    1C        C  602   2.979   4.401   2.158
    1C        C  603   3.115   4.446   2.161
    1C        C  604   2.924   4.362   2.283
    1C        C  605   2.986   4.396   2.406
    1C        C  606   2.819   4.270   2.530
    1C        C  607   2.927   4.361   2.530
    1C        C  608   2.765   4.223   2.651
    1C        C  609   2.819   4.274   2.772
    1C        C  610   2.687   4.109   2.896
    1C        C  611   2.774   4.221   2.894
    1C        C  612   2.654   4.050   3.020
    1C        C  613   2.696   4.110   3.141
    1C        C  614   2.587   3.931   3.267
    1C        C  615   2.654   4.056   3.265
    1C        C  616   2.571   3.861   3.389
    1C        C  617   2.606   3.925   3.510
    1C        C  618   2.536   3.726   3.639
    1C        C  619   2.575   3.862   3.633
    1C        C  620   2.519   3.664   3.765
    1C        C  621   2.533   3.736   3.885
    1C        C  622   2.510   3.526   4.011
    1C        C  623   2.521   3.667   4.008
    1C        C  624   2.512   3.456   4.134
    1C        C  625   2.515   3.530   4.254
    1C        C  626   2.538   3.322   4.381
    1C        C  627   2.517   3.462   4.378
    1C        C  628   2.555   3.254   4.503
    1C        C  629   2.539   3.325   4.624
    1C        C  630   2.596   3.120   4.744
    1C        C  631   2.552   3.255   4.746
    1C        C  632   2.615   3.048   4.865
    1C        C  633   2.563   3.111   4.983
    1C        C  634   2.781   4.304   2.055
    1C        C  635   2.890   4.393   2.047
    1C        C  636   2.753   4.229   2.170
    1C        C  637   2.810   4.276   2.290
    1C        C  638   2.676   4.109   2.409
    1C        C  639   2.763   4.220   2.410
    1C        C  640   2.640   4.048   2.531
    1C        C  641   2.680   4.111   2.652
    1C        C  642   2.588   3.921   2.778
    1C        C  643   2.645   4.050   2.774
    1C        C  644   2.567   3.855   2.901
    1C        C  645   2.592   3.923   3.022
    1C        C  646   2.527   3.726   3.149
    1C        C  647   2.564   3.862   3.146
    1C        C  648   2.512   3.656   3.271
    1C        C  649   2.531   3.726   3.393
    1C        C  650   2.510   3.518   3.520
    1C        C  651   2.519   3.659   3.516
    1C        C  652   2.518   3.450   3.644
    1C        C  653   2.512   3.523   3.765
    1C        C  654   2.536   3.316   3.888
    1C        C  655   2.515   3.456   3.889
    1C        C  656   2.548   3.250   4.013
    1C        C  657   2.535   3.316   4.137
    1C        C  658   2.602   3.117   4.259
    1C        C  659   2.556   3.251   4.260
    1C        C  660   2.630   3.052   4.381
    1C        C  661   2.599   3.120   4.502
    1C        C  662   2.709   2.938   4.626
    1C        C  663   2.629   3.055   4.623
    1C        C  664   2.751   2.879   4.748
    1C        C  665   2.700   2.933   4.870
    1C        C  666   2.747   2.867   4.984
    1C        C  667   2.682   4.025   2.052
    1C        C  668   2.684   4.106   2.166
    1C        C  669   2.591   3.913   2.290
    1C        C  670   2.644   4.045   2.287
    1C        C  671   2.563   3.849   2.413
    1C        C  672   2.589   3.916   2.534
    1C        C  673   2.513   3.720   2.658
    1C        C  674   2.560   3.853   2.657
    1C        C  675   2.510   3.650   2.780
    1C        C  676   2.532   3.718   2.902
    1C        C  677   2.500   3.515   3.031
    1C        C  678   2.515   3.655   3.028
    1C        C  679   2.500   3.444   3.153
    1C        C  680   2.501   3.515   3.275
    1C        C  681   2.529   3.307   3.400
    1C        C  682   2.504   3.446   3.398
    1C        C  683   2.549   3.240   3.523
    1C        C  684   2.533   3.310   3.644
    1C        C  685   2.600   3.111   3.770
    1C        C  686   2.550   3.243   3.768
    1C        C  687   2.634   3.053   3.894
    1C        C  688   2.602   3.120   4.015
    1C        C  689   2.714   2.939   4.137
    1C        C  690   2.634   3.055   4.136
    1C        C  691   2.760   2.886   4.260
    1C        C  692   2.713   2.937   4.382
    1C        C  693   2.752   2.879   4.505
    1C        C  694   2.623   3.898   2.055
    1C        C  695   2.534   3.702   2.175
    1C        C  696   2.576   3.837   2.172
    1C        C  697   2.518   3.635   2.298
    1C        C  698   2.526   3.712   2.416
    1C        C  699   2.493   3.504   2.542
    1C        C  700   2.504   3.645   2.538
    1C        C  701   2.500   3.435   2.665
    1C        C  702   2.501   3.509   2.786
    1C        C  703   2.522   3.301   2.912
    1C        C  704   2.501   3.441   2.910
    1C        C  705   2.544   3.235   3.035
    1C        C  706   2.529   3.305   3.156
    1C        C  707   2.594   3.104   3.278
    1C        C  708   2.547   3.238   3.279
    1C        C  709   2.624   3.042   3.401
    1C        C  710   2.596   3.106   3.524
    1C        C  711   2.712   2.933   3.648
    1C        C  712   2.628   3.047   3.648
    1C        C  713   2.763   2.885   3.771
    1C        C  714   2.716   2.938   3.893
    1C        C  715   2.755   2.879   4.016
    1C        C  716   2.455   3.497   2.064
    1C        C  717   2.492   3.632   2.061
    1C        C  718   2.465   3.420   2.185
    1C        C  719   2.486   3.496   2.303
    1C        C  720   2.514   3.288   2.424
    1C        C  721   2.484   3.426   2.425
    1C        C  722   2.536   3.223   2.547
    1C        C  723   2.524   3.296   2.667
    1C        C  724   2.589   3.098   2.790
    1C        C  725   2.536   3.230   2.791
    1C        C  726   2.622   3.037   2.912
    1C        C  727   2.593   3.102   3.034
    1C        C  728   2.709   2.926   3.161
    1C        C  729   2.626   3.040   3.156
    1C        C  730   2.756   2.873   3.284
    1C        C  731   2.707   2.927   3.405
    1C        C  732   2.754   2.874   3.527
    1C        C  733   2.487   3.197   2.072
    1C        C  734   2.482   3.278   2.186
    1C        C  735   2.586   3.084   2.305
    1C        C  736   2.525   3.212   2.305
    1C        C  737   2.616   3.020   2.427
    1C        C  738   2.589   3.092   2.545
    1C        C  739   2.708   2.920   2.673
    1C        C  740   2.627   3.035   2.669
    1C        C  741   2.750   2.862   2.795
    1C        C  742   2.704   2.922   2.915
    1C        C  743   2.749   2.870   3.038
    1C        C  744   2.546   3.071   2.070
    1C        C  745   2.683   2.896   2.187
    1C        C  746   2.608   3.016   2.183
    1C        C  747   2.729   2.839   2.307
    1C        C  748   2.689   2.899   2.428
    1C        C  749   2.740   2.854   2.552
    1C        C  750   2.736   2.841   2.069
    1C        C  751   3.663   2.320   1.976
    1C        O  752   3.684   2.208   2.030
    1C        O  753   3.655   2.345   1.839
    1C        C  754   4.604   3.045   1.964
    1C        O  755   4.571   3.027   1.844
    1C        O  756   4.740   3.024   1.990
    1C        C  757   4.468   4.224   1.987
    1C        O  758   4.523   4.310   2.061
    1C        O  759   4.425   4.279   1.866
    1C        C  760   3.592   4.665   1.944
    1C        O  761   3.651   4.775   1.964
    1C        O  762   3.582   4.642   1.806
    1C        C  763   2.885   4.497   1.942
    1C        O  764   2.917   4.472   1.823
    1C        O  765   2.810   4.614   1.963
    1C        C  766   2.355   3.460   1.962
    1C        O  767   2.375   3.465   1.837
    1C        O  768   2.219   3.490   1.960
    1C        C  769   4.695   3.605   5.055
    1C        O  770   4.674   3.608   5.180
    1C        O  771   4.829   3.635   5.028
    1C        C  772   4.265   4.434   5.052
    1C        O  773   4.232   4.418   5.172
    1C        O  774   4.331   4.557   5.040
    1C        C  775   4.144   2.502   5.059
    1C        O  776   4.156   2.379   5.033
    1C        O  777   4.190   2.548   5.183
    1C        C  778   2.876   4.550   5.037
    1C        O  779   2.774   4.618   5.008
    1C        O  780   2.893   4.538   5.176
    1C        C  781   2.514   3.032   5.098
    1C        O  782   2.436   2.934   5.081
    1C        O  783   2.511   3.076   5.230
    1C        C  784   2.418   3.979   5.066
    1C        O  785   2.296   3.987   5.034
    1C        O  786   2.454   3.989   5.201
    1C        C  787   2.960   2.415   2.006
    1C        O  788   2.933   2.423   1.884
    1C        O  789   2.868   2.328   2.063
    1C        C  790   3.193   2.394   5.088
    1C        O  791   3.133   2.283   5.092
    1C        O  792   3.225   2.438   5.217
    1C        H  793   4.289   3.012   5.065
    1C        H  794   4.164   2.809   5.069
    1C        H  795   4.512   3.125   5.055
    1C        H  796   4.479   3.371   5.059
    1C        H  797   4.559   3.822   5.038
    1C        H  798   4.357   3.943   5.038
    1C        H  799   4.312   4.186   5.047
    1C        H  800   4.038   4.553   5.018
    1C        H  801   3.817   4.639   5.012
    1C        H  802   3.587   4.654   5.024
    1C        H  803   3.397   4.480   5.039
    1C        H  804   3.149   4.513   5.050
    1C        H  805   3.883   2.497   5.071
    1C        H  806   3.673   2.495   5.077
    1C        H  807   2.987   2.535   5.052
    1C        H  808   3.455   2.406   5.059
    1C        H  809   2.852   2.702   5.069
    1C        H  810   2.739   2.920   5.077
    1C        H  811   2.470   3.277   5.062
    1C        H  812   2.492   3.510   5.073
    1C        H  813   2.536   3.735   5.071
    1C        H  814   2.597   4.172   5.048
    1C        H  815   2.784   4.291   5.053
    1C        H  816   2.749   2.908   1.987
    1C        H  817   2.842   2.673   1.983
    1C        H  818   3.215   2.440   1.988
    1C        H  819   3.420   2.388   1.991
    1C        H  820   3.855   2.514   1.973
    1C        H  821   4.047   2.658   1.972
    1C        H  822   4.279   2.697   1.986
    1C        H  823   4.420   2.871   1.982
    1C        H  824   4.605   3.304   1.975
    1C        H  825   4.529   3.523   1.956
    1C        H  826   4.551   3.741   1.964
    1C        H  827   3.785   4.466   1.947
    1C        H  828   3.980   4.399   1.942
    1C        H  829   4.147   4.235   1.951
    1C        H  830   4.499   3.969   1.967
    1C        H  831   2.640   3.837   1.968
    1C        H  832   2.706   4.068   1.957
    1C        H  833   2.707   4.301   1.978
    1C        H  834   3.390   4.434   1.960
    1C        H  835   3.144   4.444   1.956
    1C        H  836   2.515   3.007   1.990
    1C        H  837   2.429   3.228   1.988
    1C        H  838   2.507   3.679   1.966
    2V3OU   H29  839   2.803   3.555   5.971
    2V3OU   C27  840   2.786   3.503   6.068
    2V3OU   H27  841   2.718   3.561   6.136
    2V3OU   H28  842   2.729   3.408   6.059
    2V3OU   O11  843   2.908   3.480   6.139
    2V3OU   C15  844   2.919   3.398   6.249
    2V3OU   C13  845   3.050   3.380   6.298
    2V3OU   C14  846   3.075   3.271   6.383
    2V3OU   C16  847   2.973   3.186   6.423
    2V3OU    H6  848   2.994   3.105   6.494
    2V3OU   C12  849   3.214   3.233   6.416
    2V3OU    O2  850   3.243   3.130   6.481
    2V3OU   C10  851   3.324   3.313   6.361
    2V3OU    C8  852   3.456   3.274   6.382
    2V3OU   O10  853   3.487   3.158   6.446
    2V3OU   H26  854   3.403   3.114   6.463
    2V3OU    C6  855   3.566   3.353   6.337
    2V3OU    C5  856   3.543   3.469   6.263
    2V3OU    C4  857   3.704   3.295   6.339
    2V3OU    H4  858   3.725   3.231   6.430
    2V3OU    H5  859   3.713   3.227   6.249
    2V3OU    C2  860   3.814   3.400   6.331
    2V3OU    O6  861   3.803   3.476   6.452
    2V3OU   H21  862   3.769   3.561   6.419
    2V3OU    C3  863   3.786   3.496   6.215
    2V3OU    H2  864   3.865   3.575   6.216
    2V3OU    H3  865   3.780   3.444   6.116
    2V3OU   C25  866   3.950   3.330   6.322
    2V3OU    O7  867   3.996   3.292   6.214
    2V3OU   C26  868   4.030   3.292   6.445
    2V3OU   H22  869   4.062   3.390   6.487
    2V3OU   H23  870   4.117   3.225   6.419
    2V3OU    O8  871   3.964   3.210   6.539
    2V3OU   H24  872   3.925   3.264   6.610
    2V3OU    C1  873   3.653   3.566   6.234
    2V3OU    H1  874   3.626   3.619   6.137
    2V3OU    O3  875   3.657   3.657   6.344
    2V3OU   C19  876   3.620   3.795   6.343
    2V3OU    H9  877   3.517   3.809   6.297
    2V3OU    O4  878   3.715   3.855   6.257
    2V3OU   C20  879   3.845   3.879   6.312
    2V3OU   H10  880   3.895   3.779   6.332
    2V3OU   C24  881   3.612   3.855   6.483
    2V3OU   H16  882   3.547   3.786   6.544
    2V3OU   H17  883   3.566   3.957   6.477
    2V3OU   C23  884   3.752   3.875   6.544
    2V3OU   H15  885   3.794   3.771   6.563
    2V3OU    N1  886   3.735   3.955   6.664
    2V3OU   H19  887   3.815   3.922   6.713
    2V3OU   H20  888   3.653   3.922   6.710
    2V3OU   C21  889   3.849   3.950   6.447
    2V3OU   H11  890   3.953   3.928   6.484
    2V3OU    O5  891   3.834   4.090   6.463
    2V3OU   H18  892   3.773   4.104   6.537
    2V3OU   C22  893   3.914   3.947   6.195
    2V3OU   H12  894   3.864   4.045   6.176
    2V3OU   H13  895   3.903   3.885   6.102
    2V3OU   H14  896   4.024   3.956   6.216
    2V3OU   C11  897   3.159   3.470   6.257
    2V3OU    O1  898   3.131   3.587   6.224
    2V3OU    C9  899   3.298   3.430   6.285
    2V3OU    C7  900   3.407   3.502   6.235
    2V3OU    O9  901   3.382   3.621   6.170
    2V3OU   H25  902   3.286   3.632   6.165
    2V3OU   C17  903   2.816   3.314   6.297
    2V3OU    H7  904   2.714   3.342   6.272
    2V3OU   C18  905   2.842   3.206   6.380
    2V3OU    H8  906   2.754   3.156   6.424
    3SOL     OW  907   3.267   2.931   4.186
    3SOL    HW1  908   3.213   2.920   4.269
    3SOL    HW2  909   3.257   3.025   4.152
    4SOL     OW  910   0.596   6.352   0.694
    4SOL    HW1  911   0.628   6.436   0.739
    4SOL    HW2  912   0.530   6.376   0.623
    5SOL     OW  913   3.986   2.323   0.819
    5SOL    HW1  914   4.014   2.346   0.912
    5SOL    HW2  915   3.892   2.355   0.803
    6SOL     OW  916   3.606   1.763   2.511
    6SOL    HW1  917   3.695   1.806   2.495
    6SOL    HW2  918   3.571   1.727   2.424
    7SOL     OW  919   2.137   2.880   4.681
    7SOL    HW1  920   2.189   2.952   4.635
    7SOL    HW2  921   2.070   2.841   4.617
    8SOL     OW  922   1.204   2.639   5.930
    8SOL    HW1  923   1.202   2.680   6.022
    8SOL    HW2  924   1.286   2.584   5.920
    9SOL     OW  925   1.112   2.409   6.456
    9SOL    HW1  926   1.166   2.405   6.372
    9SOL    HW2  927   1.159   2.467   6.523
   10SOL     OW  928   5.362   5.015   1.599
   10SOL    HW1  929   5.341   5.037   1.694
   10SOL    HW2  930   5.453   5.050   1.575
   11SOL     OW  931   2.962   1.938   0.521
   11SOL    HW1  932   2.962   1.861   0.584
   11SOL    HW2  933   2.928   1.908   0.431
   12SOL     OW  934   4.966   5.618   1.763
   12SOL    HW1  935   4.948   5.528   1.724
   12SOL    HW2  936   5.054   5.618   1.810
   13SOL     OW  937   5.612   5.963   2.077
   13SOL    HW1  938   5.527   6.007   2.105
   13SOL    HW2  939   5.661   6.022   2.014
   14SOL     OW  940   3.913   6.237   0.721
   14SOL    HW1  941   3.961   6.323   0.743
   14SOL    HW2  942   3.947   6.202   0.634
   15SOL     OW  943   0.551   6.615   7.016
   15SOL    HW1  944   0.635   6.579   6.974
   15SOL    HW2  945   0.520   6.695   6.965
   16SOL     OW  946   1.942   5.606   4.755
   16SOL    HW1  947   2.022   5.663   4.769
   16SOL    HW2  948   1.859   5.660   4.770
   17SOL     OW  949   6.977   1.747   3.742
   17SOL    HW1  950   0.015   1.819   3.712
   17SOL    HW2  951   0.003   1.662   3.753
   18SOL     OW  952   2.795   1.850   5.768
   18SOL    HW1  953   2.787   1.766   5.821
   18SOL    HW2  954   2.882   1.851   5.719
   19SOL     OW  955   2.988   5.643   2.732
   19SOL    HW1  956   2.948   5.721   2.685
   19SOL    HW2  957   2.988   5.660   2.830
   20SOL     OW  958   6.947   1.787   5.621
   20SOL    HW1  959   7.014   1.717   5.644
   20SOL    HW2  960   6.993   1.876   5.614
   21SOL     OW  961   1.621   3.786   1.818
   21SOL    HW1  962   1.652   3.851   1.748
   21SOL    HW2  963   1.699   3.759   1.875
   22SOL     OW  964   0.756   1.232   0.076
   22SOL    HW1  965   0.668   1.210   0.118
   22SOL    HW2  966   0.750   1.320   0.029
   23SOL     OW  967   6.897   5.337   6.880
   23SOL    HW1  968   6.989   5.298   6.877
   23SOL    HW2  969   6.829   5.263   6.879
   24SOL     OW  970   5.137   1.047   6.784
   24SOL    HW1  971   5.211   1.089   6.730
   24SOL    HW2  972   5.139   0.948   6.770
   25SOL     OW  973   1.238   0.953   4.765
   25SOL    HW1  974   1.169   0.882   4.756
   25SOL    HW2  975   1.259   0.991   4.675
   26SOL     OW  976   2.016   0.121   6.087
   26SOL    HW1  977   2.083   0.194   6.072
   26SOL    HW2  978   1.925   0.152   6.059
   27SOL     OW  979   0.217   6.997   1.866
   27SOL    HW1  980   0.200   0.037   1.791
   27SOL    HW2  981   0.196   6.904   1.837
   28SOL     OW  982   1.527   1.095   5.889
   28SOL    HW1  983   1.499   1.026   5.955
   28SOL    HW2  984   1.536   1.184   5.935
   29SOL     OW  985   5.576   1.040   1.170
   29SOL    HW1  986   5.610   0.956   1.127
   29SOL    HW2  987   5.517   1.017   1.247
   30SOL     OW  988   5.030   0.246   4.920
   30SOL    HW1  989   4.985   0.228   4.832
   30SOL    HW2  990   5.070   0.338   4.918
   31SOL     OW  991   6.553   4.824   4.584
   31SOL    HW1  992   6.540   4.916   4.623
   31SOL    HW2  993   6.522   4.755   4.650
   32SOL     OW  994   3.171   1.485   1.054
   32SOL    HW1  995   3.212   1.397   1.032
   32SOL    HW2  996   3.076   1.486   1.022
   33SOL     OW  997   1.916   4.985   5.240
   33SOL    HW1  998   1.847   5.033   5.293
   33SOL    HW2  999   1.931   4.894   5.280
   34SOL     OW 1000   2.157   6.225   5.710
   34SOL    HW1 1001   2.172   6.178   5.797
   34SOL    HW2 1002   2.237   6.281   5.688
   35SOL     OW 1003   1.069   3.018   4.135
   35SOL    HW1 1004   1.140   2.988   4.072
   35SOL    HW2 1005   1.096   3.104   4.178
   36SOL     OW 1006   5.716   1.250   3.747
   36SOL    HW1 1007   5.778   1.270   3.823
   36SOL    HW2 1008   5.673   1.335   3.716
   37SOL     OW 1009   1.578   6.496   4.610
   37SOL    HW1 1010   1.669   6.481   4.570
   37SOL    HW2 1011   1.569   6.443   4.694
   38SOL     OW 1012   0.875   3.235   1.077
   38SOL    HW1 1013   0.930   3.238   1.161
   38SOL    HW2 1014   0.792   3.183   1.093
   39SOL     OW 1015   6.592   5.138   0.836
   39SOL    HW1 1016   6.639   5.049   0.833
   39SOL    HW2 1017   6.496   5.124   0.857
   40SOL     OW 1018   3.867   0.773   7.011
   40SOL    HW1 1019   3.944   0.833   0.005
   40SOL    HW2 1020   3.834   0.786   6.917
   41SOL     OW 1021   5.604   3.965   1.691
   41SOL    HW1 1022   5.653   4.048   1.719
   41SOL    HW2 1023   5.529   3.990   1.630
   42SOL     OW 1024   2.361   3.649   0.002
   42SOL    HW1 1025   2.261   3.644   0.005
   42SOL    HW2 1026   2.398   3.630   0.093
   43SOL     OW 1027   4.957   6.967   4.794
   43SOL    HW1 1028   4.980   0.027   4.745
   43SOL    HW2 1029   4.885   6.918   4.744
   44SOL     OW 1030   6.964   0.575   6.699
   44SOL    HW1 1031   7.016   0.651   6.661
   44SOL    HW2 1032   6.877   0.608   6.735
   45SOL     OW 1033   2.995   4.232   5.882
   45SOL    HW1 1034   3.002   4.240   5.982
   45SOL    HW2 1035   2.905   4.264   5.853
   46SOL     OW 1036   0.914   4.563   4.584
   46SOL    HW1 1037   0.858   4.586   4.664
   46SOL    HW2 1038   0.866   4.591   4.500
   47SOL     OW 1039   6.187   4.155   6.914
   47SOL    HW1 1040   6.142   4.140   6.825
   47SOL    HW2 1041   6.258   4.223   6.904
   48SOL     OW 1042   0.300   4.204   6.998
   48SOL    HW1 1043   0.221   4.266   7.000
   48SOL    HW2 1044   0.356   4.218   0.055
   49SOL     OW 1045   3.191   2.097   6.633
   49SOL    HW1 1046   3.209   2.083   6.730
   49SOL    HW2 1047   3.206   2.011   6.584
   50SOL     OW 1048   4.872   2.173   6.665
   50SOL    HW1 1049   4.863   2.246   6.733
   50SOL    HW2 1050   4.851   2.085   6.708
   51SOL     OW 1051   1.325   6.306   2.432
   51SOL    HW1 1052   1.395   6.271   2.370
   51SOL    HW2 1053   1.331   6.258   2.520
   52SOL     OW 1054   5.954   2.026   2.408
   52SOL    HW1 1055   6.018   2.096   2.374
   52SOL    HW2 1056   5.875   2.021   2.347
   53SOL     OW 1057   4.534   0.672   0.674
   53SOL    HW1 1058   4.570   0.728   0.748
   53SOL    HW2 1059   4.459   0.615   0.708
   54SOL     OW 1060   6.690   0.615   6.755
   54SOL    HW1 1061   6.666   0.667   6.673
   54SOL    HW2 1062   6.700   0.676   6.833
   55SOL     OW 1063   1.788   3.505   5.596
   55SOL    HW1 1064   1.849   3.442   5.549
   55SOL    HW2 1065   1.719   3.454   5.647
   56SOL     OW 1066   0.716   2.782   6.829
   56SOL    HW1 1067   0.648   2.726   6.782
   56SOL    HW2 1068   0.695   2.879   6.814
   57SOL     OW 1069   3.936   5.705   1.479
   57SOL    HW1 1070   3.973   5.631   1.423
   57SOL    HW2 1071   3.943   5.792   1.429
   58SOL     OW 1072   0.596   0.955   6.805
   58SOL    HW1 1073   0.524   0.992   6.746
   58SOL    HW2 1074   0.633   1.028   6.863
   59SOL     OW 1075   3.882   2.734   6.761
   59SOL    HW1 1076   3.784   2.755   6.766
   59SOL    HW2 1077   3.927   2.802   6.703
   60SOL     OW 1078   6.779   3.093   2.888
   60SOL    HW1 1079   6.702   3.125   2.943
   60SOL    HW2 1080   6.763   2.997   2.861
   61SOL     OW 1081   1.268   5.859   2.900
   61SOL    HW1 1082   1.176   5.828   2.926
   61SOL    HW2 1083   1.288   5.830   2.807
   62SOL     OW 1084   5.227   3.093   2.581
   62SOL    HW1 1085   5.145   3.131   2.539
   62SOL    HW2 1086   5.308   3.137   2.541
   63SOL     OW 1087   4.064   6.831   6.764
   63SOL    HW1 1088   4.006   6.870   6.835
   63SOL    HW2 1089   4.067   6.893   6.686
   64SOL     OW 1090   1.846   2.360   6.796
   64SOL    HW1 1091   1.778   2.310   6.742
   64SOL    HW2 1092   1.840   2.332   6.892
   65SOL     OW 1093   0.934   4.868   5.570
   65SOL    HW1 1094   0.958   4.772   5.556
   65SOL    HW2 1095   0.914   4.883   5.667
   66SOL     OW 1096   4.609   1.188   1.531
   66SOL    HW1 1097   4.561   1.275   1.519
   66SOL    HW2 1098   4.670   1.195   1.610
   67SOL     OW 1099   0.136   3.453   1.024
   67SOL    HW1 1100   0.169   3.463   1.118
   67SOL    HW2 1101   0.174   3.369   0.984
   68SOL     OW 1102   0.372   1.035   6.213
   68SOL    HW1 1103   0.349   1.127   6.183
   68SOL    HW2 1104   0.436   1.040   6.290
   69SOL     OW 1105   1.692   6.999   6.212
   69SOL    HW1 1106   1.629   6.946   6.269
   69SOL    HW2 1107   1.655   0.067   6.197
   70SOL     OW 1108   4.684   4.886   3.289
   70SOL    HW1 1109   4.754   4.940   3.243
   70SOL    HW2 1110   4.671   4.800   3.240
   71SOL     OW 1111   5.084   1.985   5.102
   71SOL    HW1 1112   5.096   2.058   5.035
   71SOL    HW2 1113   5.138   2.005   5.184
   72SOL     OW 1114   6.679   0.876   2.423
   72SOL    HW1 1115   6.698   0.974   2.412
   72SOL    HW2 1116   6.746   0.836   2.486
   73SOL     OW 1117   2.992   1.082   1.249
   73SOL    HW1 1118   3.087   1.100   1.225
   73SOL    HW2 1119   2.974   0.984   1.248
   74SOL     OW 1120   2.447   1.128   0.009
   74SOL    HW1 1121   2.369   1.099   6.976
   74SOL    HW2 1122   2.446   1.227   0.017
   75SOL     OW 1123   2.725   2.734   1.387
   75SOL    HW1 1124   2.675   2.655   1.351
   75SOL    HW2 1125   2.684   2.818   1.351
   76SOL     OW 1126   3.901   5.226   6.473
   76SOL    HW1 1127   3.930   5.307   6.524
   76SOL    HW2 1128   3.929   5.236   6.377
   77SOL     OW 1129   6.801   5.049   4.454
   77SOL    HW1 1130   6.859   4.966   4.454
   77SOL    HW2 1131   6.768   5.066   4.546
   78SOL     OW 1132   5.477   1.164   1.448
   78SOL    HW1 1133   5.386   1.136   1.479
   78SOL    HW2 1134   5.467   1.222   1.367
   79SOL     OW 1135   1.495   4.596   4.101
   79SOL    HW1 1136   1.506   4.655   4.181
   79SOL    HW2 1137   1.422   4.632   4.043
   80SOL     OW 1138   3.725   2.114   5.372
   80SOL    HW1 1139   3.693   2.208   5.374
   80SOL    HW2 1140   3.815   2.110   5.327
   81SOL     OW 1141   2.976   5.031   3.248
   81SOL    HW1 1142   2.985   5.100   3.175
   81SOL    HW2 1143   2.953   5.077   3.334
   82SOL     OW 1144   3.457   0.486   1.905
   82SOL    HW1 1145   3.450   0.392   1.938
   82SOL    HW2 1146   3.372   0.509   1.856
   83SOL     OW 1147   5.463   1.343   3.534
   83SOL    HW1 1148   5.483   1.295   3.620
   83SOL    HW2 1149   5.365   1.364   3.530
   84SOL     OW 1150   5.598   2.437   2.685
   84SOL    HW1 1151   5.551   2.516   2.645
   84SOL    HW2 1152   5.537   2.392   2.750
   85SOL     OW 1153   2.462   5.474   3.320
   85SOL    HW1 1154   2.492   5.518   3.405
   85SOL    HW2 1155   2.541   5.433   3.274
   86SOL     OW 1156   5.159   1.244   0.870
   86SOL    HW1 1157   5.103   1.273   0.948
   86SOL    HW2 1158   5.249   1.214   0.902
   87SOL     OW 1159   2.814   3.275   6.713
   87SOL    HW1 1160   2.810   3.341   6.639
   87SOL    HW2 1161   2.910   3.262   6.741
   88SOL     OW 1162   1.560   2.188   1.056
   88SOL    HW1 1163   1.540   2.092   1.035
   88SOL    HW2 1164   1.644   2.193   1.110
   89SOL     OW 1165   3.668   4.164   4.716
   89SOL    HW1 1166   3.737   4.103   4.755
   89SOL    HW2 1167   3.591   4.171   4.779
   90SOL     OW 1168   6.685   3.470   2.220
   90SOL    HW1 1169   6.644   3.485   2.310
   90SOL    HW2 1170   6.663   3.547   2.160
   91SOL     OW 1171   4.669   5.340   0.723
   91SOL    HW1 1172   4.647   5.426   0.769
   91SOL    HW2 1173   4.729   5.286   0.781
   92SOL     OW 1174   5.761   5.517   0.100
   92SOL    HW1 1175   5.816   5.459   0.040
   92SOL    HW2 1176   5.815   5.545   0.179
   93SOL     OW 1177   3.069   3.677   1.899
   93SOL    HW1 1178   3.099   3.734   1.975
   93SOL    HW2 1179   3.120   3.591   1.899
   94SOL     OW 1180   3.025   1.520   4.430
   94SOL    HW1 1181   3.019   1.524   4.529
   94SOL    HW2 1182   2.933   1.525   4.391
   95SOL     OW 1183   1.249   6.116   3.938
   95SOL    HW1 1184   1.261   6.026   3.897
   95SOL    HW2 1185   1.167   6.116   3.995
   96SOL     OW 1186   0.139   6.673   0.025
   96SOL    HW1 1187   0.115   6.733   6.973
   96SOL    HW2 1188   0.060   6.618   0.051
   97SOL     OW 1189   3.686   4.754   5.249
   97SOL    HW1 1190   3.650   4.663   5.267
   97SOL    HW2 1191   3.687   4.807   5.333
   98SOL     OW 1192   0.991   3.012   4.704
   98SOL    HW1 1193   1.035   3.037   4.790
   98SOL    HW2 1194   1.025   2.922   4.675
   99SOL     OW 1195   4.520   4.701   4.900
   99SOL    HW1 1196   4.460   4.642   4.955
   99SOL    HW2 1197   4.475   4.722   4.813
  100SOL     OW 1198   1.494   1.190   5.283
  100SOL    HW1 1199   1.556   1.111   5.283
  100SOL    HW2 1200   1.461   1.206   5.190
  101SOL     OW 1201   5.533   3.129   2.682
  101SOL    HW1 1202   5.574   3.045   2.646
  101SOL    HW2 1203   5.596   3.205   2.669
  102SOL     OW 1204   3.579   6.949   0.317
  102SOL    HW1 1205   3.519   6.980   0.243
  102SOL    HW2 1206   3.550   6.992   0.403
  103SOL     OW 1207   1.784   2.054   1.631
  103SOL    HW1 1208   1.848   2.087   1.562
  103SOL    HW2 1209   1.798   2.103   1.717
  104SOL     OW 1210   0.608   4.316   1.312
  104SOL    HW1 1211   0.537   4.304   1.242
  104SOL    HW2 1212   0.567   4.356   1.394
  105SOL     OW 1213   6.468   1.387   5.243
  105SOL    HW1 1214   6.476   1.301   5.293
  105SOL    HW2 1215   6.422   1.455   5.301
  106SOL     OW 1216   4.664   3.077   1.604
  106SOL    HW1 1217   4.599   3.040   1.537
  106SOL    HW2 1218   4.630   3.060   1.696
  107SOL     OW 1219   4.430   6.599   2.620
  107SOL    HW1 1220   4.456   6.675   2.561
  107SOL    HW2 1221   4.392   6.524   2.564
  108SOL     OW 1222   3.265   1.460   4.660
  108SOL    HW1 1223   3.290   1.364   4.650
  108SOL    HW2 1224   3.263   1.503   4.569
  109SOL     OW 1225   2.043   1.904   5.290
  109SOL    HW1 1226   1.991   1.835   5.240
  109SOL    HW2 1227   2.015   1.995   5.261
  110SOL     OW 1228   4.319   4.668   5.391
  110SOL    HW1 1229   4.221   4.674   5.370
  110SOL    HW2 1230   4.331   4.650   5.489
  111SOL     OW 1231   6.204   3.150   1.373
  111SOL    HW1 1232   6.121   3.203   1.391
  111SOL    HW2 1233   6.276   3.212   1.342
  112SOL     OW 1234   4.707   6.637   5.257
  112SOL    HW1 1235   4.644   6.633   5.335
  112SOL    HW2 1236   4.747   6.729   5.251
  113SOL     OW 1237   1.011   5.168   2.098
  113SOL    HW1 1238   1.084   5.199   2.036
  113SOL    HW2 1239   1.036   5.080   2.137
  114SOL     OW 1240   6.937   1.748   2.198
  114SOL    HW1 1241   6.942   1.682   2.273
  114SOL    HW2 1242   0.003   1.790   2.185
  115SOL     OW 1243   4.435   1.166   3.091
  115SOL    HW1 1244   4.374   1.105   3.141
  115SOL    HW2 1245   4.402   1.260   3.098
  116SOL     OW 1246   6.241   5.395   0.731
  116SOL    HW1 1247   6.152   5.442   0.739
  116SOL    HW2 1248   6.293   5.409   0.815
  117SOL     OW 1249   2.614   1.534   0.558
  117SOL    HW1 1250   2.530   1.480   0.558
  117SOL    HW2 1251   2.689   1.478   0.595
  118SOL     OW 1252   6.964   2.464   1.977
  118SOL    HW1 1253   6.891   2.405   1.944
  118SOL    HW2 1254   6.968   2.547   1.922
  119SOL     OW 1255   6.180   5.678   5.075
  119SOL    HW1 1256   6.120   5.724   5.140
  119SOL    HW2 1257   6.129   5.606   5.028
  120SOL     OW 1258   4.324   1.553   4.714
  120SOL    HW1 1259   4.402   1.606   4.745
  120SOL    HW2 1260   4.243   1.577   4.768
  121SOL     OW 1261   0.023   5.447   5.906
  121SOL    HW1 1262   7.023   5.403   5.820
  121SOL    HW2 1263   0.095   5.515   5.890
  122SOL     OW 1264   0.218   4.925   5.738
  122SOL    HW1 1265   0.150   4.952   5.670
  122SOL    HW2 1266   0.173   4.882   5.815
  123SOL     OW 1267   0.830   2.394   1.090
  123SOL    HW1 1268   0.840   2.331   1.013
  123SOL    HW2 1269   0.909   2.456   1.093
  124SOL     OW 1270   2.113   3.950   6.326
  124SOL    HW1 1271   2.192   3.908   6.280
  124SOL    HW2 1272   2.079   3.888   6.397
  125SOL     OW 1273   4.362   2.299   0.455
  125SOL    HW1 1274   4.305   2.374   0.489
  125SOL    HW2 1275   4.404   2.252   0.533
  126SOL     OW 1276   3.718   3.337   4.806
  126SOL    HW1 1277   3.800   3.281   4.815
  126SOL    HW2 1278   3.644   3.282   4.769
  127SOL     OW 1279   6.996   5.075   5.902
  127SOL    HW1 1280   6.920   5.121   5.950
  127SOL    HW2 1281   7.005   5.113   5.810
  128SOL     OW 1282   4.817   4.056   6.211
  128SOL    HW1 1283   4.866   4.139   6.237
  128SOL    HW2 1284   4.779   4.067   6.119
  129SOL     OW 1285   0.572   4.927   1.270
  129SOL    HW1 1286   0.561   4.834   1.234
  129SOL    HW2 1287   0.667   4.957   1.259
  130SOL     OW 1288   6.448   3.890   4.909
  130SOL    HW1 1289   6.350   3.882   4.928
  130SOL    HW2 1290   6.479   3.810   4.858
  131SOL     OW 1291   0.796   4.000   2.454
  131SOL    HW1 1292   0.778   3.987   2.551
  131SOL    HW2 1293   0.719   3.965   2.400
  132SOL     OW 1294   4.041   2.762   1.682
  132SOL    HW1 1295   3.962   2.707   1.710
  132SOL    HW2 1296   4.125   2.721   1.719
  133SOL     OW 1297   4.345   4.613   5.646
  133SOL    HW1 1298   4.437   4.581   5.669
  133SOL    HW2 1299   4.306   4.660   5.725
  134SOL     OW 1300   6.264   2.099   6.619
  134SOL    HW1 1301   6.239   2.090   6.523
  134SOL    HW2 1302   6.220   2.025   6.671
  135SOL     OW 1303   4.469   4.515   3.747
  135SOL    HW1 1304   4.391   4.565   3.710
  135SOL    HW2 1305   4.442   4.467   3.831
  136SOL     OW 1306   3.839   6.561   6.192
  136SOL    HW1 1307   3.853   6.508   6.276
  136SOL    HW2 1308   3.891   6.519   6.118
  137SOL     OW 1309   1.544   4.227   0.196
  137SOL    HW1 1310   1.556   4.294   0.270
  137SOL    HW2 1311   1.604   4.149   0.213
  138SOL     OW 1312   1.079   5.590   0.416
  138SOL    HW1 1313   0.987   5.574   0.382
  138SOL    HW2 1314   1.136   5.625   0.342
  139SOL     OW 1315   0.770   1.096   1.224
  139SOL    HW1 1316   0.730   1.048   1.302
  139SOL    HW2 1317   0.778   1.193   1.245
  140SOL     OW 1318   3.607   0.053   2.113
  140SOL    HW1 1319   3.666   7.013   2.065
  140SOL    HW2 1320   3.570   0.010   2.196
  141SOL     OW 1321   1.202   1.842   0.180
  141SOL    HW1 1322   1.201   1.803   0.088
  141SOL    HW2 1323   1.275   1.799   0.233
  142SOL     OW 1324   2.158   4.101   6.943
  142SOL    HW1 1325   2.176   4.191   6.904
  142SOL    HW2 1326   2.243   4.064   6.981
  143SOL     OW 1327   5.635   5.772   1.818
  143SOL    HW1 1328   5.563   5.738   1.758
  143SOL    HW2 1329   5.596   5.799   1.906
  144SOL     OW 1330   2.660   5.263   3.261
  144SOL    HW1 1331   2.622   5.174   3.232
  144SOL    HW2 1332   2.671   5.264   3.360
  145SOL     OW 1333   0.426   5.862   3.201
  145SOL    HW1 1334   0.379   5.794   3.145
  145SOL    HW2 1335   0.431   5.949   3.151
  146SOL     OW 1336   0.367   0.720   5.802
  146SOL    HW1 1337   0.349   0.769   5.887
  146SOL    HW2 1338   0.427   0.642   5.821
  147SOL     OW 1339   5.929   0.636   4.656
  147SOL    HW1 1340   6.026   0.661   4.664
  147SOL    HW2 1341   5.922   0.539   4.630
  148SOL     OW 1342   1.859   0.045   2.137
  148SOL    HW1 1343   1.944   0.005   2.170
  148SOL    HW2 1344   1.865   0.060   2.038
  149SOL     OW 1345   1.620   2.734   4.929
  149SOL    HW1 1346   1.708   2.780   4.936
  149SOL    HW2 1347   1.547   2.802   4.915
  150SOL     OW 1348   5.217   3.549   5.463
  150SOL    HW1 1349   5.121   3.574   5.458
  150SOL    HW2 1350   5.252   3.570   5.555
  151SOL     OW 1351   6.546   2.816   1.802
  151SOL    HW1 1352   6.470   2.879   1.816
  151SOL    HW2 1353   6.620   2.837   1.865
  152SOL     OW 1354   6.842   2.842   0.095
  152SOL    HW1 1355   6.791   2.769   0.048
  152SOL    HW2 1356   6.852   2.920   0.033
  153SOL     OW 1357   1.826   1.882   3.940
  153SOL    HW1 1358   1.733   1.909   3.963
  153SOL    HW2 1359   1.870   1.955   3.887
  154SOL     OW 1360   0.253   1.327   3.877
  154SOL    HW1 1361   0.332   1.361   3.927
  154SOL    HW2 1362   0.183   1.296   3.942
  155SOL     OW 1363   5.718   4.699   3.182
  155SOL    HW1 1364   5.796   4.663   3.233
  155SOL    HW2 1365   5.666   4.761   3.241
  156SOL     OW 1366   4.372   0.064   1.302
  156SOL    HW1 1367   4.282   0.050   1.260
  156SOL    HW2 1368   4.385   7.023   1.376
  157SOL     OW 1369   5.400   7.000   1.162
  157SOL    HW1 1370   5.300   6.996   1.156
  157SOL    HW2 1371   5.433   0.056   1.113
  158SOL     OW 1372   1.049   3.456   4.754
  158SOL    HW1 1373   1.080   3.528   4.693
  158SOL    HW2 1374   0.952   3.439   4.739
  159SOL     OW 1375   6.621   5.343   6.936
  159SOL    HW1 1376   6.698   5.403   6.958
  159SOL    HW2 1377   6.551   5.395   6.889
  160SOL     OW 1378   4.045   0.316   1.203
  160SOL    HW1 1379   4.094   0.355   1.125
  160SOL    HW2 1380   4.103   0.320   1.284
  161SOL     OW 1381   6.893   0.258   0.355
  161SOL    HW1 1382   6.814   0.208   0.391
  161SOL    HW2 1383   6.891   0.351   0.390
  162SOL     OW 1384   4.096   0.009   5.212
  162SOL    HW1 1385   4.158   6.955   5.224
  162SOL    HW2 1386   4.135   0.073   5.146
  163SOL     OW 1387   1.103   3.815   2.679
  163SOL    HW1 1388   1.111   3.849   2.772
  163SOL    HW2 1389   1.016   3.766   2.669
  164SOL     OW 1390   2.235   2.125   2.854
  164SOL    HW1 1391   2.292   2.079   2.786
  164SOL    HW2 1392   2.200   2.057   2.919
  165SOL     OW 1393   7.019   6.190   3.956
  165SOL    HW1 1394   0.082   6.195   4.005
  165SOL    HW2 1395   6.977   6.281   3.955
  166SOL     OW 1396   0.561   4.901   3.696
  166SOL    HW1 1397   0.508   4.819   3.675
  166SOL    HW2 1398   0.587   4.946   3.611
  167SOL     OW 1399   0.837   1.269   2.957
  167SOL    HW1 1400   0.754   1.324   2.965
  167SOL    HW2 1401   0.877   1.283   2.867
  168SOL     OW 1402   3.179   3.695   3.051
  168SOL    HW1 1403   3.081   3.685   3.034
  168SOL    HW2 1404   3.213   3.774   2.999
  169SOL     OW 1405   5.059   2.754   6.580
  169SOL    HW1 1406   5.052   2.794   6.489
  169SOL    HW2 1407   5.007   2.669   6.583
  170SOL     OW 1408   0.192   5.144   2.131
  170SOL    HW1 1409   0.097   5.148   2.101
  170SOL    HW2 1410   0.242   5.080   2.073
  171SOL     OW 1411   2.841   2.397   0.803
  171SOL    HW1 1412   2.873   2.393   0.897
  171SOL    HW2 1413   2.902   2.455   0.749
  172SOL     OW 1414   1.654   1.036   0.018
  172SOL    HW1 1415   1.658   0.997   0.110
  172SOL    HW2 1416   1.675   1.134   0.021
  173SOL     OW 1417   6.171   0.437   4.974
  173SOL    HW1 1418   6.160   0.509   5.043
  173SOL    HW2 1419   6.238   0.467   4.906
  174SOL     OW 1420   6.533   3.728   5.563
  174SOL    HW1 1421   6.528   3.629   5.581
  174SOL    HW2 1422   6.554   3.743   5.467
  175SOL     OW 1423   0.811   6.211   2.825
  175SOL    HW1 1424   0.834   6.145   2.897
  175SOL    HW2 1425   0.882   6.208   2.754
  176SOL     OW 1426   6.554   3.816   0.874
  176SOL    HW1 1427   6.653   3.822   0.886
  176SOL    HW2 1428   6.519   3.905   0.844
  177SOL     OW 1429   6.611   2.755   3.826
  177SOL    HW1 1430   6.647   2.718   3.741
  177SOL    HW2 1431   6.655   2.709   3.904
  178SOL     OW 1432   1.707   5.736   4.761
  178SOL    HW1 1433   1.620   5.688   4.771
  178SOL    HW2 1434   1.690   5.834   4.753
  179SOL     OW 1435   3.514   4.098   1.883
  179SOL    HW1 1436   3.426   4.084   1.837
  179SOL    HW2 1437   3.499   4.106   1.981
  180SOL     OW 1438   4.835   1.041   6.227
  180SOL    HW1 1439   4.857   1.125   6.275
  180SOL    HW2 1440   4.781   1.062   6.145
  181SOL     OW 1441   3.815   0.597   5.428
  181SOL    HW1 1442   3.750   0.662   5.468
  181SOL    HW2 1443   3.842   0.530   5.498
  182SOL     OW 1444   3.158   3.076   5.684
  182SOL    HW1 1445   3.090   3.021   5.732
  182SOL    HW2 1446   3.232   3.017   5.653
  183SOL     OW 1447   3.420   1.286   3.683
  183SOL    HW1 1448   3.367   1.347   3.623
  183SOL    HW2 1449   3.494   1.244   3.630
  184SOL     OW 1450   4.644   5.860   3.401
  184SOL    HW1 1451   4.596   5.946   3.384
  184SOL    HW2 1452   4.723   5.853   3.339
  185SOL     OW 1453   0.231   6.771   4.939
  185SOL    HW1 1454   0.234   6.678   4.902
  185SOL    HW2 1455   0.309   6.786   4.999
  186SOL     OW 1456   2.765   5.992   6.032
  186SOL    HW1 1457   2.687   5.930   6.034
  186SOL    HW2 1458   2.845   5.944   5.996
  187SOL     OW 1459   3.815   5.354   0.654
  187SOL    HW1 1460   3.726   5.386   0.687
  187SOL    HW2 1461   3.887   5.414   0.690
  188SOL     OW 1462   1.469   4.047   3.594
  188SOL    HW1 1463   1.528   4.026   3.516
  188SOL    HW2 1464   1.523   4.047   3.678
  189SOL     OW 1465   5.709   4.483   5.998
  189SOL    HW1 1466   5.784   4.520   5.942
  189SOL    HW2 1467   5.743   4.408   6.054
  190SOL     OW 1468   5.824   6.393   0.684
  190SOL    HW1 1469   5.833   6.469   0.620
  190SOL    HW2 1470   5.915   6.363   0.713
  191SOL     OW 1471   2.319   3.339   5.724
  191SOL    HW1 1472   2.389   3.345   5.796
  191SOL    HW2 1473   2.331   3.415   5.660
  192SOL     OW 1474   6.977   6.939   1.094
  192SOL    HW1 1475   6.895   6.992   1.072
  192SOL    HW2 1476   6.950   6.845   1.115
  193SOL     OW 1477   3.228   0.164   1.487
  193SOL    HW1 1478   3.241   0.071   1.520
  193SOL    HW2 1479   3.241   0.228   1.563
  194SOL     OW 1480   4.018   5.627   3.368
  194SOL    HW1 1481   3.984   5.674   3.286
  194SOL    HW2 1482   4.117   5.619   3.363
  195SOL     OW 1483   2.717   0.677   0.772
  195SOL    HW1 1484   2.640   0.716   0.722
  195SOL    HW2 1485   2.796   0.739   0.765
  196SOL     OW 1486   4.311   2.856   0.910
  196SOL    HW1 1487   4.229   2.800   0.924
  196SOL    HW2 1488   4.311   2.893   0.817
  197SOL     OW 1489   1.577   6.061   0.793
  197SOL    HW1 1490   1.612   6.020   0.877
  197SOL    HW2 1491   1.478   6.075   0.802
  198SOL     OW 1492   5.530   0.015   6.118
  198SOL    HW1 1493   5.552   0.036   6.022
  198SOL    HW2 1494   5.609   6.996   6.161
  199SOL     OW 1495   2.097   1.040   3.517
  199SOL    HW1 1496   2.168   0.978   3.549
  199SOL    HW2 1497   2.034   0.991   3.456
  200SOL     OW 1498   1.381   3.897   4.299
  200SOL    HW1 1499   1.443   3.822   4.322
  200SOL    HW2 1500   1.319   3.914   4.376
  201SOL     OW 1501   4.876   1.424   0.239
  201SOL    HW1 1502   4.947   1.433   0.309
  201SOL    HW2 1503   4.790   1.463   0.273
  202SOL     OW 1504   4.421   0.284   3.222
  202SOL    HW1 1505   4.416   0.370   3.273
  202SOL    HW2 1506   4.378   0.297   3.132
  203SOL     OW 1507   5.680   2.620   0.235
  203SOL    HW1 1508   5.754   2.576   0.184
  203SOL    HW2 1509   5.661   2.710   0.197
  204SOL     OW 1510   1.888   6.144   1.176
  204SOL    HW1 1511   1.864   6.185   1.264
  204SOL    HW2 1512   1.986   6.125   1.173
  205SOL     OW 1513   5.431   0.417   1.391
  205SOL    HW1 1514   5.388   0.432   1.480
  205SOL    HW2 1515   5.363   0.432   1.318
  206SOL     OW 1516   0.226   6.316   1.078
  206SOL    HW1 1517   0.275   6.251   1.020
  206SOL    HW2 1518   0.144   6.273   1.115
  207SOL     OW 1519   6.658   2.237   5.566
  207SOL    HW1 1520   6.590   2.196   5.505
  207SOL    HW2 1521   6.642   2.335   5.572
  208SOL     OW 1522   3.912   3.805   6.839
  208SOL    HW1 1523   3.978   3.877   6.814
  208SOL    HW2 1524   3.957   3.716   6.835
  209SOL     OW 1525   6.949   6.833   3.865
  209SOL    HW1 1526   6.933   6.932   3.869
  209SOL    HW2 1527   0.020   6.814   3.893
  210SOL     OW 1528   4.067   1.827   0.870
  210SOL    HW1 1529   4.108   1.888   0.937
  210SOL    HW2 1530   4.042   1.741   0.913
  211SOL     OW 1531   0.921   3.152   1.929
  211SOL    HW1 1532   0.897   3.055   1.926
  211SOL    HW2 1533   0.846   3.203   1.970
  212SOL     OW 1534   0.944   5.168   5.505
  212SOL    HW1 1535   0.870   5.148   5.441
  212SOL    HW2 1536   0.960   5.088   5.564
  213SOL     OW 1537   3.473   2.651   0.842
  213SOL    HW1 1538   3.459   2.732   0.898
  213SOL    HW2 1539   3.523   2.582   0.894
  214SOL     OW 1540   1.163   6.276   3.704
  214SOL    HW1 1541   1.178   6.268   3.803
  214SOL    HW2 1542   1.178   6.186   3.662
  215SOL     OW 1543   3.600   4.151   3.286
  215SOL    HW1 1544   3.636   4.069   3.242
  215SOL    HW2 1545   3.667   4.225   3.279
  216SOL     OW 1546   3.365   0.696   5.393
  216SOL    HW1 1547   3.280   0.719   5.441
  216SOL    HW2 1548   3.364   0.599   5.368
  217SOL     OW 1549   0.220   1.933   5.216
  217SOL    HW1 1550   0.159   1.856   5.230
  217SOL    HW2 1551   0.251   1.968   5.305
  218SOL     OW 1552   2.791   4.410   5.760
  218SOL    HW1 1553   2.720   4.355   5.716
  218SOL    HW2 1554   2.775   4.413   5.858
  219SOL     OW 1555   2.441   5.740   6.551
  219SOL    HW1 1556   2.494   5.715   6.632
  219SOL    HW2 1557   2.347   5.709   6.562
  220SOL     OW 1558   1.570   5.286   0.366
  220SOL    HW1 1559   1.554   5.242   0.454
  220SOL    HW2 1560   1.578   5.216   0.295
  221SOL     OW 1561   6.078   2.882   4.878
  221SOL    HW1 1562   5.982   2.910   4.885
  221SOL    HW2 1563   6.086   2.806   4.813
  222SOL     OW 1564   2.124   6.781   4.489
  222SOL    HW1 1565   2.132   6.688   4.453
  222SOL    HW2 1566   2.210   6.807   4.533
  223SOL     OW 1567   5.830   4.911   2.636
  223SOL    HW1 1568   5.823   4.922   2.536
  223SOL    HW2 1569   5.848   4.815   2.657
  224SOL     OW 1570   5.088   2.609   2.644
  224SOL    HW1 1571   5.059   2.626   2.550
  224SOL    HW2 1572   5.155   2.679   2.671
  225SOL     OW 1573   5.063   6.114   1.504
  225SOL    HW1 1574   5.117   6.179   1.451
  225SOL    HW2 1575   5.045   6.151   1.595
  226SOL     OW 1576   0.688   5.980   2.243
  226SOL    HW1 1577   0.782   6.011   2.230
  226SOL    HW2 1578   0.628   6.029   2.179
  227SOL     OW 1579   1.212   3.574   3.362
  227SOL    HW1 1580   1.284   3.553   3.429
  227SOL    HW2 1581   1.185   3.490   3.315
  228SOL     OW 1582   4.077   6.289   2.967
  228SOL    HW1 1583   3.997   6.263   2.912
  228SOL    HW2 1584   4.149   6.222   2.955
  229SOL     OW 1585   6.572   5.853   3.176
  229SOL    HW1 1586   6.612   5.781   3.233
  229SOL    HW2 1587   6.482   5.822   3.143
  230SOL     OW 1588   0.834   4.649   6.109
  230SOL    HW1 1589   0.847   4.724   6.174
  230SOL    HW2 1590   0.749   4.601   6.131
  231SOL     OW 1591   0.332   2.310   6.542
  231SOL    HW1 1592   0.332   2.274   6.635
  231SOL    HW2 1593   0.347   2.235   6.477
  232SOL     OW 1594   1.522   4.129   5.785
  232SOL    HW1 1595   1.588   4.178   5.842
  232SOL    HW2 1596   1.452   4.088   5.843
  233SOL     OW 1597   3.326   0.211   6.868
  233SOL    HW1 1598   3.280   0.122   6.874
  233SOL    HW2 1599   3.421   0.202   6.897
  234SOL     OW 1600   2.441   5.401   6.640
  234SOL    HW1 1601   2.390   5.393   6.726
  234SOL    HW2 1602   2.511   5.472   6.649
  235SOL     OW 1603   3.785   3.375   5.851
  235SOL    HW1 1604   3.809   3.348   5.758
  235SOL    HW2 1605   3.697   3.423   5.851
  236SOL     OW 1606   6.874   1.444   6.013
  236SOL    HW1 1607   6.817   1.443   5.931
  236SOL    HW2 1608   6.937   1.521   6.009
  237SOL     OW 1609   6.947   6.636   2.299
  237SOL    HW1 1610   6.903   6.644   2.210
  237SOL    HW2 1611   6.879   6.606   2.367
  238SOL     OW 1612   7.000   2.248   2.536
  238SOL    HW1 1613   0.057   2.198   2.568
  238SOL    HW2 1614   6.996   2.245   2.436
  239SOL     OW 1615   6.089   5.001   0.744
  239SOL    HW1 1616   6.029   5.067   0.791
  239SOL    HW2 1617   6.036   4.922   0.716
  240SOL     OW 1618   6.963   2.117   4.843
  240SOL    HW1 1619   6.991   2.071   4.759
  240SOL    HW2 1620   0.009   2.103   4.914
  241SOL     OW 1621   5.663   1.942   5.086
  241SOL    HW1 1622   5.638   1.884   5.008
  241SOL    HW2 1623   5.638   1.895   5.171
  242SOL     OW 1624   2.804   2.210   4.367
  242SOL    HW1 1625   2.733   2.164   4.314
  242SOL    HW2 1626   2.891   2.202   4.320
  243SOL     OW 1627   5.173   0.999   0.039
  243SOL    HW1 1628   5.156   1.059   0.118
  243SOL    HW2 1629   5.153   1.049   6.978
  244SOL     OW 1630   0.458   1.783   5.952
  244SOL    HW1 1631   0.483   1.859   5.892
  244SOL    HW2 1632   0.521   1.707   5.937
  245SOL     OW 1633   5.040   2.495   4.032
  245SOL    HW1 1634   5.115   2.561   4.021
  245SOL    HW2 1635   5.071   2.419   4.090
  246SOL     OW 1636   5.085   3.192   4.455
  246SOL    HW1 1637   5.168   3.242   4.430
  246SOL    HW2 1638   5.107   3.120   4.521
  247SOL     OW 1639   3.130   0.529   2.909
  247SOL    HW1 1640   3.224   0.514   2.878
  247SOL    HW2 1641   3.117   0.488   2.999
  248SOL     OW 1642   0.298   2.426   2.563
  248SOL    HW1 1643   0.259   2.486   2.494
  248SOL    HW2 1644   0.390   2.457   2.586
  249SOL     OW 1645   1.923   5.538   5.433
  249SOL    HW1 1646   1.862   5.467   5.469
  249SOL    HW2 1647   1.981   5.572   5.507
  250SOL     OW 1648   5.158   2.216   0.185
  250SOL    HW1 1649   5.232   2.200   0.119
  250SOL    HW2 1650   5.130   2.312   0.179
  251SOL     OW 1651   2.181   1.089   1.211
  251SOL    HW1 1652   2.237   1.020   1.258
  251SOL    HW2 1653   2.094   1.049   1.184
  252SOL     OW 1654   0.486   2.334   0.052
  252SOL    HW1 1655   0.489   2.285   0.139
  252SOL    HW2 1656   0.451   2.427   0.067
  253SOL     OW 1657   2.257   4.641   6.359
  253SOL    HW1 1658   2.336   4.701   6.353
  253SOL    HW2 1659   2.183   4.677   6.302
  254SOL     OW 1660   4.882   3.463   6.625
  254SOL    HW1 1661   4.912   3.475   6.531
  254SOL    HW2 1662   4.811   3.530   6.646
  255SOL     OW 1663   4.511   2.067   2.142
  255SOL    HW1 1664   4.597   2.062   2.193
  255SOL    HW2 1665   4.527   2.031   2.049
  256SOL     OW 1666   6.832   6.115   1.426
  256SOL    HW1 1667   6.781   6.165   1.355
  256SOL    HW2 1668   6.926   6.103   1.396
  257SOL     OW 1669   2.886   5.991   5.649
  257SOL    HW1 1670   2.981   5.975   5.623
  257SOL    HW2 1671   2.872   5.961   5.744
  258SOL     OW 1672   4.132   5.439   4.311
  258SOL    HW1 1673   4.067   5.364   4.322
  258SOL    HW2 1674   4.083   5.526   4.311
  259SOL     OW 1675   0.749   1.606   2.754
  259SOL    HW1 1676   0.809   1.602   2.674
  259SOL    HW2 1677   0.767   1.689   2.806
  260SOL     OW 1678   6.564   6.779   5.203
  260SOL    HW1 1679   6.476   6.769   5.250
  260SOL    HW2 1680   6.626   6.707   5.235
  261SOL     OW 1681   0.476   0.800   4.659
  261SOL    HW1 1682   0.517   0.712   4.684
  261SOL    HW2 1683   0.492   0.866   4.732
  262SOL     OW 1684   1.629   5.581   1.512
  262SOL    HW1 1685   1.610   5.667   1.465
  262SOL    HW2 1686   1.554   5.517   1.495
  263SOL     OW 1687   0.336   4.476   4.331
  263SOL    HW1 1688   0.330   4.543   4.405
  263SOL    HW2 1689   0.388   4.396   4.362
  264SOL     OW 1690   2.858   4.440   0.601
  264SOL    HW1 1691   2.855   4.520   0.662
  264SOL    HW2 1692   2.899   4.466   0.514
  265SOL     OW 1693   4.339   5.171   3.834
  265SOL    HW1 1694   4.282   5.109   3.780
  265SOL    HW2 1695   4.419   5.121   3.869
  266SOL     OW 1696   4.102   3.529   6.705
  266SOL    HW1 1697   4.143   3.620   6.710
  266SOL    HW2 1698   4.174   3.461   6.692
  267SOL     OW 1699   2.409   2.957   5.879
  267SOL    HW1 1700   2.417   2.860   5.858
  267SOL    HW2 1701   2.361   3.003   5.805
  268SOL     OW 1702   1.758   4.286   3.677
  268SOL    HW1 1703   1.817   4.358   3.713
  268SOL    HW2 1704   1.698   4.252   3.749
  269SOL     OW 1705   3.140   1.681   5.929
  269SOL    HW1 1706   3.232   1.644   5.922
  269SOL    HW2 1707   3.133   1.765   5.876
  270SOL     OW 1708   5.212   6.233   4.857
  270SOL    HW1 1709   5.265   6.289   4.921
  270SOL    HW2 1710   5.208   6.278   4.768
  271SOL     OW 1711   2.101   1.824   0.397
  271SOL    HW1 1712   2.093   1.903   0.458
  271SOL    HW2 1713   2.055   1.745   0.438
  272SOL     OW 1714   4.473   5.149   0.280
  272SOL    HW1 1715   4.543   5.196   0.225
  272SOL    HW2 1716   4.490   5.051   0.278
  273SOL     OW 1717   1.534   5.973   3.758
  273SOL    HW1 1718   1.547   6.018   3.847
  273SOL    HW2 1719   1.454   5.914   3.762
  274SOL     OW 1720   5.655   2.475   2.258
  274SOL    HW1 1721   5.692   2.450   2.348
  274SOL    HW2 1722   5.693   2.414   2.189
  275SOL     OW 1723   5.878   5.532   5.627
  275SOL    HW1 1724   5.861   5.515   5.724
  275SOL    HW2 1725   5.976   5.523   5.609
  276SOL     OW 1726   0.972   0.432   4.708
  276SOL    HW1 1727   0.954   0.502   4.638
  276SOL    HW2 1728   0.961   0.341   4.668
  277SOL     OW 1729   3.598   2.800   5.220
  277SOL    HW1 1730   3.570   2.704   5.227
  277SOL    HW2 1731   3.546   2.844   5.147
  278SOL     OW 1732   5.637   4.703   2.754
  278SOL    HW1 1733   5.571   4.672   2.822
  278SOL    HW2 1734   5.647   4.803   2.759
  279SOL     OW 1735   0.503   4.080   3.511
  279SOL    HW1 1736   0.602   4.066   3.511
  279SOL    HW2 1737   0.460   4.003   3.558
  280SOL     OW 1738   4.206   1.850   3.689
  280SOL    HW1 1739   4.151   1.772   3.659
  280SOL    HW2 1740   4.261   1.824   3.768
  281SOL     OW 1741   5.012   5.556   5.212
  281SOL    HW1 1742   5.111   5.541   5.205
  281SOL    HW2 1743   4.991   5.605   5.297
  282SOL     OW 1744   0.439   2.606   0.130
  282SOL    HW1 1745   0.468   2.660   0.209
  282SOL    HW2 1746   0.393   2.665   0.064
  283SOL     OW 1747   5.955   4.143   3.022
  283SOL    HW1 1748   5.960   4.044   3.030
  283SOL    HW2 1749   5.869   4.176   3.064
  284SOL     OW 1750   5.842   6.623   3.084
  284SOL    HW1 1751   5.885   6.533   3.080
  284SOL    HW2 1752   5.804   6.644   2.994
  285SOL     OW 1753   4.131   6.023   5.837
  285SOL    HW1 1754   4.203   6.042   5.769
  285SOL    HW2 1755   4.173   5.986   5.920
  286SOL     OW 1756   3.300   4.948   5.533
  286SOL    HW1 1757   3.233   4.940   5.607
  286SOL    HW2 1758   3.255   4.987   5.452
  287SOL     OW 1759   3.234   5.973   0.689
  287SOL    HW1 1760   3.195   5.888   0.653
  287SOL    HW2 1761   3.223   6.046   0.622
  288SOL     OW 1762   4.684   1.206   0.272
  288SOL    HW1 1763   4.723   1.120   0.305
  288SOL    HW2 1764   4.757   1.274   0.262
  289SOL     OW 1765   5.121   5.037   4.716
  289SOL    HW1 1766   5.025   5.057   4.697
  289SOL    HW2 1767   5.176   5.065   4.638
  290SOL     OW 1768   3.857   0.694   4.964
  290SOL    HW1 1769   3.947   0.713   5.002
  290SOL    HW2 1770   3.793   0.672   5.038
  291SOL     OW 1771   5.784   0.729   4.898
  291SOL    HW1 1772   5.819   0.698   4.810
  291SOL    HW2 1773   5.789   0.654   4.964
  292SOL     OW 1774   3.405   0.480   3.537
  292SOL    HW1 1775   3.321   0.533   3.543
  292SOL    HW2 1776   3.435   0.455   3.629
  293SOL     OW 1777   5.705   0.637   2.647
  293SOL    HW1 1778   5.649   0.637   2.564
  293SOL    HW2 1779   5.784   0.696   2.633
  294SOL     OW 1780   6.562   1.531   6.665
  294SOL    HW1 1781   6.552   1.630   6.651
  294SOL    HW2 1782   6.599   1.489   6.582
  295SOL     OW 1783   0.559   0.145   5.283
  295SOL    HW1 1784   0.469   0.178   5.313
  295SOL    HW2 1785   0.616   0.223   5.257
  296SOL     OW 1786   0.852   1.727   1.578
  296SOL    HW1 1787   0.936   1.762   1.535
  296SOL    HW2 1788   0.786   1.801   1.587
  297SOL     OW 1789   5.203   3.374   3.217
  297SOL    HW1 1790   5.165   3.454   3.172
  297SOL    HW2 1791   5.285   3.344   3.168
  298SOL     OW 1792   4.531   0.263   5.176
  298SOL    HW1 1793   4.531   0.310   5.265
  298SOL    HW2 1794   4.473   0.182   5.181
  299SOL     OW 1795   0.582   1.357   5.976
  299SOL    HW1 1796   0.652   1.291   6.003
  299SOL    HW2 1797   0.513   1.363   6.049
  300SOL     OW 1798   4.308   5.996   4.069
  300SOL    HW1 1799   4.246   6.066   4.034
  300SOL    HW2 1800   4.310   5.919   4.006
  301SOL     OW 1801   0.088   6.242   5.475
  301SOL    HW1 1802   0.123   6.207   5.563
  301SOL    HW2 1803   0.165   6.270   5.418
  302SOL     OW 1804   0.236   6.500   1.962
  302SOL    HW1 1805   0.177   6.472   1.886
  302SOL    HW2 1806   0.183   6.501   2.047
  303SOL     OW 1807   5.348   5.654   2.346
  303SOL    HW1 1808   5.439   5.663   2.304
  303SOL    HW2 1809   5.354   5.596   2.426
  304SOL     OW 1810   1.532   0.277   3.755
  304SOL    HW1 1811   1.562   0.213   3.685
  304SOL    HW2 1812   1.588   0.359   3.751
  305SOL     OW 1813   2.077   2.103   1.430
  305SOL    HW1 1814   2.169   2.066   1.419
  305SOL    HW2 1815   2.081   2.187   1.484
  306SOL     OW 1816   0.675   0.316   2.253
  306SOL    HW1 1817   0.717   0.285   2.168
  306SOL    HW2 1818   0.583   0.278   2.261
  307SOL     OW 1819   3.672   4.072   3.980
  307SOL    HW1 1820   3.593   4.132   3.982
  307SOL    HW2 1821   3.678   4.022   4.066
  308SOL     OW 1822   6.322   1.660   2.110
  308SOL    HW1 1823   6.357   1.617   2.027
  308SOL    HW2 1824   6.377   1.741   2.132
  309SOL     OW 1825   1.416   4.742   0.210
  309SOL    HW1 1826   1.365   4.657   0.214
  309SOL    HW2 1827   1.512   4.725   0.233
  310SOL     OW 1828   4.530   6.613   5.462
  310SOL    HW1 1829   4.450   6.554   5.450
  310SOL    HW2 1830   4.509   6.682   5.532
  311SOL     OW 1831   1.477   6.768   2.076
  311SOL    HW1 1832   1.528   6.854   2.065
  311SOL    HW2 1833   1.407   6.781   2.146
  312SOL     OW 1834   3.506   0.352   4.110
  312SOL    HW1 1835   3.541   0.376   4.019
  312SOL    HW2 1836   3.519   0.429   4.172
  313SOL     OW 1837   3.167   3.212   2.985
  313SOL    HW1 1838   3.219   3.261   2.915
  313SOL    HW2 1839   3.218   3.213   3.071
  314SOL     OW 1840   2.615   5.088   6.274
  314SOL    HW1 1841   2.523   5.061   6.246
  314SOL    HW2 1842   2.660   5.012   6.321
  315SOL     OW 1843   6.381   0.475   4.761
  315SOL    HW1 1844   6.446   0.410   4.721
  315SOL    HW2 1845   6.431   0.542   4.817
  316SOL     OW 1846   4.097   1.126   5.829
  316SOL    HW1 1847   4.134   1.219   5.829
  316SOL    HW2 1848   4.129   1.077   5.911
  317SOL     OW 1849   0.703   2.122   1.265
  317SOL    HW1 1850   0.743   2.138   1.355
  317SOL    HW2 1851   0.604   2.107   1.275
  318SOL     OW 1852   0.844   0.697   3.027
  318SOL    HW1 1853   0.897   0.781   3.029
  318SOL    HW2 1854   0.893   0.625   3.076
  319SOL     OW 1855   1.095   0.687   2.536
  319SOL    HW1 1856   1.012   0.633   2.521
  319SOL    HW2 1857   1.126   0.674   2.630
  320SOL     OW 1858   5.158   1.240   0.172
  320SOL    HW1 1859   5.123   1.241   0.266
  320SOL    HW2 1860   5.246   1.288   0.170
  321SOL     OW 1861   4.324   3.155   1.073
  321SOL    HW1 1862   4.330   3.067   1.025
  321SOL    HW2 1863   4.310   3.228   1.007
  322SOL     OW 1864   3.078   2.388   6.857
  322SOL    HW1 1865   3.005   2.439   6.901
  322SOL    HW2 1866   3.071   2.291   6.881
  323SOL     OW 1867   1.331   3.645   2.197
  323SOL    HW1 1868   1.384   3.626   2.280
  323SOL    HW2 1869   1.365   3.729   2.155
  324SOL     OW 1870   6.799   0.720   3.653
  324SOL    HW1 1871   6.878   0.710   3.593
  324SOL    HW2 1872   6.786   0.635   3.704
  325SOL     OW 1873   6.065   3.335   1.063
  325SOL    HW1 1874   6.123   3.387   1.126
  325SOL    HW2 1875   5.982   3.387   1.044
  326SOL     OW 1876   6.914   5.599   6.934
  326SOL    HW1 1877   6.831   5.637   6.892
  326SOL    HW2 1878   6.910   5.499   6.932
  327SOL     OW 1879   4.090   5.972   6.267
  327SOL    HW1 1880   4.092   5.954   6.365
  327SOL    HW2 1881   4.063   6.067   6.251
  328SOL     OW 1882   1.380   4.959   3.516
  328SOL    HW1 1883   1.374   4.983   3.419
  328SOL    HW2 1884   1.337   5.030   3.571
  329SOL     OW 1885   3.638   2.853   2.113
  329SOL    HW1 1886   3.630   2.755   2.132
  329SOL    HW2 1887   3.627   2.868   2.015
  330SOL     OW 1888   2.540   3.353   6.476
  330SOL    HW1 1889   2.534   3.341   6.575
  330SOL    HW2 1890   2.536   3.264   6.431
  331SOL     OW 1891   5.091   5.140   4.192
  331SOL    HW1 1892   5.022   5.067   4.183
  331SOL    HW2 1893   5.058   5.209   4.256
  332SOL     OW 1894   5.920   1.609   2.678
  332SOL    HW1 1895   5.870   1.590   2.762
  332SOL    HW2 1896   5.918   1.708   2.660
  333SOL     OW 1897   4.065   6.560   3.640
  333SOL    HW1 1898   4.024   6.627   3.578
  333SOL    HW2 1899   3.996   6.496   3.671
  334SOL     OW 1900   3.493   3.539   4.123
  334SOL    HW1 1901   3.495   3.625   4.173
  334SOL    HW2 1902   3.538   3.467   4.177
  335SOL     OW 1903   3.620   1.144   0.667
  335SOL    HW1 1904   3.550   1.215   0.671
  335SOL    HW2 1905   3.584   1.063   0.622
  336SOL     OW 1906   3.812   2.063   4.906
  336SOL    HW1 1907   3.756   2.043   4.826
  336SOL    HW2 1908   3.756   2.054   4.989
  337SOL     OW 1909   7.010   1.127   5.192
  337SOL    HW1 1910   0.011   1.150   5.098
  337SOL    HW2 1911   6.938   1.188   5.223
  338SOL     OW 1912   4.848   0.846   1.914
  338SOL    HW1 1913   4.901   0.860   1.998
  338SOL    HW2 1914   4.797   0.929   1.893
  339SOL     OW 1915   4.333   5.032   6.089
  339SOL    HW1 1916   4.398   5.041   6.164
  339SOL    HW2 1917   4.243   5.005   6.125
  340SOL     OW 1918   5.128   3.400   5.235
  340SOL    HW1 1919   5.199   3.355   5.180
  340SOL    HW2 1920   5.171   3.444   5.314
  341SOL     OW 1921   0.111   0.378   1.795
  341SOL    HW1 1922   0.022   0.339   1.770
  341SOL    HW2 1923   0.181   0.338   1.737
  342SOL     OW 1924   4.643   1.382   1.993
  342SOL    HW1 1925   4.615   1.327   1.914
  342SOL    HW2 1926   4.565   1.432   2.030
  343SOL     OW 1927   5.746   6.935   1.422
  343SOL    HW1 1928   5.652   6.930   1.454
  343SOL    HW2 1929   5.750   6.915   1.324
  344SOL     OW 1930   6.752   2.862   1.459
  344SOL    HW1 1931   6.782   2.794   1.526
  344SOL    HW2 1932   6.661   2.838   1.425
  345SOL     OW 1933   7.015   2.192   4.493
  345SOL    HW1 1934   0.024   2.286   4.503
  345SOL    HW2 1935   6.931   2.192   4.438
  346SOL     OW 1936   1.894   5.849   2.827
  346SOL    HW1 1937   1.931   5.810   2.742
  346SOL    HW2 1938   1.918   5.789   2.904
  347SOL     OW 1939   2.594   4.872   1.363
  347SOL    HW1 1940   2.498   4.890   1.383
  347SOL    HW2 1941   2.628   4.798   1.420
  348SOL     OW 1942   5.430   4.758   1.646
  348SOL    HW1 1943   5.351   4.702   1.622
  348SOL    HW2 1944   5.407   4.855   1.632
  349SOL     OW 1945   5.800   4.693   0.900
  349SOL    HW1 1946   5.758   4.612   0.860
  349SOL    HW2 1947   5.738   4.734   0.967
  350SOL     OW 1948   2.380   1.746   0.937
  350SOL    HW1 1949   2.369   1.736   0.838
  350SOL    HW2 1950   2.301   1.796   0.974
  351SOL     OW 1951   3.947   4.268   1.399
  351SOL    HW1 1952   3.916   4.176   1.372
  351SOL    HW2 1953   3.950   4.327   1.319
  352SOL     OW 1954   4.197   6.787   2.368
  352SOL    HW1 1955   4.188   6.742   2.457
  352SOL    HW2 1956   4.231   6.721   2.301
  353SOL     OW 1957   1.717   6.736   0.158
  353SOL    HW1 1958   1.734   6.641   0.131
  353SOL    HW2 1959   1.702   6.792   0.076
  354SOL     OW 1960   1.488   2.032   0.710
  354SOL    HW1 1961   1.515   1.968   0.782
  354SOL    HW2 1962   1.450   2.115   0.751
  355SOL     OW 1963   0.586   3.020   3.464
  355SOL    HW1 1964   0.570   2.953   3.392
  355SOL    HW2 1965   0.533   2.995   3.545
  356SOL     OW 1966   2.645   0.691   5.674
  356SOL    HW1 1967   2.692   0.778   5.686
  356SOL    HW2 1968   2.712   0.619   5.657
  357SOL     OW 1969   5.698   6.093   4.007
  357SOL    HW1 1970   5.620   6.136   4.052
  357SOL    HW2 1971   5.732   6.018   4.064
  358SOL     OW 1972   3.185   6.074   0.250
  358SOL    HW1 1973   3.159   5.986   0.209
  358SOL    HW2 1974   3.146   6.149   0.196
  359SOL     OW 1975   1.550   1.917   2.075
  359SOL    HW1 1976   1.473   1.913   2.138
  359SOL    HW2 1977   1.577   1.824   2.049
  360SOL     OW 1978   2.168   3.806   3.214
  360SOL    HW1 1979   2.146   3.730   3.276
  360SOL    HW2 1980   2.117   3.887   3.242
  361SOL     OW 1981   0.190   2.152   2.698
  361SOL    HW1 1982   0.248   2.072   2.711
  361SOL    HW2 1983   0.244   2.226   2.658
  362SOL     OW 1984   4.046   3.629   2.515
  362SOL    HW1 1985   4.101   3.608   2.596
  362SOL    HW2 1986   4.107   3.650   2.438
  363SOL     OW 1987   4.624   4.833   0.397
  363SOL    HW1 1988   4.663   4.916   0.436
  363SOL    HW2 1989   4.696   4.780   0.352
  364SOL     OW 1990   1.228   0.208   0.392
  364SOL    HW1 1991   1.159   0.241   0.456
  364SOL    HW2 1992   1.253   0.114   0.416
  365SOL     OW 1993   5.922   0.679   3.921
  365SOL    HW1 1994   5.931   0.639   3.830
  365SOL    HW2 1995   5.993   0.747   3.935
  366SOL     OW 1996   5.135   1.501   0.000
  366SOL    HW1 1997   5.229   1.501   6.990
  366SOL    HW2 1998   5.110   1.408   0.028
  367SOL     OW 1999   5.710   1.092   0.090
  367SOL    HW1 2000   5.626   1.122   0.135
  367SOL    HW2 2001   5.738   1.160   0.022
  368SOL     OW 2002   2.248   1.854   6.373
  368SOL    HW1 2003   2.292   1.944   6.365
  368SOL    HW2 2004   2.179   1.844   6.301
  369SOL     OW 2005   5.482   4.667   0.339
  369SOL    HW1 2006   5.474   4.723   0.421
  369SOL    HW2 2007   5.393   4.627   0.317
  370SOL     OW 2008   2.148   2.521   3.204
  370SOL    HW1 2009   2.091   2.596   3.172
  370SOL    HW2 2010   2.152   2.522   3.304
  371SOL     OW 2011   2.015   5.642   0.067
  371SOL    HW1 2012   2.088   5.701   0.031
  371SOL    HW2 2013   1.938   5.643   0.003
  372SOL     OW 2014   2.139   5.995   6.281
  372SOL    HW1 2015   2.223   5.985   6.334
  372SOL    HW2 2016   2.096   6.083   6.304
  373SOL     OW 2017   6.495   4.478   3.211
  373SOL    HW1 2018   6.583   4.511   3.245
  373SOL    HW2 2019   6.484   4.504   3.115
  374SOL     OW 2020   2.810   2.292   2.337
  374SOL    HW1 2021   2.860   2.208   2.357
  374SOL    HW2 2022   2.844   2.333   2.253
  375SOL     OW 2023   0.397   6.071   4.159
  375SOL    HW1 2024   0.432   6.094   4.250
  375SOL    HW2 2025   0.298   6.089   4.157
  376SOL     OW 2026   4.376   0.479   3.421
  376SOL    HW1 2027   4.324   0.449   3.501
  376SOL    HW2 2028   4.456   0.531   3.452
  377SOL     OW 2029   2.705   2.398   6.225
  377SOL    HW1 2030   2.607   2.405   6.244
  377SOL    HW2 2031   2.732   2.302   6.224
  378SOL     OW 2032   4.143   1.199   1.994
  378SOL    HW1 2033   4.044   1.182   1.989
  378SOL    HW2 2034   4.164   1.245   2.081
  379SOL     OW 2035   3.971   2.935   6.580
  379SOL    HW1 2036   3.959   3.035   6.578
  379SOL    HW2 2037   4.004   2.904   6.492
  380SOL     OW 2038   4.638   1.951   0.731
  380SOL    HW1 2039   4.566   2.021   0.731
  380SOL    HW2 2040   4.599   1.862   0.754
  381SOL     OW 2041   1.688   4.225   2.648
  381SOL    HW1 2042   1.689   4.291   2.573
  381SOL    HW2 2043   1.773   4.233   2.701
  382SOL     OW 2044   6.065   0.007   0.551
  382SOL    HW1 2045   6.032   0.091   0.507
  382SOL    HW2 2046   6.056   0.015   0.650
  383SOL     OW 2047   4.773   3.468   0.618
  383SOL    HW1 2048   4.822   3.389   0.655
  383SOL    HW2 2049   4.676   3.460   0.640
  384SOL     OW 2050   0.555   2.970   5.385
  384SOL    HW1 2051   0.615   3.034   5.337
  384SOL    HW2 2052   0.547   2.996   5.481
  385SOL     OW 2053   4.571   1.862   6.803
  385SOL    HW1 2054   4.526   1.773   6.812
  385SOL    HW2 2055   4.529   1.913   6.728
  386SOL     OW 2056   4.229   6.870   4.718
  386SOL    HW1 2057   4.276   6.847   4.803
  386SOL    HW2 2058   4.263   6.812   4.644
  387SOL     OW 2059   2.952   5.987   4.136
  387SOL    HW1 2060   2.933   6.027   4.046
  387SOL    HW2 2061   2.972   5.889   4.125
  388SOL     OW 2062   1.828   5.087   5.837
  388SOL    HW1 2063   1.740   5.074   5.791
  388SOL    HW2 2064   1.847   5.009   5.897
  389SOL     OW 2065   2.828   3.660   1.148
  389SOL    HW1 2066   2.823   3.725   1.073
  389SOL    HW2 2067   2.741   3.611   1.157
  390SOL     OW 2068   2.562   1.071   4.746
  390SOL    HW1 2069   2.583   1.160   4.704
  390SOL    HW2 2070   2.509   1.085   4.830
  391SOL     OW 2071   1.427   2.304   0.046
  391SOL    HW1 2072   1.470   2.356   0.120
  391SOL    HW2 2073   1.349   2.355   0.010
  392SOL     OW 2074   3.032   5.711   4.848
  392SOL    HW1 2075   3.087   5.731   4.767
  392SOL    HW2 2076   3.064   5.768   4.925
  393SOL     OW 2077   6.107   4.231   5.810
  393SOL    HW1 2078   6.034   4.232   5.742
  393SOL    HW2 2079   6.119   4.324   5.847
  394SOL     OW 2080   1.918   1.475   6.351
  394SOL    HW1 2081   1.886   1.381   6.361
  394SOL    HW2 2082   2.018   1.477   6.358
  395SOL     OW 2083   0.108   3.107   0.705
  395SOL    HW1 2084   0.021   3.057   0.704
  395SOL    HW2 2085   0.140   3.120   0.611
  396SOL     OW 2086   3.415   2.934   5.390
  396SOL    HW1 2087   3.469   2.871   5.334
  396SOL    HW2 2088   3.342   2.883   5.436
  397SOL     OW 2089   4.152   1.251   6.716
  397SOL    HW1 2090   4.193   1.287   6.800
  397SOL    HW2 2091   4.074   1.307   6.690
  398SOL     OW 2092   0.572   4.389   2.228
  398SOL    HW1 2093   0.664   4.356   2.208
  398SOL    HW2 2094   0.575   4.485   2.255
  399SOL     OW 2095   4.713   5.279   1.855
  399SOL    HW1 2096   4.625   5.311   1.891
  399SOL    HW2 2097   4.704   5.183   1.828
  400SOL     OW 2098   2.104   4.635   4.667
  400SOL    HW1 2099   2.166   4.661   4.742
  400SOL    HW2 2100   2.043   4.563   4.699
  401SOL     OW 2101   5.743   1.736   0.823
  401SOL    HW1 2102   5.841   1.722   0.810
  401SOL    HW2 2103   5.704   1.657   0.871
  402SOL     OW 2104   0.130   4.588   0.699
  402SOL    HW1 2105   0.038   4.624   0.714
  402SOL    HW2 2106   0.155   4.599   0.603
  403SOL     OW 2107   4.756   4.625   0.769
  403SOL    HW1 2108   4.764   4.590   0.676
  403SOL    HW2 2109   4.705   4.711   0.768
  404SOL     OW 2110   0.095   5.987   4.724
  404SOL    HW1 2111   0.189   5.970   4.753
  404SOL    HW2 2112   0.087   6.079   4.688
  405SOL     OW 2113   0.991   2.236   1.262
  405SOL    HW1 2114   0.982   2.229   1.361
  405SOL    HW2 2115   0.902   2.253   1.221
  406SOL     OW 2116   1.303   2.545   3.719
  406SOL    HW1 2117   1.248   2.464   3.696
  406SOL    HW2 2118   1.394   2.516   3.748
  407SOL     OW 2119   3.490   2.155   4.420
  407SOL    HW1 2120   3.586   2.178   4.438
  407SOL    HW2 2121   3.437   2.167   4.503
  408SOL     OW 2122   2.493   0.622   4.101
  408SOL    HW1 2123   2.434   0.702   4.088
  408SOL    HW2 2124   2.442   0.539   4.079
  409SOL     OW 2125   6.953   3.839   4.113
  409SOL    HW1 2126   0.021   3.842   4.150
  409SOL    HW2 2127   6.893   3.899   4.166
  410SOL     OW 2128   3.128   6.856   6.128
  410SOL    HW1 2129   3.152   6.855   6.225
  410SOL    HW2 2130   3.153   6.944   6.088
  411SOL     OW 2131   0.514   3.608   4.798
  411SOL    HW1 2132   0.465   3.548   4.735
  411SOL    HW2 2133   0.464   3.613   4.885
  412SOL     OW 2134   4.570   0.063   2.492
  412SOL    HW1 2135   4.662   0.040   2.524
  412SOL    HW2 2136   4.572   0.152   2.447
  413SOL     OW 2137   2.349   0.989   2.664
  413SOL    HW1 2138   2.313   0.984   2.757
  413SOL    HW2 2139   2.332   0.903   2.617
  414SOL     OW 2140   4.886   4.485   0.959
  414SOL    HW1 2141   4.964   4.532   1.001
  414SOL    HW2 2142   4.855   4.537   0.879
  415SOL     OW 2143   3.984   6.916   2.454
  415SOL    HW1 2144   4.066   6.900   2.399
  415SOL    HW2 2145   3.922   6.839   2.445
  416SOL     OW 2146   3.698   5.792   0.080
  416SOL    HW1 2147   3.681   5.717   0.144
  416SOL    HW2 2148   3.797   5.810   0.075
  417SOL     OW 2149   4.954   5.056   1.690
  417SOL    HW1 2150   4.856   5.036   1.683
  417SOL    HW2 2151   4.982   5.051   1.786
  418SOL     OW 2152   6.226   5.143   6.634
  418SOL    HW1 2153   6.279   5.168   6.553
  418SOL    HW2 2154   6.243   5.211   6.706
  419SOL     OW 2155   5.533   5.884   0.457
  419SOL    HW1 2156   5.450   5.829   0.461
  419SOL    HW2 2157   5.605   5.833   0.410
  420SOL     OW 2158   4.923   3.812   7.024
  420SOL    HW1 2159   4.856   3.763   6.968
  420SOL    HW2 2160   4.955   3.893   6.974
  421SOL     OW 2161   1.848   6.731   6.425
  421SOL    HW1 2162   1.836   6.736   6.326
  421SOL    HW2 2163   1.777   6.672   6.464
  422SOL     OW 2164   5.837   4.026   6.784
  422SOL    HW1 2165   5.841   4.074   6.872
  422SOL    HW2 2166   5.803   3.933   6.797
  423SOL     OW 2167   0.967   3.489   6.023
  423SOL    HW1 2168   1.062   3.466   6.042
  423SOL    HW2 2169   0.925   3.415   5.971
  424SOL     OW 2170   2.237   4.165   0.244
  424SOL    HW1 2171   2.164   4.154   0.176
  424SOL    HW2 2172   2.309   4.098   0.227
  425SOL     OW 2173   3.048   6.982   0.130
  425SOL    HW1 2174   3.099   6.995   0.215
  425SOL    HW2 2175   3.002   6.893   0.132
  426SOL     OW 2176   6.736   4.065   6.226
  426SOL    HW1 2177   6.651   4.103   6.189
  426SOL    HW2 2178   6.774   4.000   6.160
  427SOL     OW 2179   4.396   3.242   0.693
  427SOL    HW1 2180   4.437   3.164   0.646
  427SOL    HW2 2181   4.459   3.320   0.689
  428SOL     OW 2182   3.774   1.443   5.824
  428SOL    HW1 2183   3.851   1.478   5.878
  428SOL    HW2 2184   3.709   1.517   5.807
  429SOL     OW 2185   2.988   6.609   0.853
  429SOL    HW1 2186   2.978   6.700   0.893
  429SOL    HW2 2187   2.988   6.616   0.753
  430SOL     OW 2188   2.751   0.056   4.136
  430SOL    HW1 2189   2.780   0.036   4.230
  430SOL    HW2 2190   2.758   6.996   4.081
  431SOL     OW 2191   3.235   1.437   6.813
  431SOL    HW1 2192   3.333   1.457   6.802
  431SOL    HW2 2193   3.181   1.509   6.771
  432SOL     OW 2194   6.889   1.293   1.195
  432SOL    HW1 2195   6.904   1.280   1.293
  432SOL    HW2 2196   6.978   1.305   1.150
  433SOL     OW 2197   2.756   5.941   4.814
  433SOL    HW1 2198   2.820   5.949   4.738
  433SOL    HW2 2199   2.737   5.845   4.832
  434SOL     OW 2200   6.025   3.536   1.602
  434SOL    HW1 2201   6.112   3.507   1.640
  434SOL    HW2 2202   6.033   3.630   1.567
  435SOL     OW 2203   3.614   3.474   0.975
  435SOL    HW1 2204   3.647   3.383   0.951
  435SOL    HW2 2205   3.534   3.496   0.918
  436SOL     OW 2206   2.758   0.816   0.269
  436SOL    HW1 2207   2.773   0.782   0.176
  436SOL    HW2 2208   2.708   0.747   0.322
  437SOL     OW 2209   6.252   0.330   5.516
  437SOL    HW1 2210   6.346   0.313   5.485
  437SOL    HW2 2211   6.220   0.252   5.569
  438SOL     OW 2212   1.858   3.340   1.386
  438SOL    HW1 2213   1.876   3.331   1.288
  438SOL    HW2 2214   1.944   3.333   1.437
  439SOL     OW 2215   6.226   4.456   2.062
  439SOL    HW1 2216   6.139   4.456   2.111
  439SOL    HW2 2217   6.276   4.372   2.082
  440SOL     OW 2218   1.636   3.067   3.042
  440SOL    HW1 2219   1.642   3.165   3.064
  440SOL    HW2 2220   1.554   3.029   3.084
  441SOL     OW 2221   0.585   0.903   3.379
  441SOL    HW1 2222   0.533   0.975   3.425
  441SOL    HW2 2223   0.523   0.829   3.351
  442SOL     OW 2224   6.907   4.690   6.493
  442SOL    HW1 2225   6.825   4.648   6.456
  442SOL    HW2 2226   6.910   4.787   6.469
  443SOL     OW 2227   0.629   4.238   5.449
  443SOL    HW1 2228   0.589   4.269   5.536
  443SOL    HW2 2229   0.704   4.299   5.424
  444SOL     OW 2230   4.671   2.776   6.762
  444SOL    HW1 2231   4.735   2.830   6.817
  444SOL    HW2 2232   4.699   2.779   6.666
  445SOL     OW 2233   1.787   4.319   3.176
  445SOL    HW1 2234   1.868   4.350   3.227
  445SOL    HW2 2235   1.706   4.366   3.211
  446SOL     OW 2236   2.997   4.864   4.207
  446SOL    HW1 2237   2.931   4.791   4.227
  446SOL    HW2 2238   3.071   4.861   4.274
  447SOL     OW 2239   0.003   6.103   0.343
  447SOL    HW1 2240   7.015   6.185   0.398
  447SOL    HW2 2241   0.099   6.094   0.316
  448SOL     OW 2242   4.498   0.500   6.072
  448SOL    HW1 2243   4.508   0.424   6.137
  448SOL    HW2 2244   4.550   0.579   6.106
  449SOL     OW 2245   5.393   0.008   4.162
  449SOL    HW1 2246   5.474   0.063   4.141
  449SOL    HW2 2247   5.322   0.025   4.093
  450SOL     OW 2248   6.301   6.459   3.333
  450SOL    HW1 2249   6.280   6.462   3.431
  450SOL    HW2 2250   6.266   6.373   3.295
  451SOL     OW 2251   6.166   2.610   3.544
  451SOL    HW1 2252   6.092   2.666   3.581
  451SOL    HW2 2253   6.242   2.610   3.609
  452SOL     OW 2254   6.588   5.220   5.914
  452SOL    HW1 2255   6.498   5.209   5.957
  452SOL    HW2 2256   6.651   5.263   5.979
  453SOL     OW 2257   2.863   1.625   5.928
  453SOL    HW1 2258   2.860   1.536   5.974
  453SOL    HW2 2259   2.958   1.651   5.912
  454SOL     OW 2260   0.992   6.244   0.714
  454SOL    HW1 2261   1.002   6.289   0.803
  454SOL    HW2 2262   0.921   6.291   0.662
  455SOL     OW 2263   5.345   0.413   4.759
  455SOL    HW1 2264   5.248   0.433   4.770
  455SOL    HW2 2265   5.400   0.484   4.802
  456SOL     OW 2266   4.542   5.534   0.007
  456SOL    HW1 2267   4.562   5.621   6.985
  456SOL    HW2 2268   4.546   5.460   6.964
  457SOL     OW 2269   0.739   4.608   1.608
  457SOL    HW1 2270   0.809   4.565   1.665
  457SOL    HW2 2271   0.734   4.706   1.630
  458SOL     OW 2272   0.095   6.580   5.434
  458SOL    HW1 2273   0.082   6.494   5.384
  458SOL    HW2 2274   0.022   6.591   5.501
  459SOL     OW 2275   1.781   0.595   3.740
  459SOL    HW1 2276   1.855   0.662   3.737
  459SOL    HW2 2277   1.695   0.642   3.761
  460SOL     OW 2278   6.323   2.097   4.022
  460SOL    HW1 2279   6.332   2.051   3.933
  460SOL    HW2 2280   6.260   2.174   4.014
  461SOL     OW 2281   5.548   5.630   5.844
  461SOL    HW1 2282   5.603   5.712   5.859
  461SOL    HW2 2283   5.478   5.623   5.915
  462SOL     OW 2284   2.797   2.349   0.028
  462SOL    HW1 2285   2.836   2.263   7.020
  462SOL    HW2 2286   2.718   2.373   6.994
  463SOL     OW 2287   6.932   6.060   1.848
  463SOL    HW1 2288   6.923   6.079   1.946
  463SOL    HW2 2289   6.909   6.143   1.796
  464SOL     OW 2290   1.673   1.682   5.789
  464SOL    HW1 2291   1.661   1.768   5.740
  464SOL    HW2 2292   1.727   1.697   5.872
  465SOL     OW 2293   0.125   3.120   5.699
  465SOL    HW1 2294   0.062   3.060   5.749
  465SOL    HW2 2295   0.200   3.147   5.760
  466SOL     OW 2296   2.873   0.620   3.114
  466SOL    HW1 2297   2.783   0.587   3.142
  466SOL    HW2 2298   2.876   0.624   3.014
  467SOL     OW 2299   1.801   1.760   5.225
  467SOL    HW1 2300   1.767   1.827   5.291
  467SOL    HW2 2301   1.724   1.711   5.184
  468SOL     OW 2302   3.231   3.795   2.081
  468SOL    HW1 2303   3.322   3.756   2.097
  468SOL    HW2 2304   3.192   3.825   2.168
  469SOL     OW 2305   2.859   5.548   0.516
  469SOL    HW1 2306   2.873   5.497   0.431
  469SOL    HW2 2307   2.763   5.543   0.542
  470SOL     OW 2308   4.218   0.409   3.005
  470SOL    HW1 2309   4.195   0.400   2.909
  470SOL    HW2 2310   4.291   0.477   3.015
  471SOL     OW 2311   2.818   1.977   4.806
  471SOL    HW1 2312   2.816   2.062   4.752
  471SOL    HW2 2313   2.821   1.899   4.744
  472SOL     OW 2314   4.058   4.235   5.284
  472SOL    HW1 2315   3.996   4.219   5.207
  472SOL    HW2 2316   4.136   4.288   5.254
  473SOL     OW 2317   1.269   4.234   3.959
  473SOL    HW1 2318   1.191   4.236   4.022
  473SOL    HW2 2319   1.350   4.204   4.008
  474SOL     OW 2320   4.792   4.632   4.927
  474SOL    HW1 2321   4.699   4.654   4.958
  474SOL    HW2 2322   4.789   4.552   4.867
  475SOL     OW 2323   1.412   6.782   6.633
  475SOL    HW1 2324   1.457   6.745   6.715
  475SOL    HW2 2325   1.317   6.753   6.631
  476SOL     OW 2326   0.825   5.375   1.703
  476SOL    HW1 2327   0.788   5.391   1.795
  476SOL    HW2 2328   0.905   5.315   1.709
  477SOL     OW 2329   1.731   5.177   3.837
  477SOL    HW1 2330   1.633   5.170   3.856
  477SOL    HW2 2331   1.744   5.188   3.738
  478SOL     OW 2332   1.664   5.509   3.018
  478SOL    HW1 2333   1.620   5.516   3.107
  478SOL    HW2 2334   1.636   5.586   2.960
  479SOL     OW 2335   3.483   1.581   1.625
  479SOL    HW1 2336   3.425   1.631   1.561
  479SOL    HW2 2337   3.433   1.564   1.710
  480SOL     OW 2338   1.696   6.342   2.288
  480SOL    HW1 2339   1.700   6.436   2.255
  480SOL    HW2 2340   1.714   6.341   2.386
  481SOL     OW 2341   3.004   6.533   1.983
  481SOL    HW1 2342   3.001   6.632   1.965
  481SOL    HW2 2343   3.087   6.495   1.943
  482SOL     OW 2344   5.441   5.325   0.857
  482SOL    HW1 2345   5.342   5.332   0.843
  482SOL    HW2 2346   5.485   5.306   0.769
  483SOL     OW 2347   5.869   1.598   1.548
  483SOL    HW1 2348   5.842   1.689   1.581
  483SOL    HW2 2349   5.800   1.531   1.574
  484SOL     OW 2350   6.580   2.709   5.009
  484SOL    HW1 2351   6.487   2.736   4.983
  484SOL    HW2 2352   6.621   2.655   4.936
  485SOL     OW 2353   3.780   6.061   2.034
  485SOL    HW1 2354   3.725   5.980   2.016
  485SOL    HW2 2355   3.836   6.083   1.953
  486SOL     OW 2356   0.410   0.250   6.266
  486SOL    HW1 2357   0.353   0.169   6.282
  486SOL    HW2 2358   0.413   0.306   6.349
  487SOL     OW 2359   6.143   2.878   6.592
  487SOL    HW1 2360   6.231   2.899   6.634
  487SOL    HW2 2361   6.112   2.788   6.624
  488SOL     OW 2362   0.769   3.296   2.199
  488SOL    HW1 2363   0.732   3.203   2.204
  488SOL    HW2 2364   0.854   3.300   2.252
  489SOL     OW 2365   3.475   6.021   5.908
  489SOL    HW1 2366   3.542   6.036   5.981
  489SOL    HW2 2367   3.415   5.945   5.933
  490SOL     OW 2368   5.477   6.129   4.353
  490SOL    HW1 2369   5.425   6.047   4.327
  490SOL    HW2 2370   5.416   6.194   4.398
  491SOL     OW 2371   0.119   1.957   3.403
  491SOL    HW1 2372   0.173   1.976   3.485
  491SOL    HW2 2373   0.046   2.025   3.394
  492SOL     OW 2374   2.147   1.079   4.624
  492SOL    HW1 2375   2.141   1.162   4.568
  492SOL    HW2 2376   2.217   1.019   4.586
  493SOL     OW 2377   6.099   4.250   4.232
  493SOL    HW1 2378   6.191   4.289   4.227
  493SOL    HW2 2379   6.034   4.321   4.258
  494SOL     OW 2380   6.065   1.953   6.730
  494SOL    HW1 2381   5.984   1.986   6.777
  494SOL    HW2 2382   6.045   1.866   6.686
  495SOL     OW 2383   4.142   4.464   0.608
  495SOL    HW1 2384   4.146   4.401   0.530
  495SOL    HW2 2385   4.211   4.437   0.675
  496SOL     OW 2386   6.110   2.971   3.037
  496SOL    HW1 2387   6.125   2.879   3.001
  496SOL    HW2 2388   6.040   3.017   2.983
  497SOL     OW 2389   3.702   6.929   4.225
  497SOL    HW1 2390   3.690   7.017   4.270
  497SOL    HW2 2391   3.765   6.872   4.279
  498SOL     OW 2392   1.387   3.022   2.379
  498SOL    HW1 2393   1.395   2.940   2.322
  498SOL    HW2 2394   1.405   2.998   2.474
  499SOL     OW 2395   3.216   1.236   5.085
  499SOL    HW1 2396   3.122   1.271   5.079
  499SOL    HW2 2397   3.279   1.302   5.046
  500SOL     OW 2398   1.287   4.530   2.169
  500SOL    HW1 2399   1.270   4.437   2.136
  500SOL    HW2 2400   1.203   4.583   2.163
  501SOL     OW 2401   1.620   5.166   0.089
  501SOL    HW1 2402   1.694   5.103   0.064
  501SOL    HW2 2403   1.539   5.114   0.113
  502SOL     OW 2404   3.637   5.032   6.241
  502SOL    HW1 2405   3.728   4.993   6.225
  502SOL    HW2 2406   3.647   5.125   6.276
  503SOL     OW 2407   6.012   5.773   5.260
  503SOL    HW1 2408   5.992   5.766   5.358
  503SOL    HW2 2409   5.972   5.858   5.224
  504SOL     OW 2410   1.972   5.694   4.345
  504SOL    HW1 2411   2.039   5.657   4.281
  504SOL    HW2 2412   1.885   5.646   4.334
  505SOL     OW 2413   3.978   6.666   4.913
  505SOL    HW1 2414   3.993   6.659   5.011
  505SOL    HW2 2415   3.955   6.761   4.889
  506SOL     OW 2416   1.990   3.863   0.193
  506SOL    HW1 2417   1.906   3.888   0.145
  506SOL    HW2 2418   2.022   3.942   0.246
  507SOL     OW 2419   3.811   2.093   4.232
  507SOL    HW1 2420   3.881   2.025   4.252
  507SOL    HW2 2421   3.790   2.145   4.315
  508SOL     OW 2422   6.155   4.291   3.796
  508SOL    HW1 2423   6.230   4.267   3.735
  508SOL    HW2 2424   6.069   4.289   3.746
  509SOL     OW 2425   4.457   2.488   1.124
  509SOL    HW1 2426   4.533   2.537   1.082
  509SOL    HW2 2427   4.401   2.553   1.176
  510SOL     OW 2428   1.026   3.730   4.619
  510SOL    HW1 2429   0.951   3.743   4.684
  510SOL    HW2 2430   0.990   3.730   4.526
  511SOL     OW 2431   0.519   6.555   1.155
  511SOL    HW1 2432   0.478   6.592   1.239
  511SOL    HW2 2433   0.595   6.495   1.179
  512SOL     OW 2434   0.928   3.805   6.455
  512SOL    HW1 2435   0.835   3.828   6.426
  512SOL    HW2 2436   0.981   3.776   6.375
  513SOL     OW 2437   0.733   5.441   4.434
  513SOL    HW1 2438   0.708   5.402   4.346
  513SOL    HW2 2439   0.765   5.535   4.422
  514SOL     OW 2440   6.220   1.966   3.241
  514SOL    HW1 2441   6.164   1.887   3.266
  514SOL    HW2 2442   6.314   1.936   3.225
  515SOL     OW 2443   1.667   5.435   6.855
  515SOL    HW1 2444   1.594   5.468   6.796
  515SOL    HW2 2445   1.639   5.446   6.951
  516SOL     OW 2446   1.345   5.114   2.561
  516SOL    HW1 2447   1.262   5.163   2.589
  516SOL    HW2 2448   1.341   5.020   2.593
  517SOL     OW 2449   5.010   0.780   6.670
  517SOL    HW1 2450   4.989   0.683   6.680
  517SOL    HW2 2451   4.985   0.811   6.578
  518SOL     OW 2452   2.721   1.663   0.798
  518SOL    HW1 2453   2.678   1.753   0.812
  518SOL    HW2 2454   2.663   1.608   0.738
  519SOL     OW 2455   1.033   0.272   0.572
  519SOL    HW1 2456   1.059   0.313   0.660
  519SOL    HW2 2457   0.974   0.194   0.588
  520SOL     OW 2458   6.932   4.249   4.581
  520SOL    HW1 2459   6.915   4.156   4.615
  520SOL    HW2 2460   6.967   4.244   4.488
  521SOL     OW 2461   5.944   0.625   0.869
  521SOL    HW1 2462   5.879   0.695   0.840
  521SOL    HW2 2463   5.904   0.569   0.942
  522SOL     OW 2464   3.479   3.674   5.684
  522SOL    HW1 2465   3.503   3.595   5.740
  522SOL    HW2 2466   3.493   3.757   5.738
  523SOL     OW 2467   6.701   6.858   4.457
  523SOL    HW1 2468   6.625   6.815   4.409
  523SOL    HW2 2469   6.665   6.926   4.522
  524SOL     OW 2470   4.358   1.389   6.058
  524SOL    HW1 2471   4.406   1.301   6.059
  524SOL    HW2 2472   4.302   1.397   6.140
  525SOL     OW 2473   2.691   2.815   6.730
  525SOL    HW1 2474   2.764   2.813   6.798
  525SOL    HW2 2475   2.640   2.729   6.732
  526SOL     OW 2476   4.142   5.569   4.961
  526SOL    HW1 2477   4.241   5.558   4.966
  526SOL    HW2 2478   4.114   5.641   5.025
  527SOL     OW 2479   0.830   1.917   0.098
  527SOL    HW1 2480   0.765   1.987   0.069
  527SOL    HW2 2481   0.911   1.922   0.040
  528SOL     OW 2482   2.318   1.071   5.576
  528SOL    HW1 2483   2.296   0.976   5.551
  528SOL    HW2 2484   2.338   1.076   5.674
  529SOL     OW 2485   6.764   4.569   3.838
  529SOL    HW1 2486   6.679   4.522   3.812
  529SOL    HW2 2487   6.792   4.539   3.929
  530SOL     OW 2488   1.050   1.975   4.984
  530SOL    HW1 2489   1.142   1.991   4.948
  530SOL    HW2 2490   1.035   1.876   4.993
  531SOL     OW 2491   0.067   0.736   0.364
  531SOL    HW1 2492   0.078   0.672   0.288
  531SOL    HW2 2493   0.152   0.787   0.378
  532SOL     OW 2494   1.830   0.292   5.876
  532SOL    HW1 2495   1.822   0.370   5.815
  532SOL    HW2 2496   1.822   0.323   5.971
  533SOL     OW 2497   5.246   0.192   4.642
  533SOL    HW1 2498   5.287   0.167   4.555
  533SOL    HW2 2499   5.292   0.271   4.680
  534SOL     OW 2500   3.099   5.237   3.017
  534SOL    HW1 2501   3.019   5.294   3.037
  534SOL    HW2 2502   3.094   5.206   2.922
  535SOL     OW 2503   6.101   4.283   2.657
  535SOL    HW1 2504   6.020   4.225   2.664
  535SOL    HW2 2505   6.098   4.334   2.571
  536SOL     OW 2506   0.639   6.091   0.798
  536SOL    HW1 2507   0.598   6.170   0.751
  536SOL    HW2 2508   0.674   6.120   0.887
  537SOL     OW 2509   2.389   0.352   3.312
  537SOL    HW1 2510   2.455   0.300   3.259
  537SOL    HW2 2511   2.368   0.438   3.265
  538SOL     OW 2512   1.262   4.678   3.997
  538SOL    HW1 2513   1.232   4.772   3.977
  538SOL    HW2 2514   1.220   4.615   3.931
  539SOL     OW 2515   1.273   5.624   1.399
  539SOL    HW1 2516   1.205   5.611   1.472
  539SOL    HW2 2517   1.236   5.590   1.313
  540SOL     OW 2518   1.218   2.710   1.391
  540SOL    HW1 2519   1.132   2.761   1.382
  540SOL    HW2 2520   1.293   2.773   1.409
  541SOL     OW 2521   3.739   5.155   5.297
  541SOL    HW1 2522   3.712   5.251   5.291
  541SOL    HW2 2523   3.788   5.128   5.214
  542SOL     OW 2524   5.866   6.272   6.570
  542SOL    HW1 2525   5.955   6.262   6.614
  542SOL    HW2 2526   5.864   6.357   6.517
  543SOL     OW 2527   6.609   5.934   0.863
  543SOL    HW1 2528   6.532   5.900   0.809
  543SOL    HW2 2529   6.575   5.966   0.952
  544SOL     OW 2530   1.355   6.021   0.273
  544SOL    HW1 2531   1.432   6.081   0.248
  544SOL    HW2 2532   1.379   5.969   0.354
  545SOL     OW 2533   3.661   1.763   4.056
  545SOL    HW1 2534   3.596   1.716   4.117
  545SOL    HW2 2535   3.633   1.858   4.044
  546SOL     OW 2536   1.548   3.188   0.427
  546SOL    HW1 2537   1.610   3.110   0.424
  546SOL    HW2 2538   1.454   3.156   0.413
  547SOL     OW 2539   2.892   2.096   0.161
  547SOL    HW1 2540   2.897   2.097   0.061
  547SOL    HW2 2541   2.797   2.109   0.190
  548SOL     OW 2542   3.313   3.138   5.262
  548SOL    HW1 2543   3.356   3.063   5.312
  548SOL    HW2 2544   3.370   3.163   5.184
  549SOL     OW 2545   0.777   4.045   1.211
  549SOL    HW1 2546   0.842   4.121   1.214
  549SOL    HW2 2547   0.802   3.983   1.136
  550SOL     OW 2548   6.885   3.413   1.162
  550SOL    HW1 2549   6.841   3.333   1.201
  550SOL    HW2 2550   6.983   3.395   1.150
  551SOL     OW 2551   0.261   1.594   6.977
  551SOL    HW1 2552   0.166   1.622   6.993
  551SOL    HW2 2553   0.323   1.661   7.018
  552SOL     OW 2554   4.850   4.760   0.257
  552SOL    HW1 2555   4.949   4.756   0.272
  552SOL    HW2 2556   4.817   4.671   0.227
  553SOL     OW 2557   1.164   2.164   1.057
  553SOL    HW1 2558   1.187   2.066   1.056
  553SOL    HW2 2559   1.108   2.184   1.137
  554SOL     OW 2560   4.914   5.241   4.911
  554SOL    HW1 2561   4.875   5.326   4.947
  554SOL    HW2 2562   5.010   5.257   4.885
  555SOL     OW 2563   1.489   4.296   4.808
  555SOL    HW1 2564   1.476   4.395   4.811
  555SOL    HW2 2565   1.399   4.251   4.808
  556SOL     OW 2566   5.913   3.582   2.755
  556SOL    HW1 2567   5.917   3.497   2.808
  556SOL    HW2 2568   5.862   3.566   2.670
  557SOL     OW 2569   0.167   5.555   6.262
  557SOL    HW1 2570   0.161   5.480   6.197
  557SOL    HW2 2571   0.099   5.543   6.334
  558SOL     OW 2572   4.506   3.552   5.598
  558SOL    HW1 2573   4.488   3.623   5.530
  558SOL    HW2 2574   4.463   3.467   5.570
  559SOL     OW 2575   5.892   5.756   6.214
  559SOL    HW1 2576   5.978   5.734   6.168
  559SOL    HW2 2577   5.911   5.780   6.309
  560SOL     OW 2578   4.289   6.724   0.126
  560SOL    HW1 2579   4.250   6.635   0.105
  560SOL    HW2 2580   4.357   6.749   0.056
  561SOL     OW 2581   5.633   6.766   1.892
  561SOL    HW1 2582   5.567   6.783   1.965
  561SOL    HW2 2583   5.600   6.693   1.833
  562SOL     OW 2584   6.412   0.814   6.967
  562SOL    HW1 2585   6.346   0.865   7.022
  562SOL    HW2 2586   6.458   0.746   0.001
  563SOL     OW 2587   2.987   0.635   4.837
  563SOL    HW1 2588   2.965   0.555   4.780
  563SOL    HW2 2589   3.012   0.604   4.929
  564SOL     OW 2590   0.478   1.956   6.187
  564SOL    HW1 2591   0.483   1.896   6.107
  564SOL    HW2 2592   0.561   2.012   6.191
  565SOL     OW 2593   4.441   4.101   5.382
  565SOL    HW1 2594   4.451   4.096   5.481
  565SOL    HW2 2595   4.383   4.026   5.351
  566SOL     OW 2596   5.842   4.927   2.328
  566SOL    HW1 2597   5.783   4.943   2.249
  566SOL    HW2 2598   5.937   4.924   2.299
  567SOL     OW 2599   3.901   4.002   4.838
  567SOL    HW1 2600   3.949   3.928   4.791
  567SOL    HW2 2601   3.905   3.987   4.937
  568SOL     OW 2602   1.718   1.234   5.740
  568SOL    HW1 2603   1.809   1.235   5.781
  568SOL    HW2 2604   1.658   1.173   5.792
  569SOL     OW 2605   2.419   3.727   6.760
  569SOL    HW1 2606   2.382   3.706   6.851
  569SOL    HW2 2607   2.349   3.709   6.691
  570SOL     OW 2608   0.091   6.261   0.772
  570SOL    HW1 2609   0.133   6.243   0.684
  570SOL    HW2 2610   0.148   6.222   0.845
  571SOL     OW 2611   4.126   5.406   3.062
  571SOL    HW1 2612   4.190   5.448   3.126
  571SOL    HW2 2613   4.124   5.458   2.977
  572SOL     OW 2614   1.630   4.225   4.561
  572SOL    HW1 2615   1.579   4.150   4.519
  572SOL    HW2 2616   1.570   4.275   4.624
  573SOL     OW 2617   3.172   2.697   0.094
  573SOL    HW1 2618   3.112   2.665   0.166
  573SOL    HW2 2619   3.247   2.751   0.134
  574SOL     OW 2620   2.347   1.783   4.096
  574SOL    HW1 2621   2.266   1.813   4.146
  574SOL    HW2 2622   2.365   1.686   4.117
  575SOL     OW 2623   5.354   2.161   6.312
  575SOL    HW1 2624   5.351   2.066   6.281
  575SOL    HW2 2625   5.276   2.211   6.274
  576SOL     OW 2626   1.102   2.766   2.546
  576SOL    HW1 2627   1.128   2.695   2.612
  576SOL    HW2 2628   1.005   2.758   2.524
  577SOL     OW 2629   3.750   2.155   4.526
  577SOL    HW1 2630   3.699   2.124   4.606
  577SOL    HW2 2631   3.843   2.180   4.553
  578SOL     OW 2632   0.159   3.620   4.454
  578SOL    HW1 2633   0.093   3.546   4.443
  578SOL    HW2 2634   0.176   3.663   4.365
  579SOL     OW 2635   3.796   3.685   0.924
  579SOL    HW1 2636   3.834   3.665   0.833
  579SOL    HW2 2637   3.732   3.612   0.950
  580SOL     OW 2638   0.909   6.515   0.226
  580SOL    HW1 2639   0.976   6.451   0.190
  580SOL    HW2 2640   0.954   6.581   0.285
  581SOL     OW 2641   4.009   3.109   2.567
  581SOL    HW1 2642   4.054   3.173   2.630
  581SOL    HW2 2643   4.039   3.128   2.474
  582SOL     OW 2644   6.941   4.297   1.333
  582SOL    HW1 2645   7.009   4.360   1.370
  582SOL    HW2 2646   6.933   4.217   1.393
  583SOL     OW 2647   3.014   6.108   6.890
  583SOL    HW1 2648   2.987   6.114   6.986
  583SOL    HW2 2649   2.934   6.125   6.832
  584SOL     OW 2650   0.571   4.974   5.010
  584SOL    HW1 2651   0.512   4.965   4.931
  584SOL    HW2 2652   0.576   4.887   5.059
  585SOL     OW 2653   6.017   0.858   5.301
  585SOL    HW1 2654   5.930   0.833   5.342
  585SOL    HW2 2655   6.068   0.775   5.277
  586SOL     OW 2656   2.610   6.003   1.501
  586SOL    HW1 2657   2.661   5.936   1.554
  586SOL    HW2 2658   2.662   6.088   1.496
  587SOL     OW 2659   1.535   3.646   5.878
  587SOL    HW1 2660   1.630   3.670   5.858
  587SOL    HW2 2661   1.503   3.701   5.956
  588SOL     OW 2662   2.291   0.243   1.578
  588SOL    HW1 2663   2.307   0.311   1.649
  588SOL    HW2 2664   2.196   0.247   1.547
  589SOL     OW 2665   4.414   5.014   2.161
  589SOL    HW1 2666   4.423   5.047   2.255
  589SOL    HW2 2667   4.317   4.994   2.142
  590SOL     OW 2668   6.506   2.592   2.015
  590SOL    HW1 2669   6.458   2.545   1.941
  590SOL    HW2 2670   6.564   2.664   1.977
  591SOL     OW 2671   2.701   6.893   2.808
  591SOL    HW1 2672   2.776   6.836   2.774
  591SOL    HW2 2673   2.629   6.898   2.738
  592SOL     OW 2674   5.111   0.062   5.880
  592SOL    HW1 2675   5.113   6.993   5.917
  592SOL    HW2 2676   5.200   0.085   5.842
  593SOL     OW 2677   6.201   1.250   4.700
  593SOL    HW1 2678   6.149   1.335   4.710
  593SOL    HW2 2679   6.288   1.270   4.655
  594SOL     OW 2680   5.553   2.435   1.519
  594SOL    HW1 2681   5.616   2.369   1.559
  594SOL    HW2 2682   5.526   2.502   1.588
  595SOL     OW 2683   4.413   6.815   3.986
  595SOL    HW1 2684   4.351   6.790   3.912
  595SOL    HW2 2685   4.407   6.746   4.059
  596SOL     OW 2686   0.755   3.811   1.376
  596SOL    HW1 2687   0.824   3.793   1.446
  596SOL    HW2 2688   0.752   3.909   1.356
  597SOL     OW 2689   4.109   2.402   6.116
  597SOL    HW1 2690   4.067   2.380   6.205
  597SOL    HW2 2691   4.208   2.389   6.122
  598SOL     OW 2692   2.769   3.900   1.418
  598SOL    HW1 2693   2.677   3.926   1.385
  598SOL    HW2 2694   2.831   3.893   1.340
  599SOL     OW 2695   6.273   6.209   3.535
  599SOL    HW1 2696   6.263   6.139   3.466
  599SOL    HW2 2697   6.199   6.276   3.526
  600SOL     OW 2698   2.971   1.492   1.391
  600SOL    HW1 2699   2.911   1.533   1.323
  600SOL    HW2 2700   2.929   1.501   1.482
  601SOL     OW 2701   2.059   5.235   3.548
  601SOL    HW1 2702   2.091   5.291   3.472
  601SOL    HW2 2703   2.121   5.246   3.626
  602SOL     OW 2704   6.731   0.465   1.941
  602SOL    HW1 2705   6.726   0.550   1.889
  602SOL    HW2 2706   6.702   0.483   2.035
  603SOL     OW 2707   3.895   1.909   3.345
  603SOL    HW1 2708   3.863   1.888   3.437
  603SOL    HW2 2709   3.862   1.999   3.317
  604SOL     OW 2710   0.868   3.728   5.929
  604SOL    HW1 2711   0.906   3.641   5.960
  604SOL    HW2 2712   0.768   3.720   5.923
  605SOL     OW 2713   5.772   0.291   4.732
  605SOL    HW1 2714   5.735   0.279   4.639
  605SOL    HW2 2715   5.696   0.309   4.795
  606SOL     OW 2716   3.381   6.905   2.683
  606SOL    HW1 2717   3.336   6.849   2.613
  606SOL    HW2 2718   3.387   6.852   2.768
  607SOL     OW 2719   4.235   0.872   4.354
  607SOL    HW1 2720   4.215   0.970   4.358
  607SOL    HW2 2721   4.185   0.824   4.426
  608SOL     OW 2722   5.703   2.611   1.799
  608SOL    HW1 2723   5.690   2.695   1.745
  608SOL    HW2 2724   5.735   2.538   1.739
  609SOL     OW 2725   2.959   3.872   4.671
  609SOL    HW1 2726   2.865   3.897   4.648
  609SOL    HW2 2727   2.958   3.797   4.737
  610SOL     OW 2728   6.090   1.687   4.480
  610SOL    HW1 2729   6.001   1.708   4.441
  610SOL    HW2 2730   6.150   1.766   4.470
  611SOL     OW 2731   5.752   6.757   0.363
  611SOL    HW1 2732   5.695   6.835   0.391
  611SOL    HW2 2733   5.721   6.724   0.274
  612SOL     OW 2734   2.077   5.580   5.665
  612SOL    HW1 2735   2.058   5.523   5.745
  612SOL    HW2 2736   2.126   5.662   5.693
  613SOL     OW 2737   3.753   1.268   6.588
  613SOL    HW1 2738   3.805   1.234   6.510
  613SOL    HW2 2739   3.797   1.349   6.626
  614SOL     OW 2740   5.101   2.856   1.091
  614SOL    HW1 2741   5.169   2.894   1.154
  614SOL    HW2 2742   5.147   2.830   1.005
  615SOL     OW 2743   4.953   6.372   0.753
  615SOL    HW1 2744   4.993   6.396   0.664
  615SOL    HW2 2745   4.900   6.287   0.744
  616SOL     OW 2746   4.957   0.438   4.461
  616SOL    HW1 2747   5.011   0.513   4.499
  616SOL    HW2 2748   4.960   0.360   4.524
  617SOL     OW 2749   6.726   6.327   4.922
  617SOL    HW1 2750   6.718   6.279   4.834
  617SOL    HW2 2751   6.821   6.328   4.951
  618SOL     OW 2752   5.405   4.726   0.797
  618SOL    HW1 2753   5.321   4.673   0.795
  618SOL    HW2 2754   5.404   4.787   0.876
  619SOL     OW 2755   2.230   6.456   6.146
  619SOL    HW1 2756   2.246   6.551   6.173
  619SOL    HW2 2757   2.287   6.396   6.202
  620SOL     OW 2758   4.553   1.758   2.428
  620SOL    HW1 2759   4.630   1.797   2.378
  620SOL    HW2 2760   4.487   1.831   2.448
  621SOL     OW 2761   3.388   0.754   6.751
  621SOL    HW1 2762   3.313   0.818   6.769
  621SOL    HW2 2763   3.374   0.671   6.804
  622SOL     OW 2764   0.581   3.680   5.995
  622SOL    HW1 2765   0.510   3.733   6.042
  622SOL    HW2 2766   0.541   3.595   5.960
  623SOL     OW 2767   6.530   0.668   2.864
  623SOL    HW1 2768   6.578   0.653   2.777
  623SOL    HW2 2769   6.548   0.591   2.926
  624SOL     OW 2770   6.077   1.539   6.051
  624SOL    HW1 2771   6.039   1.522   6.142
  624SOL    HW2 2772   6.095   1.637   6.041
  625SOL     OW 2773   3.539   1.067   1.765
  625SOL    HW1 2774   3.526   1.123   1.846
  625SOL    HW2 2775   3.585   1.120   1.694
  626SOL     OW 2776   0.821   6.508   3.458
  626SOL    HW1 2777   0.871   6.485   3.541
  626SOL    HW2 2778   0.742   6.446   3.447
  627SOL     OW 2779   6.675   5.286   6.464
  627SOL    HW1 2780   6.598   5.342   6.495
  627SOL    HW2 2781   6.699   5.220   6.535
  628SOL     OW 2782   3.835   4.852   6.289
  628SOL    HW1 2783   3.755   4.793   6.279
  628SOL    HW2 2784   3.908   4.801   6.336
  629SOL     OW 2785   0.822   6.905   6.968
  629SOL    HW1 2786   0.823   6.855   0.030
  629SOL    HW2 2787   0.818   7.003   6.986
  630SOL     OW 2788   6.585   2.032   1.522
  630SOL    HW1 2789   6.618   2.126   1.534
  630SOL    HW2 2790   6.631   1.991   1.443
  631SOL     OW 2791   2.106   2.969   2.917
  631SOL    HW1 2792   2.151   3.021   2.845
  631SOL    HW2 2793   2.094   3.027   2.998
  632SOL     OW 2794   2.984   4.068   0.941
  632SOL    HW1 2795   3.083   4.059   0.929
  632SOL    HW2 2796   2.952   4.153   0.898
  633SOL     OW 2797   1.653   6.154   0.503
  633SOL    HW1 2798   1.606   6.070   0.530
  633SOL    HW2 2799   1.623   6.229   0.562
  634SOL     OW 2800   3.032   3.209   5.225
  634SOL    HW1 2801   2.978   3.232   5.306
  634SOL    HW2 2802   3.129   3.208   5.249
  635SOL     OW 2803   5.750   6.690   6.490
  635SOL    HW1 2804   5.656   6.662   6.471
  635SOL    HW2 2805   5.757   6.723   6.584
  636SOL     OW 2806   2.378   1.422   4.506
  636SOL    HW1 2807   2.289   1.451   4.471
  636SOL    HW2 2808   2.380   1.434   4.606
  637SOL     OW 2809   0.294   1.551   2.201
  637SOL    HW1 2810   0.263   1.523   2.292
  637SOL    HW2 2811   0.230   1.519   2.132
  638SOL     OW 2812   7.024   3.341   4.734
  638SOL    HW1 2813   0.044   3.417   4.783
  638SOL    HW2 2814   0.029   3.254   4.774
  639SOL     OW 2815   5.987   3.277   1.738
  639SOL    HW1 2816   5.968   3.340   1.662
  639SOL    HW2 2817   5.945   3.189   1.719
  640SOL     OW 2818   6.931   3.361   2.674
  640SOL    HW1 2819   6.991   3.368   2.594
  640SOL    HW2 2820   6.925   3.451   2.718
  641SOL     OW 2821   2.320   5.212   4.392
  641SOL    HW1 2822   2.248   5.204   4.460
  641SOL    HW2 2823   2.392   5.272   4.426
  642SOL     OW 2824   0.740   5.129   4.869
  642SOL    HW1 2825   0.672   5.066   4.908
  642SOL    HW2 2826   0.710   5.159   4.779
  643SOL     OW 2827   3.996   5.381   0.329
  643SOL    HW1 2828   3.995   5.304   0.265
  643SOL    HW2 2829   4.023   5.348   0.420
  644SOL     OW 2830   6.449   6.702   4.713
  644SOL    HW1 2831   6.458   6.642   4.793
  644SOL    HW2 2832   6.354   6.732   4.705
  645SOL     OW 2833   4.209   6.001   2.235
  645SOL    HW1 2834   4.233   6.080   2.178
  645SOL    HW2 2835   4.223   5.917   2.182
  646SOL     OW 2836   3.280   1.871   5.392
  646SOL    HW1 2837   3.356   1.922   5.434
  646SOL    HW2 2838   3.219   1.935   5.346
  647SOL     OW 2839   3.060   2.488   0.330
  647SOL    HW1 2840   3.068   2.402   0.281
  647SOL    HW2 2841   2.977   2.487   0.387
  648SOL     OW 2842   5.929   1.331   3.993
  648SOL    HW1 2843   5.977   1.418   4.005
  648SOL    HW2 2844   5.883   1.307   4.078
  649SOL     OW 2845   2.603   5.759   0.604
  649SOL    HW1 2846   2.504   5.762   0.620
  649SOL    HW2 2847   2.628   5.834   0.542
  650SOL     OW 2848   1.365   2.885   0.849
  650SOL    HW1 2849   1.336   2.836   0.767
  650SOL    HW2 2850   1.463   2.873   0.863
  651SOL     OW 2851   0.144   1.179   3.671
  651SOL    HW1 2852   0.190   1.220   3.592
  651SOL    HW2 2853   0.167   1.230   3.753
  652SOL     OW 2854   3.819   5.598   0.490
  652SOL    HW1 2855   3.751   5.586   0.417
  652SOL    HW2 2856   3.819   5.517   0.549
  653SOL     OW 2857   1.324   0.158   2.517
  653SOL    HW1 2858   1.417   0.162   2.556
  653SOL    HW2 2859   1.317   0.221   2.440
  654SOL     OW 2860   0.947   6.637   5.837
  654SOL    HW1 2861   0.862   6.687   5.855
  654SOL    HW2 2862   0.927   6.556   5.782
  655SOL     OW 2863   0.877   3.323   0.811
  655SOL    HW1 2864   0.893   3.422   0.803
  655SOL    HW2 2865   0.881   3.296   0.907
  656SOL     OW 2866   2.519   0.042   6.330
  656SOL    HW1 2867   2.497   0.113   6.397
  656SOL    HW2 2868   2.498   6.976   6.369
  657SOL     OW 2869   3.867   3.647   4.061
  657SOL    HW1 2870   3.965   3.655   4.042
  657SOL    HW2 2871   3.833   3.561   4.023
  658SOL     OW 2872   1.471   0.696   4.232
  658SOL    HW1 2873   1.535   0.737   4.297
  658SOL    HW2 2874   1.511   0.615   4.191
  659SOL     OW 2875   1.570   5.654   6.298
  659SOL    HW1 2876   1.550   5.737   6.351
  659SOL    HW2 2877   1.666   5.629   6.309
  660SOL     OW 2878   5.664   4.235   2.669
  660SOL    HW1 2879   5.622   4.196   2.750
  660SOL    HW2 2880   5.597   4.289   2.619
  661SOL     OW 2881   4.685   5.281   3.902
  661SOL    HW1 2882   4.631   5.201   3.876
  661SOL    HW2 2883   4.729   5.319   3.820
  662SOL     OW 2884   5.232   3.832   0.337
  662SOL    HW1 2885   5.195   3.764   0.274
  662SOL    HW2 2886   5.187   3.823   0.426
  663SOL     OW 2887   0.403   4.573   6.693
  663SOL    HW1 2888   0.366   4.534   6.609
  663SOL    HW2 2889   0.502   4.587   6.682
  664SOL     OW 2890   1.778   6.908   5.943
  664SOL    HW1 2891   1.768   6.809   5.931
  664SOL    HW2 2892   1.752   6.933   6.037
  665SOL     OW 2893   2.368   4.577   3.106
  665SOL    HW1 2894   2.332   4.670   3.116
  665SOL    HW2 2895   2.455   4.580   3.057
  666SOL     OW 2896   3.280   1.183   6.765
  666SOL    HW1 2897   3.235   1.265   6.801
  666SOL    HW2 2898   3.239   1.158   6.677
  667SOL     OW 2899   1.344   3.154   2.133
  667SOL    HW1 2900   1.253   3.197   2.128
  667SOL    HW2 2901   1.360   3.122   2.227
  668SOL     OW 2902   5.060   0.321   0.892
  668SOL    HW1 2903   5.154   0.288   0.879
  668SOL    HW2 2904   5.041   0.393   0.825
  669SOL     OW 2905   0.295   5.545   2.762
  669SOL    HW1 2906   0.205   5.568   2.801
  669SOL    HW2 2907   0.289   5.547   2.662
  670SOL     OW 2908   4.082   3.631   3.065
  670SOL    HW1 2909   4.064   3.720   3.022
  670SOL    HW2 2910   4.087   3.642   3.164
  671SOL     OW 2911   2.093   0.434   6.282
  671SOL    HW1 2912   2.150   0.420   6.201
  671SOL    HW2 2913   2.151   0.451   6.361
  672SOL     OW 2914   1.384   2.291   2.797
  672SOL    HW1 2915   1.327   2.369   2.772
  672SOL    HW2 2916   1.479   2.321   2.808
  673SOL     OW 2917   4.996   0.284   6.906
  673SOL    HW1 2918   5.005   0.366   6.962
  673SOL    HW2 2919   5.028   0.204   6.957
  674SOL     OW 2920   0.226   2.480   4.472
  674SOL    HW1 2921   0.147   2.469   4.532
  674SOL    HW2 2922   0.224   2.409   4.401
  675SOL     OW 2923   6.345   6.126   3.815
  675SOL    HW1 2924   6.318   6.169   3.729
  675SOL    HW2 2925   6.322   6.187   3.891
  676SOL     OW 2926   2.700   5.191   4.447
  676SOL    HW1 2927   2.620   5.231   4.492
  676SOL    HW2 2928   2.731   5.250   4.373
  677SOL     OW 2929   4.047   6.455   0.345
  677SOL    HW1 2930   4.121   6.460   0.412
  677SOL    HW2 2931   3.977   6.392   0.377
  678SOL     OW 2932   2.167   1.397   5.686
  678SOL    HW1 2933   2.113   1.418   5.604
  678SOL    HW2 2934   2.264   1.400   5.664
  679SOL     OW 2935   6.287   0.137   1.949
  679SOL    HW1 2936   6.365   0.140   2.012
  679SOL    HW2 2937   6.252   0.230   1.936
  680SOL     OW 2938   5.444   3.980   4.774
  680SOL    HW1 2939   5.490   3.892   4.779
  680SOL    HW2 2940   5.477   4.030   4.694
  681SOL     OW 2941   1.132   7.010   2.021
  681SOL    HW1 2942   1.195   7.022   1.944
  681SOL    HW2 2943   1.157   6.927   2.072
  682SOL     OW 2944   6.968   6.821   5.855
  682SOL    HW1 2945   6.947   6.803   5.951
  682SOL    HW2 2946   6.916   6.901   5.824
  683SOL     OW 2947   4.931   1.267   1.515
  683SOL    HW1 2948   5.020   1.313   1.528
  683SOL    HW2 2949   4.911   1.262   1.417
  684SOL     OW 2950   7.022   5.975   6.504
  684SOL    HW1 2951   0.061   5.915   6.554
  684SOL    HW2 2952   6.939   5.989   6.558
  685SOL     OW 2953   6.657   0.805   6.540
  685SOL    HW1 2954   6.712   0.887   6.527
  685SOL    HW2 2955   6.574   0.828   6.591
  686SOL     OW 2956   5.448   5.306   2.446
  686SOL    HW1 2957   5.471   5.209   2.440
  686SOL    HW2 2958   5.531   5.359   2.460
  687SOL     OW 2959   5.747   2.058   5.732
  687SOL    HW1 2960   5.677   2.078   5.664
  687SOL    HW2 2961   5.816   1.997   5.693
  688SOL     OW 2962   6.155   3.230   5.199
  688SOL    HW1 2963   6.186   3.145   5.158
  688SOL    HW2 2964   6.091   3.276   5.137
  689SOL     OW 2965   5.749   4.410   4.181
  689SOL    HW1 2966   5.670   4.456   4.221
  689SOL    HW2 2967   5.781   4.337   4.242
  690SOL     OW 2968   0.183   3.107   4.379
  690SOL    HW1 2969   0.202   3.025   4.433
  690SOL    HW2 2970   0.211   3.091   4.284
  691SOL     OW 2971   0.014   3.154   6.566
  691SOL    HW1 2972   7.004   3.110   6.483
  691SOL    HW2 2973   6.971   3.222   6.596
  692SOL     OW 2974   2.547   0.016   3.401
  692SOL    HW1 2975   2.458   6.995   3.389
  692SOL    HW2 2976   2.618   6.986   3.355
  693SOL     OW 2977   6.582   1.822   2.888
  693SOL    HW1 2978   6.536   1.907   2.861
  693SOL    HW2 2979   6.681   1.834   2.881
  694SOL     OW 2980   1.534   0.646   2.030
  694SOL    HW1 2981   1.612   0.695   1.991
  694SOL    HW2 2982   1.480   0.710   2.085
  695SOL     OW 2983   4.869   5.541   6.750
  695SOL    HW1 2984   4.866   5.453   6.701
  695SOL    HW2 2985   4.964   5.569   6.762
  696SOL     OW 2986   4.919   6.316   2.444
  696SOL    HW1 2987   4.879   6.394   2.494
  696SOL    HW2 2988   4.873   6.306   2.356
  697SOL     OW 2989   1.680   3.762   3.965
  697SOL    HW1 2990   1.765   3.811   3.947
  697SOL    HW2 2991   1.689   3.668   3.932
  698SOL     OW 2992   5.011   5.867   4.151
  698SOL    HW1 2993   4.996   5.916   4.066
  698SOL    HW2 2994   4.958   5.911   4.224
  699SOL     OW 2995   1.249   4.482   6.237
  699SOL    HW1 2996   1.252   4.570   6.286
  699SOL    HW2 2997   1.264   4.498   6.140
  700SOL     OW 2998   2.011   1.634   4.774
  700SOL    HW1 2999   1.919   1.595   4.770
  700SOL    HW2 3000   2.026   1.693   4.695
  701SOL     OW 3001   0.758   4.571   5.254
  701SOL    HW1 3002   0.805   4.490   5.288
  701SOL    HW2 3003   0.826   4.643   5.235
  702SOL     OW 3004   5.404   5.856   5.333
  702SOL    HW1 3005   5.367   5.779   5.385
  702SOL    HW2 3006   5.501   5.842   5.317
  703SOL     OW 3007   4.792   4.406   6.383
  703SOL    HW1 3008   4.698   4.423   6.412
  703SOL    HW2 3009   4.844   4.366   6.459
  704SOL     OW 3010   2.742   6.966   1.972
  704SOL    HW1 3011   2.690   6.891   2.014
  704SOL    HW2 3012   2.778   6.936   1.884
  705SOL     OW 3013   0.188   1.931   3.678
  705SOL    HW1 3014   0.224   1.901   3.766
  705SOL    HW2 3015   0.144   2.020   3.689
  706SOL     OW 3016   4.814   2.926   4.142
  706SOL    HW1 3017   4.884   2.920   4.213
  706SOL    HW2 3018   4.724   2.912   4.183
  707SOL     OW 3019   5.118   2.298   2.546
  707SOL    HW1 3020   5.197   2.238   2.546
  707SOL    HW2 3021   5.143   2.386   2.587
  708SOL     OW 3022   4.297   0.766   2.434
  708SOL    HW1 3023   4.369   0.832   2.452
  708SOL    HW2 3024   4.267   0.775   2.338
  709SOL     OW 3025   0.912   5.530   6.978
  709SOL    HW1 3026   0.917   5.490   6.886
  709SOL    HW2 3027   0.827   5.501   7.022
  710SOL     OW 3028   3.562   3.741   2.994
  710SOL    HW1 3029   3.595   3.667   3.054
  710SOL    HW2 3030   3.523   3.701   2.911
  711SOL     OW 3031   0.578   0.794   5.155
  711SOL    HW1 3032   0.505   0.860   5.141
  711SOL    HW2 3033   0.660   0.824   5.106
  712SOL     OW 3034   0.591   3.733   2.480
  712SOL    HW1 3035   0.578   3.762   2.574
  712SOL    HW2 3036   0.555   3.803   2.418
  713SOL     OW 3037   3.219   3.706   4.414
  713SOL    HW1 3038   3.190   3.656   4.496
  713SOL    HW2 3039   3.141   3.756   4.376
  714SOL     OW 3040   4.966   4.443   5.068
  714SOL    HW1 3041   4.907   4.507   5.018
  714SOL    HW2 3042   4.934   4.435   5.163
  715SOL     OW 3043   6.096   0.088   6.185
  715SOL    HW1 3044   6.122   0.173   6.140
  715SOL    HW2 3045   6.176   0.029   6.196
  716SOL     OW 3046   6.427   5.199   1.267
  716SOL    HW1 3047   6.352   5.250   1.225
  716SOL    HW2 3048   6.508   5.257   1.272
  717SOL     OW 3049   6.159   3.196   6.346
  717SOL    HW1 3050   6.119   3.105   6.331
  717SOL    HW2 3051   6.251   3.198   6.307
  718SOL     OW 3052   2.603   3.098   6.763
  718SOL    HW1 3053   2.664   3.174   6.740
  718SOL    HW2 3054   2.627   3.018   6.708
  719SOL     OW 3055   5.276   4.941   0.225
  719SOL    HW1 3056   5.370   4.940   0.257
  719SOL    HW2 3057   5.214   4.918   0.300
  720SOL     OW 3058   3.486   1.023   6.258
  720SOL    HW1 3059   3.510   1.087   6.185
  720SOL    HW2 3060   3.517   1.060   6.346
  721SOL     OW 3061   1.223   6.632   5.577
  721SOL    HW1 3062   1.225   6.715   5.633
  721SOL    HW2 3063   1.304   6.628   5.519
  722SOL     OW 3064   4.260   6.827   5.273
  722SOL    HW1 3065   4.219   6.798   5.360
  722SOL    HW2 3066   4.356   6.850   5.288
  723SOL     OW 3067   1.537   3.335   1.781
  723SOL    HW1 3068   1.449   3.287   1.774
  723SOL    HW2 3069   1.562   3.345   1.877
  724SOL     OW 3070   0.176   1.187   4.985
  724SOL    HW1 3071   0.165   1.087   4.981
  724SOL    HW2 3072   0.108   1.231   4.927
  725SOL     OW 3073   2.647   5.275   1.791
  725SOL    HW1 3074   2.571   5.325   1.832
  725SOL    HW2 3075   2.732   5.300   1.837
  726SOL     OW 3076   4.928   6.323   5.662
  726SOL    HW1 3077   4.876   6.243   5.631
  726SOL    HW2 3078   4.927   6.393   5.591
  727SOL     OW 3079   2.121   4.481   4.116
  727SOL    HW1 3080   2.122   4.574   4.079
  727SOL    HW2 3081   2.209   4.462   4.159
  728SOL     OW 3082   0.012   3.379   5.651
  728SOL    HW1 3083   6.947   3.379   5.605
  728SOL    HW2 3084   0.049   3.286   5.654
  729SOL     OW 3085   3.504   1.443   0.770
  729SOL    HW1 3086   3.439   1.511   0.804
  729SOL    HW2 3087   3.467   1.400   0.687
  730SOL     OW 3088   5.609   1.185   4.613
  730SOL    HW1 3089   5.677   1.149   4.677
  730SOL    HW2 3090   5.637   1.163   4.519
  731SOL     OW 3091   6.912   2.543   4.371
  731SOL    HW1 3092   6.825   2.557   4.324
  731SOL    HW2 3093   6.980   2.608   4.336
  732SOL     OW 3094   0.325   3.149   3.670
  732SOL    HW1 3095   0.297   3.231   3.620
  732SOL    HW2 3096   0.413   3.165   3.715
  733SOL     OW 3097   4.374   5.254   4.772
  733SOL    HW1 3098   4.404   5.272   4.865
  733SOL    HW2 3099   4.446   5.281   4.708
  734SOL     OW 3100   0.684   5.938   6.837
  734SOL    HW1 3101   0.668   5.900   6.928
  734SOL    HW2 3102   0.742   5.876   6.785
  735SOL     OW 3103   3.229   4.624   6.956
  735SOL    HW1 3104   3.161   4.609   0.004
  735SOL    HW2 3105   3.186   4.670   6.879
  736SOL     OW 3106   5.833   0.493   2.899
  736SOL    HW1 3107   5.810   0.524   2.807
  736SOL    HW2 3108   5.777   0.542   2.966
  737SOL     OW 3109   5.435   3.985   0.367
  737SOL    HW1 3110   5.362   3.930   0.327
  737SOL    HW2 3111   5.452   4.065   0.309
  738SOL     OW 3112   0.801   4.647   2.871
  738SOL    HW1 3113   0.729   4.657   2.802
  738SOL    HW2 3114   0.806   4.552   2.901
  739SOL     OW 3115   4.735   6.646   6.321
  739SOL    HW1 3116   4.724   6.744   6.307
  739SOL    HW2 3117   4.813   6.613   6.268
  740SOL     OW 3118   5.406   0.056   0.243
  740SOL    HW1 3119   5.448   0.108   0.168
  740SOL    HW2 3120   5.306   0.062   0.235
  741SOL     OW 3121   3.051   0.520   3.936
  741SOL    HW1 3122   2.979   0.570   3.887
  741SOL    HW2 3123   3.093   0.453   3.875
  742SOL     OW 3124   1.329   6.612   2.493
  742SOL    HW1 3125   1.311   6.514   2.487
  742SOL    HW2 3126   1.244   6.661   2.513
  743SOL     OW 3127   1.625   3.127   4.067
  743SOL    HW1 3128   1.711   3.076   4.060
  743SOL    HW2 3129   1.579   3.127   3.978
  744SOL     OW 3130   6.570   5.171   0.564
  744SOL    HW1 3131   6.655   5.204   0.524
  744SOL    HW2 3132   6.573   5.182   0.664
  745SOL     OW 3133   1.487   5.970   3.356
  745SOL    HW1 3134   1.532   6.049   3.313
  745SOL    HW2 3135   1.415   6.002   3.418
  746SOL     OW 3136   3.305   0.241   3.515
  746SOL    HW1 3137   3.359   0.325   3.521
  746SOL    HW2 3138   3.306   0.194   3.603
  747SOL     OW 3139   6.527   3.330   0.927
  747SOL    HW1 3140   6.583   3.274   0.866
  747SOL    HW2 3141   6.554   3.314   1.022
  748SOL     OW 3142   3.678   2.875   2.846
  748SOL    HW1 3143   3.588   2.835   2.866
  748SOL    HW2 3144   3.688   2.886   2.747
  749SOL     OW 3145   6.176   2.666   5.229
  749SOL    HW1 3146   6.217   2.668   5.138
  749SOL    HW2 3147   6.090   2.615   5.225
  750SOL     OW 3148   3.268   3.213   1.733
  750SOL    HW1 3149   3.303   3.231   1.641
  750SOL    HW2 3150   3.238   3.118   1.739
  751SOL     OW 3151   5.451   1.448   0.547
  751SOL    HW1 3152   5.486   1.535   0.512
  751SOL    HW2 3153   5.522   1.403   0.601
  752SOL     OW 3154   4.592   0.702   1.521
  752SOL    HW1 3155   4.570   0.683   1.426
  752SOL    HW2 3156   4.576   0.619   1.575
  753SOL     OW 3157   3.533   1.186   3.029
  753SOL    HW1 3158   3.514   1.251   3.102
  753SOL    HW2 3159   3.548   1.235   2.943
  754SOL     OW 3160   5.324   5.745   0.502
  754SOL    HW1 3161   5.243   5.699   0.465
  754SOL    HW2 3162   5.318   5.748   0.601
  755SOL     OW 3163   6.436   5.870   2.857
  755SOL    HW1 3164   6.496   5.796   2.826
  755SOL    HW2 3165   6.401   5.848   2.948
  756SOL     OW 3166   3.364   6.444   3.872
  756SOL    HW1 3167   3.297   6.442   3.797
  756SOL    HW2 3168   3.335   6.381   3.944
  757SOL     OW 3169   6.519   1.224   3.919
  757SOL    HW1 3170   6.424   1.206   3.944
  757SOL    HW2 3171   6.523   1.295   3.848
  758SOL     OW 3172   4.542   2.092   1.157
  758SOL    HW1 3173   4.499   2.010   1.119
  758SOL    HW2 3174   4.624   2.065   1.209
  759SOL     OW 3175   1.904   0.648   1.186
  759SOL    HW1 3176   1.956   0.733   1.178
  759SOL    HW2 3177   1.840   0.641   1.109
  760SOL     OW 3178   4.599   2.122   5.818
  760SOL    HW1 3179   4.691   2.101   5.851
  760SOL    HW2 3180   4.577   2.064   5.740
  761SOL     OW 3181   5.327   1.226   6.670
  761SOL    HW1 3182   5.315   1.299   6.737
  761SOL    HW2 3183   5.318   1.264   6.578
  762SOL     OW 3184   1.832   5.031   4.416
  762SOL    HW1 3185   1.810   4.941   4.378
  762SOL    HW2 3186   1.890   5.020   4.497
  763SOL     OW 3187   6.085   5.158   7.018
  763SOL    HW1 3188   6.107   5.079   6.961
  763SOL    HW2 3189   6.153   5.166   0.067
  764SOL     OW 3190   5.193   0.892   2.786
  764SOL    HW1 3191   5.196   0.886   2.686
  764SOL    HW2 3192   5.117   0.838   2.820
  765SOL     OW 3193   0.009   6.666   3.228
  765SOL    HW1 3194   6.974   6.716   3.291
  765SOL    HW2 3195   0.067   6.731   3.178
  766SOL     OW 3196   6.935   6.541   0.081
  766SOL    HW1 3197   6.871   6.564   0.006
  766SOL    HW2 3198   6.899   6.463   0.131
  767SOL     OW 3199   5.868   6.099   1.355
  767SOL    HW1 3200   5.904   6.041   1.282
  767SOL    HW2 3201   5.813   6.044   1.418
  768SOL     OW 3202   3.099   6.617   3.829
  768SOL    HW1 3203   3.144   6.702   3.857
  768SOL    HW2 3204   3.064   6.570   3.911
  769SOL     OW 3205   3.414   0.838   0.111
  769SOL    HW1 3206   3.405   0.859   0.014
  769SOL    HW2 3207   3.465   0.912   0.156
  770SOL     OW 3208   3.116   4.888   3.950
  770SOL    HW1 3209   3.214   4.900   3.965
  770SOL    HW2 3210   3.067   4.914   4.033
  771SOL     OW 3211   0.738   5.480   4.697
  771SOL    HW1 3212   0.734   5.463   4.598
  771SOL    HW2 3213   0.828   5.454   4.731
  772SOL     OW 3214   6.923   4.735   5.382
  772SOL    HW1 3215   6.853   4.664   5.377
  772SOL    HW2 3216   6.892   4.817   5.336
  773SOL     OW 3217   0.026   3.543   2.038
  773SOL    HW1 3218   7.012   3.456   2.070
  773SOL    HW2 3219   0.123   3.531   2.015
  774SOL     OW 3220   1.349   0.907   1.547
  774SOL    HW1 3221   1.398   0.834   1.499
  774SOL    HW2 3222   1.379   0.995   1.512
  775SOL     OW 3223   1.391   2.612   4.332
  775SOL    HW1 3224   1.479   2.620   4.285
  775SOL    HW2 3225   1.403   2.632   4.429
  776SOL     OW 3226   2.308   6.974   5.190
  776SOL    HW1 3227   2.336   0.010   5.115
  776SOL    HW2 3228   2.284   0.006   5.270
  777SOL     OW 3229   4.691   0.193   0.159
  777SOL    HW1 3230   4.647   0.251   0.089
  777SOL    HW2 3231   4.745   0.122   0.114
  778SOL     OW 3232   4.105   5.764   5.157
  778SOL    HW1 3233   4.151   5.688   5.204
  778SOL    HW2 3234   4.033   5.800   5.216
  779SOL     OW 3235   0.827   0.584   2.768
  779SOL    HW1 3236   0.850   0.639   2.848
  779SOL    HW2 3237   0.735   0.545   2.779
  780SOL     OW 3238   5.292   3.032   5.186
  780SOL    HW1 3239   5.317   3.128   5.195
  780SOL    HW2 3240   5.220   3.023   5.117
  781SOL     OW 3241   0.758   2.410   6.588
  781SOL    HW1 3242   0.666   2.410   6.629
  781SOL    HW2 3243   0.760   2.346   6.511
  782SOL     OW 3244   0.393   4.374   0.423
  782SOL    HW1 3245   0.448   4.309   0.371
  782SOL    HW2 3246   0.427   4.466   0.407
  783SOL     OW 3247   2.157   4.649   7.019
  783SOL    HW1 3248   2.195   4.687   6.934
  783SOL    HW2 3249   2.229   4.647   0.065
  784SOL     OW 3250   4.944   5.017   3.527
  784SOL    HW1 3251   5.028   5.039   3.577
  784SOL    HW2 3252   4.959   4.936   3.471
  785SOL     OW 3253   6.101   2.263   3.935
  785SOL    HW1 3254   6.036   2.289   4.007
  785SOL    HW2 3255   6.055   2.205   3.868
  786SOL     OW 3256   6.173   6.849   0.394
  786SOL    HW1 3257   6.262   6.878   0.428
  786SOL    HW2 3258   6.102   6.907   0.433
  787SOL     OW 3259   4.427   1.195   0.218
  787SOL    HW1 3260   4.522   1.181   0.245
  787SOL    HW2 3261   4.417   1.286   0.178
  788SOL     OW 3262   0.879   4.820   3.086
  788SOL    HW1 3263   0.805   4.769   3.042
  788SOL    HW2 3264   0.849   4.853   3.175
  789SOL     OW 3265   5.744   2.966   1.387
  789SOL    HW1 3266   5.839   2.934   1.391
  789SOL    HW2 3267   5.742   3.064   1.372
  790SOL     OW 3268   3.407   0.416   3.825
  790SOL    HW1 3269   3.373   0.322   3.825
  790SOL    HW2 3270   3.384   0.460   3.912
  791SOL     OW 3271   3.847   1.683   4.989
  791SOL    HW1 3272   3.820   1.605   5.046
  791SOL    HW2 3273   3.769   1.711   4.933
  792SOL     OW 3274   5.043   0.322   3.737
  792SOL    HW1 3275   5.090   0.239   3.706
  792SOL    HW2 3276   4.985   0.356   3.663
  793SOL     OW 3277   0.393   0.235   6.642
  793SOL    HW1 3278   0.385   0.195   6.551
  793SOL    HW2 3279   0.477   0.203   6.685
  794SOL     OW 3280   3.584   5.014   4.920
  794SOL    HW1 3281   3.499   4.993   4.870
  794SOL    HW2 3282   3.562   5.061   5.005
  795SOL     OW 3283   5.003   5.201   6.834
  795SOL    HW1 3284   5.058   5.281   6.812
  795SOL    HW2 3285   4.948   5.220   6.915
  796SOL     OW 3286   0.244   1.444   5.922
  796SOL    HW1 3287   0.168   1.502   5.952
  796SOL    HW2 3288   0.301   1.495   5.857
  797SOL     OW 3289   6.317   2.820   5.389
  797SOL    HW1 3290   6.259   2.764   5.330
  797SOL    HW2 3291   6.271   2.906   5.411
  798SOL     OW 3292   6.537   0.481   5.200
  798SOL    HW1 3293   6.487   0.414   5.145
  798SOL    HW2 3294   6.508   0.474   5.295
  799SOL     OW 3295   6.519   3.570   3.840
  799SOL    HW1 3296   6.475   3.491   3.882
  799SOL    HW2 3297   6.561   3.542   3.753
  800SOL     OW 3298   6.686   1.647   2.153
  800SOL    HW1 3299   6.620   1.720   2.135
  800SOL    HW2 3300   6.778   1.685   2.153
  801SOL     OW 3301   0.365   2.375   3.734
  801SOL    HW1 3302   0.402   2.349   3.644
  801SOL    HW2 3303   0.400   2.466   3.759
  802SOL     OW 3304   6.063   1.408   1.544
  802SOL    HW1 3305   6.002   1.488   1.539
  802SOL    HW2 3306   6.153   1.437   1.576
  803SOL     OW 3307   1.308   0.167   4.850
  803SOL    HW1 3308   1.284   0.153   4.754
  803SOL    HW2 3309   1.398   0.126   4.868
  804SOL     OW 3310   6.537   6.744   0.579
  804SOL    HW1 3311   6.555   6.735   0.677
  804SOL    HW2 3312   6.525   6.841   0.557
  805SOL     OW 3313   1.560   2.951   5.481
  805SOL    HW1 3314   1.560   2.937   5.382
  805SOL    HW2 3315   1.538   3.046   5.501
  806SOL     OW 3316   5.252   0.528   0.522
  806SOL    HW1 3317   5.221   0.523   0.427
  806SOL    HW2 3318   5.238   0.621   0.556
  807SOL     OW 3319   1.255   6.887   2.879
  807SOL    HW1 3320   1.227   6.948   2.805
  807SOL    HW2 3321   1.208   6.913   2.963
  808SOL     OW 3322   6.023   3.639   5.107
  808SOL    HW1 3323   5.930   3.634   5.143
  808SOL    HW2 3324   6.059   3.731   5.121
  809SOL     OW 3325   0.755   5.659   6.280
  809SOL    HW1 3326   0.814   5.582   6.304
  809SOL    HW2 3327   0.705   5.637   6.196
  810SOL     OW 3328   6.546   5.079   6.282
  810SOL    HW1 3329   6.448   5.097   6.277
  810SOL    HW2 3330   6.591   5.155   6.330
  811SOL     OW 3331   4.130   5.307   3.452
  811SOL    HW1 3332   4.183   5.388   3.425
  811SOL    HW2 3333   4.163   5.228   3.401
  812SOL     OW 3334   0.396   0.247   2.219
  812SOL    HW1 3335   0.376   0.252   2.121
  812SOL    HW2 3336   0.314   0.269   2.271
  813SOL     OW 3337   5.761   5.464   2.156
  813SOL    HW1 3338   5.783   5.526   2.232
  813SOL    HW2 3339   5.789   5.507   2.070
  814SOL     OW 3340   5.238   5.406   1.445
  814SOL    HW1 3341   5.288   5.416   1.530
  814SOL    HW2 3342   5.241   5.311   1.415
  815SOL     OW 3343   0.650   0.995   0.380
  815SOL    HW1 3344   0.578   1.036   0.437
  815SOL    HW2 3345   0.727   1.059   0.373
  816SOL     OW 3346   5.634   0.563   1.335
  816SOL    HW1 3347   5.682   0.520   1.259
  816SOL    HW2 3348   5.555   0.507   1.361
  817SOL     OW 3349   0.521   2.324   1.626
  817SOL    HW1 3350   0.510   2.252   1.694
  817SOL    HW2 3351   0.611   2.315   1.582
  818SOL     OW 3352   6.034   1.497   2.107
  818SOL    HW1 3353   6.131   1.520   2.113
  818SOL    HW2 3354   6.023   1.398   2.108
  819SOL     OW 3355   0.354   5.386   2.074
  819SOL    HW1 3356   0.408   5.427   2.147
  819SOL    HW2 3357   0.319   5.298   2.103
  820SOL     OW 3358   1.362   2.691   4.625
  820SOL    HW1 3359   1.369   2.592   4.639
  820SOL    HW2 3360   1.273   2.723   4.657
  821SOL     OW 3361   0.969   4.211   0.145
  821SOL    HW1 3362   0.933   4.284   0.203
  821SOL    HW2 3363   0.897   4.178   0.084
  822SOL     OW 3364   1.383   3.567   4.664
  822SOL    HW1 3365   1.474   3.607   4.669
  822SOL    HW2 3366   1.389   3.474   4.627
  823SOL     OW 3367   3.458   3.476   1.431
  823SOL    HW1 3368   3.420   3.537   1.501
  823SOL    HW2 3369   3.512   3.529   1.366
  824SOL     OW 3370   6.320   2.612   5.959
  824SOL    HW1 3371   6.240   2.574   6.005
  824SOL    HW2 3372   6.297   2.702   5.922
  825SOL     OW 3373   1.253   3.871   1.706
  825SOL    HW1 3374   1.236   3.868   1.607
  825SOL    HW2 3375   1.166   3.866   1.755
  826SOL     OW 3376   1.199   4.036   5.575
  826SOL    HW1 3377   1.256   4.118   5.567
  826SOL    HW2 3378   1.116   4.059   5.626
  827SOL     OW 3379   3.592   5.064   0.704
  827SOL    HW1 3380   3.521   5.014   0.654
  827SOL    HW2 3381   3.674   5.069   0.648
  828SOL     OW 3382   6.725   0.424   6.023
  828SOL    HW1 3383   6.801   0.363   6.046
  828SOL    HW2 3384   6.662   0.429   6.101
  829SOL     OW 3385   3.443   3.304   5.064
  829SOL    HW1 3386   3.513   3.362   5.106
  829SOL    HW2 3387   3.376   3.361   5.017
  830SOL     OW 3388   4.254   3.853   6.193
  830SOL    HW1 3389   4.247   3.940   6.144
  830SOL    HW2 3390   4.344   3.813   6.178
  831SOL     OW 3391   5.849   0.154   4.435
  831SOL    HW1 3392   5.758   0.192   4.454
  831SOL    HW2 3393   5.919   0.210   4.478
  832SOL     OW 3394   2.045   1.752   5.778
  832SOL    HW1 3395   1.997   1.787   5.698
  832SOL    HW2 3396   2.060   1.654   5.768
  833SOL     OW 3397   0.993   0.429   5.674
  833SOL    HW1 3398   0.929   0.381   5.613
  833SOL    HW2 3399   1.074   0.457   5.622
  834SOL     OW 3400   3.657   4.441   6.091
  834SOL    HW1 3401   3.566   4.402   6.085
  834SOL    HW2 3402   3.661   4.507   6.166
  835SOL     OW 3403   4.651   1.097   3.287
  835SOL    HW1 3404   4.603   1.120   3.203
  835SOL    HW2 3405   4.659   0.997   3.296
  836SOL     OW 3406   2.344   0.781   6.689
  836SOL    HW1 3407   2.391   0.765   6.776
  836SOL    HW2 3408   2.396   0.738   6.615
  837SOL     OW 3409   4.159   1.672   4.904
  837SOL    HW1 3410   4.081   1.720   4.942
  837SOL    HW2 3411   4.232   1.668   4.972
  838SOL     OW 3412   0.914   5.760   2.213
  838SOL    HW1 3413   0.900   5.696   2.137
  838SOL    HW2 3414   0.858   5.841   2.199
  839SOL     OW 3415   3.339   1.334   1.801
  839SOL    HW1 3416   3.275   1.371   1.734
  839SOL    HW2 3417   3.289   1.313   1.885
  840SOL     OW 3418   0.535   1.165   5.750
  840SOL    HW1 3419   0.620   1.119   5.723
  840SOL    HW2 3420   0.557   1.242   5.810
  841SOL     OW 3421   0.302   3.303   0.876
  841SOL    HW1 3422   0.311   3.386   0.820
  841SOL    HW2 3423   0.391   3.258   0.883
  842SOL     OW 3424   3.364   5.153   3.831
  842SOL    HW1 3425   3.297   5.142   3.758
  842SOL    HW2 3426   3.371   5.249   3.857
  843SOL     OW 3427   6.983   4.105   1.828
  843SOL    HW1 3428   0.034   4.160   1.791
  843SOL    HW2 3429   6.975   4.123   1.926
  844SOL     OW 3430   5.826   4.982   6.851
  844SOL    HW1 3431   5.888   4.988   6.773
  844SOL    HW2 3432   5.866   5.028   6.929
  845SOL     OW 3433   1.474   5.215   5.224
  845SOL    HW1 3434   1.388   5.267   5.231
  845SOL    HW2 3435   1.537   5.247   5.295
  846SOL     OW 3436   4.451   2.759   6.984
  846SOL    HW1 3437   4.432   2.834   0.024
  846SOL    HW2 3438   4.520   2.789   6.917
  847SOL     OW 3439   5.242   3.873   1.960
  847SOL    HW1 3440   5.247   3.971   1.981
  847SOL    HW2 3441   5.326   3.845   1.914
  848SOL     OW 3442   6.282   0.151   5.216
  848SOL    HW1 3443   6.328   0.214   5.154
  848SOL    HW2 3444   6.347   0.080   5.245
  849SOL     OW 3445   0.997   5.809   4.205
  849SOL    HW1 3446   1.091   5.844   4.198
  849SOL    HW2 3447   0.933   5.886   4.198
  850SOL     OW 3448   4.130   0.642   3.390
  850SOL    HW1 3449   4.124   0.693   3.476
  850SOL    HW2 3450   4.227   0.630   3.365
  851SOL     OW 3451   6.984   0.754   5.654
  851SOL    HW1 3452   6.890   0.780   5.635
  851SOL    HW2 3453   0.001   0.820   5.718
  852SOL     OW 3454   2.965   4.529   5.589
  852SOL    HW1 3455   2.884   4.526   5.648
  852SOL    HW2 3456   3.047   4.533   5.645
  853SOL     OW 3457   0.958   3.914   0.439
  853SOL    HW1 3458   0.959   3.832   0.496
  853SOL    HW2 3459   0.976   3.889   0.344
  854SOL     OW 3460   6.498   4.828   1.511
  854SOL    HW1 3461   6.576   4.863   1.459
  854SOL    HW2 3462   6.493   4.729   1.501
  855SOL     OW 3463   5.495   0.467   0.628
  855SOL    HW1 3464   5.567   0.445   0.562
  855SOL    HW2 3465   5.409   0.483   0.580
  856SOL     OW 3466   1.274   0.549   4.849
  856SOL    HW1 3467   1.176   0.532   4.846
  856SOL    HW2 3468   1.301   0.568   4.944
  857SOL     OW 3469   5.600   3.483   1.513
  857SOL    HW1 3470   5.513   3.532   1.511
  857SOL    HW2 3471   5.587   3.394   1.557
  858SOL     OW 3472   3.630   3.339   1.834
  858SOL    HW1 3473   3.554   3.350   1.898
  858SOL    HW2 3474   3.715   3.364   1.880
  859SOL     OW 3475   6.716   4.387   0.955
  859SOL    HW1 3476   6.626   4.429   0.946
  859SOL    HW2 3477   6.761   4.385   0.866
  860SOL     OW 3478   1.771   4.531   6.848
  860SOL    HW1 3479   1.855   4.479   6.832
  860SOL    HW2 3480   1.782   4.588   6.929
  861SOL     OW 3481   3.374   4.503   5.775
  861SOL    HW1 3482   3.455   4.554   5.746
  861SOL    HW2 3483   3.356   4.429   5.711
  862SOL     OW 3484   4.777   4.240   3.004
  862SOL    HW1 3485   4.726   4.297   2.939
  862SOL    HW2 3486   4.770   4.280   3.095
  863SOL     OW 3487   5.782   2.090   1.100
  863SOL    HW1 3488   5.816   2.154   1.168
  863SOL    HW2 3489   5.773   2.136   1.012
  864SOL     OW 3490   6.863   5.095   3.260
  864SOL    HW1 3491   6.802   5.046   3.323
  864SOL    HW2 3492   6.852   5.194   3.274
  865SOL     OW 3493   1.978   0.765   3.738
  865SOL    HW1 3494   1.977   0.789   3.835
  865SOL    HW2 3495   2.054   0.811   3.693
  866SOL     OW 3496   4.874   1.070   1.177
  866SOL    HW1 3497   4.774   1.072   1.179
  866SOL    HW2 3498   4.905   1.062   1.082
  867SOL     OW 3499   2.502   1.458   6.621
  867SOL    HW1 3500   2.521   1.526   6.549
  867SOL    HW2 3501   2.457   1.503   6.698
  868SOL     OW 3502   5.432   1.974   3.238
  868SOL    HW1 3503   5.384   1.888   3.256
  868SOL    HW2 3504   5.483   1.966   3.153
  869SOL     OW 3505   6.542   3.974   1.265
  869SOL    HW1 3506   6.515   4.054   1.212
  869SOL    HW2 3507   6.460   3.924   1.295
  870SOL     OW 3508   6.799   2.349   0.167
  870SOL    HW1 3509   6.879   2.408   0.170
  870SOL    HW2 3510   6.769   2.338   0.072
  871SOL     OW 3511   5.815   4.211   0.806
  871SOL    HW1 3512   5.774   4.212   0.715
  871SOL    HW2 3513   5.745   4.228   0.875
  872SOL     OW 3514   0.207   2.106   1.741
  872SOL    HW1 3515   0.195   2.168   1.818
  872SOL    HW2 3516   0.124   2.050   1.730
  873SOL     OW 3517   3.210   6.660   4.689
  873SOL    HW1 3518   3.210   6.745   4.637
  873SOL    HW2 3519   3.285   6.602   4.658
  874SOL     OW 3520   0.497   4.136   6.849
  874SOL    HW1 3521   0.486   4.189   6.765
  874SOL    HW2 3522   0.433   4.171   6.918
  875SOL     OW 3523   6.085   5.274   6.249
  875SOL    HW1 3524   6.050   5.232   6.165
  875SOL    HW2 3525   6.012   5.324   6.295
  876SOL     OW 3526   1.782   2.051   1.319
  876SOL    HW1 3527   1.801   1.958   1.290
  876SOL    HW2 3528   1.860   2.088   1.369
  877SOL     OW 3529   4.937   5.565   0.177
  877SOL    HW1 3530   4.891   5.492   0.126
  877SOL    HW2 3531   4.918   5.653   0.134
  878SOL     OW 3532   3.781   2.711   0.981
  878SOL    HW1 3533   3.821   2.691   0.891
  878SOL    HW2 3534   3.712   2.782   0.971
  879SOL     OW 3535   4.684   2.641   2.856
  879SOL    HW1 3536   4.656   2.634   2.952
  879SOL    HW2 3537   4.768   2.587   2.842
  880SOL     OW 3538   4.264   5.423   1.751
  880SOL    HW1 3539   4.321   5.462   1.824
  880SOL    HW2 3540   4.296   5.457   1.662
  881SOL     OW 3541   5.252   4.805   3.432
  881SOL    HW1 3542   5.233   4.818   3.335
  881SOL    HW2 3543   5.225   4.712   3.459
  882SOL     OW 3544   0.449   2.156   4.532
  882SOL    HW1 3545   0.473   2.200   4.446
  882SOL    HW2 3546   0.439   2.225   4.604
  883SOL     OW 3547   3.224   4.775   0.252
  883SOL    HW1 3548   3.201   4.854   0.194
  883SOL    HW2 3549   3.321   4.778   0.276
  884SOL     OW 3550   4.019   4.040   1.780
  884SOL    HW1 3551   3.942   4.014   1.838
  884SOL    HW2 3552   3.995   4.121   1.726
  885SOL     OW 3553   4.965   5.958   5.332
  885SOL    HW1 3554   5.046   6.016   5.325
  885SOL    HW2 3555   4.883   6.014   5.322
  886SOL     OW 3556   4.122   2.045   6.344
  886SOL    HW1 3557   4.100   1.962   6.395
  886SOL    HW2 3558   4.129   2.024   6.247
  887SOL     OW 3559   5.726   5.804   4.997
  887SOL    HW1 3560   5.775   5.889   5.017
  887SOL    HW2 3561   5.628   5.823   4.990
  888SOL     OW 3562   6.181   6.972   3.516
  888SOL    HW1 3563   6.199   0.001   3.599
  888SOL    HW2 3564   6.255   6.905   3.502
  889SOL     OW 3565   0.643   0.477   4.667
  889SOL    HW1 3566   0.569   0.477   4.599
  889SOL    HW2 3567   0.699   0.396   4.656
  890SOL     OW 3568   1.491   3.937   2.236
  890SOL    HW1 3569   1.562   4.005   2.256
  890SOL    HW2 3570   1.488   3.919   2.138
  891SOL     OW 3571   5.661   3.735   6.552
  891SOL    HW1 3572   5.655   3.635   6.549
  891SOL    HW2 3573   5.637   3.773   6.463
  892SOL     OW 3574   2.194   5.585   1.770
  892SOL    HW1 3575   2.155   5.677   1.761
  892SOL    HW2 3576   2.290   5.592   1.795
  893SOL     OW 3577   2.060   0.329   2.011
  893SOL    HW1 3578   2.039   0.340   2.109
  893SOL    HW2 3579   2.159   0.321   1.999
  894SOL     OW 3580   1.237   5.612   4.360
  894SOL    HW1 3581   1.303   5.580   4.428
  894SOL    HW2 3582   1.200   5.533   4.310
  895SOL     OW 3583   2.442   0.688   4.456
  895SOL    HW1 3584   2.408   0.594   4.463
  895SOL    HW2 3585   2.530   0.687   4.407
  896SOL     OW 3586   5.259   6.713   3.906
  896SOL    HW1 3587   5.226   6.619   3.894
  896SOL    HW2 3588   5.273   6.730   4.004
  897SOL     OW 3589   5.235   1.473   6.139
  897SOL    HW1 3590   5.318   1.512   6.102
  897SOL    HW2 3591   5.232   1.375   6.119
  898SOL     OW 3592   5.645   6.712   3.640
  898SOL    HW1 3593   5.630   6.623   3.596
  898SOL    HW2 3594   5.590   6.782   3.594
  899SOL     OW 3595   1.513   4.488   0.011
  899SOL    HW1 3596   1.541   4.460   6.943
  899SOL    HW2 3597   1.582   4.458   0.078
  900SOL     OW 3598   0.474   5.435   3.577
  900SOL    HW1 3599   0.452   5.444   3.674
  900SOL    HW2 3600   0.464   5.340   3.549
  901SOL     OW 3601   5.520   2.022   3.977
  901SOL    HW1 3602   5.537   1.926   3.958
  901SOL    HW2 3603   5.426   2.045   3.954
  902SOL     OW 3604   1.095   6.607   0.421
  902SOL    HW1 3605   1.127   6.512   0.421
  902SOL    HW2 3606   1.169   6.666   0.389
  903SOL     OW 3607   0.615   4.918   6.368
  903SOL    HW1 3608   0.541   4.935   6.433
  903SOL    HW2 3609   0.612   4.987   6.295
  904SOL     OW 3610   2.088   1.245   4.317
  904SOL    HW1 3611   2.092   1.283   4.225
  904SOL    HW2 3612   2.090   1.319   4.384
  905SOL     OW 3613   6.155   2.824   4.177
  905SOL    HW1 3614   6.158   2.759   4.101
  905SOL    HW2 3615   6.172   2.916   4.143
  906SOL     OW 3616   6.378   4.181   5.751
  906SOL    HW1 3617   6.396   4.156   5.655
  906SOL    HW2 3618   6.281   4.201   5.762
  907SOL     OW 3619   0.426   3.252   2.129
  907SOL    HW1 3620   0.525   3.264   2.134
  907SOL    HW2 3621   0.398   3.180   2.192
  908SOL     OW 3622   2.878   1.245   3.977
  908SOL    HW1 3623   2.843   1.231   4.070
  908SOL    HW2 3624   2.901   1.156   3.937
  909SOL     OW 3625   4.124   6.457   1.427
  909SOL    HW1 3626   4.199   6.410   1.380
  909SOL    HW2 3627   4.085   6.526   1.366
  910SOL     OW 3628   1.990   1.498   1.925
  910SOL    HW1 3629   1.944   1.420   1.967
  910SOL    HW2 3630   1.946   1.519   1.838
  911SOL     OW 3631   0.547   3.206   0.895
  911SOL    HW1 3632   0.597   3.195   0.981
  911SOL    HW2 3633   0.607   3.183   0.818
  912SOL     OW 3634   1.419   0.709   6.671
  912SOL    HW1 3635   1.395   0.678   6.763
  912SOL    HW2 3636   1.390   0.640   6.604
  913SOL     OW 3637   2.147   1.357   2.832
  913SOL    HW1 3638   2.092   1.383   2.752
  913SOL    HW2 3639   2.220   1.424   2.845
  914SOL     OW 3640   2.676   5.887   1.914
  914SOL    HW1 3641   2.768   5.863   1.881
  914SOL    HW2 3642   2.676   5.889   2.014
  915SOL     OW 3643   1.877   2.269   0.627
  915SOL    HW1 3644   1.856   2.265   0.725
  915SOL    HW2 3645   1.932   2.189   0.601
  916SOL     OW 3646   1.115   3.096   2.458
  916SOL    HW1 3647   1.208   3.066   2.436
  916SOL    HW2 3648   1.100   3.085   2.557
  917SOL     OW 3649   4.108   1.025   6.547
  917SOL    HW1 3650   4.115   0.932   6.583
  917SOL    HW2 3651   4.137   1.090   6.617
  918SOL     OW 3652   0.157   2.060   4.994
  918SOL    HW1 3653   0.171   2.013   5.082
  918SOL    HW2 3654   0.203   2.009   4.921
  919SOL     OW 3655   1.611   0.338   0.941
  919SOL    HW1 3656   1.676   0.281   0.992
  919SOL    HW2 3657   1.525   0.344   0.993
  920SOL     OW 3658   1.998   1.319   3.183
  920SOL    HW1 3659   2.031   1.260   3.110
  920SOL    HW2 3660   2.025   1.414   3.163
  921SOL     OW 3661   3.669   4.150   0.650
  921SOL    HW1 3662   3.578   4.175   0.616
  921SOL    HW2 3663   3.667   4.055   0.681
  922SOL     OW 3664   2.578   5.734   0.053
  922SOL    HW1 3665   2.564   5.662   0.120
  922SOL    HW2 3666   2.572   5.824   0.098
  923SOL     OW 3667   3.992   1.226   0.076
  923SOL    HW1 3668   3.909   1.238   0.130
  923SOL    HW2 3669   4.072   1.246   0.134
  924SOL     OW 3670   6.217   4.972   2.462
  924SOL    HW1 3671   6.217   5.063   2.503
  924SOL    HW2 3672   6.311   4.938   2.456
  925SOL     OW 3673   6.974   1.844   2.519
  925SOL    HW1 3674   6.904   1.797   2.465
  925SOL    HW2 3675   0.003   1.904   2.459
  926SOL     OW 3676   3.608   5.583   1.269
  926SOL    HW1 3677   3.660   5.498   1.269
  926SOL    HW2 3678   3.532   5.576   1.333
  927SOL     OW 3679   4.794   5.723   4.878
  927SOL    HW1 3680   4.838   5.789   4.817
  927SOL    HW2 3681   4.803   5.755   4.972
  928SOL     OW 3682   0.182   1.354   1.526
  928SOL    HW1 3683   0.257   1.342   1.591
  928SOL    HW2 3684   0.098   1.317   1.565
  929SOL     OW 3685   6.908   2.078   2.119
  929SOL    HW1 3686   6.843   2.005   2.096
  929SOL    HW2 3687   6.857   2.157   2.155
  930SOL     OW 3688   6.013   5.229   2.205
  930SOL    HW1 3689   6.025   5.156   2.137
  930SOL    HW2 3690   6.072   5.306   2.181
  931SOL     OW 3691   1.255   2.932   1.685
  931SOL    HW1 3692   1.348   2.901   1.666
  931SOL    HW2 3693   1.204   2.859   1.732
  932SOL     OW 3694   4.691   5.886   1.520
  932SOL    HW1 3695   4.744   5.815   1.474
  932SOL    HW2 3696   4.738   5.974   1.510
  933SOL     OW 3697   1.135   6.788   3.255
  933SOL    HW1 3698   1.231   6.761   3.248
  933SOL    HW2 3699   1.081   6.709   3.286
  934SOL     OW 3700   3.016   1.067   5.848
  934SOL    HW1 3701   3.036   1.081   5.945
  934SOL    HW2 3702   3.100   1.045   5.799
  935SOL     OW 3703   1.588   3.728   4.623
  935SOL    HW1 3704   1.564   3.709   4.527
  935SOL    HW2 3705   1.588   3.826   4.639
  936SOL     OW 3706   1.471   1.522   1.747
  936SOL    HW1 3707   1.430   1.434   1.722
  936SOL    HW2 3708   1.467   1.584   1.668
  937SOL     OW 3709   5.278   2.182   3.264
  937SOL    HW1 3710   5.344   2.110   3.242
  937SOL    HW2 3711   5.322   2.272   3.256
  938SOL     OW 3712   0.724   1.258   6.468
  938SOL    HW1 3713   0.766   1.296   6.385
  938SOL    HW2 3714   0.657   1.189   6.442
  939SOL     OW 3715   6.112   1.113   5.371
  939SOL    HW1 3716   6.135   1.140   5.277
  939SOL    HW2 3717   6.091   1.015   5.374
  940SOL     OW 3718   7.014   0.415   4.174
  940SOL    HW1 3719   7.002   0.348   4.101
  940SOL    HW2 3720   0.018   0.368   4.258
  941SOL     OW 3721   6.013   2.419   5.210
  941SOL    HW1 3722   6.010   2.342   5.275
  941SOL    HW2 3723   5.944   2.405   5.139
  942SOL     OW 3724   4.716   0.294   5.005
  942SOL    HW1 3725   4.629   0.282   5.052
  942SOL    HW2 3726   4.784   0.231   5.044
  943SOL     OW 3727   5.294   2.199   0.508
  943SOL    HW1 3728   5.292   2.292   0.471
  943SOL    HW2 3729   5.200   2.165   0.516
  944SOL     OW 3730   4.777   4.083   4.193
  944SOL    HW1 3731   4.691   4.071   4.243
  944SOL    HW2 3732   4.817   4.171   4.218
  945SOL     OW 3733   5.611   3.473   6.546
  945SOL    HW1 3734   5.649   3.427   6.626
  945SOL    HW2 3735   5.671   3.458   6.467
  946SOL     OW 3736   5.665   3.665   6.812
  946SOL    HW1 3737   5.718   3.710   6.741
  946SOL    HW2 3738   5.635   3.575   6.779
  947SOL     OW 3739   0.745   2.478   5.622
  947SOL    HW1 3740   0.845   2.490   5.621
  947SOL    HW2 3741   0.707   2.513   5.537
  948SOL     OW 3742   3.765   1.480   0.916
  948SOL    HW1 3743   3.677   1.469   0.870
  948SOL    HW2 3744   3.831   1.520   0.852
  949SOL     OW 3745   5.405   6.395   6.397
  949SOL    HW1 3746   5.464   6.410   6.317
  949SOL    HW2 3747   5.461   6.387   6.479
  950SOL     OW 3748   3.630   5.512   0.769
  950SOL    HW1 3749   3.581   5.471   0.846
  950SOL    HW2 3750   3.574   5.585   0.729
  951SOL     OW 3751   1.095   3.002   3.710
  951SOL    HW1 3752   1.154   3.082   3.718
  951SOL    HW2 3753   1.141   2.931   3.657
  952SOL     OW 3754   4.824   1.492   1.311
  952SOL    HW1 3755   4.725   1.502   1.325
  952SOL    HW2 3756   4.843   1.491   1.213
  953SOL     OW 3757   3.922   6.436   5.961
  953SOL    HW1 3758   4.015   6.400   5.960
  953SOL    HW2 3759   3.888   6.442   5.867
  954SOL     OW 3760   6.442   0.624   1.161
  954SOL    HW1 3761   6.525   0.574   1.182
  954SOL    HW2 3762   6.456   0.678   1.077
  955SOL     OW 3763   0.842   5.970   2.505
  955SOL    HW1 3764   0.818   6.043   2.441
  955SOL    HW2 3765   0.758   5.926   2.538
  956SOL     OW 3766   1.694   2.566   0.728
  956SOL    HW1 3767   1.686   2.518   0.640
  956SOL    HW2 3768   1.624   2.531   0.791
  957SOL     OW 3769   1.851   6.360   5.042
  957SOL    HW1 3770   1.886   6.285   5.099
  957SOL    HW2 3771   1.859   6.446   5.092
  958SOL     OW 3772   4.715   2.654   0.099
  958SOL    HW1 3773   4.648   2.643   0.026
  958SOL    HW2 3774   4.806   2.633   0.065
  959SOL     OW 3775   1.410   3.559   1.007
  959SOL    HW1 3776   1.499   3.526   0.974
  959SOL    HW2 3777   1.421   3.649   1.049
  960SOL     OW 3778   1.829   4.858   5.509
  960SOL    HW1 3779   1.736   4.852   5.473
  960SOL    HW2 3780   1.850   4.775   5.560
  961SOL     OW 3781   3.556   6.811   6.722
  961SOL    HW1 3782   3.469   6.859   6.714
  961SOL    HW2 3783   3.602   6.810   6.633
  962SOL     OW 3784   1.387   6.757   3.172
  962SOL    HW1 3785   1.482   6.770   3.200
  962SOL    HW2 3786   1.362   6.827   3.106
  963SOL     OW 3787   5.464   0.095   1.686
  963SOL    HW1 3788   5.466   0.031   1.609
  963SOL    HW2 3789   5.382   0.079   1.741
  964SOL     OW 3790   5.774   3.552   1.725
  964SOL    HW1 3791   5.862   3.531   1.682
  964SOL    HW2 3792   5.701   3.540   1.658
  965SOL     OW 3793   1.702   1.283   0.117
  965SOL    HW1 3794   1.784   1.335   0.141
  965SOL    HW2 3795   1.636   1.287   0.192
  966SOL     OW 3796   6.795   2.548   2.312
  966SOL    HW1 3797   6.824   2.626   2.257
  966SOL    HW2 3798   6.853   2.539   2.393
  967SOL     OW 3799   1.274   5.761   2.149
  967SOL    HW1 3800   1.223   5.679   2.121
  967SOL    HW2 3801   1.372   5.744   2.141
  968SOL     OW 3802   6.844   4.285   0.425
  968SOL    HW1 3803   6.850   4.199   0.374
  968SOL    HW2 3804   6.914   4.348   0.391
  969SOL     OW 3805   4.055   6.419   6.393
  969SOL    HW1 3806   4.146   6.461   6.389
  969SOL    HW2 3807   4.037   6.389   6.487
  970SOL     OW 3808   5.238   3.335   5.730
  970SOL    HW1 3809   5.278   3.427   5.726
  970SOL    HW2 3810   5.309   3.267   5.746
  971SOL     OW 3811   0.404   3.023   6.897
  971SOL    HW1 3812   0.350   3.104   6.873
  971SOL    HW2 3813   0.498   3.035   6.863
  972SOL     OW 3814   4.671   6.568   0.681
  972SOL    HW1 3815   4.690   6.550   0.778
  972SOL    HW2 3816   4.616   6.651   0.673
  973SOL     OW 3817   6.070   3.363   6.147
  973SOL    HW1 3818   6.092   3.316   6.232
  973SOL    HW2 3819   5.999   3.313   6.098
  974SOL     OW 3820   2.112   0.313   4.376
  974SOL    HW1 3821   2.053   0.393   4.376
  974SOL    HW2 3822   2.097   0.260   4.459
  975SOL     OW 3823   2.851   0.157   5.073
  975SOL    HW1 3824   2.805   0.166   5.162
  975SOL    HW2 3825   2.794   0.104   5.011
  976SOL     OW 3826   0.568   4.416   3.565
  976SOL    HW1 3827   0.588   4.410   3.663
  976SOL    HW2 3828   0.532   4.329   3.532
  977SOL     OW 3829   0.762   2.138   2.373
  977SOL    HW1 3830   0.735   2.046   2.400
  977SOL    HW2 3831   0.738   2.153   2.277
  978SOL     OW 3832   5.604   2.997   4.751
  978SOL    HW1 3833   5.508   3.008   4.776
  978SOL    HW2 3834   5.632   3.072   4.692
  979SOL     OW 3835   5.695   1.676   3.184
  979SOL    HW1 3836   5.791   1.647   3.195
  979SOL    HW2 3837   5.637   1.621   3.244
  980SOL     OW 3838   0.095   0.109   5.155
  980SOL    HW1 3839   0.157   0.172   5.201
  980SOL    HW2 3840   0.133   0.016   5.158
  981SOL     OW 3841   6.394   3.051   6.044
  981SOL    HW1 3842   6.398   3.095   6.134
  981SOL    HW2 3843   6.411   3.119   5.973
  982SOL     OW 3844   1.137   4.171   0.970
  982SOL    HW1 3845   1.179   4.247   0.919
  982SOL    HW2 3846   1.072   4.123   0.911
  983SOL     OW 3847   5.346   1.675   3.247
  983SOL    HW1 3848   5.345   1.603   3.178
  983SOL    HW2 3849   5.256   1.716   3.254
  984SOL     OW 3850   5.111   2.837   5.598
  984SOL    HW1 3851   5.154   2.909   5.543
  984SOL    HW2 3852   5.020   2.817   5.563
  985SOL     OW 3853   1.839   4.763   0.557
  985SOL    HW1 3854   1.798   4.676   0.584
  985SOL    HW2 3855   1.776   4.815   0.500
  986SOL     OW 3856   4.750   4.308   6.696
  986SOL    HW1 3857   4.827   4.274   6.642
  986SOL    HW2 3858   4.693   4.367   6.639
  987SOL     OW 3859   3.922   6.931   2.718
  987SOL    HW1 3860   3.898   7.013   2.768
  987SOL    HW2 3861   3.941   6.954   2.622
  988SOL     OW 3862   3.339   2.857   1.523
  988SOL    HW1 3863   3.301   2.877   1.614
  988SOL    HW2 3864   3.264   2.839   1.459
  989SOL     OW 3865   0.656   0.601   4.914
  989SOL    HW1 3866   0.662   0.563   4.822
  989SOL    HW2 3867   0.592   0.547   4.969
  990SOL     OW 3868   5.301   6.414   2.003
  990SOL    HW1 3869   5.265   6.332   1.958
  990SOL    HW2 3870   5.393   6.396   2.038
  991SOL     OW 3871   5.918   1.916   5.367
  991SOL    HW1 3872   5.953   1.926   5.274
  991SOL    HW2 3873   5.917   2.006   5.412
  992SOL     OW 3874   6.948   3.028   1.360
  992SOL    HW1 3875   6.872   2.982   1.407
  992SOL    HW2 3876   6.974   3.109   1.412
  993SOL     OW 3877   3.724   6.605   4.790
  993SOL    HW1 3878   3.688   6.520   4.829
  993SOL    HW2 3879   3.808   6.630   4.837
  994SOL     OW 3880   2.917   3.415   2.676
  994SOL    HW1 3881   2.890   3.330   2.722
  994SOL    HW2 3882   2.930   3.398   2.578
  995SOL     OW 3883   0.353   1.435   4.779
  995SOL    HW1 3884   0.320   1.439   4.873
  995SOL    HW2 3885   0.431   1.372   4.774
  996SOL     OW 3886   0.933   3.532   0.265
  996SOL    HW1 3887   0.967   3.535   0.359
  996SOL    HW2 3888   0.963   3.446   0.223
  997SOL     OW 3889   6.923   2.058   0.811
  997SOL    HW1 3890   6.834   2.035   0.771
  997SOL    HW2 3891   6.967   1.974   0.842
  998SOL     OW 3892   5.304   6.780   3.318
  998SOL    HW1 3893   5.316   6.698   3.374
  998SOL    HW2 3894   5.234   6.839   3.358
  999SOL     OW 3895   5.800   5.325   1.415
  999SOL    HW1 3896   5.883   5.276   1.386
  999SOL    HW2 3897   5.824   5.418   1.442
 1000SOL     OW 3898   4.763   2.324   4.813
 1000SOL    HW1 3899   4.801   2.328   4.905
 1000SOL    HW2 3900   4.775   2.412   4.768
 1001SOL     OW 3901   4.764   1.330   5.317
 1001SOL    HW1 3902   4.796   1.278   5.238
 1001SOL    HW2 3903   4.699   1.276   5.369
 1002SOL     OW 3904   0.489   1.509   0.373
 1002SOL    HW1 3905   0.464   1.536   0.280
 1002SOL    HW2 3906   0.415   1.454   0.413
 1003SOL     OW 3907   4.457   5.144   2.760
 1003SOL    HW1 3908   4.361   5.163   2.780
 1003SOL    HW2 3909   4.463   5.071   2.692
 1004SOL     OW 3910   5.778   5.805   0.252
 1004SOL    HW1 3911   5.793   5.885   0.194
 1004SOL    HW2 3912   5.836   5.730   0.221
 1005SOL     OW 3913   6.666   5.692   3.565
 1005SOL    HW1 3914   6.644   5.602   3.603
 1005SOL    HW2 3915   6.698   5.752   3.639
 1006SOL     OW 3916   2.326   4.652   6.784
 1006SOL    HW1 3917   2.381   4.591   6.842
 1006SOL    HW2 3918   2.272   4.597   6.721
 1007SOL     OW 3919   0.890   1.076   3.269
 1007SOL    HW1 3920   0.820   1.034   3.211
 1007SOL    HW2 3921   0.980   1.041   3.244
 1008SOL     OW 3922   2.881   2.228   5.064
 1008SOL    HW1 3923   2.889   2.146   5.008
 1008SOL    HW2 3924   2.972   2.261   5.089
 1009SOL     OW 3925   3.121   6.098   5.842
 1009SOL    HW1 3926   3.039   6.041   5.846
 1009SOL    HW2 3927   3.150   6.122   5.934
 1010SOL     OW 3928   5.306   0.044   5.475
 1010SOL    HW1 3929   5.212   0.067   5.451
 1010SOL    HW2 3930   5.364   0.048   5.393
 1011SOL     OW 3931   3.256   6.011   4.000
 1011SOL    HW1 3932   3.262   5.915   3.974
 1011SOL    HW2 3933   3.246   6.018   4.099
 1012SOL     OW 3934   3.492   5.807   0.760
 1012SOL    HW1 3935   3.436   5.865   0.700
 1012SOL    HW2 3936   3.475   5.831   0.855
 1013SOL     OW 3937   0.583   0.803   0.191
 1013SOL    HW1 3938   0.628   0.874   0.245
 1013SOL    HW2 3939   0.518   0.753   0.248
 1014SOL     OW 3940   6.017   6.748   5.906
 1014SOL    HW1 3941   6.094   6.808   5.929
 1014SOL    HW2 3942   6.017   6.730   5.808
 1015SOL     OW 3943   3.036   0.331   4.731
 1015SOL    HW1 3944   2.984   0.310   4.648
 1015SOL    HW2 3945   3.129   0.359   4.706
 1016SOL     OW 3946   4.550   2.464   1.752
 1016SOL    HW1 3947   4.550   2.557   1.789
 1016SOL    HW2 3948   4.644   2.436   1.731
 1017SOL     OW 3949   5.168   0.763   6.351
 1017SOL    HW1 3950   5.233   0.793   6.420
 1017SOL    HW2 3951   5.136   0.841   6.298
 1018SOL     OW 3952   1.370   2.482   1.315
 1018SOL    HW1 3953   1.303   2.551   1.340
 1018SOL    HW2 3954   1.360   2.460   1.218
 1019SOL     OW 3955   6.259   1.759   0.672
 1019SOL    HW1 3956   6.289   1.665   0.658
 1019SOL    HW2 3957   6.301   1.795   0.756
 1020SOL     OW 3958   3.443   2.210   1.697
 1020SOL    HW1 3959   3.509   2.260   1.753
 1020SOL    HW2 3960   3.352   2.217   1.737
 1021SOL     OW 3961   6.500   1.386   0.998
 1021SOL    HW1 3962   6.598   1.370   0.985
 1021SOL    HW2 3963   6.488   1.467   1.056
 1022SOL     OW 3964   3.174   2.863   6.875
 1022SOL    HW1 3965   3.149   2.816   6.791
 1022SOL    HW2 3966   3.183   2.795   6.949
 1023SOL     OW 3967   6.679   0.486   4.532
 1023SOL    HW1 3968   6.722   0.573   4.556
 1023SOL    HW2 3969   6.640   0.444   4.614
 1024SOL     OW 3970   6.523   2.100   4.218
 1024SOL    HW1 3971   6.452   2.071   4.153
 1024SOL    HW2 3972   6.480   2.137   4.300
 1025SOL     OW 3973   3.064   4.375   1.461
 1025SOL    HW1 3974   3.048   4.276   1.460
 1025SOL    HW2 3975   2.979   4.422   1.485
 1026SOL     OW 3976   0.667   2.693   6.353
 1026SOL    HW1 3977   0.692   2.663   6.445
 1026SOL    HW2 3978   0.568   2.704   6.348
 1027SOL     OW 3979   1.946   4.795   1.358
 1027SOL    HW1 3980   1.919   4.702   1.384
 1027SOL    HW2 3981   1.911   4.815   1.266
 1028SOL     OW 3982   7.014   5.160   0.499
 1028SOL    HW1 3983   6.949   5.233   0.518
 1028SOL    HW2 3984   0.000   5.102   0.580
 1029SOL     OW 3985   3.719   0.612   5.177
 1029SOL    HW1 3986   3.761   0.578   5.261
 1029SOL    HW2 3987   3.657   0.688   5.199
 1030SOL     OW 3988   3.953   4.792   5.164
 1030SOL    HW1 3989   3.857   4.795   5.192
 1030SOL    HW2 3990   4.002   4.726   5.220
 1031SOL     OW 3991   2.410   5.452   0.846
 1031SOL    HW1 3992   2.452   5.364   0.826
 1031SOL    HW2 3993   2.331   5.466   0.785
 1032SOL     OW 3994   1.017   1.362   4.689
 1032SOL    HW1 3995   1.076   1.438   4.716
 1032SOL    HW2 3996   0.983   1.315   4.771
 1033SOL     OW 3997   2.215   6.619   2.473
 1033SOL    HW1 3998   2.240   6.524   2.454
 1033SOL    HW2 3999   2.223   6.636   2.571
 1034SOL     OW 4000   1.113   0.289   1.436
 1034SOL    HW1 4001   1.164   0.266   1.520
 1034SOL    HW2 4002   1.145   0.230   1.362
 1035SOL     OW 4003   3.501   1.448   2.972
 1035SOL    HW1 4004   3.580   1.460   3.031
 1035SOL    HW2 4005   3.527   1.460   2.877
 1036SOL     OW 4006   4.879   6.713   6.898
 1036SOL    HW1 4007   4.842   6.622   6.880
 1036SOL    HW2 4008   4.975   6.706   6.925
 1037SOL     OW 4009   3.415   1.870   6.081
 1037SOL    HW1 4010   3.396   1.909   5.990
 1037SOL    HW2 4011   3.400   1.940   6.151
 1038SOL     OW 4012   2.331   1.804   5.146
 1038SOL    HW1 4013   2.263   1.806   5.073
 1038SOL    HW2 4014   2.323   1.886   5.202
 1039SOL     OW 4015   4.364   1.878   3.464
 1039SOL    HW1 4016   4.447   1.823   3.458
 1039SOL    HW2 4017   4.334   1.882   3.559
 1040SOL     OW 4018   5.839   3.889   4.552
 1040SOL    HW1 4019   5.838   3.790   4.559
 1040SOL    HW2 4020   5.787   3.918   4.472
 1041SOL     OW 4021   1.618   6.730   4.175
 1041SOL    HW1 4022   1.647   6.810   4.122
 1041SOL    HW2 4023   1.693   6.665   4.181
 1042SOL     OW 4024   4.479   3.774   0.749
 1042SOL    HW1 4025   4.518   3.865   0.738
 1042SOL    HW2 4026   4.521   3.729   0.828
 1043SOL     OW 4027   3.908   0.504   7.011
 1043SOL    HW1 4028   3.910   0.598   6.977
 1043SOL    HW2 4029   3.887   0.442   6.935
 1044SOL     OW 4030   4.118   3.297   2.717
 1044SOL    HW1 4031   4.183   3.258   2.782
 1044SOL    HW2 4032   4.115   3.396   2.728
 1045SOL     OW 4033   4.193   0.923   3.469
 1045SOL    HW1 4034   4.271   0.917   3.531
 1045SOL    HW2 4035   4.225   0.920   3.375
 1046SOL     OW 4036   3.892   0.764   2.330
 1046SOL    HW1 4037   3.864   0.797   2.420
 1046SOL    HW2 4038   3.815   0.769   2.267
 1047SOL     OW 4039   0.695   5.921   1.836
 1047SOL    HW1 4040   0.679   5.897   1.741
 1047SOL    HW2 4041   0.793   5.926   1.854
 1048SOL     OW 4042   6.390   4.081   5.479
 1048SOL    HW1 4043   6.416   3.987   5.461
 1048SOL    HW2 4044   6.344   4.119   5.399
 1049SOL     OW 4045   0.541   3.229   5.723
 1049SOL    HW1 4046   0.549   3.130   5.728
 1049SOL    HW2 4047   0.500   3.255   5.635
 1050SOL     OW 4048   2.464   0.760   0.628
 1050SOL    HW1 4049   2.438   0.856   0.641
 1050SOL    HW2 4050   2.388   0.710   0.587
 1051SOL     OW 4051   5.020   4.483   2.157
 1051SOL    HW1 4052   4.937   4.516   2.202
 1051SOL    HW2 4053   5.099   4.535   2.189
 1052SOL     OW 4054   3.696   0.182   4.246
 1052SOL    HW1 4055   3.783   0.201   4.199
 1052SOL    HW2 4056   3.625   0.242   4.209
 1053SOL     OW 4057   3.422   4.909   3.589
 1053SOL    HW1 4058   3.445   4.958   3.504
 1053SOL    HW2 4059   3.496   4.847   3.612
 1054SOL     OW 4060   4.576   5.889   5.086
 1054SOL    HW1 4061   4.531   5.888   5.175
 1054SOL    HW2 4062   4.508   5.870   5.014
 1055SOL     OW 4063   3.535   4.900   4.395
 1055SOL    HW1 4064   3.552   4.905   4.493
 1055SOL    HW2 4065   3.464   4.965   4.370
 1056SOL     OW 4066   2.404   5.976   6.410
 1056SOL    HW1 4067   2.486   6.004   6.361
 1056SOL    HW2 4068   2.420   5.889   6.457
 1057SOL     OW 4069   3.828   4.052   1.273
 1057SOL    HW1 4070   3.854   3.957   1.290
 1057SOL    HW2 4071   3.842   4.073   1.176
 1058SOL     OW 4072   3.134   6.628   2.284
 1058SOL    HW1 4073   3.106   6.541   2.244
 1058SOL    HW2 4074   3.211   6.666   2.233
 1059SOL     OW 4075   3.231   0.777   0.310
 1059SOL    HW1 4076   3.166   0.853   0.307
 1059SOL    HW2 4077   3.306   0.795   0.247
 1060SOL     OW 4078   3.048   1.143   4.263
 1060SOL    HW1 4079   3.040   1.069   4.197
 1060SOL    HW2 4080   3.059   1.230   4.215
 1061SOL     OW 4081   2.803   5.766   1.322
 1061SOL    HW1 4082   2.843   5.806   1.239
 1061SOL    HW2 4083   2.791   5.667   1.309
 1062SOL     OW 4084   4.963   4.496   4.426
 1062SOL    HW1 4085   4.947   4.590   4.456
 1062SOL    HW2 4086   4.936   4.433   4.499
 1063SOL     OW 4087   2.749   2.332   5.838
 1063SOL    HW1 4088   2.734   2.367   5.746
 1063SOL    HW2 4089   2.802   2.398   5.892
 1064SOL     OW 4090   0.636   2.835   1.770
 1064SOL    HW1 4091   0.629   2.898   1.693
 1064SOL    HW2 4092   0.557   2.774   1.772
 1065SOL     OW 4093   4.417   5.326   5.672
 1065SOL    HW1 4094   4.372   5.276   5.746
 1065SOL    HW2 4095   4.454   5.412   5.708
 1066SOL     OW 4096   4.612   6.928   3.844
 1066SOL    HW1 4097   4.554   6.965   3.771
 1066SOL    HW2 4098   4.554   6.895   3.919
 1067SOL     OW 4099   2.722   3.458   0.894
 1067SOL    HW1 4100   2.742   3.459   0.795
 1067SOL    HW2 4101   2.671   3.540   0.919
 1068SOL     OW 4102   0.410   4.414   1.061
 1068SOL    HW1 4103   0.363   4.467   0.990
 1068SOL    HW2 4104   0.427   4.321   1.027
 1069SOL     OW 4105   3.700   2.940   2.566
 1069SOL    HW1 4106   3.795   2.928   2.539
 1069SOL    HW2 4107   3.646   2.970   2.488
 1070SOL     OW 4108   2.467   6.876   0.644
 1070SOL    HW1 4109   2.523   6.817   0.703
 1070SOL    HW2 4110   2.371   6.869   0.672
 1071SOL     OW 4111   4.954   5.306   3.959
 1071SOL    HW1 4112   5.009   5.296   4.042
 1071SOL    HW2 4113   4.857   5.312   3.983
 1072SOL     OW 4114   3.544   5.215   3.052
 1072SOL    HW1 4115   3.600   5.274   3.110
 1072SOL    HW2 4116   3.581   5.215   2.959
 1073SOL     OW 4117   2.945   5.668   3.402
 1073SOL    HW1 4118   3.001   5.749   3.387
 1073SOL    HW2 4119   2.902   5.673   3.492
 1074SOL     OW 4120   1.836   5.382   2.662
 1074SOL    HW1 4121   1.829   5.458   2.598
 1074SOL    HW2 4122   1.926   5.339   2.653
 1075SOL     OW 4123   0.956   4.389   2.733
 1075SOL    HW1 4124   0.956   4.317   2.803
 1075SOL    HW2 4125   1.048   4.399   2.695
 1076SOL     OW 4126   6.511   4.475   2.940
 1076SOL    HW1 4127   6.554   4.386   2.922
 1076SOL    HW2 4128   6.412   4.468   2.926
 1077SOL     OW 4129   4.829   6.900   1.729
 1077SOL    HW1 4130   4.907   6.906   1.667
 1077SOL    HW2 4131   4.844   6.825   1.794
 1078SOL     OW 4132   0.330   3.097   1.875
 1078SOL    HW1 4133   0.302   3.027   1.809
 1078SOL    HW2 4134   0.323   3.188   1.833
 1079SOL     OW 4135   1.731   5.265   3.527
 1079SOL    HW1 4136   1.804   5.203   3.496
 1079SOL    HW2 4137   1.649   5.250   3.473
 1080SOL     OW 4138   1.747   5.419   4.034
 1080SOL    HW1 4139   1.839   5.413   4.072
 1080SOL    HW2 4140   1.748   5.389   3.939
 1081SOL     OW 4141   1.388   0.443   0.249
 1081SOL    HW1 4142   1.321   0.407   0.313
 1081SOL    HW2 4143   1.349   0.445   0.157
 1082SOL     OW 4144   2.018   6.985   0.963
 1082SOL    HW1 4145   2.016   0.061   0.976
 1082SOL    HW2 4146   1.956   6.960   0.889
 1083SOL     OW 4147   3.466   2.518   1.727
 1083SOL    HW1 4148   3.437   2.591   1.788
 1083SOL    HW2 4149   3.527   2.455   1.776
 1084SOL     OW 4150   6.820   3.888   0.569
 1084SOL    HW1 4151   6.916   3.877   0.545
 1084SOL    HW2 4152   6.777   3.798   0.577
 1085SOL     OW 4153   1.541   5.432   3.693
 1085SOL    HW1 4154   1.483   5.357   3.724
 1085SOL    HW2 4155   1.620   5.394   3.644
 1086SOL     OW 4156   2.844   5.371   2.661
 1086SOL    HW1 4157   2.920   5.397   2.601
 1086SOL    HW2 4158   2.816   5.278   2.641
 1087SOL     OW 4159   3.896   3.052   4.748
 1087SOL    HW1 4160   3.861   2.986   4.814
 1087SOL    HW2 4161   3.856   3.034   4.658
 1088SOL     OW 4162   0.162   4.582   2.585
 1088SOL    HW1 4163   0.095   4.575   2.512
 1088SOL    HW2 4164   0.132   4.528   2.664
 1089SOL     OW 4165   6.714   6.784   3.228
 1089SOL    HW1 4166   6.635   6.730   3.260
 1089SOL    HW2 4167   6.772   6.807   3.305
 1090SOL     OW 4168   1.688   2.205   6.618
 1090SOL    HW1 4169   1.708   2.165   6.529
 1090SOL    HW2 4170   1.602   2.256   6.613
 1091SOL     OW 4171   1.012   2.432   5.539
 1091SOL    HW1 4172   1.047   2.523   5.563
 1091SOL    HW2 4173   0.994   2.428   5.441
 1092SOL     OW 4174   2.249   4.657   1.204
 1092SOL    HW1 4175   2.170   4.652   1.265
 1092SOL    HW2 4176   2.222   4.628   1.113
 1093SOL     OW 4177   6.951   2.952   1.700
 1093SOL    HW1 4178   6.912   2.944   1.609
 1093SOL    HW2 4179   6.902   3.023   1.751
 1094SOL     OW 4180   0.913   6.591   2.553
 1094SOL    HW1 4181   0.884   6.578   2.458
 1094SOL    HW2 4182   0.847   6.650   2.599
 1095SOL     OW 4183   0.761   3.572   6.196
 1095SOL    HW1 4184   0.683   3.598   6.139
 1095SOL    HW2 4185   0.831   3.530   6.139
 1096SOL     OW 4186   3.694   3.073   1.567
 1096SOL    HW1 4187   3.647   3.158   1.591
 1096SOL    HW2 4188   3.789   3.093   1.542
 1097SOL     OW 4189   2.638   4.330   6.022
 1097SOL    HW1 4190   2.679   4.265   6.085
 1097SOL    HW2 4191   2.561   4.376   6.066
 1098SOL     OW 4192   3.624   0.344   2.624
 1098SOL    HW1 4193   3.648   0.432   2.665
 1098SOL    HW2 4194   3.533   0.349   2.584
 1099SOL     OW 4195   3.402   0.363   2.475
 1099SOL    HW1 4196   3.331   0.395   2.412
 1099SOL    HW2 4197   3.400   0.263   2.478
 1100SOL     OW 4198   6.524   1.274   6.814
 1100SOL    HW1 4199   6.533   1.372   6.794
 1100SOL    HW2 4200   6.549   1.221   6.733
 1101SOL     OW 4201   5.287   2.938   1.278
 1101SOL    HW1 4202   5.334   2.856   1.309
 1101SOL    HW2 4203   5.315   3.016   1.334
 1102SOL     OW 4204   0.179   3.752   4.189
 1102SOL    HW1 4205   0.259   3.811   4.178
 1102SOL    HW2 4206   0.186   3.673   4.128
 1103SOL     OW 4207   6.892   3.483   6.850
 1103SOL    HW1 4208   6.963   3.543   6.814
 1103SOL    HW2 4209   6.924   3.439   6.934
 1104SOL     OW 4210   2.457   5.573   5.929
 1104SOL    HW1 4211   2.424   5.500   5.990
 1104SOL    HW2 4212   2.493   5.533   5.845
 1105SOL     OW 4213   3.952   5.124   0.982
 1105SOL    HW1 4214   3.858   5.092   0.992
 1105SOL    HW2 4215   3.953   5.223   0.969
 1106SOL     OW 4216   1.114   1.209   6.642
 1106SOL    HW1 4217   1.037   1.149   6.621
 1106SOL    HW2 4218   1.080   1.294   6.682
 1107SOL     OW 4219   6.705   0.798   1.336
 1107SOL    HW1 4220   6.608   0.822   1.328
 1107SOL    HW2 4221   6.761   0.873   1.302
 1108SOL     OW 4222   1.553   1.144   6.813
 1108SOL    HW1 4223   1.491   1.215   6.848
 1108SOL    HW2 4224   1.587   1.089   6.889
 1109SOL     OW 4225   4.775   0.938   3.991
 1109SOL    HW1 4226   4.789   0.938   4.090
 1109SOL    HW2 4227   4.802   0.850   3.953
 1110SOL     OW 4228   3.392   2.873   2.877
 1110SOL    HW1 4229   3.396   2.927   2.793
 1110SOL    HW2 4230   3.323   2.801   2.867
 1111SOL     OW 4231   4.453   6.772   0.341
 1111SOL    HW1 4232   4.524   6.838   0.316
 1111SOL    HW2 4233   4.386   6.766   0.267
 1112SOL     OW 4234   0.961   1.330   2.696
 1112SOL    HW1 4235   0.893   1.256   2.689
 1112SOL    HW2 4236   0.949   1.393   2.620
 1113SOL     OW 4237   6.321   3.723   1.357
 1113SOL    HW1 4238   6.260   3.757   1.428
 1113SOL    HW2 4239   6.327   3.790   1.283
 1114SOL     OW 4240   5.833   1.222   5.245
 1114SOL    HW1 4241   5.775   1.235   5.326
 1114SOL    HW2 4242   5.827   1.127   5.215
 1115SOL     OW 4243   2.177   4.494   0.437
 1115SOL    HW1 4244   2.172   4.584   0.393
 1115SOL    HW2 4245   2.259   4.491   0.495
 1116SOL     OW 4246   3.455   6.328   6.681
 1116SOL    HW1 4247   3.500   6.333   6.591
 1116SOL    HW2 4248   3.476   6.410   6.733
 1117SOL     OW 4249   2.359   3.212   1.060
 1117SOL    HW1 4250   2.295   3.260   1.000
 1117SOL    HW2 4251   2.320   3.204   1.152
 1118SOL     OW 4252   1.748   3.189   1.607
 1118SOL    HW1 4253   1.764   3.212   1.511
 1118SOL    HW2 4254   1.662   3.231   1.637
 1119SOL     OW 4255   2.991   3.923   3.026
 1119SOL    HW1 4256   2.979   3.858   3.102
 1119SOL    HW2 4257   3.050   3.998   3.055
 1120SOL     OW 4258   4.369   0.998   3.919
 1120SOL    HW1 4259   4.427   1.079   3.928
 1120SOL    HW2 4260   4.410   0.922   3.968
 1121SOL     OW 4261   5.468   3.327   3.099
 1121SOL    HW1 4262   5.493   3.382   3.019
 1121SOL    HW2 4263   5.544   3.268   3.125
 1122SOL     OW 4264   4.792   5.403   6.204
 1122SOL    HW1 4265   4.785   5.463   6.124
 1122SOL    HW2 4266   4.866   5.435   6.263
 1123SOL     OW 4267   4.214   0.977   1.807
 1123SOL    HW1 4268   4.173   0.891   1.837
 1123SOL    HW2 4269   4.187   1.050   1.869
 1124SOL     OW 4270   1.485   5.252   4.426
 1124SOL    HW1 4271   1.579   5.267   4.457
 1124SOL    HW2 4272   1.479   5.272   4.328
 1125SOL     OW 4273   3.093   3.284   4.973
 1125SOL    HW1 4274   3.056   3.267   5.064
 1125SOL    HW2 4275   3.143   3.371   4.973
 1126SOL     OW 4276   6.504   0.374   2.286
 1126SOL    HW1 4277   6.589   0.415   2.254
 1126SOL    HW2 4278   6.520   0.326   2.373
 1127SOL     OW 4279   2.260   5.833   6.108
 1127SOL    HW1 4280   2.335   5.849   6.043
 1127SOL    HW2 4281   2.206   5.917   6.118
 1128SOL     OW 4282   2.225   2.306   4.548
 1128SOL    HW1 4283   2.279   2.247   4.607
 1128SOL    HW2 4284   2.140   2.259   4.522
 1129SOL     OW 4285   4.446   6.610   6.202
 1129SOL    HW1 4286   4.441   6.551   6.121
 1129SOL    HW2 4287   4.541   6.639   6.216
 1130SOL     OW 4288   0.370   5.524   5.646
 1130SOL    HW1 4289   0.336   5.597   5.587
 1130SOL    HW2 4290   0.465   5.503   5.623
 1131SOL     OW 4291   0.283   5.286   5.490
 1131SOL    HW1 4292   0.290   5.377   5.531
 1131SOL    HW2 4293   0.366   5.234   5.509
 1132SOL     OW 4294   5.604   6.308   4.793
 1132SOL    HW1 4295   5.694   6.347   4.772
 1132SOL    HW2 4296   5.581   6.327   4.889
 1133SOL     OW 4297   6.755   2.667   6.562
 1133SOL    HW1 4298   6.745   2.763   6.587
 1133SOL    HW2 4299   6.700   2.610   6.623
 1134SOL     OW 4300   6.915   2.330   5.829
 1134SOL    HW1 4301   6.967   2.368   5.752
 1134SOL    HW2 4302   6.949   2.369   5.914
 1135SOL     OW 4303   6.643   1.532   4.827
 1135SOL    HW1 4304   6.631   1.542   4.728
 1135SOL    HW2 4305   6.615   1.617   4.872
 1136SOL     OW 4306   3.468   5.236   4.219
 1136SOL    HW1 4307   3.468   5.335   4.208
 1136SOL    HW2 4308   3.553   5.198   4.181
 1137SOL     OW 4309   1.411   0.915   6.465
 1137SOL    HW1 4310   1.407   1.013   6.484
 1137SOL    HW2 4311   1.428   0.865   6.550
 1138SOL     OW 4312   1.080   3.877   5.853
 1138SOL    HW1 4313   1.017   3.814   5.899
 1138SOL    HW2 4314   1.033   3.964   5.836
 1139SOL     OW 4315   1.080   0.310   2.336
 1139SOL    HW1 4316   1.167   0.316   2.286
 1139SOL    HW2 4317   1.019   0.383   2.306
 1140SOL     OW 4318   3.498   2.137   3.284
 1140SOL    HW1 4319   3.488   2.057   3.225
 1140SOL    HW2 4320   3.593   2.169   3.282
 1141SOL     OW 4321   6.651   5.807   5.962
 1141SOL    HW1 4322   6.746   5.800   5.995
 1141SOL    HW2 4323   6.638   5.746   5.884
 1142SOL     OW 4324   7.007   0.607   4.492
 1142SOL    HW1 4325   6.997   0.516   4.532
 1142SOL    HW2 4326   0.076   0.618   4.457
 1143SOL     OW 4327   4.510   2.040   1.492
 1143SOL    HW1 4328   4.510   1.967   1.423
 1143SOL    HW2 4329   4.418   2.050   1.529
 1144SOL     OW 4330   0.803   6.410   4.885
 1144SOL    HW1 4331   0.782   6.500   4.924
 1144SOL    HW2 4332   0.833   6.349   4.958
 1145SOL     OW 4333   1.860   4.781   5.023
 1145SOL    HW1 4334   1.789   4.760   4.957
 1145SOL    HW2 4335   1.864   4.710   5.093
 1146SOL     OW 4336   5.617   1.619   1.245
 1146SOL    HW1 4337   5.700   1.570   1.270
 1146SOL    HW2 4338   5.640   1.699   1.189
 1147SOL     OW 4339   6.768   3.172   2.236
 1147SOL    HW1 4340   6.739   3.180   2.331
 1147SOL    HW2 4341   6.690   3.144   2.180
 1148SOL     OW 4342   5.655   0.937   6.452
 1148SOL    HW1 4343   5.583   1.001   6.425
 1148SOL    HW2 4344   5.645   0.852   6.400
 1149SOL     OW 4345   5.589   2.550   3.052
 1149SOL    HW1 4346   5.571   2.455   3.025
 1149SOL    HW2 4347   5.532   2.612   2.999
 1150SOL     OW 4348   1.251   5.386   5.603
 1150SOL    HW1 4349   1.324   5.453   5.610
 1150SOL    HW2 4350   1.186   5.413   5.532
 1151SOL     OW 4351   2.426   5.242   0.392
 1151SOL    HW1 4352   2.423   5.179   0.314
 1151SOL    HW2 4353   2.520   5.253   0.423
 1152SOL     OW 4354   0.725   0.940   3.743
 1152SOL    HW1 4355   0.774   0.966   3.659
 1152SOL    HW2 4356   0.638   0.989   3.748
 1153SOL     OW 4357   2.517   4.527   2.743
 1153SOL    HW1 4358   2.583   4.552   2.673
 1153SOL    HW2 4359   2.554   4.550   2.833
 1154SOL     OW 4360   1.789   4.050   2.434
 1154SOL    HW1 4361   1.741   4.039   2.521
 1154SOL    HW2 4362   1.785   4.146   2.407
 1155SOL     OW 4363   4.074   0.114   2.595
 1155SOL    HW1 4364   4.032   0.048   2.534
 1155SOL    HW2 4365   4.133   0.176   2.542
 1156SOL     OW 4366   1.687   1.111   4.243
 1156SOL    HW1 4367   1.595   1.138   4.270
 1156SOL    HW2 4368   1.743   1.093   4.324
 1157SOL     OW 4369   1.724   2.937   4.396
 1157SOL    HW1 4370   1.784   2.903   4.468
 1157SOL    HW2 4371   1.679   3.021   4.426
 1158SOL     OW 4372   4.381   5.741   5.897
 1158SOL    HW1 4373   4.323   5.717   5.820
 1158SOL    HW2 4374   4.331   5.727   5.983
 1159SOL     OW 4375   6.036   4.322   2.392
 1159SOL    HW1 4376   5.996   4.344   2.303
 1159SOL    HW2 4377   6.032   4.224   2.407
 1160SOL     OW 4378   2.654   3.006   1.331
 1160SOL    HW1 4379   2.719   3.082   1.341
 1160SOL    HW2 4380   2.597   3.022   1.251
 1161SOL     OW 4381   4.315   0.762   4.072
 1161SOL    HW1 4382   4.249   0.694   4.040
 1161SOL    HW2 4383   4.296   0.783   4.168
 1162SOL     OW 4384   3.635   5.035   1.396
 1162SOL    HW1 4385   3.541   5.069   1.405
 1162SOL    HW2 4386   3.698   5.100   1.440
 1163SOL     OW 4387   5.131   0.095   2.335
 1163SOL    HW1 4388   5.126   0.163   2.408
 1163SOL    HW2 4389   5.226   0.083   2.307
 1164SOL     OW 4390   6.483   3.638   4.805
 1164SOL    HW1 4391   6.577   3.605   4.807
 1164SOL    HW2 4392   6.446   3.625   4.713
 1165SOL     OW 4393   1.047   4.931   2.241
 1165SOL    HW1 4394   1.108   4.896   2.313
 1165SOL    HW2 4395   1.062   4.879   2.157
 1166SOL     OW 4396   3.476   1.574   6.851
 1166SOL    HW1 4397   3.556   1.515   6.859
 1166SOL    HW2 4398   3.502   1.669   6.868
 1167SOL     OW 4399   3.910   1.692   5.448
 1167SOL    HW1 4400   3.813   1.673   5.468
 1167SOL    HW2 4401   3.917   1.748   5.366
 1168SOL     OW 4402   6.062   0.295   3.450
 1168SOL    HW1 4403   5.998   0.283   3.375
 1168SOL    HW2 4404   6.048   0.222   3.518
 1169SOL     OW 4405   1.099   2.795   1.093
 1169SOL    HW1 4406   1.076   2.839   1.180
 1169SOL    HW2 4407   1.104   2.696   1.106
 1170SOL     OW 4408   2.726   0.864   1.012
 1170SOL    HW1 4409   2.680   0.814   0.938
 1170SOL    HW2 4410   2.673   0.946   1.034
 1171SOL     OW 4411   3.021   0.974   0.265
 1171SOL    HW1 4412   2.939   0.921   0.284
 1171SOL    HW2 4413   3.043   0.966   0.167
 1172SOL     OW 4414   3.326   3.563   5.199
 1172SOL    HW1 4415   3.306   3.660   5.215
 1172SOL    HW2 4416   3.264   3.507   5.254
 1173SOL     OW 4417   5.596   0.101   5.848
 1173SOL    HW1 4418   5.662   0.128   5.778
 1173SOL    HW2 4419   5.514   0.064   5.805
 1174SOL     OW 4420   3.644   5.884   6.655
 1174SOL    HW1 4421   3.638   5.984   6.651
 1174SOL    HW2 4422   3.553   5.845   6.642
 1175SOL     OW 4423   7.019   4.895   4.486
 1175SOL    HW1 4424   7.008   4.845   4.573
 1175SOL    HW2 4425   0.079   4.949   4.489
 1176SOL     OW 4426   6.148   2.655   1.180
 1176SOL    HW1 4427   6.105   2.564   1.185
 1176SOL    HW2 4428   6.100   2.718   1.241
 1177SOL     OW 4429   6.333   3.489   0.333
 1177SOL    HW1 4430   6.275   3.416   0.297
 1177SOL    HW2 4431   6.292   3.578   0.312
 1178SOL     OW 4432   5.453   4.392   2.639
 1178SOL    HW1 4433   5.524   4.444   2.592
 1178SOL    HW2 4434   5.417   4.321   2.578
 1179SOL     OW 4435   1.652   5.625   5.908
 1179SOL    HW1 4436   1.683   5.695   5.843
 1179SOL    HW2 4437   1.724   5.609   5.976
 1180SOL     OW 4438   1.835   0.664   4.124
 1180SOL    HW1 4439   1.842   0.759   4.155
 1180SOL    HW2 4440   1.766   0.657   4.052
 1181SOL     OW 4441   1.635   4.599   2.478
 1181SOL    HW1 4442   1.645   4.696   2.454
 1181SOL    HW2 4443   1.580   4.552   2.409
 1182SOL     OW 4444   1.893   3.963   3.883
 1182SOL    HW1 4445   1.929   4.051   3.915
 1182SOL    HW2 4446   1.969   3.908   3.847
 1183SOL     OW 4447   3.917   5.755   1.175
 1183SOL    HW1 4448   3.970   5.838   1.157
 1183SOL    HW2 4449   3.832   5.758   1.124
 1184SOL     OW 4450   3.401   2.839   6.393
 1184SOL    HW1 4451   3.496   2.872   6.394
 1184SOL    HW2 4452   3.373   2.816   6.486
 1185SOL     OW 4453   2.610   1.107   6.478
 1185SOL    HW1 4454   2.622   1.015   6.441
 1185SOL    HW2 4455   2.563   1.101   6.566
 1186SOL     OW 4456   3.599   1.229   5.016
 1186SOL    HW1 4457   3.561   1.209   5.107
 1186SOL    HW2 4458   3.623   1.143   4.970
 1187SOL     OW 4459   1.168   1.785   4.659
 1187SOL    HW1 4460   1.185   1.791   4.561
 1187SOL    HW2 4461   1.206   1.866   4.705
 1188SOL     OW 4462   1.798   0.541   5.330
 1188SOL    HW1 4463   1.795   0.629   5.376
 1188SOL    HW2 4464   1.894   0.511   5.322
 1189SOL     OW 4465   0.370   0.853   1.450
 1189SOL    HW1 4466   0.386   0.932   1.509
 1189SOL    HW2 4467   0.322   0.782   1.502
 1190SOL     OW 4468   3.817   5.319   1.795
 1190SOL    HW1 4469   3.834   5.402   1.742
 1190SOL    HW2 4470   3.900   5.263   1.797
 1191SOL     OW 4471   2.645   4.617   1.477
 1191SOL    HW1 4472   2.705   4.543   1.508
 1191SOL    HW2 4473   2.572   4.631   1.545
 1192SOL     OW 4474   3.890   5.244   2.671
 1192SOL    HW1 4475   3.849   5.197   2.593
 1192SOL    HW2 4476   3.931   5.177   2.733
 1193SOL     OW 4477   3.435   0.082   4.092
 1193SOL    HW1 4478   3.436   0.181   4.108
 1193SOL    HW2 4479   3.507   0.058   4.027
 1194SOL     OW 4480   6.168   1.756   1.885
 1194SOL    HW1 4481   6.092   1.696   1.907
 1194SOL    HW2 4482   6.211   1.788   1.970
 1195SOL     OW 4483   3.096   6.595   0.235
 1195SOL    HW1 4484   3.171   6.643   0.189
 1195SOL    HW2 4485   3.010   6.640   0.214
 1196SOL     OW 4486   1.259   5.388   3.372
 1196SOL    HW1 4487   1.313   5.365   3.291
 1196SOL    HW2 4488   1.252   5.308   3.432
 1197SOL     OW 4489   3.556   4.736   6.891
 1197SOL    HW1 4490   3.582   4.804   6.960
 1197SOL    HW2 4491   3.538   4.649   6.936
 1198SOL     OW 4492   3.616   0.652   2.578
 1198SOL    HW1 4493   3.579   0.727   2.633
 1198SOL    HW2 4494   3.713   0.642   2.598
 1199SOL     OW 4495   2.892   3.562   3.577
 1199SOL    HW1 4496   2.906   3.536   3.481
 1199SOL    HW2 4497   2.869   3.481   3.630
 1200SOL     OW 4498   5.001   3.224   1.483
 1200SOL    HW1 4499   4.955   3.260   1.565
 1200SOL    HW2 4500   4.932   3.191   1.418
 1201SOL     OW 4501   1.605   1.787   4.848
 1201SOL    HW1 4502   1.696   1.828   4.839
 1201SOL    HW2 4503   1.549   1.843   4.909
 1202SOL     OW 4504   6.475   0.097   4.858
 1202SOL    HW1 4505   6.380   0.071   4.876
 1202SOL    HW2 4506   6.517   0.029   4.798
 1203SOL     OW 4507   6.586   6.804   2.576
 1203SOL    HW1 4508   6.530   6.730   2.612
 1203SOL    HW2 4509   6.683   6.779   2.583
 1204SOL     OW 4510   1.382   0.037   0.127
 1204SOL    HW1 4511   1.360   7.011   0.043
 1204SOL    HW2 4512   1.343   0.129   0.122
 1205SOL     OW 4513   0.555   2.960   5.736
 1205SOL    HW1 4514   0.653   2.941   5.732
 1205SOL    HW2 4515   0.510   2.887   5.787
 1206SOL     OW 4516   0.024   1.311   4.363
 1206SOL    HW1 4517   0.060   1.220   4.381
 1206SOL    HW2 4518   0.066   1.377   4.425
 1207SOL     OW 4519   6.179   6.452   6.654
 1207SOL    HW1 4520   6.216   6.510   6.582
 1207SOL    HW2 4521   6.252   6.427   6.718
 1208SOL     OW 4522   3.868   3.565   2.846
 1208SOL    HW1 4523   3.874   3.625   2.926
 1208SOL    HW2 4524   3.844   3.619   2.765
 1209SOL     OW 4525   6.910   4.018   4.720
 1209SOL    HW1 4526   6.891   3.937   4.664
 1209SOL    HW2 4527   7.006   4.016   4.749
 1210SOL     OW 4528   2.358   0.024   2.889
 1210SOL    HW1 4529   2.274   0.050   2.937
 1210SOL    HW2 4530   2.357   0.061   2.797
 1211SOL     OW 4531   1.121   2.971   3.030
 1211SOL    HW1 4532   1.095   3.067   3.040
 1211SOL    HW2 4533   1.061   2.914   3.086
 1212SOL     OW 4534   1.111   4.734   3.514
 1212SOL    HW1 4535   1.185   4.686   3.560
 1212SOL    HW2 4536   1.097   4.823   3.558
 1213SOL     OW 4537   5.776   4.031   4.969
 1213SOL    HW1 4538   5.741   3.949   4.923
 1213SOL    HW2 4539   5.699   4.087   5.001
 1214SOL     OW 4540   1.745   1.797   1.568
 1214SOL    HW1 4541   1.748   1.896   1.585
 1214SOL    HW2 4542   1.650   1.766   1.567
 1215SOL     OW 4543   0.472   5.383   1.793
 1215SOL    HW1 4544   0.405   5.385   1.867
 1215SOL    HW2 4545   0.564   5.395   1.830
 1216SOL     OW 4546   2.476   0.198   1.372
 1216SOL    HW1 4547   2.534   0.278   1.366
 1216SOL    HW2 4548   2.390   0.223   1.417
 1217SOL     OW 4549   2.039   2.717   2.957
 1217SOL    HW1 4550   2.066   2.812   2.940
 1217SOL    HW2 4551   2.105   2.656   2.915
 1218SOL     OW 4552   0.772   3.344   3.490
 1218SOL    HW1 4553   0.813   3.269   3.542
 1218SOL    HW2 4554   0.672   3.332   3.488
 1219SOL     OW 4555   2.769   5.673   3.174
 1219SOL    HW1 4556   2.715   5.756   3.162
 1219SOL    HW2 4557   2.819   5.678   3.260
 1220SOL     OW 4558   6.572   4.589   2.144
 1220SOL    HW1 4559   6.559   4.580   2.243
 1220SOL    HW2 4560   6.622   4.509   2.110
 1221SOL     OW 4561   4.887   4.769   5.814
 1221SOL    HW1 4562   4.797   4.789   5.774
 1221SOL    HW2 4563   4.955   4.764   5.741
 1222SOL     OW 4564   6.522   4.556   1.339
 1222SOL    HW1 4565   6.582   4.487   1.300
 1222SOL    HW2 4566   6.471   4.601   1.266
 1223SOL     OW 4567   6.808   4.716   4.949
 1223SOL    HW1 4568   6.710   4.725   4.932
 1223SOL    HW2 4569   6.823   4.653   5.025
 1224SOL     OW 4570   3.949   4.630   0.987
 1224SOL    HW1 4571   3.919   4.620   0.892
 1224SOL    HW2 4572   4.021   4.698   0.992
 1225SOL     OW 4573   4.189   1.398   0.225
 1225SOL    HW1 4574   4.171   1.458   0.303
 1225SOL    HW2 4575   4.276   1.423   0.184
 1226SOL     OW 4576   5.999   5.617   1.090
 1226SOL    HW1 4577   5.965   5.701   1.131
 1226SOL    HW2 4578   5.922   5.561   1.059
 1227SOL     OW 4579   4.964   4.494   0.008
 1227SOL    HW1 4580   4.972   4.592   7.020
 1227SOL    HW2 4581   4.911   4.455   6.957
 1228SOL     OW 4582   3.932   3.956   4.172
 1228SOL    HW1 4583   3.949   4.053   4.190
 1228SOL    HW2 4584   3.834   3.938   4.182
 1229SOL     OW 4585   2.449   5.109   2.810
 1229SOL    HW1 4586   2.380   5.166   2.853
 1229SOL    HW2 4587   2.408   5.058   2.734
 1230SOL     OW 4588   4.223   4.515   0.941
 1230SOL    HW1 4589   4.165   4.434   0.946
 1230SOL    HW2 4590   4.193   4.573   0.865
 1231SOL     OW 4591   2.199   1.397   0.349
 1231SOL    HW1 4592   2.150   1.337   0.286
 1231SOL    HW2 4593   2.151   1.485   0.354
 1232SOL     OW 4594   2.407   1.979   5.345
 1232SOL    HW1 4595   2.394   2.076   5.365
 1232SOL    HW2 4596   2.489   1.967   5.289
 1233SOL     OW 4597   0.407   4.981   4.779
 1233SOL    HW1 4598   0.476   4.976   4.707
 1233SOL    HW2 4599   0.347   5.060   4.763
 1234SOL     OW 4600   6.097   4.500   6.739
 1234SOL    HW1 4601   6.147   4.481   6.824
 1234SOL    HW2 4602   6.012   4.447   6.739
 1235SOL     OW 4603   6.037   4.756   1.045
 1235SOL    HW1 4604   6.050   4.834   1.106
 1235SOL    HW2 4605   5.946   4.761   1.004
 1236SOL     OW 4606   0.962   0.954   2.952
 1236SOL    HW1 4607   1.026   1.029   2.968
 1236SOL    HW2 4608   0.960   0.933   2.854
 1237SOL     OW 4609   0.881   0.587   4.161
 1237SOL    HW1 4610   0.853   0.682   4.174
 1237SOL    HW2 4611   0.978   0.583   4.138
 1238SOL     OW 4612   0.487   0.591   3.934
 1238SOL    HW1 4613   0.542   0.526   3.985
 1238SOL    HW2 4614   0.397   0.600   3.977
 1239SOL     OW 4615   5.102   4.228   3.997
 1239SOL    HW1 4616   5.042   4.155   3.966
 1239SOL    HW2 4617   5.055   4.283   4.066
 1240SOL     OW 4618   0.297   3.565   0.750
 1240SOL    HW1 4619   0.374   3.570   0.687
 1240SOL    HW2 4620   0.270   3.658   0.775
 1241SOL     OW 4621   3.559   5.282   5.877
 1241SOL    HW1 4622   3.521   5.235   5.797
 1241SOL    HW2 4623   3.549   5.224   5.958
 1242SOL     OW 4624   1.898   5.358   0.560
 1242SOL    HW1 4625   1.888   5.364   0.659
 1242SOL    HW2 4626   1.990   5.326   0.537
 1243SOL     OW 4627   1.137   3.835   3.195
 1243SOL    HW1 4628   1.212   3.876   3.247
 1243SOL    HW2 4629   1.164   3.745   3.163
 1244SOL     OW 4630   6.568   6.552   4.909
 1244SOL    HW1 4631   6.633   6.622   4.940
 1244SOL    HW2 4632   6.616   6.465   4.898
 1245SOL     OW 4633   4.771   6.263   1.169
 1245SOL    HW1 4634   4.757   6.222   1.079
 1245SOL    HW2 4635   4.683   6.283   1.211
 1246SOL     OW 4636   5.819   1.877   1.626
 1246SOL    HW1 4637   5.723   1.903   1.633
 1246SOL    HW2 4638   5.875   1.959   1.617
 1247SOL     OW 4639   5.328   6.844   2.804
 1247SOL    HW1 4640   5.331   6.819   2.901
 1247SOL    HW2 4641   5.247   6.803   2.761
 1248SOL     OW 4642   0.536   6.949   4.792
 1248SOL    HW1 4643   0.554   6.875   4.726
 1248SOL    HW2 4644   0.549   6.914   4.884
 1249SOL     OW 4645   5.928   6.444   6.798
 1249SOL    HW1 4646   5.996   6.479   6.733
 1249SOL    HW2 4647   5.962   6.457   6.891
 1250SOL     OW 4648   0.376   4.244   4.842
 1250SOL    HW1 4649   0.421   4.238   4.753
 1250SOL    HW2 4650   0.297   4.305   4.835
 1251SOL     OW 4651   3.094   0.251   2.720
 1251SOL    HW1 4652   3.163   0.211   2.781
 1251SOL    HW2 4653   3.007   0.202   2.731
 1252SOL     OW 4654   2.309   5.199   6.309
 1252SOL    HW1 4655   2.268   5.226   6.397
 1252SOL    HW2 4656   2.372   5.270   6.279
 1253SOL     OW 4657   2.874   6.132   0.105
 1253SOL    HW1 4658   2.890   6.208   0.168
 1253SOL    HW2 4659   2.799   6.075   0.139
 1254SOL     OW 4660   6.244   1.487   3.840
 1254SOL    HW1 4661   6.217   1.465   3.933
 1254SOL    HW2 4662   6.163   1.516   3.788
 1255SOL     OW 4663   6.139   1.668   5.661
 1255SOL    HW1 4664   6.221   1.662   5.719
 1255SOL    HW2 4665   6.158   1.729   5.584
 1256SOL     OW 4666   6.968   5.831   5.010
 1256SOL    HW1 4667   0.025   5.889   5.020
 1256SOL    HW2 4668   6.997   5.736   5.001
 1257SOL     OW 4669   0.254   6.159   3.325
 1257SOL    HW1 4670   0.273   6.257   3.311
 1257SOL    HW2 4671   0.302   6.106   3.256
 1258SOL     OW 4672   4.358   5.572   6.579
 1258SOL    HW1 4673   4.274   5.567   6.632
 1258SOL    HW2 4674   4.381   5.667   6.560
 1259SOL     OW 4675   5.355   6.499   5.007
 1259SOL    HW1 4676   5.385   6.524   4.915
 1259SOL    HW2 4677   5.423   6.529   5.074
 1260SOL     OW 4678   3.042   1.499   0.646
 1260SOL    HW1 4679   3.000   1.415   0.679
 1260SOL    HW2 4680   3.130   1.513   0.692
 1261SOL     OW 4681   0.028   4.391   4.338
 1261SOL    HW1 4682   7.007   4.478   4.316
 1261SOL    HW2 4683   0.127   4.403   4.335
 1262SOL     OW 4684   3.825   5.597   1.708
 1262SOL    HW1 4685   3.860   5.627   1.619
 1262SOL    HW2 4686   3.725   5.605   1.708
 1263SOL     OW 4687   6.877   1.714   1.741
 1263SOL    HW1 4688   6.823   1.644   1.788
 1263SOL    HW2 4689   6.941   1.670   1.677
 1264SOL     OW 4690   6.416   2.559   4.788
 1264SOL    HW1 4691   6.410   2.620   4.709
 1264SOL    HW2 4692   6.376   2.470   4.764
 1265SOL     OW 4693   6.168   5.738   4.703
 1265SOL    HW1 4694   6.250   5.739   4.762
 1265SOL    HW2 4695   6.091   5.703   4.755
 1266SOL     OW 4696   3.207   0.755   4.000
 1266SOL    HW1 4697   3.297   0.737   4.040
 1266SOL    HW2 4698   3.168   0.669   3.966
 1267SOL     OW 4699   0.373   4.788   2.359
 1267SOL    HW1 4700   0.293   4.848   2.355
 1267SOL    HW2 4701   0.407   4.785   2.453
 1268SOL     OW 4702   5.875   4.346   6.737
 1268SOL    HW1 4703   5.812   4.343   6.659
 1268SOL    HW2 4704   5.868   4.262   6.789
 1269SOL     OW 4705   6.809   5.057   6.700
 1269SOL    HW1 4706   6.753   5.013   6.630
 1269SOL    HW2 4707   6.769   5.039   6.790
 1270SOL     OW 4708   1.511   1.729   4.180
 1270SOL    HW1 4709   1.492   1.732   4.278
 1270SOL    HW2 4710   1.543   1.818   4.149
 1271SOL     OW 4711   5.237   2.731   3.233
 1271SOL    HW1 4712   5.159   2.669   3.248
 1271SOL    HW2 4713   5.233   2.767   3.140
 1272SOL     OW 4714   6.067   6.504   0.376
 1272SOL    HW1 4715   6.124   6.562   0.318
 1272SOL    HW2 4716   6.019   6.560   0.443
 1273SOL     OW 4717   2.485   6.758   5.263
 1273SOL    HW1 4718   2.523   6.802   5.345
 1273SOL    HW2 4719   2.405   6.809   5.232
 1274SOL     OW 4720   6.109   2.196   2.298
 1274SOL    HW1 4721   6.049   2.265   2.258
 1274SOL    HW2 4722   6.146   2.230   2.385
 1275SOL     OW 4723   4.409   1.749   3.895
 1275SOL    HW1 4724   4.448   1.690   3.824
 1275SOL    HW2 4725   4.415   1.704   3.984
 1276SOL     OW 4726   6.391   6.997   2.344
 1276SOL    HW1 4727   6.401   6.972   2.247
 1276SOL    HW2 4728   6.479   0.005   2.379
 1277SOL     OW 4729   1.007   1.550   4.397
 1277SOL    HW1 4730   0.950   1.627   4.428
 1277SOL    HW2 4731   1.096   1.584   4.367
 1278SOL     OW 4732   2.967   1.295   5.717
 1278SOL    HW1 4733   2.883   1.252   5.686
 1278SOL    HW2 4734   3.014   1.234   5.782
 1279SOL     OW 4735   1.969   5.109   0.319
 1279SOL    HW1 4736   2.053   5.137   0.366
 1279SOL    HW2 4737   1.955   5.167   0.239
 1280SOL     OW 4738   1.259   6.101   3.044
 1280SOL    HW1 4739   1.344   6.139   3.007
 1280SOL    HW2 4740   1.235   6.017   2.995
 1281SOL     OW 4741   0.605   0.014   3.838
 1281SOL    HW1 4742   0.681   6.974   3.853
 1281SOL    HW2 4743   0.593   0.030   3.740
 1282SOL     OW 4744   1.086   6.508   2.733
 1282SOL    HW1 4745   1.053   6.464   2.817
 1282SOL    HW2 4746   1.009   6.542   2.680
 1283SOL     OW 4747   5.016   4.002   4.852
 1283SOL    HW1 4748   5.109   3.969   4.866
 1283SOL    HW2 4749   5.007   4.095   4.889
 1284SOL     OW 4750   3.105   1.869   3.158
 1284SOL    HW1 4751   3.093   1.782   3.206
 1284SOL    HW2 4752   3.144   1.936   3.220
 1285SOL     OW 4753   5.861   2.986   5.850
 1285SOL    HW1 4754   5.765   2.966   5.831
 1285SOL    HW2 4755   5.888   2.939   5.934
 1286SOL     OW 4756   6.062   6.051   1.561
 1286SOL    HW1 4757   5.992   6.029   1.492
 1286SOL    HW2 4758   6.147   6.076   1.515
 1287SOL     OW 4759   6.641   4.163   5.816
 1287SOL    HW1 4760   6.701   4.124   5.745
 1287SOL    HW2 4761   6.551   4.180   5.778
 1288SOL     OW 4762   6.441   3.057   3.966
 1288SOL    HW1 4763   6.485   2.976   4.005
 1288SOL    HW2 4764   6.354   3.073   4.012
 1289SOL     OW 4765   0.447   5.237   2.700
 1289SOL    HW1 4766   0.487   5.290   2.776
 1289SOL    HW2 4767   0.417   5.148   2.733
 1290SOL     OW 4768   0.660   0.215   0.936
 1290SOL    HW1 4769   0.611   0.199   1.021
 1290SOL    HW2 4770   0.759   0.206   0.951
 1291SOL     OW 4771   1.600   6.629   0.955
 1291SOL    HW1 4772   1.503   6.651   0.966
 1291SOL    HW2 4773   1.626   6.560   1.022
 1292SOL     OW 4774   0.792   6.122   6.449
 1292SOL    HW1 4775   0.831   6.201   6.403
 1292SOL    HW2 4776   0.846   6.100   6.531
 1293SOL     OW 4777   6.168   2.433   6.269
 1293SOL    HW1 4778   6.096   2.364   6.261
 1293SOL    HW2 4779   6.136   2.518   6.229
 1294SOL     OW 4780   0.607   1.475   3.602
 1294SOL    HW1 4781   0.648   1.459   3.512
 1294SOL    HW2 4782   0.542   1.551   3.597
 1295SOL     OW 4783   5.098   3.344   1.247
 1295SOL    HW1 4784   5.052   3.293   1.319
 1295SOL    HW2 4785   5.073   3.440   1.253
 1296SOL     OW 4786   3.644   2.295   0.297
 1296SOL    HW1 4787   3.590   2.233   0.353
 1296SOL    HW2 4788   3.586   2.331   0.223
 1297SOL     OW 4789   6.791   0.575   6.466
 1297SOL    HW1 4790   6.822   0.574   6.561
 1297SOL    HW2 4791   6.746   0.662   6.447
 1298SOL     OW 4792   6.648   2.496   3.685
 1298SOL    HW1 4793   6.568   2.504   3.625
 1298SOL    HW2 4794   6.638   2.414   3.741
 1299SOL     OW 4795   1.303   2.957   4.001
 1299SOL    HW1 4796   1.329   2.974   4.096
 1299SOL    HW2 4797   1.359   3.014   3.941
 1300SOL     OW 4798   3.870   3.378   1.949
 1300SOL    HW1 4799   3.923   3.459   1.974
 1300SOL    HW2 4800   3.925   3.296   1.963
 1301SOL     OW 4801   1.250   1.228   2.335
 1301SOL    HW1 4802   1.214   1.196   2.422
 1301SOL    HW2 4803   1.214   1.319   2.315
 1302SOL     OW 4804   2.671   6.066   5.462
 1302SOL    HW1 4805   2.664   6.033   5.368
 1302SOL    HW2 4806   2.759   6.038   5.500
 1303SOL     OW 4807   3.022   0.443   1.014
 1303SOL    HW1 4808   3.028   0.543   1.017
 1303SOL    HW2 4809   2.937   0.415   0.971
 1304SOL     OW 4810   3.719   1.258   6.173
 1304SOL    HW1 4811   3.814   1.285   6.188
 1304SOL    HW2 4812   3.665   1.280   6.254
 1305SOL     OW 4813   5.885   5.972   3.807
 1305SOL    HW1 4814   5.901   5.997   3.902
 1305SOL    HW2 4815   5.808   6.025   3.771
 1306SOL     OW 4816   1.395   5.276   4.795
 1306SOL    HW1 4817   1.372   5.223   4.877
 1306SOL    HW2 4818   1.327   5.258   4.724
 1307SOL     OW 4819   1.006   1.389   4.138
 1307SOL    HW1 4820   1.031   1.309   4.085
 1307SOL    HW2 4821   1.088   1.443   4.158
 1308SOL     OW 4822   4.499   6.091   3.381
 1308SOL    HW1 4823   4.500   6.131   3.289
 1308SOL    HW2 4824   4.405   6.074   3.409
 1309SOL     OW 4825   5.348   3.054   4.793
 1309SOL    HW1 4826   5.312   3.141   4.758
 1309SOL    HW2 4827   5.285   2.980   4.768
 1310SOL     OW 4828   5.597   3.802   5.247
 1310SOL    HW1 4829   5.586   3.811   5.346
 1310SOL    HW2 4830   5.588   3.892   5.205
 1311SOL     OW 4831   4.921   4.998   5.052
 1311SOL    HW1 4832   4.882   5.062   4.986
 1311SOL    HW2 4833   4.995   5.044   5.102
 1312SOL     OW 4834   6.231   0.031   1.698
 1312SOL    HW1 4835   6.259   0.075   1.784
 1312SOL    HW2 4836   6.145   7.007   1.712
 1313SOL     OW 4837   3.194   4.926   4.814
 1313SOL    HW1 4838   3.190   5.004   4.876
 1313SOL    HW2 4839   3.158   4.845   4.860
 1314SOL     OW 4840   6.435   1.329   5.867
 1314SOL    HW1 4841   6.395   1.356   5.780
 1314SOL    HW2 4842   6.384   1.372   5.942
 1315SOL     OW 4843   1.851   0.062   3.251
 1315SOL    HW1 4844   1.845   6.987   3.266
 1315SOL    HW2 4845   1.811   0.085   3.162
 1316SOL     OW 4846   3.728   6.388   2.930
 1316SOL    HW1 4847   3.795   6.342   2.871
 1316SOL    HW2 4848   3.669   6.319   2.972
 1317SOL     OW 4849   0.291   3.505   4.074
 1317SOL    HW1 4850   0.353   3.437   4.113
 1317SOL    HW2 4851   0.316   3.521   3.979
 1318SOL     OW 4852   1.172   6.345   1.589
 1318SOL    HW1 4853   1.225   6.301   1.516
 1318SOL    HW2 4854   1.169   6.444   1.574
 1319SOL     OW 4855   6.235   0.595   0.630
 1319SOL    HW1 4856   6.180   0.519   0.665
 1319SOL    HW2 4857   6.212   0.611   0.534
 1320SOL     OW 4858   5.122   5.833   5.031
 1320SOL    HW1 4859   5.031   5.823   5.070
 1320SOL    HW2 4860   5.150   5.746   4.989
 1321SOL     OW 4861   3.133   1.759   0.063
 1321SOL    HW1 4862   3.183   1.672   0.055
 1321SOL    HW2 4863   3.157   1.803   0.149
 1322SOL     OW 4864   5.073   2.016   6.154
 1322SOL    HW1 4865   5.142   1.969   6.098
 1322SOL    HW2 4866   4.995   1.955   6.167
 1323SOL     OW 4867   6.276   1.271   4.319
 1323SOL    HW1 4868   6.277   1.346   4.253
 1323SOL    HW2 4869   6.288   1.184   4.271
 1324SOL     OW 4870   1.258   2.761   0.593
 1324SOL    HW1 4871   1.356   2.771   0.579
 1324SOL    HW2 4872   1.210   2.775   0.506
 1325SOL     OW 4873   4.358   5.432   3.763
 1325SOL    HW1 4874   4.298   5.506   3.796
 1325SOL    HW2 4875   4.327   5.345   3.801
 1326SOL     OW 4876   5.533   4.126   4.540
 1326SOL    HW1 4877   5.600   4.075   4.485
 1326SOL    HW2 4878   5.470   4.174   4.480
 1327SOL     OW 4879   2.902   6.088   4.374
 1327SOL    HW1 4880   2.922   6.043   4.287
 1327SOL    HW2 4881   2.868   6.180   4.358
 1328SOL     OW 4882   2.374   1.494   1.136
 1328SOL    HW1 4883   2.354   1.521   1.230
 1328SOL    HW2 4884   2.458   1.540   1.106
 1329SOL     OW 4885   0.917   6.812   1.820
 1329SOL    HW1 4886   0.964   6.847   1.738
 1329SOL    HW2 4887   0.902   6.888   1.884
 1330SOL     OW 4888   4.493   6.260   1.017
 1330SOL    HW1 4889   4.512   6.173   0.971
 1330SOL    HW2 4890   4.429   6.314   0.962
 1331SOL     OW 4891   0.477   1.926   1.960
 1331SOL    HW1 4892   0.419   1.945   2.039
 1331SOL    HW2 4893   0.540   1.852   1.982
 1332SOL     OW 4894   4.119   1.986   1.407
 1332SOL    HW1 4895   4.201   1.992   1.462
 1332SOL    HW2 4896   4.041   1.964   1.465
 1333SOL     OW 4897   4.066   3.807   4.415
 1333SOL    HW1 4898   3.974   3.791   4.379
 1333SOL    HW2 4899   4.090   3.903   4.404
 1334SOL     OW 4900   0.951   3.510   3.751
 1334SOL    HW1 4901   1.019   3.493   3.822
 1334SOL    HW2 4902   0.896   3.427   3.737
 1335SOL     OW 4903   2.154   5.553   3.128
 1335SOL    HW1 4904   2.066   5.588   3.095
 1335SOL    HW2 4905   2.189   5.612   3.201
 1336SOL     OW 4906   0.340   0.468   5.460
 1336SOL    HW1 4907   0.416   0.532   5.446
 1336SOL    HW2 4908   0.258   0.519   5.485
 1337SOL     OW 4909   3.583   0.206   6.996
 1337SOL    HW1 4910   3.585   0.302   7.023
 1337SOL    HW2 4911   3.674   0.166   7.010
 1338SOL     OW 4912   3.001   5.160   1.357
 1338SOL    HW1 4913   3.014   5.215   1.275
 1338SOL    HW2 4914   2.933   5.088   1.338
 1339SOL     OW 4915   0.336   4.270   6.640
 1339SOL    HW1 4916   0.253   4.307   6.681
 1339SOL    HW2 4917   0.358   4.321   6.557
 1340SOL     OW 4918   1.908   1.318   6.073
 1340SOL    HW1 4919   1.836   1.279   6.130
 1340SOL    HW2 4920   1.910   1.270   5.985
 1341SOL     OW 4921   5.562   2.609   4.321
 1341SOL    HW1 4922   5.508   2.544   4.268
 1341SOL    HW2 4923   5.645   2.633   4.270
 1342SOL     OW 4924   0.698   6.651   1.530
 1342SOL    HW1 4925   0.675   6.559   1.561
 1342SOL    HW2 4926   0.774   6.647   1.465
 1343SOL     OW 4927   2.710   5.585   4.329
 1343SOL    HW1 4928   2.726   5.488   4.307
 1343SOL    HW2 4929   2.783   5.619   4.387
 1344SOL     OW 4930   5.089   1.656   3.016
 1344SOL    HW1 4931   5.023   1.671   2.942
 1344SOL    HW2 4932   5.113   1.558   3.020
 1345SOL     OW 4933   0.789   5.556   2.693
 1345SOL    HW1 4934   0.805   5.490   2.766
 1345SOL    HW2 4935   0.872   5.607   2.675
 1346SOL     OW 4936   0.245   1.263   3.412
 1346SOL    HW1 4937   0.240   1.361   3.435
 1346SOL    HW2 4938   0.180   1.243   3.339
 1347SOL     OW 4939   4.582   0.542   3.877
 1347SOL    HW1 4940   4.544   0.463   3.828
 1347SOL    HW2 4941   4.512   0.579   3.938
 1348SOL     OW 4942   4.400   6.178   4.607
 1348SOL    HW1 4943   4.346   6.163   4.524
 1348SOL    HW2 4944   4.457   6.099   4.624
 1349SOL     OW 4945   4.315   2.177   0.084
 1349SOL    HW1 4946   4.356   2.094   0.048
 1349SOL    HW2 4947   4.386   2.232   0.129
 1350SOL     OW 4948   3.236   0.952   5.019
 1350SOL    HW1 4949   3.239   1.051   5.033
 1350SOL    HW2 4950   3.169   0.930   4.948
 1351SOL     OW 4951   1.887   1.620   4.033
 1351SOL    HW1 4952   1.889   1.579   3.942
 1351SOL    HW2 4953   1.836   1.706   4.030
 1352SOL     OW 4954   0.896   6.324   3.992
 1352SOL    HW1 4955   0.799   6.301   3.992
 1352SOL    HW2 4956   0.913   6.398   3.928
 1353SOL     OW 4957   2.260   3.075   5.641
 1353SOL    HW1 4958   2.296   3.165   5.665
 1353SOL    HW2 4959   2.228   3.075   5.547
 1354SOL     OW 4960   0.314   6.897   0.097
 1354SOL    HW1 4961   0.219   6.900   0.128
 1354SOL    HW2 4962   0.370   6.847   0.163
 1355SOL     OW 4963   3.827   3.109   6.860
 1355SOL    HW1 4964   3.838   3.199   6.817
 1355SOL    HW2 4965   3.758   3.057   6.810
 1356SOL     OW 4966   3.193   2.942   1.754
 1356SOL    HW1 4967   3.196   2.909   1.848
 1356SOL    HW2 4968   3.109   2.912   1.710
 1357SOL     OW 4969   3.215   2.648   5.736
 1357SOL    HW1 4970   3.185   2.693   5.820
 1357SOL    HW2 4971   3.210   2.714   5.660
 1358SOL     OW 4972   1.664   3.996   6.235
 1358SOL    HW1 4973   1.602   4.068   6.266
 1358SOL    HW2 4974   1.711   3.957   6.315
 1359SOL     OW 4975   7.009   1.653   6.628
 1359SOL    HW1 4976   6.996   1.747   6.658
 1359SOL    HW2 4977   0.076   1.621   6.655
 1360SOL     OW 4978   3.184   3.177   4.049
 1360SOL    HW1 4979   3.129   3.231   4.113
 1360SOL    HW2 4980   3.248   3.237   4.001
 1361SOL     OW 4981   0.728   6.234   1.037
 1361SOL    HW1 4982   0.819   6.198   1.018
 1361SOL    HW2 4983   0.671   6.162   1.076
 1362SOL     OW 4984   3.324   2.062   6.857
 1362SOL    HW1 4985   3.317   2.143   6.916
 1362SOL    HW2 4986   3.357   1.985   6.911
 1363SOL     OW 4987   6.850   6.714   1.182
 1363SOL    HW1 4988   6.766   6.750   1.222
 1363SOL    HW2 4989   6.842   6.615   1.171
 1364SOL     OW 4990   0.876   3.588   0.814
 1364SOL    HW1 4991   0.780   3.560   0.822
 1364SOL    HW2 4992   0.906   3.628   0.901
 1365SOL     OW 4993   1.019   3.772   5.565
 1365SOL    HW1 4994   1.016   3.831   5.484
 1365SOL    HW2 4995   1.048   3.826   5.644
 1366SOL     OW 4996   3.702   0.580   1.570
 1366SOL    HW1 4997   3.708   0.657   1.633
 1366SOL    HW2 4998   3.792   0.538   1.559
 1367SOL     OW 4999   1.227   0.191   4.548
 1367SOL    HW1 5000   1.287   0.121   4.508
 1367SOL    HW2 5001   1.132   0.169   4.527
 1368SOL     OW 5002   1.475   6.097   4.933
 1368SOL    HW1 5003   1.457   6.192   4.960
 1368SOL    HW2 5004   1.498   6.043   5.014
 1369SOL     OW 5005   2.561   5.598   3.519
 1369SOL    HW1 5006   2.478   5.621   3.570
 1369SOL    HW2 5007   2.622   5.545   3.577
 1370SOL     OW 5008   0.032   2.583   3.204
 1370SOL    HW1 5009   0.061   2.488   3.194
 1370SOL    HW2 5010   7.012   2.595   3.293
 1371SOL     OW 5011   6.227   1.907   5.403
 1371SOL    HW1 5012   6.227   2.005   5.383
 1371SOL    HW2 5013   6.158   1.862   5.347
 1372SOL     OW 5014   5.995   2.728   1.560
 1372SOL    HW1 5015   5.928   2.709   1.632
 1372SOL    HW2 5016   6.076   2.671   1.573
 1373SOL     OW 5017   6.209   3.297   1.940
 1373SOL    HW1 5018   6.206   3.242   2.024
 1373SOL    HW2 5019   6.139   3.264   1.876
 1374SOL     OW 5020   3.862   3.019   2.088
 1374SOL    HW1 5021   3.800   2.944   2.115
 1374SOL    HW2 5022   3.881   3.012   1.990
 1375SOL     OW 5023   5.007   4.727   4.588
 1375SOL    HW1 5024   5.062   4.793   4.536
 1375SOL    HW2 5025   5.058   4.698   4.669
 1376SOL     OW 5026   3.380   4.299   5.584
 1376SOL    HW1 5027   3.437   4.238   5.639
 1376SOL    HW2 5028   3.343   4.249   5.506
 1377SOL     OW 5029   1.720   1.453   2.955
 1377SOL    HW1 5030   1.632   1.489   2.985
 1377SOL    HW2 5031   1.767   1.522   2.899
 1378SOL     OW 5032   5.121   2.165   4.199
 1378SOL    HW1 5033   5.051   2.208   4.257
 1378SOL    HW2 5034   5.211   2.182   4.238
 1379SOL     OW 5035   4.273   5.521   0.159
 1379SOL    HW1 5036   4.185   5.486   0.125
 1379SOL    HW2 5037   4.338   5.527   0.083
 1380SOL     OW 5038   0.161   6.033   3.558
 1380SOL    HW1 5039   0.179   6.068   3.467
 1380SOL    HW2 5040   0.156   5.933   3.555
 1381SOL     OW 5041   6.629   2.317   5.902
 1381SOL    HW1 5042   6.713   2.363   5.875
 1381SOL    HW2 5043   6.650   2.234   5.953
 1382SOL     OW 5044   4.469   2.122   6.704
 1382SOL    HW1 5045   4.500   2.183   6.777
 1382SOL    HW2 5046   4.370   2.109   6.711
 1383SOL     OW 5047   6.679   0.433   0.439
 1383SOL    HW1 5048   6.772   0.468   0.455
 1383SOL    HW2 5049   6.613   0.499   0.476
 1384SOL     OW 5050   6.230   2.370   2.056
 1384SOL    HW1 5051   6.271   2.402   2.141
 1384SOL    HW2 5052   6.286   2.297   2.017
 1385SOL     OW 5053   0.296   6.002   1.529
 1385SOL    HW1 5054   0.387   6.026   1.495
 1385SOL    HW2 5055   0.304   5.925   1.593
 1386SOL     OW 5056   2.143   5.802   3.989
 1386SOL    HW1 5057   2.132   5.806   4.088
 1386SOL    HW2 5058   2.087   5.873   3.946
 1387SOL     OW 5059   2.357   5.872   2.099
 1387SOL    HW1 5060   2.410   5.792   2.128
 1387SOL    HW2 5061   2.319   5.918   2.179
 1388SOL     OW 5062   6.612   0.460   1.691
 1388SOL    HW1 5063   6.639   0.418   1.778
 1388SOL    HW2 5064   6.544   0.402   1.645
 1389SOL     OW 5065   5.794   0.561   2.129
 1389SOL    HW1 5066   5.697   0.578   2.142
 1389SOL    HW2 5067   5.845   0.645   2.146
 1390SOL     OW 5068   1.427   1.558   4.443
 1390SOL    HW1 5069   1.430   1.637   4.503
 1390SOL    HW2 5070   1.403   1.476   4.496
 1391SOL     OW 5071   0.467   3.244   3.346
 1391SOL    HW1 5072   0.411   3.276   3.422
 1391SOL    HW2 5073   0.516   3.161   3.374
 1392SOL     OW 5074   5.266   4.422   4.276
 1392SOL    HW1 5075   5.270   4.362   4.356
 1392SOL    HW2 5076   5.178   4.471   4.275
 1393SOL     OW 5077   3.397   5.202   6.783
 1393SOL    HW1 5078   3.349   5.120   6.815
 1393SOL    HW2 5079   3.401   5.200   6.683
 1394SOL     OW 5080   1.666   6.033   6.963
 1394SOL    HW1 5081   1.695   6.128   6.973
 1394SOL    HW2 5082   1.568   6.030   6.943
 1395SOL     OW 5083   4.267   4.786   5.858
 1395SOL    HW1 5084   4.179   4.780   5.905
 1395SOL    HW2 5085   4.333   4.833   5.916
 1396SOL     OW 5086   6.005   6.268   3.700
 1396SOL    HW1 5087   5.985   6.235   3.608
 1396SOL    HW2 5088   6.018   6.191   3.761
 1397SOL     OW 5089   5.161   6.489   5.399
 1397SOL    HW1 5090   5.242   6.441   5.434
 1397SOL    HW2 5091   5.079   6.446   5.434
 1398SOL     OW 5092   2.204   1.049   4.175
 1398SOL    HW1 5093   2.134   1.023   4.241
 1398SOL    HW2 5094   2.194   1.146   4.153
 1399SOL     OW 5095   3.043   5.884   2.175
 1399SOL    HW1 5096   3.093   5.948   2.117
 1399SOL    HW2 5097   3.012   5.807   2.120
 1400SOL     OW 5098   1.712   6.865   2.362
 1400SOL    HW1 5099   1.796   6.885   2.414
 1400SOL    HW2 5100   1.651   6.944   2.366
 1401SOL     OW 5101   6.320   1.707   4.089
 1401SOL    HW1 5102   6.419   1.690   4.098
 1401SOL    HW2 5103   6.296   1.791   4.138
 1402SOL     OW 5104   6.169   3.219   0.232
 1402SOL    HW1 5105   6.159   3.151   0.159
 1402SOL    HW2 5106   6.080   3.259   0.253
 1403SOL     OW 5107   3.735   0.531   1.975
 1403SOL    HW1 5108   3.750   0.455   2.037
 1403SOL    HW2 5109   3.640   0.529   1.942
 1404SOL     OW 5110   5.442   1.840   0.195
 1404SOL    HW1 5111   5.491   1.886   0.269
 1404SOL    HW2 5112   5.371   1.781   0.234
 1405SOL     OW 5113   3.183   2.890   1.265
 1405SOL    HW1 5114   3.116   2.939   1.209
 1405SOL    HW2 5115   3.137   2.815   1.314
 1406SOL     OW 5116   1.619   4.733   1.635
 1406SOL    HW1 5117   1.590   4.666   1.704
 1406SOL    HW2 5118   1.550   4.737   1.562
 1407SOL     OW 5119   6.421   2.425   2.843
 1407SOL    HW1 5120   6.509   2.376   2.844
 1407SOL    HW2 5121   6.354   2.373   2.896
 1408SOL     OW 5122   6.452   6.432   6.469
 1408SOL    HW1 5123   6.551   6.419   6.465
 1408SOL    HW2 5124   6.406   6.358   6.420
 1409SOL     OW 5125   0.720   1.375   3.821
 1409SOL    HW1 5126   0.814   1.358   3.794
 1409SOL    HW2 5127   0.672   1.424   3.748
 1410SOL     OW 5128   6.382   2.762   6.790
 1410SOL    HW1 5129   6.469   2.806   6.773
 1410SOL    HW2 5130   6.348   2.789   6.881
 1411SOL     OW 5131   2.146   0.545   1.874
 1411SOL    HW1 5132   2.086   0.473   1.910
 1411SOL    HW2 5133   2.227   0.504   1.833
 1412SOL     OW 5134   1.236   2.768   6.868
 1412SOL    HW1 5135   1.317   2.718   6.840
 1412SOL    HW2 5136   1.262   2.843   6.928
 1413SOL     OW 5137   3.196   6.604   3.512
 1413SOL    HW1 5138   3.210   6.692   3.557
 1413SOL    HW2 5139   3.233   6.531   3.570
 1414SOL     OW 5140   3.170   0.767   2.016
 1414SOL    HW1 5141   3.104   0.831   1.977
 1414SOL    HW2 5142   3.250   0.818   2.049
 1415SOL     OW 5143   4.738   6.359   5.233
 1415SOL    HW1 5144   4.747   6.458   5.220
 1415SOL    HW2 5145   4.827   6.316   5.217
 1416SOL     OW 5146   4.335   5.810   3.241
 1416SOL    HW1 5147   4.340   5.830   3.339
 1416SOL    HW2 5148   4.404   5.741   3.218
 1417SOL     OW 5149   3.159   2.779   6.223
 1417SOL    HW1 5150   3.162   2.683   6.252
 1417SOL    HW2 5151   3.217   2.834   6.284
 1418SOL     OW 5152   3.802   3.926   2.666
 1418SOL    HW1 5153   3.797   3.841   2.613
 1418SOL    HW2 5154   3.716   3.975   2.658
 1419SOL     OW 5155   4.132   6.228   4.269
 1419SOL    HW1 5156   4.187   6.155   4.309
 1419SOL    HW2 5157   4.035   6.208   4.281
 1420SOL     OW 5158   0.344   5.472   1.578
 1420SOL    HW1 5159   0.357   5.409   1.654
 1420SOL    HW2 5160   0.289   5.427   1.507
 1421SOL     OW 5161   4.121   0.971   2.835
 1421SOL    HW1 5162   4.170   0.897   2.788
 1421SOL    HW2 5163   4.121   1.053   2.777
 1422SOL     OW 5164   2.637   7.015   0.160
 1422SOL    HW1 5165   2.635   6.976   0.252
 1422SOL    HW2 5166   2.612   0.088   0.164
 1423SOL     OW 5167   5.210   0.442   2.213
 1423SOL    HW1 5168   5.242   0.363   2.265
 1423SOL    HW2 5169   5.253   0.525   2.247
 1424SOL     OW 5170   0.141   4.933   2.386
 1424SOL    HW1 5171   0.139   5.011   2.448
 1424SOL    HW2 5172   0.075   4.948   2.312
 1425SOL     OW 5173   1.866   6.866   4.358
 1425SOL    HW1 5174   1.810   6.793   4.318
 1425SOL    HW2 5175   1.946   6.827   4.403
 1426SOL     OW 5176   1.823   1.052   5.539
 1426SOL    HW1 5177   1.825   1.092   5.448
 1426SOL    HW2 5178   1.763   1.107   5.598
 1427SOL     OW 5179   6.180   0.661   5.188
 1427SOL    HW1 5180   6.187   0.741   5.128
 1427SOL    HW2 5181   6.259   0.657   5.249
 1428SOL     OW 5182   5.378   1.396   0.265
 1428SOL    HW1 5183   5.375   1.440   0.355
 1428SOL    HW2 5184   5.437   1.450   0.204
 1429SOL     OW 5185   5.663   6.525   6.778
 1429SOL    HW1 5186   5.638   6.621   6.768
 1429SOL    HW2 5187   5.763   6.516   6.772
 1430SOL     OW 5188   2.029   4.039   3.237
 1430SOL    HW1 5189   2.103   4.106   3.236
 1430SOL    HW2 5190   1.956   4.070   3.298
 1431SOL     OW 5191   1.449   0.410   1.383
 1431SOL    HW1 5192   1.409   0.406   1.292
 1431SOL    HW2 5193   1.529   0.352   1.388
 1432SOL     OW 5194   2.633   0.135   1.138
 1432SOL    HW1 5195   2.574   0.114   1.217
 1432SOL    HW2 5196   2.715   0.182   1.170
 1433SOL     OW 5197   4.299   0.557   4.362
 1433SOL    HW1 5198   4.262   0.468   4.337
 1433SOL    HW2 5199   4.225   0.617   4.390
 1434SOL     OW 5200   0.785   0.935   5.059
 1434SOL    HW1 5201   0.827   0.930   4.968
 1434SOL    HW2 5202   0.836   1.001   5.115
 1435SOL     OW 5203   6.794   1.877   3.174
 1435SOL    HW1 5204   6.700   1.868   3.141
 1435SOL    HW2 5205   6.858   1.858   3.100
 1436SOL     OW 5206   4.153   4.022   0.910
 1436SOL    HW1 5207   4.241   3.988   0.943
 1436SOL    HW2 5208   4.080   3.959   0.937
 1437SOL     OW 5209   4.220   1.307   2.216
 1437SOL    HW1 5210   4.219   1.348   2.308
 1437SOL    HW2 5211   4.308   1.326   2.173
 1438SOL     OW 5212   2.566   0.957   1.574
 1438SOL    HW1 5213   2.643   0.953   1.638
 1438SOL    HW2 5214   2.594   1.008   1.492
 1439SOL     OW 5215   0.682   5.710   1.994
 1439SOL    HW1 5216   0.678   5.794   1.940
 1439SOL    HW2 5217   0.630   5.721   2.078
 1440SOL     OW 5218   2.368   3.200   1.756
 1440SOL    HW1 5219   2.389   3.293   1.787
 1440SOL    HW2 5220   2.285   3.168   1.802
 1441SOL     OW 5221   5.202   5.946   0.692
 1441SOL    HW1 5222   5.131   5.898   0.640
 1441SOL    HW2 5223   5.282   5.887   0.703
 1442SOL     OW 5224   5.159   5.313   0.854
 1442SOL    HW1 5225   5.169   5.265   0.767
 1442SOL    HW2 5226   5.068   5.295   0.892
 1443SOL     OW 5227   0.526   2.593   2.524
 1443SOL    HW1 5228   0.576   2.510   2.500
 1443SOL    HW2 5229   0.560   2.670   2.470
 1444SOL     OW 5230   0.563   5.099   6.161
 1444SOL    HW1 5231   0.528   5.192   6.150
 1444SOL    HW2 5232   0.520   5.039   6.094
 1445SOL     OW 5233   0.964   3.761   1.568
 1445SOL    HW1 5234   0.916   3.746   1.654
 1445SOL    HW2 5235   1.015   3.679   1.543
 1446SOL     OW 5236   6.510   6.018   1.108
 1446SOL    HW1 5237   6.503   5.943   1.174
 1446SOL    HW2 5238   6.552   6.097   1.152
 1447SOL     OW 5239   5.759   5.673   4.569
 1447SOL    HW1 5240   5.821   5.715   4.503
 1447SOL    HW2 5241   5.681   5.733   4.584
 1448SOL     OW 5242   1.182   2.304   5.846
 1448SOL    HW1 5243   1.215   2.253   5.927
 1448SOL    HW2 5244   1.084   2.318   5.854
 1449SOL     OW 5245   2.109   3.236   2.724
 1449SOL    HW1 5246   2.166   3.243   2.806
 1449SOL    HW2 5247   2.012   3.236   2.751
 1450SOL     OW 5248   2.803   2.176   4.061
 1450SOL    HW1 5249   2.878   2.224   4.105
 1450SOL    HW2 5250   2.840   2.104   4.001
 1451SOL     OW 5251   3.158   1.350   2.678
 1451SOL    HW1 5252   3.129   1.415   2.749
 1451SOL    HW2 5253   3.079   1.325   2.621
 1452SOL     OW 5254   4.228   2.645   6.539
 1452SOL    HW1 5255   4.215   2.583   6.616
 1452SOL    HW2 5256   4.152   2.710   6.535
 1453SOL     OW 5257   0.242   4.088   5.443
 1453SOL    HW1 5258   0.321   4.129   5.399
 1453SOL    HW2 5259   0.214   4.006   5.392
 1454SOL     OW 5260   3.524   1.928   3.101
 1454SOL    HW1 5261   3.483   1.841   3.078
 1454SOL    HW2 5262   3.597   1.949   3.036
 1455SOL     OW 5263   0.547   5.759   2.313
 1455SOL    HW1 5264   0.453   5.794   2.316
 1455SOL    HW2 5265   0.610   5.836   2.299
 1456SOL     OW 5266   6.516   5.405   4.125
 1456SOL    HW1 5267   6.550   5.468   4.195
 1456SOL    HW2 5268   6.584   5.335   4.106
 1457SOL     OW 5269   1.410   5.118   6.115
 1457SOL    HW1 5270   1.505   5.095   6.136
 1457SOL    HW2 5271   1.372   5.174   6.188
 1458SOL     OW 5272   5.693   5.135   5.231
 1458SOL    HW1 5273   5.619   5.074   5.261
 1458SOL    HW2 5274   5.676   5.227   5.266
 1459SOL     OW 5275   6.216   6.497   5.596
 1459SOL    HW1 5276   6.156   6.536   5.526
 1459SOL    HW2 5277   6.174   6.416   5.636
 1460SOL     OW 5278   1.637   6.419   4.892
 1460SOL    HW1 5279   1.706   6.394   4.961
 1460SOL    HW2 5280   1.635   6.518   4.882
 1461SOL     OW 5281   5.985   2.906   3.907
 1461SOL    HW1 5282   5.944   2.824   3.946
 1461SOL    HW2 5283   5.959   2.915   3.811
 1462SOL     OW 5284   0.407   1.375   1.673
 1462SOL    HW1 5285   0.483   1.330   1.719
 1462SOL    HW2 5286   0.405   1.472   1.698
 1463SOL     OW 5287   1.730   6.337   6.587
 1463SOL    HW1 5288   1.723   6.296   6.678
 1463SOL    HW2 5289   1.755   6.266   6.521
 1464SOL     OW 5290   1.075   4.310   4.129
 1464SOL    HW1 5291   1.057   4.390   4.071
 1464SOL    HW2 5292   1.117   4.341   4.215
 1465SOL     OW 5293   1.008   3.223   4.363
 1465SOL    HW1 5294   1.069   3.197   4.438
 1465SOL    HW2 5295   0.913   3.215   4.393
 1466SOL     OW 5296   5.631   1.596   2.620
 1466SOL    HW1 5297   5.697   1.630   2.687
 1466SOL    HW2 5298   5.621   1.497   2.631
 1467SOL     OW 5299   0.210   0.488   3.745
 1467SOL    HW1 5300   0.232   0.565   3.685
 1467SOL    HW2 5301   0.195   0.520   3.838
 1468SOL     OW 5302   3.189   5.423   2.715
 1468SOL    HW1 5303   3.118   5.488   2.742
 1468SOL    HW2 5304   3.170   5.334   2.757
 1469SOL     OW 5305   5.830   4.043   3.402
 1469SOL    HW1 5306   5.798   4.003   3.317
 1469SOL    HW2 5307   5.837   4.142   3.392
 1470SOL     OW 5308   6.086   1.767   2.437
 1470SOL    HW1 5309   6.072   1.823   2.355
 1470SOL    HW2 5310   6.053   1.818   2.517
 1471SOL     OW 5311   4.510   6.781   0.624
 1471SOL    HW1 5312   4.447   6.814   0.694
 1471SOL    HW2 5313   4.460   6.764   0.539
 1472SOL     OW 5314   1.784   0.626   6.360
 1472SOL    HW1 5315   1.751   0.673   6.278
 1472SOL    HW2 5316   1.873   0.664   6.386
 1473SOL     OW 5317   1.806   5.941   3.738
 1473SOL    HW1 5318   1.834   5.996   3.660
 1473SOL    HW2 5319   1.707   5.946   3.750
 1474SOL     OW 5320   2.937   4.944   1.596
 1474SOL    HW1 5321   2.884   4.911   1.674
 1474SOL    HW2 5322   3.029   4.904   1.599
 1475SOL     OW 5323   6.343   0.017   6.429
 1475SOL    HW1 5324   6.306   0.110   6.423
 1475SOL    HW2 5325   6.435   0.021   6.468
 1476SOL     OW 5326   5.159   0.293   6.658
 1476SOL    HW1 5327   5.114   0.257   6.739
 1476SOL    HW2 5328   5.131   0.239   6.578
 1477SOL     OW 5329   3.267   4.081   1.765
 1477SOL    HW1 5330   3.241   4.158   1.706
 1477SOL    HW2 5331   3.210   4.002   1.743
 1478SOL     OW 5332   4.623   4.986   6.715
 1478SOL    HW1 5333   4.713   4.947   6.736
 1478SOL    HW2 5334   4.633   5.081   6.686
 1479SOL     OW 5335   4.681   3.362   1.443
 1479SOL    HW1 5336   4.653   3.422   1.518
 1479SOL    HW2 5337   4.686   3.268   1.475
 1480SOL     OW 5338   2.794   0.552   4.583
 1480SOL    HW1 5339   2.884   0.538   4.541
 1480SOL    HW2 5340   2.750   0.632   4.542
 1481SOL     OW 5341   4.716   2.583   6.043
 1481SOL    HW1 5342   4.675   2.533   5.966
 1481SOL    HW2 5343   4.803   2.623   6.013
 1482SOL     OW 5344   5.840   1.437   1.286
 1482SOL    HW1 5345   5.841   1.395   1.377
 1482SOL    HW2 5346   5.926   1.485   1.271
 1483SOL     OW 5347   6.444   1.067   0.299
 1483SOL    HW1 5348   6.539   1.077   0.329
 1483SOL    HW2 5349   6.441   1.058   0.200
 1484SOL     OW 5350   3.246   5.532   5.423
 1484SOL    HW1 5351   3.318   5.463   5.430
 1484SOL    HW2 5352   3.283   5.616   5.383
 1485SOL     OW 5353   4.881   3.458   3.348
 1485SOL    HW1 5354   4.898   3.507   3.264
 1485SOL    HW2 5355   4.807   3.391   3.333
 1486SOL     OW 5356   4.635   5.903   4.068
 1486SOL    HW1 5357   4.622   6.002   4.056
 1486SOL    HW2 5358   4.569   5.855   4.010
 1487SOL     OW 5359   6.587   1.216   0.614
 1487SOL    HW1 5360   6.622   1.309   0.619
 1487SOL    HW2 5361   6.579   1.178   0.706
 1488SOL     OW 5362   6.294   2.266   2.546
 1488SOL    HW1 5363   6.253   2.344   2.499
 1488SOL    HW2 5364   6.347   2.299   2.624
 1489SOL     OW 5365   2.902   5.070   0.066
 1489SOL    HW1 5366   2.996   5.058   0.097
 1489SOL    HW2 5367   2.893   5.041   6.995
 1490SOL     OW 5368   5.937   3.024   2.782
 1490SOL    HW1 5369   6.025   3.025   2.736
 1490SOL    HW2 5370   5.880   2.951   2.743
 1491SOL     OW 5371   5.907   2.424   3.482
 1491SOL    HW1 5372   5.847   2.488   3.529
 1491SOL    HW2 5373   5.857   2.380   3.407
 1492SOL     OW 5374   6.926   2.004   2.730
 1492SOL    HW1 5375   6.866   2.079   2.701
 1492SOL    HW2 5376   6.944   1.944   2.652
 1493SOL     OW 5377   5.947   1.957   6.346
 1493SOL    HW1 5378   6.033   1.992   6.383
 1493SOL    HW2 5379   5.966   1.888   6.277
 1494SOL     OW 5380   0.161   4.647   6.373
 1494SOL    HW1 5381   0.183   4.734   6.330
 1494SOL    HW2 5382   0.083   4.659   6.434
 1495SOL     OW 5383   6.661   3.750   4.427
 1495SOL    HW1 5384   6.571   3.784   4.456
 1495SOL    HW2 5385   6.651   3.699   4.342
 1496SOL     OW 5386   6.374   6.383   5.910
 1496SOL    HW1 5387   6.388   6.384   5.811
 1496SOL    HW2 5388   6.321   6.463   5.937
 1497SOL     OW 5389   6.163   2.492   2.455
 1497SOL    HW1 5390   6.174   2.559   2.382
 1497SOL    HW2 5391   6.074   2.504   2.498
 1498SOL     OW 5392   3.190   4.098   0.644
 1498SOL    HW1 5393   3.105   4.136   0.609
 1498SOL    HW2 5394   3.180   4.000   0.659
 1499SOL     OW 5395   6.984   4.663   4.297
 1499SOL    HW1 5396   6.910   4.700   4.353
 1499SOL    HW2 5397   6.989   4.714   4.211
 1500SOL     OW 5398   1.226   5.903   1.913
 1500SOL    HW1 5399   1.215   5.864   2.004
 1500SOL    HW2 5400   1.281   5.986   1.917
 1501SOL     OW 5401   6.643   1.952   0.758
 1501SOL    HW1 5402   6.572   2.010   0.718
 1501SOL    HW2 5403   6.659   1.873   0.699
 1502SOL     OW 5404   6.906   6.812   6.402
 1502SOL    HW1 5405   6.948   6.733   6.447
 1502SOL    HW2 5406   6.855   6.866   6.469
 1503SOL     OW 5407   0.404   4.593   1.777
 1503SOL    HW1 5408   0.384   4.687   1.749
 1503SOL    HW2 5409   0.497   4.589   1.814
 1504SOL     OW 5410   2.108   6.861   2.455
 1504SOL    HW1 5411   2.134   6.767   2.475
 1504SOL    HW2 5412   2.109   6.915   2.540
 1505SOL     OW 5413   6.374   5.344   5.127
 1505SOL    HW1 5414   6.451   5.282   5.117
 1505SOL    HW2 5415   6.405   5.438   5.114
 1506SOL     OW 5416   0.858   0.913   0.634
 1506SOL    HW1 5417   0.760   0.902   0.655
 1506SOL    HW2 5418   0.877   0.874   0.544
 1507SOL     OW 5419   2.751   2.266   3.466
 1507SOL    HW1 5420   2.665   2.228   3.499
 1507SOL    HW2 5421   2.756   2.257   3.367
 1508SOL     OW 5422   2.137   0.814   1.585
 1508SOL    HW1 5423   2.167   0.892   1.641
 1508SOL    HW2 5424   2.084   0.848   1.507
 1509SOL     OW 5425   5.489   0.947   4.191
 1509SOL    HW1 5426   5.556   0.874   4.190
 1509SOL    HW2 5427   5.404   0.914   4.232
 1510SOL     OW 5428   3.457   5.936   5.152
 1510SOL    HW1 5429   3.392   6.008   5.128
 1510SOL    HW2 5430   3.549   5.965   5.125
 1511SOL     OW 5431   2.898   3.759   5.144
 1511SOL    HW1 5432   2.907   3.678   5.202
 1511SOL    HW2 5433   2.823   3.816   5.177
 1512SOL     OW 5434   5.449   6.196   0.876
 1512SOL    HW1 5435   5.466   6.136   0.954
 1512SOL    HW2 5436   5.351   6.214   0.870
 1513SOL     OW 5437   2.352   0.375   5.403
 1513SOL    HW1 5438   2.331   0.278   5.417
 1513SOL    HW2 5439   2.362   0.420   5.491
 1514SOL     OW 5440   3.238   2.528   6.383
 1514SOL    HW1 5441   3.300   2.536   6.461
 1514SOL    HW2 5442   3.183   2.446   6.392
 1515SOL     OW 5443   3.871   0.708   2.717
 1515SOL    HW1 5444   3.967   0.737   2.722
 1515SOL    HW2 5445   3.848   0.654   2.798
 1516SOL     OW 5446   6.198   6.561   6.027
 1516SOL    HW1 5447   6.131   6.621   5.982
 1516SOL    HW2 5448   6.150   6.494   6.083
 1517SOL     OW 5449   3.104   5.980   3.562
 1517SOL    HW1 5450   3.076   5.896   3.607
 1517SOL    HW2 5451   3.040   6.002   3.488
 1518SOL     OW 5452   0.705   3.111   6.541
 1518SOL    HW1 5453   0.686   3.048   6.465
 1518SOL    HW2 5454   0.682   3.204   6.513
 1519SOL     OW 5455   0.017   4.857   6.815
 1519SOL    HW1 5456   7.019   4.796   6.738
 1519SOL    HW2 5457   0.000   4.952   6.788
 1520SOL     OW 5458   0.626   6.318   3.410
 1520SOL    HW1 5459   0.549   6.382   3.418
 1520SOL    HW2 5460   0.666   6.325   3.319
 1521SOL     OW 5461   2.126   5.315   6.089
 1521SOL    HW1 5462   2.138   5.251   6.165
 1521SOL    HW2 5463   2.129   5.408   6.124
 1522SOL     OW 5464   5.794   5.893   4.164
 1522SOL    HW1 5465   5.889   5.923   4.151
 1522SOL    HW2 5466   5.765   5.916   4.257
 1523SOL     OW 5467   3.197   6.510   0.961
 1523SOL    HW1 5468   3.122   6.537   0.901
 1523SOL    HW2 5469   3.165   6.504   1.055
 1524SOL     OW 5470   2.251   1.499   3.903
 1524SOL    HW1 5471   2.207   1.486   3.814
 1524SOL    HW2 5472   2.350   1.508   3.890
 1525SOL     OW 5473   5.368   4.529   6.925
 1525SOL    HW1 5474   5.457   4.528   6.879
 1525SOL    HW2 5475   5.314   4.607   6.891
 1526SOL     OW 5476   1.359   1.629   1.077
 1526SOL    HW1 5477   1.269   1.615   1.118
 1526SOL    HW2 5478   1.389   1.545   1.033
 1527SOL     OW 5479   4.941   2.032   4.652
 1527SOL    HW1 5480   4.866   2.083   4.608
 1527SOL    HW2 5481   5.020   2.029   4.590
 1528SOL     OW 5482   3.507   3.608   2.337
 1528SOL    HW1 5483   3.564   3.533   2.304
 1528SOL    HW2 5484   3.563   3.670   2.391
 1529SOL     OW 5485   4.840   1.846   6.153
 1529SOL    HW1 5486   4.749   1.867   6.188
 1529SOL    HW2 5487   4.833   1.773   6.085
 1530SOL     OW 5488   2.229   6.854   0.993
 1530SOL    HW1 5489   2.152   6.915   1.011
 1530SOL    HW2 5490   2.243   6.846   0.894
 1531SOL     OW 5491   4.749   5.764   4.514
 1531SOL    HW1 5492   4.738   5.693   4.444
 1531SOL    HW2 5493   4.691   5.842   4.491
 1532SOL     OW 5494   2.882   5.627   0.864
 1532SOL    HW1 5495   2.880   5.604   0.767
 1532SOL    HW2 5496   2.806   5.584   0.911
 1533SOL     OW 5497   5.492   5.770   1.015
 1533SOL    HW1 5498   5.504   5.699   1.084
 1533SOL    HW2 5499   5.512   5.732   0.925
 1534SOL     OW 5500   2.663   5.077   6.620
 1534SOL    HW1 5501   2.671   5.010   6.546
 1534SOL    HW2 5502   2.742   5.068   6.681
 1535SOL     OW 5503   5.471   4.227   3.823
 1535SOL    HW1 5504   5.483   4.306   3.883
 1535SOL    HW2 5505   5.381   4.232   3.779
 1536SOL     OW 5506   4.416   3.748   6.885
 1536SOL    HW1 5507   4.454   3.740   6.977
 1536SOL    HW2 5508   4.437   3.665   6.833
 1537SOL     OW 5509   2.780   5.101   2.630
 1537SOL    HW1 5510   2.799   5.043   2.551
 1537SOL    HW2 5511   2.758   5.043   2.709
 1538SOL     OW 5512   2.789   1.350   0.650
 1538SOL    HW1 5513   2.747   1.277   0.704
 1538SOL    HW2 5514   2.829   1.312   0.567
 1539SOL     OW 5515   5.953   3.233   0.613
 1539SOL    HW1 5516   5.992   3.141   0.618
 1539SOL    HW2 5517   5.885   3.237   0.540
 1540SOL     OW 5518   3.925   6.697   2.866
 1540SOL    HW1 5519   3.929   6.794   2.840
 1540SOL    HW2 5520   3.832   6.674   2.894
 1541SOL     OW 5521   4.122   2.701   5.798
 1541SOL    HW1 5522   4.075   2.653   5.872
 1541SOL    HW2 5523   4.164   2.785   5.834
 1542SOL     OW 5524   0.145   5.299   2.773
 1542SOL    HW1 5525   0.245   5.311   2.779
 1542SOL    HW2 5526   0.109   5.269   2.861
 1543SOL     OW 5527   2.886   5.322   0.345
 1543SOL    HW1 5528   2.957   5.338   0.276
 1543SOL    HW2 5529   2.802   5.293   0.300
 1544SOL     OW 5530   3.707   3.346   3.917
 1544SOL    HW1 5531   3.716   3.306   4.008
 1544SOL    HW2 5532   3.648   3.289   3.861
 1545SOL     OW 5533   5.404   5.687   1.731
 1545SOL    HW1 5534   5.416   5.593   1.698
 1545SOL    HW2 5535   5.321   5.693   1.787
 1546SOL     OW 5536   5.676   6.199   5.602
 1546SOL    HW1 5537   5.715   6.138   5.670
 1546SOL    HW2 5538   5.644   6.283   5.647
 1547SOL     OW 5539   2.029   3.356   6.402
 1547SOL    HW1 5540   2.074   3.419   6.339
 1547SOL    HW2 5541   1.998   3.275   6.352
 1548SOL     OW 5542   6.823   2.578   0.837
 1548SOL    HW1 5543   6.745   2.612   0.889
 1548SOL    HW2 5544   6.907   2.594   0.888
 1549SOL     OW 5545   5.198   0.969   4.727
 1549SOL    HW1 5546   5.286   0.928   4.701
 1549SOL    HW2 5547   5.187   0.964   4.827
 1550SOL     OW 5548   3.708   3.084   4.120
 1550SOL    HW1 5549   3.627   3.034   4.090
 1550SOL    HW2 5550   3.680   3.171   4.161
 1551SOL     OW 5551   6.805   4.962   5.295
 1551SOL    HW1 5552   6.811   5.014   5.211
 1551SOL    HW2 5553   6.717   4.980   5.340
 1552SOL     OW 5554   1.772   4.141   1.444
 1552SOL    HW1 5555   1.851   4.196   1.472
 1552SOL    HW2 5556   1.749   4.075   1.515
 1553SOL     OW 5557   1.820   2.213   6.143
 1553SOL    HW1 5558   1.768   2.135   6.109
 1553SOL    HW2 5559   1.829   2.281   6.070
 1554SOL     OW 5560   3.827   1.882   3.642
 1554SOL    HW1 5561   3.885   1.915   3.715
 1554SOL    HW2 5562   3.748   1.835   3.681
 1555SOL     OW 5563   5.910   5.037   5.360
 1555SOL    HW1 5564   5.944   5.059   5.452
 1555SOL    HW2 5565   5.836   5.100   5.336
 1556SOL     OW 5566   1.988   0.954   5.726
 1556SOL    HW1 5567   1.953   0.997   5.643
 1556SOL    HW2 5568   2.065   1.008   5.760
 1557SOL     OW 5569   0.244   2.303   5.069
 1557SOL    HW1 5570   0.189   2.222   5.052
 1557SOL    HW2 5571   0.334   2.277   5.102
 1558SOL     OW 5572   0.486   6.719   4.590
 1558SOL    HW1 5573   0.503   6.622   4.604
 1558SOL    HW2 5574   0.392   6.733   4.560
 1559SOL     OW 5575   1.367   1.462   5.719
 1559SOL    HW1 5576   1.300   1.526   5.680
 1559SOL    HW2 5577   1.459   1.488   5.690
 1560SOL     OW 5578   0.081   0.369   6.933
 1560SOL    HW1 5579   0.129   0.290   6.970
 1560SOL    HW2 5580   0.146   0.425   6.881
 1561SOL     OW 5581   5.993   5.865   2.062
 1561SOL    HW1 5582   5.989   5.896   2.158
 1561SOL    HW2 5583   6.001   5.945   2.002
 1562SOL     OW 5584   6.118   0.895   3.910
 1562SOL    HW1 5585   6.098   0.929   3.818
 1562SOL    HW2 5586   6.210   0.856   3.912
 1563SOL     OW 5587   3.260   6.912   5.805
 1563SOL    HW1 5588   3.347   6.868   5.824
 1563SOL    HW2 5589   3.185   6.852   5.833
 1564SOL     OW 5590   0.704   2.139   3.109
 1564SOL    HW1 5591   0.749   2.176   3.189
 1564SOL    HW2 5592   0.640   2.068   3.136
 1565SOL     OW 5593   6.359   4.172   1.541
 1565SOL    HW1 5594   6.454   4.203   1.541
 1565SOL    HW2 5595   6.338   4.130   1.629
 1566SOL     OW 5596   5.847   4.424   3.069
 1566SOL    HW1 5597   5.755   4.437   3.103
 1566SOL    HW2 5598   5.844   4.396   2.972
 1567SOL     OW 5599   6.442   5.782   5.331
 1567SOL    HW1 5600   6.470   5.693   5.297
 1567SOL    HW2 5601   6.385   5.828   5.263
 1568SOL     OW 5602   0.180   6.930   6.868
 1568SOL    HW1 5603   0.261   6.939   6.926
 1568SOL    HW2 5604   0.102   6.976   6.911
 1569SOL     OW 5605   3.079   6.319   4.946
 1569SOL    HW1 5606   3.050   6.381   5.019
 1569SOL    HW2 5607   3.126   6.371   4.875
 1570SOL     OW 5608   3.192   2.043   1.956
 1570SOL    HW1 5609   3.125   2.039   2.030
 1570SOL    HW2 5610   3.169   2.118   1.894
 1571SOL     OW 5611   0.054   3.873   0.459
 1571SOL    HW1 5612   0.121   3.799   0.455
 1571SOL    HW2 5613   0.090   3.952   0.409
 1572SOL     OW 5614   1.554   5.573   2.577
 1572SOL    HW1 5615   1.557   5.479   2.542
 1572SOL    HW2 5616   1.607   5.579   2.661
 1573SOL     OW 5617   4.444   0.187   0.401
 1573SOL    HW1 5618   4.484   0.166   0.490
 1573SOL    HW2 5619   4.467   0.114   0.336
 1574SOL     OW 5620   5.649   2.350   2.005
 1574SOL    HW1 5621   5.743   2.353   1.969
 1574SOL    HW2 5622   5.625   2.256   2.028
 1575SOL     OW 5623   3.254   1.867   0.281
 1575SOL    HW1 5624   3.248   1.950   0.337
 1575SOL    HW2 5625   3.199   1.795   0.323
 1576SOL     OW 5626   6.121   5.642   3.264
 1576SOL    HW1 5627   6.147   5.626   3.359
 1576SOL    HW2 5628   6.103   5.554   3.219
 1577SOL     OW 5629   1.215   0.242   0.121
 1577SOL    HW1 5630   1.123   0.249   0.082
 1577SOL    HW2 5631   1.208   0.237   0.221
 1578SOL     OW 5632   6.012   5.484   4.977
 1578SOL    HW1 5633   5.966   5.396   4.990
 1578SOL    HW2 5634   5.955   5.544   4.921
 1579SOL     OW 5635   0.179   0.021   3.233
 1579SOL    HW1 5636   0.103   0.080   3.205
 1579SOL    HW2 5637   0.187   0.024   3.333
 1580SOL     OW 5638   3.245   3.692   5.930
 1580SOL    HW1 5639   3.165   3.743   5.963
 1580SOL    HW2 5640   3.219   3.598   5.909
 1581SOL     OW 5641   6.130   3.679   4.591
 1581SOL    HW1 5642   6.164   3.752   4.531
 1581SOL    HW2 5643   6.200   3.607   4.599
 1582SOL     OW 5644   6.010   6.200   5.005
 1582SOL    HW1 5645   5.958   6.285   5.017
 1582SOL    HW2 5646   6.028   6.185   4.908
 1583SOL     OW 5647   2.304   1.843   2.370
 1583SOL    HW1 5648   2.252   1.908   2.314
 1583SOL    HW2 5649   2.401   1.855   2.354
 1584SOL     OW 5650   2.419   0.757   6.219
 1584SOL    HW1 5651   2.476   0.811   6.157
 1584SOL    HW2 5652   2.362   0.694   6.166
 1585SOL     OW 5653   5.785   1.136   5.961
 1585SOL    HW1 5654   5.726   1.217   5.968
 1585SOL    HW2 5655   5.860   1.155   5.897
 1586SOL     OW 5656   3.947   3.887   3.259
 1586SOL    HW1 5657   4.016   3.824   3.294
 1586SOL    HW2 5658   3.912   3.942   3.335
 1587SOL     OW 5659   2.390   6.788   6.438
 1587SOL    HW1 5660   2.363   6.777   6.343
 1587SOL    HW2 5661   2.321   6.747   6.497
 1588SOL     OW 5662   5.865   3.906   1.656
 1588SOL    HW1 5663   5.773   3.927   1.687
 1588SOL    HW2 5664   5.930   3.927   1.730
 1589SOL     OW 5665   5.028   4.757   3.206
 1589SOL    HW1 5666   4.954   4.758   3.139
 1589SOL    HW2 5667   4.990   4.749   3.298
 1590SOL     OW 5668   1.890   6.809   5.132
 1590SOL    HW1 5669   1.840   6.882   5.179
 1590SOL    HW2 5670   1.853   6.721   5.160
 1591SOL     OW 5671   1.304   3.500   0.781
 1591SOL    HW1 5672   1.251   3.416   0.793
 1591SOL    HW2 5673   1.335   3.533   0.871
 1592SOL     OW 5674   3.340   4.092   3.766
 1592SOL    HW1 5675   3.399   4.080   3.686
 1592SOL    HW2 5676   3.397   4.099   3.848
 1593SOL     OW 5677   1.429   4.979   4.461
 1593SOL    HW1 5678   1.440   5.077   4.445
 1593SOL    HW2 5679   1.486   4.928   4.396
 1594SOL     OW 5680   1.376   4.962   3.199
 1594SOL    HW1 5681   1.296   4.904   3.210
 1594SOL    HW2 5682   1.372   5.009   3.111
 1595SOL     OW 5683   6.733   5.061   5.035
 1595SOL    HW1 5684   6.642   5.030   5.063
 1595SOL    HW2 5685   6.738   5.060   4.935
 1596SOL     OW 5686   2.875   5.591   0.152
 1596SOL    HW1 5687   2.802   5.530   0.120
 1596SOL    HW2 5688   2.927   5.625   0.073
 1597SOL     OW 5689   2.242   0.167   6.946
 1597SOL    HW1 5690   2.198   0.211   6.867
 1597SOL    HW2 5691   2.226   0.069   6.943
 1598SOL     OW 5692   6.565   5.189   1.561
 1598SOL    HW1 5693   6.604   5.139   1.484
 1598SOL    HW2 5694   6.635   5.245   1.604
 1599SOL     OW 5695   2.884   4.983   0.352
 1599SOL    HW1 5696   2.849   4.962   0.260
 1599SOL    HW2 5697   2.823   5.049   0.396
 1600SOL     OW 5698   2.941   1.052   5.441
 1600SOL    HW1 5699   3.019   1.107   5.408
 1600SOL    HW2 5700   2.858   1.083   5.395
 1601SOL     OW 5701   1.222   5.221   5.007
 1601SOL    HW1 5702   1.175   5.296   4.959
 1601SOL    HW2 5703   1.224   5.241   5.105
 1602SOL     OW 5704   0.818   3.720   2.184
 1602SOL    HW1 5705   0.761   3.716   2.266
 1602SOL    HW2 5706   0.768   3.681   2.107
 1603SOL     OW 5707   5.628   6.558   0.543
 1603SOL    HW1 5708   5.613   6.459   0.540
 1603SOL    HW2 5709   5.688   6.585   0.468
 1604SOL     OW 5710   0.444   5.499   4.632
 1604SOL    HW1 5711   0.431   5.559   4.553
 1604SOL    HW2 5712   0.540   5.504   4.663
 1605SOL     OW 5713   5.376   6.093   3.204
 1605SOL    HW1 5714   5.301   6.087   3.271
 1605SOL    HW2 5715   5.339   6.081   3.112
 1606SOL     OW 5716   5.608   6.358   5.071
 1606SOL    HW1 5717   5.706   6.370   5.052
 1606SOL    HW2 5718   5.578   6.428   5.135
 1607SOL     OW 5719   4.703   2.928   1.077
 1607SOL    HW1 5720   4.777   2.939   1.143
 1607SOL    HW2 5721   4.621   2.897   1.124
 1608SOL     OW 5722   2.582   0.641   0.403
 1608SOL    HW1 5723   2.508   0.596   0.353
 1608SOL    HW2 5724   2.544   0.691   0.481
 1609SOL     OW 5725   5.141   1.117   5.651
 1609SOL    HW1 5726   5.073   1.160   5.710
 1609SOL    HW2 5727   5.135   1.157   5.559
 1610SOL     OW 5728   5.280   6.318   3.587
 1610SOL    HW1 5729   5.338   6.370   3.650
 1610SOL    HW2 5730   5.324   6.310   3.498
 1611SOL     OW 5731   4.222   2.986   1.571
 1611SOL    HW1 5732   4.251   2.919   1.640
 1611SOL    HW2 5733   4.205   2.939   1.484
 1612SOL     OW 5734   3.637   0.840   4.533
 1612SOL    HW1 5735   3.606   0.831   4.628
 1612SOL    HW2 5736   3.664   0.934   4.515
 1613SOL     OW 5737   1.958   0.198   0.864
 1613SOL    HW1 5738   1.905   0.183   0.780
 1613SOL    HW2 5739   1.895   0.212   0.941
 1614SOL     OW 5740   0.397   2.739   5.806
 1614SOL    HW1 5741   0.321   2.768   5.748
 1614SOL    HW2 5742   0.377   2.761   5.902
 1615SOL     OW 5743   6.335   5.047   5.713
 1615SOL    HW1 5744   6.326   4.994   5.629
 1615SOL    HW2 5745   6.369   4.989   5.786
 1616SOL     OW 5746   2.518   1.849   5.971
 1616SOL    HW1 5747   2.468   1.763   5.981
 1616SOL    HW2 5748   2.480   1.901   5.895
 1617SOL     OW 5749   4.179   0.296   4.315
 1617SOL    HW1 5750   4.256   0.282   4.253
 1617SOL    HW2 5751   4.130   0.209   4.328
 1618SOL     OW 5752   5.949   2.669   1.941
 1618SOL    HW1 5753   5.863   2.652   1.893
 1618SOL    HW2 5754   6.017   2.601   1.915
 1619SOL     OW 5755   1.924   3.087   4.868
 1619SOL    HW1 5756   2.009   3.105   4.918
 1619SOL    HW2 5757   1.945   3.069   4.772
 1620SOL     OW 5758   3.398   5.607   1.445
 1620SOL    HW1 5759   3.449   5.563   1.519
 1620SOL    HW2 5760   3.329   5.543   1.410
 1621SOL     OW 5761   2.070   1.565   2.372
 1621SOL    HW1 5762   2.102   1.620   2.295
 1621SOL    HW2 5763   1.974   1.588   2.392
 1622SOL     OW 5764   1.946   2.521   4.827
 1622SOL    HW1 5765   1.897   2.607   4.845
 1622SOL    HW2 5766   2.023   2.513   4.890
 1623SOL     OW 5767   2.340   1.872   4.703
 1623SOL    HW1 5768   2.331   1.916   4.614
 1623SOL    HW2 5769   2.423   1.906   4.748
 1624SOL     OW 5770   2.197   0.903   0.884
 1624SOL    HW1 5771   2.288   0.866   0.902
 1624SOL    HW2 5772   2.141   0.835   0.837
 1625SOL     OW 5773   0.439   5.707   1.448
 1625SOL    HW1 5774   0.409   5.632   1.507
 1625SOL    HW2 5775   0.378   5.714   1.370
 1626SOL     OW 5776   1.953   2.889   5.784
 1626SOL    HW1 5777   2.001   2.890   5.696
 1626SOL    HW2 5778   1.883   2.960   5.785
 1627SOL     OW 5779   5.229   3.005   3.649
 1627SOL    HW1 5780   5.189   2.994   3.558
 1627SOL    HW2 5781   5.304   2.940   3.660
 1628SOL     OW 5782   2.867   3.227   0.328
 1628SOL    HW1 5783   2.952   3.268   0.362
 1628SOL    HW2 5784   2.889   3.168   0.250
 1629SOL     OW 5785   3.327   2.107   3.004
 1629SOL    HW1 5786   3.388   2.070   3.074
 1629SOL    HW2 5787   3.363   2.084   2.913
 1630SOL     OW 5788   6.219   4.973   4.552
 1630SOL    HW1 5789   6.287   5.027   4.502
 1630SOL    HW2 5790   6.149   4.941   4.488
 1631SOL     OW 5791   0.610   6.384   5.680
 1631SOL    HW1 5792   0.620   6.311   5.613
 1631SOL    HW2 5793   0.693   6.391   5.735
 1632SOL     OW 5794   4.694   6.927   0.294
 1632SOL    HW1 5795   4.743   6.931   0.207
 1632SOL    HW2 5796   4.750   6.881   0.362
 1633SOL     OW 5797   5.706   3.446   3.603
 1633SOL    HW1 5798   5.744   3.353   3.604
 1633SOL    HW2 5799   5.780   3.512   3.613
 1634SOL     OW 5800   3.940   0.797   0.722
 1634SOL    HW1 5801   3.971   0.737   0.796
 1634SOL    HW2 5802   3.898   0.879   0.761
 1635SOL     OW 5803   0.955   4.791   4.313
 1635SOL    HW1 5804   1.047   4.795   4.352
 1635SOL    HW2 5805   0.943   4.703   4.268
 1636SOL     OW 5806   2.329   6.351   0.577
 1636SOL    HW1 5807   2.419   6.390   0.599
 1636SOL    HW2 5808   2.325   6.257   0.612
 1637SOL     OW 5809   1.003   2.567   2.794
 1637SOL    HW1 5810   1.021   2.566   2.893
 1637SOL    HW2 5811   0.915   2.611   2.777
 1638SOL     OW 5812   1.216   2.929   5.873
 1638SOL    HW1 5813   1.148   2.858   5.855
 1638SOL    HW2 5814   1.186   2.985   5.950
 1639SOL     OW 5815   4.535   4.846   3.026
 1639SOL    HW1 5816   4.471   4.785   3.073
 1639SOL    HW2 5817   4.572   4.800   2.945
 1640SOL     OW 5818   5.408   0.556   0.957
 1640SOL    HW1 5819   5.472   0.615   1.006
 1640SOL    HW2 5820   5.376   0.604   0.875
 1641SOL     OW 5821   6.747   2.739   5.443
 1641SOL    HW1 5822   6.806   2.691   5.508
 1641SOL    HW2 5823   6.759   2.699   5.352
 1642SOL     OW 5824   0.305   2.441   1.482
 1642SOL    HW1 5825   0.381   2.399   1.532
 1642SOL    HW2 5826   0.311   2.417   1.385
 1643SOL     OW 5827   3.891   0.873   5.832
 1643SOL    HW1 5828   3.962   0.937   5.863
 1643SOL    HW2 5829   3.842   0.912   5.754
 1644SOL     OW 5830   3.398   1.139   0.344
 1644SOL    HW1 5831   3.448   1.052   0.351
 1644SOL    HW2 5832   3.380   1.159   0.247
 1645SOL     OW 5833   1.746   6.353   5.887
 1645SOL    HW1 5834   1.649   6.368   5.906
 1645SOL    HW2 5835   1.758   6.331   5.790
 1646SOL     OW 5836   1.697   4.051   0.367
 1646SOL    HW1 5837   1.699   4.087   0.461
 1646SOL    HW2 5838   1.617   3.993   0.356
 1647SOL     OW 5839   5.842   2.782   2.710
 1647SOL    HW1 5840   5.881   2.731   2.633
 1647SOL    HW2 5841   5.861   2.734   2.795
 1648SOL     OW 5842   3.910   0.322   2.667
 1648SOL    HW1 5843   3.951   0.233   2.645
 1648SOL    HW2 5844   3.815   0.323   2.638
 1649SOL     OW 5845   2.636   0.092   2.953
 1649SOL    HW1 5846   2.693   0.014   2.929
 1649SOL    HW2 5847   2.543   0.078   2.917
 1650SOL     OW 5848   3.084   6.928   3.921
 1650SOL    HW1 5849   3.086   7.018   3.964
 1650SOL    HW2 5850   3.175   6.886   3.925
 1651SOL     OW 5851   1.639   0.293   1.727
 1651SOL    HW1 5852   1.684   0.381   1.744
 1651SOL    HW2 5853   1.619   0.285   1.630
 1652SOL     OW 5854   2.920   3.142   1.735
 1652SOL    HW1 5855   2.993   3.167   1.672
 1652SOL    HW2 5856   2.833   3.182   1.704
 1653SOL     OW 5857   1.398   5.072   0.872
 1653SOL    HW1 5858   1.338   5.131   0.927
 1653SOL    HW2 5859   1.464   5.027   0.932
 1654SOL     OW 5860   0.392   1.658   3.677
 1654SOL    HW1 5861   0.441   1.745   3.673
 1654SOL    HW2 5862   0.313   1.667   3.738
 1655SOL     OW 5863   4.718   4.400   5.514
 1655SOL    HW1 5864   4.677   4.460   5.583
 1655SOL    HW2 5865   4.785   4.340   5.558
 1656SOL     OW 5866   0.405   4.155   2.399
 1656SOL    HW1 5867   0.478   4.223   2.394
 1656SOL    HW2 5868   0.317   4.198   2.379
 1657SOL     OW 5869   1.209   0.086   5.099
 1657SOL    HW1 5870   1.246   0.118   5.012
 1657SOL    HW2 5871   1.215   0.160   5.166
 1658SOL     OW 5872   6.537   6.559   2.977
 1658SOL    HW1 5873   6.598   6.507   2.918
 1658SOL    HW2 5874   6.479   6.618   2.920
 1659SOL     OW 5875   5.072   2.245   6.296
 1659SOL    HW1 5876   5.078   2.159   6.245
 1659SOL    HW2 5877   4.997   2.238   6.362
 1660SOL     OW 5878   2.551   6.146   3.238
 1660SOL    HW1 5879   2.594   6.166   3.326
 1660SOL    HW2 5880   2.472   6.086   3.252
 1661SOL     OW 5881   3.153   0.079   3.118
 1661SOL    HW1 5882   3.199   0.118   3.038
 1661SOL    HW2 5883   3.126   0.152   3.180
 1662SOL     OW 5884   6.952   0.837   2.922
 1662SOL    HW1 5885   6.855   0.840   2.900
 1662SOL    HW2 5886   7.005   0.814   2.840
 1663SOL     OW 5887   1.830   0.386   3.555
 1663SOL    HW1 5888   1.784   0.432   3.632
 1663SOL    HW2 5889   1.906   0.443   3.523
 1664SOL     OW 5890   2.278   4.825   4.353
 1664SOL    HW1 5891   2.275   4.738   4.403
 1664SOL    HW2 5892   2.362   4.874   4.377
 1665SOL     OW 5893   1.124   0.678   4.129
 1665SOL    HW1 5894   1.123   0.724   4.040
 1665SOL    HW2 5895   1.156   0.742   4.199
 1666SOL     OW 5896   5.100   3.423   6.303
 1666SOL    HW1 5897   5.069   3.327   6.301
 1666SOL    HW2 5898   5.028   3.482   6.267
 1667SOL     OW 5899   6.796   1.015   6.740
 1667SOL    HW1 5900   6.759   0.949   6.804
 1667SOL    HW2 5901   6.778   1.108   6.773
 1668SOL     OW 5902   1.858   0.397   4.905
 1668SOL    HW1 5903   1.943   0.424   4.952
 1668SOL    HW2 5904   1.873   0.310   4.858
 1669SOL     OW 5905   5.969   6.046   6.396
 1669SOL    HW1 5906   5.964   5.955   6.437
 1669SOL    HW2 5907   6.007   6.111   6.462
 1670SOL     OW 5908   6.430   3.401   6.859
 1670SOL    HW1 5909   6.516   3.408   6.911
 1670SOL    HW2 5910   6.429   3.470   6.787
 1671SOL     OW 5911   6.075   4.899   0.265
 1671SOL    HW1 5912   6.067   4.962   0.342
 1671SOL    HW2 5913   5.993   4.907   0.207
 1672SOL     OW 5914   2.145   5.404   2.142
 1672SOL    HW1 5915   2.157   5.460   2.223
 1672SOL    HW2 5916   2.084   5.327   2.163
 1673SOL     OW 5917   6.597   2.159   3.366
 1673SOL    HW1 5918   6.640   2.138   3.278
 1673SOL    HW2 5919   6.503   2.189   3.351
 1674SOL     OW 5920   2.060   5.394   6.734
 1674SOL    HW1 5921   2.039   5.491   6.721
 1674SOL    HW2 5922   2.006   5.358   6.810
 1675SOL     OW 5923   4.768   2.166   0.498
 1675SOL    HW1 5924   4.795   2.233   0.429
 1675SOL    HW2 5925   4.784   2.203   0.589
 1676SOL     OW 5926   2.709   1.160   4.222
 1676SOL    HW1 5927   2.631   1.209   4.260
 1676SOL    HW2 5928   2.760   1.116   4.296
 1677SOL     OW 5929   6.079   0.587   5.681
 1677SOL    HW1 5930   6.108   0.534   5.602
 1677SOL    HW2 5931   6.133   0.671   5.687
 1678SOL     OW 5932   4.930   0.477   1.411
 1678SOL    HW1 5933   4.968   0.452   1.322
 1678SOL    HW2 5934   4.890   0.397   1.455
 1679SOL     OW 5935   5.620   4.410   0.360
 1679SOL    HW1 5936   5.607   4.504   0.330
 1679SOL    HW2 5937   5.711   4.400   0.401
 1680SOL     OW 5938   1.223   2.541   5.002
 1680SOL    HW1 5939   1.161   2.478   4.956
 1680SOL    HW2 5940   1.259   2.498   5.084
 1681SOL     OW 5941   4.705   5.442   0.467
 1681SOL    HW1 5942   4.734   5.475   0.557
 1681SOL    HW2 5943   4.614   5.402   0.474
 1682SOL     OW 5944   6.812   3.641   5.650
 1682SOL    HW1 5945   6.755   3.571   5.606
 1682SOL    HW2 5946   6.884   3.669   5.587
 1683SOL     OW 5947   5.422   5.523   6.077
 1683SOL    HW1 5948   5.486   5.448   6.092
 1683SOL    HW2 5949   5.336   5.487   6.041
 1684SOL     OW 5950   0.084   6.317   4.191
 1684SOL    HW1 5951   0.158   6.329   4.256
 1684SOL    HW2 5952   0.002   6.365   4.223
 1685SOL     OW 5953   1.319   1.333   0.413
 1685SOL    HW1 5954   1.256   1.292   0.478
 1685SOL    HW2 5955   1.273   1.407   0.363
 1686SOL     OW 5956   2.215   6.258   6.717
 1686SOL    HW1 5957   2.212   6.234   6.814
 1686SOL    HW2 5958   2.308   6.281   6.691
 1687SOL     OW 5959   2.668   5.987   2.200
 1687SOL    HW1 5960   2.638   5.910   2.256
 1687SOL    HW2 5961   2.588   6.043   2.176
 1688SOL     OW 5962   0.943   1.364   3.200
 1688SOL    HW1 5963   0.963   1.384   3.105
 1688SOL    HW2 5964   0.950   1.265   3.216
 1689SOL     OW 5965   3.199   1.872   2.369
 1689SOL    HW1 5966   3.181   1.964   2.405
 1689SOL    HW2 5967   3.135   1.807   2.410
 1690SOL     OW 5968   1.139   2.128   0.552
 1690SOL    HW1 5969   1.080   2.053   0.522
 1690SOL    HW2 5970   1.145   2.196   0.479
 1691SOL     OW 5971   4.445   4.946   2.599
 1691SOL    HW1 5972   4.388   4.997   2.535
 1691SOL    HW2 5973   4.519   4.901   2.548
 1692SOL     OW 5974   1.959   6.953   2.930
 1692SOL    HW1 5975   1.878   7.010   2.946
 1692SOL    HW2 5976   1.931   6.858   2.918
 1693SOL     OW 5977   3.370   1.763   3.940
 1693SOL    HW1 5978   3.366   1.861   3.924
 1693SOL    HW2 5979   3.456   1.740   3.987
 1694SOL     OW 5980   5.378   5.606   5.456
 1694SOL    HW1 5981   5.359   5.555   5.373
 1694SOL    HW2 5982   5.434   5.551   5.518
 1695SOL     OW 5983   3.995   1.303   6.198
 1695SOL    HW1 5984   4.045   1.234   6.145
 1695SOL    HW2 5985   3.968   1.264   6.286
 1696SOL     OW 5986   3.372   5.739   1.853
 1696SOL    HW1 5987   3.305   5.756   1.781
 1696SOL    HW2 5988   3.328   5.747   1.943
 1697SOL     OW 5989   1.335   1.683   1.938
 1697SOL    HW1 5990   1.356   1.661   2.033
 1697SOL    HW2 5991   1.381   1.618   1.877
 1698SOL     OW 5992   4.977   2.371   1.004
 1698SOL    HW1 5993   4.897   2.428   0.986
 1698SOL    HW2 5994   5.002   2.321   0.921
 1699SOL     OW 5995   2.839   4.722   0.468
 1699SOL    HW1 5996   2.789   4.666   0.402
 1699SOL    HW2 5997   2.892   4.791   0.419
 1700SOL     OW 5998   6.164   2.528   4.568
 1700SOL    HW1 5999   6.258   2.536   4.533
 1700SOL    HW2 6000   6.159   2.450   4.631
 1701SOL     OW 6001   6.176   2.948   5.144
 1701SOL    HW1 6002   6.117   2.911   5.215
 1701SOL    HW2 6003   6.238   2.877   5.110
 1702SOL     OW 6004   4.595   2.738   1.785
 1702SOL    HW1 6005   4.605   2.733   1.686
 1702SOL    HW2 6006   4.622   2.829   1.817
 1703SOL     OW 6007   1.536   3.835   0.280
 1703SOL    HW1 6008   1.561   3.798   0.190
 1703SOL    HW2 6009   1.437   3.827   0.293
 1704SOL     OW 6010   0.242   0.930   1.731
 1704SOL    HW1 6011   0.160   0.972   1.693
 1704SOL    HW2 6012   0.222   0.837   1.760
 1705SOL     OW 6013   3.807   3.135   2.808
 1705SOL    HW1 6014   3.815   3.117   2.710
 1705SOL    HW2 6015   3.739   3.073   2.848
 1706SOL     OW 6016   2.283   0.500   6.460
 1706SOL    HW1 6017   2.304   0.508   6.558
 1706SOL    HW2 6018   2.319   0.580   6.412
 1707SOL     OW 6019   5.167   1.309   2.663
 1707SOL    HW1 6020   5.108   1.301   2.582
 1707SOL    HW2 6021   5.112   1.291   2.745
 1708SOL     OW 6022   0.110   4.467   1.420
 1708SOL    HW1 6023   0.094   4.565   1.426
 1708SOL    HW2 6024   0.200   4.450   1.380
 1709SOL     OW 6025   2.616   5.288   4.723
 1709SOL    HW1 6026   2.649   5.377   4.754
 1709SOL    HW2 6027   2.648   5.217   4.785
 1710SOL     OW 6028   6.663   5.185   4.025
 1710SOL    HW1 6029   6.647   5.140   4.112
 1710SOL    HW2 6030   6.633   5.125   3.950
 1711SOL     OW 6031   1.613   4.288   5.412
 1711SOL    HW1 6032   1.673   4.210   5.431
 1711SOL    HW2 6033   1.630   4.322   5.319
 1712SOL     OW 6034   2.279   4.872   1.629
 1712SOL    HW1 6035   2.236   4.900   1.543
 1712SOL    HW2 6036   2.269   4.946   1.696
 1713SOL     OW 6037   1.833   3.380   0.733
 1713SOL    HW1 6038   1.889   3.419   0.660
 1713SOL    HW2 6039   1.849   3.281   0.737
 1714SOL     OW 6040   4.193   1.113   1.546
 1714SOL    HW1 6041   4.276   1.064   1.520
 1714SOL    HW2 6042   4.151   1.068   1.625
 1715SOL     OW 6043   0.393   2.851   3.619
 1715SOL    HW1 6044   0.443   2.904   3.688
 1715SOL    HW2 6045   0.301   2.833   3.653
 1716SOL     OW 6046   0.425   0.355   0.394
 1716SOL    HW1 6047   0.489   0.320   0.463
 1716SOL    HW2 6048   0.460   0.335   0.303
 1717SOL     OW 6049   3.109   0.002   6.897
 1717SOL    HW1 6050   3.084   0.002   6.994
 1717SOL    HW2 6051   3.035   0.040   6.843
 1718SOL     OW 6052   1.619   4.519   5.595
 1718SOL    HW1 6053   1.544   4.475   5.547
 1718SOL    HW2 6054   1.705   4.475   5.570
 1719SOL     OW 6055   2.076   3.602   1.448
 1719SOL    HW1 6056   2.049   3.566   1.359
 1719SOL    HW2 6057   1.996   3.642   1.494
 1720SOL     OW 6058   6.860   1.595   2.426
 1720SOL    HW1 6059   6.776   1.641   2.456
 1720SOL    HW2 6060   6.889   1.531   2.497
 1721SOL     OW 6061   1.772   6.258   4.035
 1721SOL    HW1 6062   1.740   6.298   4.122
 1721SOL    HW2 6063   1.702   6.196   4.000
 1722SOL     OW 6064   5.650   0.483   1.725
 1722SOL    HW1 6065   5.606   0.426   1.794
 1722SOL    HW2 6066   5.656   0.432   1.639
 1723SOL     OW 6067   5.872   0.892   2.724
 1723SOL    HW1 6068   5.858   0.879   2.822
 1723SOL    HW2 6069   5.810   0.963   2.690
 1724SOL     OW 6070   5.432   0.401   0.025
 1724SOL    HW1 6071   5.425   0.444   6.959
 1724SOL    HW2 6072   5.501   0.329   0.023
 1725SOL     OW 6073   3.640   5.640   2.126
 1725SOL    HW1 6074   3.672   5.562   2.071
 1725SOL    HW2 6075   3.550   5.618   2.164
 1726SOL     OW 6076   6.912   3.753   4.612
 1726SOL    HW1 6077   6.986   3.731   4.549
 1726SOL    HW2 6078   6.824   3.726   4.571
 1727SOL     OW 6079   2.643   3.524   5.354
 1727SOL    HW1 6080   2.646   3.618   5.388
 1727SOL    HW2 6081   2.722   3.508   5.295
 1728SOL     OW 6082   4.483   4.917   3.509
 1728SOL    HW1 6083   4.544   4.956   3.578
 1728SOL    HW2 6084   4.537   4.889   3.429
 1729SOL     OW 6085   1.662   3.726   2.235
 1729SOL    HW1 6086   1.633   3.665   2.309
 1729SOL    HW2 6087   1.625   3.818   2.252
 1730SOL     OW 6088   5.755   2.166   4.663
 1730SOL    HW1 6089   5.810   2.247   4.643
 1730SOL    HW2 6090   5.664   2.194   4.695
 1731SOL     OW 6091   6.848   6.469   0.618
 1731SOL    HW1 6092   6.859   6.562   0.654
 1731SOL    HW2 6093   6.906   6.406   0.670
 1732SOL     OW 6094   0.555   4.467   0.056
 1732SOL    HW1 6095   0.624   4.435   7.015
 1732SOL    HW2 6096   0.481   4.512   0.006
 1733SOL     OW 6097   0.997   3.787   0.205
 1733SOL    HW1 6098   0.968   3.691   0.200
 1733SOL    HW2 6099   1.014   3.822   0.113
 1734SOL     OW 6100   4.897   3.699   1.593
 1734SOL    HW1 6101   4.845   3.715   1.510
 1734SOL    HW2 6102   4.965   3.627   1.576
 1735SOL     OW 6103   4.992   5.821   0.547
 1735SOL    HW1 6104   5.034   5.734   0.518
 1735SOL    HW2 6105   4.926   5.803   0.620
 1736SOL     OW 6106   2.771   3.572   0.247
 1736SOL    HW1 6107   2.843   3.537   0.308
 1736SOL    HW2 6108   2.692   3.511   0.253
 1737SOL     OW 6109   0.946   5.552   3.580
 1737SOL    HW1 6110   0.861   5.521   3.536
 1737SOL    HW2 6111   0.997   5.610   3.517
 1738SOL     OW 6112   1.140   1.262   1.848
 1738SOL    HW1 6113   1.204   1.261   1.771
 1738SOL    HW2 6114   1.174   1.202   1.920
 1739SOL     OW 6115   4.396   2.432   6.212
 1739SOL    HW1 6116   4.457   2.386   6.147
 1739SOL    HW2 6117   4.408   2.391   6.302
 1740SOL     OW 6118   0.693   1.399   5.386
 1740SOL    HW1 6119   0.785   1.424   5.355
 1740SOL    HW2 6120   0.666   1.313   5.343
 1741SOL     OW 6121   2.246   1.107   2.239
 1741SOL    HW1 6122   2.151   1.103   2.270
 1741SOL    HW2 6123   2.298   1.169   2.298
 1742SOL     OW 6124   5.866   6.910   4.367
 1742SOL    HW1 6125   5.866   6.999   4.412
 1742SOL    HW2 6126   5.941   6.906   4.300
 1743SOL     OW 6127   4.609   1.015   0.746
 1743SOL    HW1 6128   4.561   1.041   0.662
 1743SOL    HW2 6129   4.692   0.964   0.723
 1744SOL     OW 6130   3.070   6.241   1.940
 1744SOL    HW1 6131   3.119   6.274   1.860
 1744SOL    HW2 6132   2.983   6.201   1.911
 1745SOL     OW 6133   6.949   3.314   5.194
 1745SOL    HW1 6134   6.957   3.216   5.217
 1745SOL    HW2 6135   6.881   3.326   5.122
 1746SOL     OW 6136   2.827   0.928   5.673
 1746SOL    HW1 6137   2.859   0.967   5.587
 1746SOL    HW2 6138   2.860   0.985   5.749
 1747SOL     OW 6139   5.058   6.706   5.562
 1747SOL    HW1 6140   4.976   6.683   5.613
 1747SOL    HW2 6141   5.075   6.636   5.492
 1748SOL     OW 6142   5.750   1.255   1.499
 1748SOL    HW1 6143   5.671   1.195   1.489
 1748SOL    HW2 6144   5.833   1.199   1.510
 1749SOL     OW 6145   4.625   0.066   5.819
 1749SOL    HW1 6146   4.570   7.019   5.862
 1749SOL    HW2 6147   4.706   0.025   5.777
 1750SOL     OW 6148   4.814   0.513   4.237
 1750SOL    HW1 6149   4.875   0.569   4.180
 1750SOL    HW2 6150   4.864   0.479   4.316
 1751SOL     OW 6151   2.078   5.528   3.801
 1751SOL    HW1 6152   2.016   5.468   3.750
 1751SOL    HW2 6153   2.028   5.610   3.831
 1752SOL     OW 6154   6.873   1.981   6.303
 1752SOL    HW1 6155   6.871   2.061   6.363
 1752SOL    HW2 6156   6.959   1.931   6.318
 1753SOL     OW 6157   2.899   6.233   2.466
 1753SOL    HW1 6158   2.839   6.258   2.391
 1753SOL    HW2 6159   2.877   6.287   2.547
 1754SOL     OW 6160   3.629   2.831   1.828
 1754SOL    HW1 6161   3.537   2.802   1.801
 1754SOL    HW2 6162   3.696   2.764   1.796
 1755SOL     OW 6163   6.311   4.522   0.199
 1755SOL    HW1 6164   6.269   4.486   0.282
 1755SOL    HW2 6165   6.325   4.621   0.209
 1756SOL     OW 6166   5.492   5.386   4.743
 1756SOL    HW1 6167   5.456   5.359   4.832
 1756SOL    HW2 6168   5.592   5.389   4.747
 1757SOL     OW 6169   3.619   0.711   5.578
 1757SOL    HW1 6170   3.553   0.704   5.504
 1757SOL    HW2 6171   3.572   0.740   5.662
 1758SOL     OW 6172   3.069   1.633   3.298
 1758SOL    HW1 6173   3.028   1.555   3.251
 1758SOL    HW2 6174   3.018   1.653   3.381
 1759SOL     OW 6175   0.466   5.367   6.137
 1759SOL    HW1 6176   0.492   5.464   6.128
 1759SOL    HW2 6177   0.367   5.358   6.127
 1760SOL     OW 6178   4.920   0.071   2.159
 1760SOL    HW1 6179   4.924   7.002   2.122
 1760SOL    HW2 6180   5.012   0.101   2.186
 1761SOL     OW 6181   5.698   2.831   1.654
 1761SOL    HW1 6182   5.703   2.840   1.554
 1761SOL    HW2 6183   5.644   2.905   1.692
 1762SOL     OW 6184   5.389   2.906   0.761
 1762SOL    HW1 6185   5.384   2.809   0.782
 1762SOL    HW2 6186   5.446   2.920   0.680
 1763SOL     OW 6187   2.166   3.102   3.819
 1763SOL    HW1 6188   2.218   3.038   3.876
 1763SOL    HW2 6189   2.152   3.187   3.869
 1764SOL     OW 6190   6.270   3.438   4.377
 1764SOL    HW1 6191   6.172   3.457   4.389
 1764SOL    HW2 6192   6.289   3.345   4.409
 1765SOL     OW 6193   2.054   3.633   6.239
 1765SOL    HW1 6194   2.009   3.614   6.151
 1765SOL    HW2 6195   2.146   3.669   6.223
 1766SOL     OW 6196   5.870   3.621   5.757
 1766SOL    HW1 6197   5.903   3.567   5.679
 1766SOL    HW2 6198   5.947   3.672   5.797
 1767SOL     OW 6199   6.425   4.567   1.597
 1767SOL    HW1 6200   6.473   4.523   1.673
 1767SOL    HW2 6201   6.478   4.554   1.513
 1768SOL     OW 6202   6.422   6.604   3.704
 1768SOL    HW1 6203   6.349   6.556   3.654
 1768SOL    HW2 6204   6.380   6.668   3.769
 1769SOL     OW 6205   5.191   1.138   3.563
 1769SOL    HW1 6206   5.202   1.237   3.548
 1769SOL    HW2 6207   5.244   1.088   3.495
 1770SOL     OW 6208   3.141   5.511   5.178
 1770SOL    HW1 6209   3.167   5.531   5.273
 1770SOL    HW2 6210   3.058   5.562   5.154
 1771SOL     OW 6211   4.660   6.802   6.724
 1771SOL    HW1 6212   4.713   6.766   6.801
 1771SOL    HW2 6213   4.642   6.728   6.659
 1772SOL     OW 6214   3.703   5.988   3.547
 1772SOL    HW1 6215   3.661   5.944   3.626
 1772SOL    HW2 6216   3.637   5.990   3.471
 1773SOL     OW 6217   0.816   6.769   0.199
 1773SOL    HW1 6218   0.765   6.812   0.274
 1773SOL    HW2 6219   0.815   6.670   0.212
 1774SOL     OW 6220   2.949   4.817   2.595
 1774SOL    HW1 6221   2.984   4.851   2.682
 1774SOL    HW2 6222   3.003   4.738   2.566
 1775SOL     OW 6223   0.771   4.106   1.565
 1775SOL    HW1 6224   0.749   4.149   1.478
 1775SOL    HW2 6225   0.861   4.137   1.596
 1776SOL     OW 6226   3.024   6.471   5.661
 1776SOL    HW1 6227   3.044   6.442   5.755
 1776SOL    HW2 6228   2.971   6.400   5.615
 1777SOL     OW 6229   3.370   6.357   0.589
 1777SOL    HW1 6230   3.303   6.292   0.555
 1777SOL    HW2 6231   3.377   6.434   0.525
 1778SOL     OW 6232   0.098   3.543   5.864
 1778SOL    HW1 6233   0.145   3.497   5.939
 1778SOL    HW2 6234   0.102   3.486   5.782
 1779SOL     OW 6235   4.044   0.567   5.751
 1779SOL    HW1 6236   4.040   0.563   5.851
 1779SOL    HW2 6237   3.960   0.529   5.713
 1780SOL     OW 6238   3.267   3.451   6.792
 1780SOL    HW1 6239   3.192   3.387   6.807
 1780SOL    HW2 6240   3.346   3.402   6.755
 1781SOL     OW 6241   3.380   5.461   3.885
 1781SOL    HW1 6242   3.458   5.523   3.899
 1781SOL    HW2 6243   3.347   5.430   3.974
 1782SOL     OW 6244   3.087   1.784   4.352
 1782SOL    HW1 6245   3.099   1.686   4.337
 1782SOL    HW2 6246   3.047   1.826   4.271
 1783SOL     OW 6247   1.594   6.047   6.635
 1783SOL    HW1 6248   1.612   6.029   6.732
 1783SOL    HW2 6249   1.680   6.066   6.589
 1784SOL     OW 6250   3.307   0.124   6.171
 1784SOL    HW1 6251   3.324   0.066   6.250
 1784SOL    HW2 6252   3.372   0.100   6.098
 1785SOL     OW 6253   0.079   4.903   1.742
 1785SOL    HW1 6254   0.070   5.003   1.734
 1785SOL    HW2 6255   0.172   4.881   1.771
 1786SOL     OW 6256   3.928   2.411   1.556
 1786SOL    HW1 6257   3.867   2.477   1.513
 1786SOL    HW2 6258   4.013   2.405   1.503
 1787SOL     OW 6259   3.761   0.973   5.618
 1787SOL    HW1 6260   3.726   1.065   5.638
 1787SOL    HW2 6261   3.684   0.913   5.595
 1788SOL     OW 6262   1.534   4.878   6.252
 1788SOL    HW1 6263   1.524   4.810   6.324
 1788SOL    HW2 6264   1.514   4.836   6.163
 1789SOL     OW 6265   5.751   0.106   0.340
 1789SOL    HW1 6266   5.700   0.179   0.386
 1789SOL    HW2 6267   5.709   0.018   0.361
 1790SOL     OW 6268   2.945   6.429   2.665
 1790SOL    HW1 6269   3.010   6.354   2.679
 1790SOL    HW2 6270   2.995   6.516   2.665
 1791SOL     OW 6271   0.327   6.523   2.557
 1791SOL    HW1 6272   0.308   6.425   2.562
 1791SOL    HW2 6273   0.241   6.574   2.565
 1792SOL     OW 6274   1.016   4.023   4.317
 1792SOL    HW1 6275   0.973   4.048   4.231
 1792SOL    HW2 6276   1.068   4.100   4.353
 1793SOL     OW 6277   6.980   0.860   3.295
 1793SOL    HW1 6278   0.037   0.844   3.238
 1793SOL    HW2 6279   6.980   0.796   3.372
 1794SOL     OW 6280   4.498   5.813   6.528
 1794SOL    HW1 6281   4.517   5.865   6.445
 1794SOL    HW2 6282   4.580   5.812   6.586
 1795SOL     OW 6283   0.925   2.673   0.238
 1795SOL    HW1 6284   0.881   2.586   0.260
 1795SOL    HW2 6285   0.942   2.677   0.139
 1796SOL     OW 6286   3.762   0.712   6.411
 1796SOL    HW1 6287   3.705   0.777   6.461
 1796SOL    HW2 6288   3.757   0.623   6.455
 1797SOL     OW 6289   1.079   0.682   1.161
 1797SOL    HW1 6290   1.039   0.704   1.072
 1797SOL    HW2 6291   1.035   0.736   1.232
 1798SOL     OW 6292   5.552   1.870   3.000
 1798SOL    HW1 6293   5.461   1.846   2.967
 1798SOL    HW2 6294   5.587   1.796   3.058
 1799SOL     OW 6295   2.083   2.016   0.045
 1799SOL    HW1 6296   2.120   1.933   0.086
 1799SOL    HW2 6297   2.038   1.993   6.983
 1800SOL     OW 6298   3.310   4.979   2.543
 1800SOL    HW1 6299   3.258   4.894   2.546
 1800SOL    HW2 6300   3.268   5.042   2.478
 1801SOL     OW 6301   5.558   6.683   0.813
 1801SOL    HW1 6302   5.645   6.718   0.848
 1801SOL    HW2 6303   5.576   6.615   0.742
 1802SOL     OW 6304   6.192   4.976   3.395
 1802SOL    HW1 6305   6.111   4.956   3.340
 1802SOL    HW2 6306   6.255   4.899   3.390
 1803SOL     OW 6307   5.569   5.318   1.088
 1803SOL    HW1 6308   5.517   5.321   1.003
 1803SOL    HW2 6309   5.525   5.254   1.152
 1804SOL     OW 6310   3.352   3.272   5.911
 1804SOL    HW1 6311   3.257   3.296   5.888
 1804SOL    HW2 6312   3.352   3.190   5.968
 1805SOL     OW 6313   5.605   3.148   6.352
 1805SOL    HW1 6314   5.608   3.218   6.281
 1805SOL    HW2 6315   5.513   3.110   6.359
 1806SOL     OW 6316   6.955   0.507   0.484
 1806SOL    HW1 6317   7.017   0.565   0.431
 1806SOL    HW2 6318   6.999   0.480   0.570
 1807SOL     OW 6319   6.442   2.032   5.832
 1807SOL    HW1 6320   6.518   2.097   5.836
 1807SOL    HW2 6321   6.477   1.942   5.807
 1808SOL     OW 6322   2.058   4.617   4.396
 1808SOL    HW1 6323   2.064   4.605   4.495
 1808SOL    HW2 6324   2.121   4.554   4.351
 1809SOL     OW 6325   3.820   0.430   6.497
 1809SOL    HW1 6326   3.742   0.372   6.475
 1809SOL    HW2 6327   3.891   0.418   6.428
 1810SOL     OW 6328   3.698   6.020   2.911
 1810SOL    HW1 6329   3.630   5.955   2.876
 1810SOL    HW2 6330   3.702   6.014   3.011
 1811SOL     OW 6331   6.005   5.930   2.598
 1811SOL    HW1 6332   6.019   5.837   2.634
 1811SOL    HW2 6333   5.926   5.972   2.644
 1812SOL     OW 6334   4.614   5.195   6.190
 1812SOL    HW1 6335   4.649   5.287   6.211
 1812SOL    HW2 6336   4.560   5.162   6.268
 1813SOL     OW 6337   6.763   5.659   5.509
 1813SOL    HW1 6338   6.798   5.613   5.427
 1813SOL    HW2 6339   6.840   5.689   5.566
 1814SOL     OW 6340   5.101   6.753   2.656
 1814SOL    HW1 6341   5.035   6.741   2.729
 1814SOL    HW2 6342   5.083   6.687   2.583
 1815SOL     OW 6343   0.177   1.230   2.331
 1815SOL    HW1 6344   0.202   1.326   2.333
 1815SOL    HW2 6345   0.233   1.179   2.397
 1816SOL     OW 6346   1.158   4.674   0.389
 1816SOL    HW1 6347   1.196   4.613   0.319
 1816SOL    HW2 6348   1.170   4.632   0.479
 1817SOL     OW 6349   1.345   5.717   1.735
 1817SOL    HW1 6350   1.319   5.760   1.648
 1817SOL    HW2 6351   1.305   5.769   1.811
 1818SOL     OW 6352   1.428   1.520   3.315
 1818SOL    HW1 6353   1.520   1.486   3.295
 1818SOL    HW2 6354   1.435   1.609   3.359
 1819SOL     OW 6355   0.818   4.202   2.211
 1819SOL    HW1 6356   0.848   4.189   2.306
 1819SOL    HW2 6357   0.762   4.124   2.183
 1820SOL     OW 6358   6.014   0.470   2.631
 1820SOL    HW1 6359   6.072   0.513   2.699
 1820SOL    HW2 6360   5.975   0.540   2.571
 1821SOL     OW 6361   1.765   1.670   3.737
 1821SOL    HW1 6362   1.754   1.721   3.822
 1821SOL    HW2 6363   1.785   1.733   3.662
 1822SOL     OW 6364   3.247   3.457   1.851
 1822SOL    HW1 6365   3.256   3.374   1.797
 1822SOL    HW2 6366   3.335   3.478   1.895
 1823SOL     OW 6367   4.166   0.439   2.694
 1823SOL    HW1 6368   4.217   0.390   2.624
 1823SOL    HW2 6369   4.069   0.416   2.687
 1824SOL     OW 6370   5.077   2.196   1.503
 1824SOL    HW1 6371   5.002   2.232   1.448
 1824SOL    HW2 6372   5.095   2.258   1.579
 1825SOL     OW 6373   1.239   0.800   1.774
 1825SOL    HW1 6374   1.295   0.722   1.803
 1825SOL    HW2 6375   1.287   0.849   1.701
 1826SOL     OW 6376   3.088   5.968   6.325
 1826SOL    HW1 6377   3.024   5.934   6.394
 1826SOL    HW2 6378   3.150   5.895   6.298
 1827SOL     OW 6379   6.404   6.833   1.422
 1827SOL    HW1 6380   6.328   6.852   1.484
 1827SOL    HW2 6381   6.407   6.735   1.403
 1828SOL     OW 6382   1.823   2.491   0.031
 1828SOL    HW1 6383   1.887   2.564   0.010
 1828SOL    HW2 6384   1.755   2.523   0.097
 1829SOL     OW 6385   6.118   5.051   1.974
 1829SOL    HW1 6386   6.058   5.063   1.894
 1829SOL    HW2 6387   6.125   4.954   1.996
 1830SOL     OW 6388   5.439   6.177   4.041
 1830SOL    HW1 6389   5.351   6.210   4.076
 1830SOL    HW2 6390   5.424   6.102   3.977
 1831SOL     OW 6391   5.219   0.612   3.441
 1831SOL    HW1 6392   5.282   0.534   3.442
 1831SOL    HW2 6393   5.184   0.628   3.533
 1832SOL     OW 6394   5.024   2.443   0.228
 1832SOL    HW1 6395   4.933   2.416   0.259
 1832SOL    HW2 6396   5.082   2.463   0.307
 1833SOL     OW 6397   5.739   1.833   5.918
 1833SOL    HW1 6398   5.742   1.734   5.913
 1833SOL    HW2 6399   5.672   1.868   5.852
 1834SOL     OW 6400   2.494   4.247   0.707
 1834SOL    HW1 6401   2.402   4.233   0.742
 1834SOL    HW2 6402   2.555   4.177   0.744
 1835SOL     OW 6403   1.189   4.763   6.912
 1835SOL    HW1 6404   1.283   4.760   6.946
 1835SOL    HW2 6405   1.139   4.682   6.943
 1836SOL     OW 6406   0.950   6.181   0.319
 1836SOL    HW1 6407   0.865   6.177   0.372
 1836SOL    HW2 6408   0.999   6.266   0.340
 1837SOL     OW 6409   1.158   2.307   4.855
 1837SOL    HW1 6410   1.162   2.218   4.901
 1837SOL    HW2 6411   1.116   2.297   4.765
 1838SOL     OW 6412   0.772   2.355   4.498
 1838SOL    HW1 6413   0.741   2.277   4.444
 1838SOL    HW2 6414   0.752   2.439   4.449
 1839SOL     OW 6415   0.309   1.519   6.346
 1839SOL    HW1 6416   0.384   1.561   6.396
 1839SOL    HW2 6417   0.276   1.581   6.275
 1840SOL     OW 6418   1.322   5.470   0.651
 1840SOL    HW1 6419   1.240   5.425   0.614
 1840SOL    HW2 6420   1.386   5.400   0.683
 1841SOL     OW 6421   1.378   3.206   2.885
 1841SOL    HW1 6422   1.404   3.178   2.978
 1841SOL    HW2 6423   1.282   3.234   2.884
 1842SOL     OW 6424   0.733   5.367   6.510
 1842SOL    HW1 6425   0.652   5.315   6.485
 1842SOL    HW2 6426   0.709   5.433   6.582
 1843SOL     OW 6427   4.038   2.000   4.754
 1843SOL    HW1 6428   3.962   2.019   4.817
 1843SOL    HW2 6429   4.036   2.067   4.679
 1844SOL     OW 6430   5.440   3.287   3.803
 1844SOL    HW1 6431   5.523   3.259   3.755
 1844SOL    HW2 6432   5.385   3.347   3.745
 1845SOL     OW 6433   4.120   6.597   0.950
 1845SOL    HW1 6434   4.031   6.556   0.968
 1845SOL    HW2 6435   4.163   6.623   1.036
 1846SOL     OW 6436   3.483   1.398   5.551
 1846SOL    HW1 6437   3.494   1.468   5.481
 1846SOL    HW2 6438   3.422   1.432   5.623
 1847SOL     OW 6439   1.560   6.705   6.857
 1847SOL    HW1 6440   1.584   6.629   6.797
 1847SOL    HW2 6441   1.637   6.767   6.865
 1848SOL     OW 6442   2.492   0.048   2.573
 1848SOL    HW1 6443   2.521   7.011   2.500
 1848SOL    HW2 6444   2.432   0.119   2.536
 1849SOL     OW 6445   3.027   0.768   6.629
 1849SOL    HW1 6446   3.066   0.745   6.718
 1849SOL    HW2 6447   3.046   0.693   6.565
 1850SOL     OW 6448   5.308   1.810   1.738
 1850SOL    HW1 6449   5.285   1.737   1.674
 1850SOL    HW2 6450   5.406   1.826   1.738
 1851SOL     OW 6451   6.444   3.610   2.931
 1851SOL    HW1 6452   6.375   3.640   2.997
 1851SOL    HW2 6453   6.478   3.689   2.880
 1852SOL     OW 6454   4.975   2.649   6.021
 1852SOL    HW1 6455   5.015   2.582   6.083
 1852SOL    HW2 6456   5.049   2.703   5.979
 1853SOL     OW 6457   1.059   4.375   0.514
 1853SOL    HW1 6458   1.010   4.416   0.437
 1853SOL    HW2 6459   1.015   4.290   0.541
 1854SOL     OW 6460   2.691   5.826   3.811
 1854SOL    HW1 6461   2.599   5.840   3.775
 1854SOL    HW2 6462   2.713   5.728   3.809
 1855SOL     OW 6463   5.581   4.338   1.903
 1855SOL    HW1 6464   5.618   4.246   1.920
 1855SOL    HW2 6465   5.652   4.395   1.862
 1856SOL     OW 6466   4.892   3.076   6.785
 1856SOL    HW1 6467   4.797   3.094   6.810
 1856SOL    HW2 6468   4.930   3.154   6.735
 1857SOL     OW 6469   4.730   1.430   3.497
 1857SOL    HW1 6470   4.645   1.377   3.486
 1857SOL    HW2 6471   4.727   1.510   3.436
 1858SOL     OW 6472   5.815   3.542   3.300
 1858SOL    HW1 6473   5.750   3.603   3.256
 1858SOL    HW2 6474   5.766   3.478   3.360
 1859SOL     OW 6475   5.793   1.579   2.925
 1859SOL    HW1 6476   5.731   1.630   2.985
 1859SOL    HW2 6477   5.774   1.481   2.934
 1860SOL     OW 6478   3.630   2.050   5.093
 1860SOL    HW1 6479   3.652   2.039   5.190
 1860SOL    HW2 6480   3.595   2.142   5.077
 1861SOL     OW 6481   5.545   5.993   2.368
 1861SOL    HW1 6482   5.607   6.002   2.290
 1861SOL    HW2 6483   5.454   6.027   2.343
 1862SOL     OW 6484   2.028   1.536   0.572
 1862SOL    HW1 6485   2.046   1.441   0.598
 1862SOL    HW2 6486   1.944   1.541   0.519
 1863SOL     OW 6487   2.025   2.573   1.553
 1863SOL    HW1 6488   1.928   2.557   1.535
 1863SOL    HW2 6489   2.078   2.495   1.517
 1864SOL     OW 6490   0.916   6.985   3.202
 1864SOL    HW1 6491   0.852   0.024   3.247
 1864SOL    HW2 6492   0.930   6.904   3.259
 1865SOL     OW 6493   5.178   2.360   6.753
 1865SOL    HW1 6494   5.145   2.444   6.795
 1865SOL    HW2 6495   5.103   2.293   6.746
 1866SOL     OW 6496   5.036   5.458   2.224
 1866SOL    HW1 6497   4.974   5.395   2.272
 1866SOL    HW2 6498   5.131   5.431   2.242
 1867SOL     OW 6499   0.675   4.925   6.775
 1867SOL    HW1 6500   0.576   4.906   6.776
 1867SOL    HW2 6501   0.699   4.967   6.688
 1868SOL     OW 6502   6.745   4.149   5.550
 1868SOL    HW1 6503   6.688   4.152   5.468
 1868SOL    HW2 6504   6.828   4.097   5.532
 1869SOL     OW 6505   6.085   1.562   4.725
 1869SOL    HW1 6506   6.003   1.517   4.689
 1869SOL    HW2 6507   6.118   1.630   4.660
 1870SOL     OW 6508   2.205   4.210   4.650
 1870SOL    HW1 6509   2.252   4.297   4.659
 1870SOL    HW2 6510   2.180   4.176   4.741
 1871SOL     OW 6511   1.647   0.453   0.698
 1871SOL    HW1 6512   1.648   0.399   0.782
 1871SOL    HW2 6513   1.614   0.396   0.622
 1872SOL     OW 6514   2.376   5.065   0.174
 1872SOL    HW1 6515   2.319   5.084   0.094
 1872SOL    HW2 6516   2.467   5.037   0.144
 1873SOL     OW 6517   5.468   0.940   0.690
 1873SOL    HW1 6518   5.447   1.011   0.757
 1873SOL    HW2 6519   5.487   0.854   0.738
 1874SOL     OW 6520   1.094   3.998   2.485
 1874SOL    HW1 6521   1.015   3.996   2.422
 1874SOL    HW2 6522   1.088   3.920   2.547
 1875SOL     OW 6523   1.379   0.234   1.098
 1875SOL    HW1 6524   1.290   0.217   1.055
 1875SOL    HW2 6525   1.400   0.161   1.163
 1876SOL     OW 6526   2.228   6.765   4.104
 1876SOL    HW1 6527   2.205   6.709   4.184
 1876SOL    HW2 6528   2.148   6.819   4.078
 1877SOL     OW 6529   0.401   0.295   3.729
 1877SOL    HW1 6530   0.355   0.371   3.775
 1877SOL    HW2 6531   0.379   0.209   3.775
 1878SOL     OW 6532   5.996   2.577   5.614
 1878SOL    HW1 6533   5.930   2.505   5.592
 1878SOL    HW2 6534   6.006   2.638   5.536
 1879SOL     OW 6535   1.928   4.638   5.665
 1879SOL    HW1 6536   1.878   4.554   5.643
 1879SOL    HW2 6537   2.004   4.617   5.726
 1880SOL     OW 6538   6.413   0.293   5.041
 1880SOL    HW1 6539   6.451   0.220   4.984
 1880SOL    HW2 6540   6.342   0.342   4.990
 1881SOL     OW 6541   0.311   2.780   6.978
 1881SOL    HW1 6542   0.343   2.871   6.953
 1881SOL    HW2 6543   0.228   2.788   0.009
 1882SOL     OW 6544   1.348   6.453   6.784
 1882SOL    HW1 6545   1.292   6.532   6.761
 1882SOL    HW2 6546   1.296   6.391   6.842
 1883SOL     OW 6547   0.457   2.138   4.187
 1883SOL    HW1 6548   0.426   2.184   4.104
 1883SOL    HW2 6549   0.453   2.039   4.173
 1884SOL     OW 6550   0.406   2.392   1.061
 1884SOL    HW1 6551   0.333   2.373   1.128
 1884SOL    HW2 6552   0.470   2.459   1.100
 1885SOL     OW 6553   2.375   0.941   4.557
 1885SOL    HW1 6554   2.381   0.852   4.512
 1885SOL    HW2 6555   2.452   0.952   4.620
 1886SOL     OW 6556   0.836   6.781   3.382
 1886SOL    HW1 6557   0.837   6.852   3.451
 1886SOL    HW2 6558   0.844   6.691   3.425
 1887SOL     OW 6559   3.002   6.332   6.123
 1887SOL    HW1 6560   3.065   6.255   6.118
 1887SOL    HW2 6561   2.909   6.298   6.135
 1888SOL     OW 6562   2.642   0.836   3.419
 1888SOL    HW1 6563   2.631   0.834   3.320
 1888SOL    HW2 6564   2.660   0.929   3.449
 1889SOL     OW 6565   0.520   3.530   2.315
 1889SOL    HW1 6566   0.548   3.597   2.383
 1889SOL    HW2 6567   0.516   3.439   2.357
 1890SOL     OW 6568   1.319   6.163   4.690
 1890SOL    HW1 6569   1.248   6.094   4.676
 1890SOL    HW2 6570   1.312   6.199   4.783
 1891SOL     OW 6571   3.211   3.591   3.312
 1891SOL    HW1 6572   3.198   3.680   3.357
 1891SOL    HW2 6573   3.221   3.604   3.214
 1892SOL     OW 6574   1.263   0.390   2.779
 1892SOL    HW1 6575   1.207   0.342   2.712
 1892SOL    HW2 6576   1.238   0.359   2.871
 1893SOL     OW 6577   4.147   3.476   4.485
 1893SOL    HW1 6578   4.115   3.557   4.438
 1893SOL    HW2 6579   4.146   3.492   4.584
 1894SOL     OW 6580   3.233   3.486   4.220
 1894SOL    HW1 6581   3.305   3.507   4.154
 1894SOL    HW2 6582   3.224   3.561   4.285
 1895SOL     OW 6583   1.752   5.965   0.204
 1895SOL    HW1 6584   1.763   5.949   0.106
 1895SOL    HW2 6585   1.723   5.880   0.248
 1896SOL     OW 6586   6.319   2.324   1.475
 1896SOL    HW1 6587   6.367   2.376   1.405
 1896SOL    HW2 6588   6.319   2.227   1.451
 1897SOL     OW 6589   1.221   4.547   4.252
 1897SOL    HW1 6590   1.213   4.587   4.161
 1897SOL    HW2 6591   1.216   4.619   4.321
 1898SOL     OW 6592   1.478   6.192   2.891
 1898SOL    HW1 6593   1.538   6.117   2.863
 1898SOL    HW2 6594   1.520   6.279   2.867
 1899SOL     OW 6595   0.213   1.134   2.081
 1899SOL    HW1 6596   0.190   1.167   2.172
 1899SOL    HW2 6597   0.131   1.102   2.035
 1900SOL     OW 6598   2.485   6.949   6.741
 1900SOL    HW1 6599   2.536   6.956   6.655
 1900SOL    HW2 6600   2.516   6.868   6.792
 1901SOL     OW 6601   2.816   3.656   1.781
 1901SOL    HW1 6602   2.771   3.745   1.780
 1901SOL    HW2 6603   2.915   3.669   1.787
 1902SOL     OW 6604   1.201   6.524   5.043
 1902SOL    HW1 6605   1.178   6.559   4.952
 1902SOL    HW2 6606   1.117   6.510   5.095
 1903SOL     OW 6607   1.078   1.848   4.256
 1903SOL    HW1 6608   0.988   1.823   4.221
 1903SOL    HW2 6609   1.146   1.839   4.184
 1904SOL     OW 6610   5.673   6.154   1.837
 1904SOL    HW1 6611   5.606   6.134   1.766
 1904SOL    HW2 6612   5.765   6.157   1.797
 1905SOL     OW 6613   0.612   1.711   3.920
 1905SOL    HW1 6614   0.577   1.626   3.880
 1905SOL    HW2 6615   0.703   1.730   3.884
 1906SOL     OW 6616   1.096   6.354   4.451
 1906SOL    HW1 6617   1.051   6.384   4.367
 1906SOL    HW2 6618   1.172   6.416   4.471
 1907SOL     OW 6619   4.876   3.194   0.489
 1907SOL    HW1 6620   4.867   3.097   0.512
 1907SOL    HW2 6621   4.970   3.213   0.461
 1908SOL     OW 6622   3.835   0.829   1.631
 1908SOL    HW1 6623   3.896   0.766   1.584
 1908SOL    HW2 6624   3.808   0.902   1.568
 1909SOL     OW 6625   6.276   5.397   4.819
 1909SOL    HW1 6626   6.282   5.365   4.725
 1909SOL    HW2 6627   6.184   5.381   4.855
 1910SOL     OW 6628   0.316   6.356   5.867
 1910SOL    HW1 6629   0.397   6.323   5.915
 1910SOL    HW2 6630   0.339   6.439   5.816
 1911SOL     OW 6631   6.211   5.873   4.092
 1911SOL    HW1 6632   6.229   5.932   4.014
 1911SOL    HW2 6633   6.176   5.927   4.169
 1912SOL     OW 6634   3.595   5.025   1.985
 1912SOL    HW1 6635   3.524   5.067   1.928
 1912SOL    HW2 6636   3.602   4.927   1.963
 1913SOL     OW 6637   3.259   4.262   7.000
 1913SOL    HW1 6638   3.179   4.211   0.006
 1913SOL    HW2 6639   3.255   4.355   0.013
 1914SOL     OW 6640   3.477   4.171   6.883
 1914SOL    HW1 6641   3.395   4.208   6.928
 1914SOL    HW2 6642   3.528   4.114   6.948
 1915SOL     OW 6643   3.360   2.958   6.675
 1915SOL    HW1 6644   3.306   2.947   6.759
 1915SOL    HW2 6645   3.305   3.002   6.605
 1916SOL     OW 6646   4.734   0.638   2.392
 1916SOL    HW1 6647   4.648   0.618   2.345
 1916SOL    HW2 6648   4.799   0.677   2.327
 1917SOL     OW 6649   1.979   4.215   1.594
 1917SOL    HW1 6650   2.054   4.154   1.569
 1917SOL    HW2 6651   2.014   4.287   1.654
 1918SOL     OW 6652   5.558   2.146   3.419
 1918SOL    HW1 6653   5.519   2.073   3.362
 1918SOL    HW2 6654   5.563   2.114   3.514
 1919SOL     OW 6655   6.343   2.199   6.113
 1919SOL    HW1 6656   6.403   2.159   6.044
 1919SOL    HW2 6657   6.391   2.274   6.159
 1920SOL     OW 6658   4.554   3.072   0.565
 1920SOL    HW1 6659   4.582   3.002   0.500
 1920SOL    HW2 6660   4.577   3.043   0.658
 1921SOL     OW 6661   2.395   2.190   0.358
 1921SOL    HW1 6662   2.454   2.122   0.403
 1921SOL    HW2 6663   2.339   2.236   0.426
 1922SOL     OW 6664   3.150   2.983   3.876
 1922SOL    HW1 6665   3.143   3.071   3.923
 1922SOL    HW2 6666   3.182   2.913   3.940
 1923SOL     OW 6667   3.184   0.515   4.247
 1923SOL    HW1 6668   3.102   0.560   4.213
 1923SOL    HW2 6669   3.265   0.562   4.210
 1924SOL     OW 6670   5.428   1.119   0.926
 1924SOL    HW1 6671   5.464   1.072   1.007
 1924SOL    HW2 6672   5.494   1.188   0.896
 1925SOL     OW 6673   0.996   4.202   1.240
 1925SOL    HW1 6674   1.045   4.217   1.154
 1925SOL    HW2 6675   1.062   4.200   1.316
 1926SOL     OW 6676   3.900   0.379   1.554
 1926SOL    HW1 6677   3.972   0.431   1.508
 1926SOL    HW2 6678   3.910   0.282   1.533
 1927SOL     OW 6679   2.155   5.216   1.356
 1927SOL    HW1 6680   2.241   5.192   1.312
 1927SOL    HW2 6681   2.162   5.307   1.397
 1928SOL     OW 6682   6.685   4.594   2.705
 1928SOL    HW1 6683   6.703   4.539   2.624
 1928SOL    HW2 6684   6.589   4.585   2.732
 1929SOL     OW 6685   3.283   6.684   3.221
 1929SOL    HW1 6686   3.380   6.698   3.238
 1929SOL    HW2 6687   3.245   6.624   3.292
 1930SOL     OW 6688   3.848   3.357   0.330
 1930SOL    HW1 6689   3.878   3.307   0.248
 1930SOL    HW2 6690   3.928   3.400   0.373
 1931SOL     OW 6691   6.954   2.899   3.797
 1931SOL    HW1 6692   6.955   2.800   3.782
 1931SOL    HW2 6693   6.867   2.926   3.838
 1932SOL     OW 6694   4.518   1.515   2.355
 1932SOL    HW1 6695   4.509   1.452   2.432
 1932SOL    HW2 6696   4.523   1.609   2.389
 1933SOL     OW 6697   1.490   1.156   1.463
 1933SOL    HW1 6698   1.571   1.100   1.480
 1933SOL    HW2 6699   1.507   1.216   1.385
 1934SOL     OW 6700   6.958   1.034   0.035
 1934SOL    HW1 6701   7.008   0.951   0.008
 1934SOL    HW2 6702   6.961   1.100   6.983
 1935SOL     OW 6703   6.041   5.338   3.419
 1935SOL    HW1 6704   6.014   5.398   3.494
 1935SOL    HW2 6705   5.960   5.293   3.381
 1936SOL     OW 6706   4.825   3.406   5.730
 1936SOL    HW1 6707   4.800   3.309   5.733
 1936SOL    HW2 6708   4.922   3.417   5.750
 1937SOL     OW 6709   6.600   4.994   6.535
 1937SOL    HW1 6710   6.567   5.019   6.444
 1937SOL    HW2 6711   6.523   4.975   6.595
 1938SOL     OW 6712   6.712   2.516   6.963
 1938SOL    HW1 6713   6.657   2.532   6.881
 1938SOL    HW2 6714   6.659   2.540   0.021
 1939SOL     OW 6715   0.237   0.599   4.376
 1939SOL    HW1 6716   0.281   0.532   4.436
 1939SOL    HW2 6717   0.307   0.651   4.328
 1940SOL     OW 6718   0.417   5.063   0.750
 1940SOL    HW1 6719   0.442   5.142   0.695
 1940SOL    HW2 6720   0.427   5.084   0.847
 1941SOL     OW 6721   5.817   1.497   4.654
 1941SOL    HW1 6722   5.793   1.416   4.600
 1941SOL    HW2 6723   5.744   1.515   4.720
 1942SOL     OW 6724   0.368   4.865   1.714
 1942SOL    HW1 6725   0.385   4.962   1.735
 1942SOL    HW2 6726   0.416   4.840   1.630
 1943SOL     OW 6727   0.561   3.003   3.791
 1943SOL    HW1 6728   0.655   2.971   3.784
 1943SOL    HW2 6729   0.559   3.094   3.833
 1944SOL     OW 6730   0.893   3.158   3.633
 1944SOL    HW1 6731   0.963   3.091   3.655
 1944SOL    HW2 6732   0.853   3.194   3.717
 1945SOL     OW 6733   5.278   1.558   1.577
 1945SOL    HW1 6734   5.320   1.473   1.611
 1945SOL    HW2 6735   5.204   1.535   1.513
 1946SOL     OW 6736   5.972   5.530   0.771
 1946SOL    HW1 6737   5.972   5.437   0.809
 1946SOL    HW2 6738   5.906   5.535   0.696
 1947SOL     OW 6739   6.197   5.130   2.898
 1947SOL    HW1 6740   6.163   5.036   2.896
 1947SOL    HW2 6741   6.238   5.149   2.988
 1948SOL     OW 6742   5.099   3.381   3.472
 1948SOL    HW1 6743   5.003   3.404   3.458
 1948SOL    HW2 6744   5.141   3.360   3.384
 1949SOL     OW 6745   3.247   4.023   6.743
 1949SOL    HW1 6746   3.265   3.945   6.684
 1949SOL    HW2 6747   3.332   4.054   6.785
 1950SOL     OW 6748   4.049   3.779   3.570
 1950SOL    HW1 6749   3.974   3.721   3.538
 1950SOL    HW2 6750   4.056   3.771   3.669
 1951SOL     OW 6751   6.357   5.310   5.744
 1951SOL    HW1 6752   6.352   5.214   5.718
 1951SOL    HW2 6753   6.430   5.355   5.694
 1952SOL     OW 6754   5.565   4.232   6.972
 1952SOL    HW1 6755   5.652   4.204   7.014
 1952SOL    HW2 6756   5.581   4.311   6.913
 1953SOL     OW 6757   1.043   0.982   0.321
 1953SOL    HW1 6758   0.993   1.066   0.342
 1953SOL    HW2 6759   1.125   1.005   0.269
 1954SOL     OW 6760   3.664   6.675   2.135
 1954SOL    HW1 6761   3.609   6.671   2.052
 1954SOL    HW2 6762   3.708   6.586   2.150
 1955SOL     OW 6763   6.580   2.530   4.207
 1955SOL    HW1 6764   6.657   2.585   4.173
 1955SOL    HW2 6765   6.573   2.447   4.153
 1956SOL     OW 6766   5.017   0.977   1.406
 1956SOL    HW1 6767   4.961   1.014   1.333
 1956SOL    HW2 6768   4.958   0.947   1.482
 1957SOL     OW 6769   6.451   2.515   4.465
 1957SOL    HW1 6770   6.461   2.553   4.373
 1957SOL    HW2 6771   6.541   2.506   4.507
 1958SOL     OW 6772   3.785   1.693   0.720
 1958SOL    HW1 6773   3.827   1.779   0.692
 1958SOL    HW2 6774   3.703   1.675   0.666
 1959SOL     OW 6775   1.409   1.787   5.935
 1959SOL    HW1 6776   1.472   1.744   6.000
 1959SOL    HW2 6777   1.445   1.776   5.842
 1960SOL     OW 6778   5.670   4.142   3.113
 1960SOL    HW1 6779   5.604   4.169   3.043
 1960SOL    HW2 6780   5.647   4.189   3.199
 1961SOL     OW 6781   0.562   3.854   4.416
 1961SOL    HW1 6782   0.613   3.940   4.426
 1961SOL    HW2 6783   0.470   3.866   4.453
 1962SOL     OW 6784   0.780   0.199   2.007
 1962SOL    HW1 6785   0.773   0.102   2.029
 1962SOL    HW2 6786   0.847   0.212   1.933
 1963SOL     OW 6787   1.119   3.008   0.167
 1963SOL    HW1 6788   1.052   2.934   0.171
 1963SOL    HW2 6789   1.149   3.021   0.072
 1964SOL     OW 6790   5.505   3.393   0.453
 1964SOL    HW1 6791   5.408   3.372   0.468
 1964SOL    HW2 6792   5.529   3.375   0.358
 1965SOL     OW 6793   6.098   4.486   3.619
 1965SOL    HW1 6794   6.027   4.430   3.575
 1965SOL    HW2 6795   6.116   4.450   3.711
 1966SOL     OW 6796   0.977   4.873   6.736
 1966SOL    HW1 6797   0.886   4.834   6.749
 1966SOL    HW2 6798   1.043   4.822   6.792
 1967SOL     OW 6799   6.700   3.335   5.000
 1967SOL    HW1 6800   6.685   3.237   4.986
 1967SOL    HW2 6801   6.624   3.373   5.052
 1968SOL     OW 6802   1.985   1.246   5.814
 1968SOL    HW1 6803   2.031   1.304   5.747
 1968SOL    HW2 6804   2.053   1.200   5.871
 1969SOL     OW 6805   1.186   5.865   0.511
 1969SOL    HW1 6806   1.149   5.784   0.466
 1969SOL    HW2 6807   1.254   5.838   0.578
 1970SOL     OW 6808   5.484   4.431   4.002
 1970SOL    HW1 6809   5.428   4.435   4.085
 1970SOL    HW2 6810   5.495   4.523   3.964
 1971SOL     OW 6811   1.763   4.595   4.601
 1971SOL    HW1 6812   1.810   4.518   4.557
 1971SOL    HW2 6813   1.665   4.576   4.607
 1972SOL     OW 6814   6.333   2.023   2.369
 1972SOL    HW1 6815   6.340   2.108   2.318
 1972SOL    HW2 6816   6.302   2.043   2.462
 1973SOL     OW 6817   3.486   2.106   1.125
 1973SOL    HW1 6818   3.506   2.019   1.081
 1973SOL    HW2 6819   3.410   2.095   1.188
 1974SOL     OW 6820   2.504   6.477   4.703
 1974SOL    HW1 6821   2.485   6.558   4.647
 1974SOL    HW2 6822   2.520   6.505   4.798
 1975SOL     OW 6823   1.985   2.790   2.609
 1975SOL    HW1 6824   2.031   2.712   2.566
 1975SOL    HW2 6825   1.920   2.829   2.543
 1976SOL     OW 6826   1.572   0.693   5.180
 1976SOL    HW1 6827   1.639   0.652   5.242
 1976SOL    HW2 6828   1.599   0.675   5.085
 1977SOL     OW 6829   1.388   3.550   6.738
 1977SOL    HW1 6830   1.399   3.453   6.758
 1977SOL    HW2 6831   1.456   3.603   6.789
 1978SOL     OW 6832   3.122   0.385   2.055
 1978SOL    HW1 6833   3.080   0.358   1.969
 1978SOL    HW2 6834   3.183   0.463   2.039
 1979SOL     OW 6835   5.650   4.484   6.548
 1979SOL    HW1 6836   5.739   4.470   6.503
 1979SOL    HW2 6837   5.580   4.500   6.479
 1980SOL     OW 6838   4.094   0.288   0.860
 1980SOL    HW1 6839   4.039   0.247   0.932
 1980SOL    HW2 6840   4.128   0.217   0.799
 1981SOL     OW 6841   4.253   2.045   2.279
 1981SOL    HW1 6842   4.204   1.992   2.210
 1981SOL    HW2 6843   4.348   2.056   2.251
 1982SOL     OW 6844   1.533   3.121   6.198
 1982SOL    HW1 6845   1.496   3.029   6.182
 1982SOL    HW2 6846   1.481   3.166   6.270
 1983SOL     OW 6847   6.450   1.422   1.933
 1983SOL    HW1 6848   6.390   1.353   1.893
 1983SOL    HW2 6849   6.481   1.392   2.023
 1984SOL     OW 6850   4.990   3.881   6.073
 1984SOL    HW1 6851   5.089   3.883   6.063
 1984SOL    HW2 6852   4.963   3.936   6.151
 1985SOL     OW 6853   6.113   4.533   3.907
 1985SOL    HW1 6854   6.024   4.508   3.946
 1985SOL    HW2 6855   6.166   4.450   3.888
 1986SOL     OW 6856   2.896   3.525   2.070
 1986SOL    HW1 6857   2.798   3.525   2.086
 1986SOL    HW2 6858   2.918   3.594   2.000
 1987SOL     OW 6859   2.706   0.839   2.031
 1987SOL    HW1 6860   2.777   0.780   2.069
 1987SOL    HW2 6861   2.646   0.871   2.104
 1988SOL     OW 6862   0.724   1.885   2.497
 1988SOL    HW1 6863   0.812   1.844   2.521
 1988SOL    HW2 6864   0.679   1.918   2.580
 1989SOL     OW 6865   2.666   5.715   5.033
 1989SOL    HW1 6866   2.763   5.691   5.040
 1989SOL    HW2 6867   2.616   5.678   5.111
 1990SOL     OW 6868   4.103   0.099   0.266
 1990SOL    HW1 6869   4.070   0.161   0.337
 1990SOL    HW2 6870   4.143   0.152   0.191
 1991SOL     OW 6871   2.499   5.477   1.949
 1991SOL    HW1 6872   2.424   5.437   2.001
 1991SOL    HW2 6873   2.464   5.550   1.890
 1992SOL     OW 6874   1.016   6.771   2.995
 1992SOL    HW1 6875   1.092   6.762   2.929
 1992SOL    HW2 6876   1.053   6.792   3.085
 1993SOL     OW 6877   2.020   1.734   2.849
 1993SOL    HW1 6878   2.070   1.767   2.768
 1993SOL    HW2 6879   1.925   1.717   2.824
 1994SOL     OW 6880   3.819   3.519   1.407
 1994SOL    HW1 6881   3.771   3.462   1.474
 1994SOL    HW2 6882   3.898   3.562   1.452
 1995SOL     OW 6883   5.752   1.641   4.226
 1995SOL    HW1 6884   5.838   1.612   4.185
 1995SOL    HW2 6885   5.693   1.679   4.155
 1996SOL     OW 6886   5.135   0.784   0.549
 1996SOL    HW1 6887   5.042   0.817   0.558
 1996SOL    HW2 6888   5.176   0.819   0.465
 1997SOL     OW 6889   3.624   1.237   4.004
 1997SOL    HW1 6890   3.574   1.304   3.949
 1997SOL    HW2 6891   3.568   1.155   4.016
 1998SOL     OW 6892   2.521   3.898   1.282
 1998SOL    HW1 6893   2.528   3.810   1.235
 1998SOL    HW2 6894   2.503   3.970   1.215
 1999SOL     OW 6895   0.592   6.627   6.697
 1999SOL    HW1 6896   0.592   6.656   6.601
 1999SOL    HW2 6897   0.590   6.527   6.702
 2000SOL     OW 6898   4.354   4.318   5.932
 2000SOL    HW1 6899   4.432   4.277   5.978
 2000SOL    HW2 6900   4.360   4.301   5.834
 2001SOL     OW 6901   1.515   2.302   0.811
 2001SOL    HW1 6902   1.528   2.254   0.898
 2001SOL    HW2 6903   1.454   2.380   0.824
 2002SOL     OW 6904   6.253   5.571   1.034
 2002SOL    HW1 6905   6.156   5.586   1.056
 2002SOL    HW2 6906   6.304   5.555   1.118
 2003SOL     OW 6907   5.861   5.581   1.527
 2003SOL    HW1 6908   5.834   5.639   1.450
 2003SOL    HW2 6909   5.948   5.614   1.565
 2004SOL     OW 6910   4.207   0.162   3.464
 2004SOL    HW1 6911   4.282   0.223   3.436
 2004SOL    HW2 6912   4.123   0.191   3.419
 2005SOL     OW 6913   1.267   6.804   0.286
 2005SOL    HW1 6914   1.296   6.891   0.246
 2005SOL    HW2 6915   1.321   6.730   0.246
 2006SOL     OW 6916   6.089   6.810   2.034
 2006SOL    HW1 6917   6.082   6.907   2.058
 2006SOL    HW2 6918   6.002   6.765   2.052
 2007SOL     OW 6919   5.738   5.090   5.848
 2007SOL    HW1 6920   5.812   5.055   5.906
 2007SOL    HW2 6921   5.652   5.047   5.875
 2008SOL     OW 6922   1.835   3.226   2.823
 2008SOL    HW1 6923   1.806   3.215   2.728
 2008SOL    HW2 6924   1.790   3.158   2.880
 2009SOL     OW 6925   6.256   7.019   2.678
 2009SOL    HW1 6926   6.227   0.073   2.621
 2009SOL    HW2 6927   6.177   6.980   2.724
 2010SOL     OW 6928   0.066   1.629   1.597
 2010SOL    HW1 6929   0.092   1.660   1.688
 2010SOL    HW2 6930   0.124   1.552   1.570
 2011SOL     OW 6931   0.948   6.854   4.898
 2011SOL    HW1 6932   0.932   6.924   4.967
 2011SOL    HW2 6933   1.046   6.841   4.885
 2012SOL     OW 6934   0.474   2.658   0.936
 2012SOL    HW1 6935   0.430   2.739   0.898
 2012SOL    HW2 6936   0.497   2.595   0.861
 2013SOL     OW 6937   0.628   2.384   2.419
 2013SOL    HW1 6938   0.688   2.308   2.396
 2013SOL    HW2 6939   0.587   2.421   2.335
 2014SOL     OW 6940   3.902   1.675   4.128
 2014SOL    HW1 6941   3.918   1.577   4.117
 2014SOL    HW2 6942   3.818   1.700   4.081
 2015SOL     OW 6943   3.794   6.422   2.133
 2015SOL    HW1 6944   3.808   6.377   2.222
 2015SOL    HW2 6945   3.719   6.377   2.085
 2016SOL     OW 6946   1.833   0.831   5.407
 2016SOL    HW1 6947   1.930   0.825   5.382
 2016SOL    HW2 6948   1.821   0.901   5.477
 2017SOL     OW 6949   2.916   6.512   4.024
 2017SOL    HW1 6950   2.904   6.609   4.046
 2017SOL    HW2 6951   2.827   6.468   4.014
 2018SOL     OW 6952   0.474   0.367   4.437
 2018SOL    HW1 6953   0.419   0.390   4.518
 2018SOL    HW2 6954   0.484   0.268   4.431
 2019SOL     OW 6955   6.710   5.049   6.940
 2019SOL    HW1 6956   6.656   5.131   6.958
 2019SOL    HW2 6957   6.698   4.985   7.016
 2020SOL     OW 6958   1.826   6.777   0.869
 2020SOL    HW1 6959   1.744   6.726   0.895
 2020SOL    HW2 6960   1.906   6.737   0.914
 2021SOL     OW 6961   0.263   5.937   4.470
 2021SOL    HW1 6962   0.326   6.009   4.441
 2021SOL    HW2 6963   0.245   5.946   4.568
 2022SOL     OW 6964   1.331   3.475   4.237
 2022SOL    HW1 6965   1.234   3.471   4.215
 2022SOL    HW2 6966   1.349   3.425   4.322
 2023SOL     OW 6967   6.655   5.671   6.825
 2023SOL    HW1 6968   6.570   5.621   6.811
 2023SOL    HW2 6969   6.637   5.769   6.821
 2024SOL     OW 6970   6.888   5.467   3.658
 2024SOL    HW1 6971   6.885   5.385   3.715
 2024SOL    HW2 6972   6.970   5.520   3.680
 2025SOL     OW 6973   1.678   6.164   4.488
 2025SOL    HW1 6974   1.735   6.228   4.539
 2025SOL    HW2 6975   1.736   6.096   4.443
 2026SOL     OW 6976   1.124   6.916   5.263
 2026SOL    HW1 6977   1.209   6.903   5.314
 2026SOL    HW2 6978   1.144   6.968   5.179
 2027SOL     OW 6979   6.878   6.004   2.342
 2027SOL    HW1 6980   6.926   5.917   2.331
 2027SOL    HW2 6981   6.805   5.993   2.410
 2028SOL     OW 6982   2.604   5.584   4.780
 2028SOL    HW1 6983   2.604   5.632   4.868
 2028SOL    HW2 6984   2.548   5.635   4.715
 2029SOL     OW 6985   6.147   2.528   6.933
 2029SOL    HW1 6986   6.232   2.545   6.983
 2029SOL    HW2 6987   6.145   2.433   6.901
 2030SOL     OW 6988   2.276   6.660   2.737
 2030SOL    HW1 6989   2.227   6.578   2.766
 2030SOL    HW2 6990   2.325   6.699   2.815
 2031SOL     OW 6991   0.387   6.280   5.387
 2031SOL    HW1 6992   0.446   6.341   5.334
 2031SOL    HW2 6993   0.440   6.237   5.460
 2032SOL     OW 6994   2.178   3.105   6.189
 2032SOL    HW1 6995   2.251   3.152   6.139
 2032SOL    HW2 6996   2.194   3.006   6.186
 2033SOL     OW 6997   2.357   1.230   1.019
 2033SOL    HW1 6998   2.378   1.328   1.027
 2033SOL    HW2 6999   2.306   1.200   1.100
 2034SOL     OW 7000   0.604   4.665   5.028
 2034SOL    HW1 7001   0.644   4.654   5.119
 2034SOL    HW2 7002   0.582   4.576   4.989
 2035SOL     OW 7003   5.596   5.532   2.844
 2035SOL    HW1 7004   5.523   5.469   2.818
 2035SOL    HW2 7005   5.555   5.619   2.874
 2036SOL     OW 7006   0.251   4.233   6.272
 2036SOL    HW1 7007   0.302   4.303   6.322
 2036SOL    HW2 7008   0.153   4.251   6.279
 2037SOL     OW 7009   1.135   2.811   6.605
 2037SOL    HW1 7010   1.179   2.781   6.690
 2037SOL    HW2 7011   1.051   2.758   6.591
 2038SOL     OW 7012   1.138   1.145   5.965
 2038SOL    HW1 7013   1.177   1.236   5.950
 2038SOL    HW2 7014   1.147   1.091   5.881
 2039SOL     OW 7015   5.764   5.717   3.164
 2039SOL    HW1 7016   5.804   5.750   3.078
 2039SOL    HW2 7017   5.678   5.765   3.181
 2040SOL     OW 7018   2.570   2.050   0.535
 2040SOL    HW1 7019   2.594   1.953   0.526
 2040SOL    HW2 7020   2.652   2.106   0.525
 2041SOL     OW 7021   2.355   6.691   0.208
 2041SOL    HW1 7022   2.436   6.700   0.266
 2041SOL    HW2 7023   2.307   6.606   0.231
 2042SOL     OW 7024   6.646   6.924   6.066
 2042SOL    HW1 7025   6.661   6.945   6.162
 2042SOL    HW2 7026   6.707   6.850   6.037
 2043SOL     OW 7027   0.506   4.231   0.211
 2043SOL    HW1 7028   0.574   4.271   0.151
 2043SOL    HW2 7029   0.545   4.152   0.258
 2044SOL     OW 7030   4.141   0.231   1.934
 2044SOL    HW1 7031   4.103   0.310   1.982
 2044SOL    HW2 7032   4.067   0.171   1.904
 2045SOL     OW 7033   2.041   6.010   3.834
 2045SOL    HW1 7034   2.091   6.001   3.747
 2045SOL    HW2 7035   1.943   5.997   3.817
 2046SOL     OW 7036   0.800   2.910   5.686
 2046SOL    HW1 7037   0.832   2.818   5.708
 2046SOL    HW2 7038   0.876   2.975   5.694
 2047SOL     OW 7039   6.400   6.715   1.755
 2047SOL    HW1 7040   6.426   6.808   1.729
 2047SOL    HW2 7041   6.384   6.660   1.673
 2048SOL     OW 7042   2.284   0.789   4.055
 2048SOL    HW1 7043   2.328   0.817   3.970
 2048SOL    HW2 7044   2.240   0.868   4.098
 2049SOL     OW 7045   4.867   2.799   5.511
 2049SOL    HW1 7046   4.828   2.714   5.478
 2049SOL    HW2 7047   4.822   2.876   5.467
 2050SOL     OW 7048   0.671   1.074   3.050
 2050SOL    HW1 7049   0.735   1.132   3.000
 2050SOL    HW2 7050   0.675   0.981   3.013
 2051SOL     OW 7051   2.861   6.769   6.795
 2051SOL    HW1 7052   2.858   6.868   6.781
 2051SOL    HW2 7053   2.816   6.746   6.881
 2052SOL     OW 7054   0.508   3.789   0.840
 2052SOL    HW1 7055   0.409   3.799   0.846
 2052SOL    HW2 7056   0.531   3.698   0.806
 2053SOL     OW 7057   6.143   4.850   2.874
 2053SOL    HW1 7058   6.069   4.824   2.936
 2053SOL    HW2 7059   6.116   4.834   2.780
 2054SOL     OW 7060   3.315   3.947   2.855
 2054SOL    HW1 7061   3.239   3.920   2.796
 2054SOL    HW2 7062   3.291   4.032   2.903
 2055SOL     OW 7063   3.976   2.684   5.573
 2055SOL    HW1 7064   4.031   2.674   5.656
 2055SOL    HW2 7065   4.037   2.702   5.496
 2056SOL     OW 7066   2.717   4.801   1.744
 2056SOL    HW1 7067   2.745   4.727   1.805
 2056SOL    HW2 7068   2.636   4.773   1.693
 2057SOL     OW 7069   5.738   2.755   4.171
 2057SOL    HW1 7070   5.658   2.810   4.148
 2057SOL    HW2 7071   5.789   2.733   4.088
 2058SOL     OW 7072   5.499   6.938   3.545
 2058SOL    HW1 7073   5.553   7.012   3.585
 2058SOL    HW2 7074   5.532   6.919   3.452
 2059SOL     OW 7075   2.228   2.316   5.605
 2059SOL    HW1 7076   2.294   2.312   5.529
 2059SOL    HW2 7077   2.203   2.223   5.632
 2060SOL     OW 7078   1.592   2.453   6.534
 2060SOL    HW1 7079   1.620   2.471   6.628
 2060SOL    HW2 7080   1.669   2.469   6.472
 2061SOL     OW 7081   1.984   2.039   3.783
 2061SOL    HW1 7082   2.039   2.118   3.758
 2061SOL    HW2 7083   2.037   1.955   3.768
 2062SOL     OW 7084   5.811   5.005   4.281
 2062SOL    HW1 7085   5.734   4.988   4.341
 2062SOL    HW2 7086   5.778   5.023   4.188
 2063SOL     OW 7087   1.100   1.862   3.908
 2063SOL    HW1 7088   1.013   1.819   3.933
 2063SOL    HW2 7089   1.175   1.817   3.958
 2064SOL     OW 7090   0.442   4.137   4.464
 2064SOL    HW1 7091   0.354   4.095   4.488
 2064SOL    HW2 7092   0.472   4.102   4.375
 2065SOL     OW 7093   3.870   3.578   5.485
 2065SOL    HW1 7094   3.883   3.678   5.486
 2065SOL    HW2 7095   3.772   3.558   5.483
 2066SOL     OW 7096   1.515   2.433   4.889
 2066SOL    HW1 7097   1.540   2.528   4.906
 2066SOL    HW2 7098   1.420   2.427   4.859
 2067SOL     OW 7099   6.510   4.562   2.418
 2067SOL    HW1 7100   6.485   4.470   2.447
 2067SOL    HW2 7101   6.459   4.629   2.472
 2068SOL     OW 7102   3.772   6.409   4.150
 2068SOL    HW1 7103   3.789   6.357   4.066
 2068SOL    HW2 7104   3.842   6.479   4.161
 2069SOL     OW 7105   6.368   1.226   3.593
 2069SOL    HW1 7106   6.438   1.274   3.645
 2069SOL    HW2 7107   6.290   1.206   3.652
 2070SOL     OW 7108   0.956   4.809   1.415
 2070SOL    HW1 7109   0.966   4.719   1.457
 2070SOL    HW2 7110   0.952   4.799   1.315
 2071SOL     OW 7111   6.743   2.553   4.860
 2071SOL    HW1 7112   6.837   2.583   4.878
 2071SOL    HW2 7113   6.738   2.454   4.866
 2072SOL     OW 7114   5.722   3.610   5.112
 2072SOL    HW1 7115   5.679   3.621   5.022
 2072SOL    HW2 7116   5.678   3.670   5.178
 2073SOL     OW 7117   3.401   5.246   6.508
 2073SOL    HW1 7118   3.350   5.320   6.553
 2073SOL    HW2 7119   3.478   5.285   6.457
 2074SOL     OW 7120   3.293   4.709   5.386
 2074SOL    HW1 7121   3.205   4.689   5.342
 2074SOL    HW2 7122   3.283   4.789   5.445
 2075SOL     OW 7123   5.442   2.179   1.603
 2075SOL    HW1 7124   5.418   2.239   1.526
 2075SOL    HW2 7125   5.361   2.163   1.659
 2076SOL     OW 7126   6.765   6.471   3.957
 2076SOL    HW1 7127   6.708   6.550   3.981
 2076SOL    HW2 7128   6.760   6.456   3.858
 2077SOL     OW 7129   6.866   4.393   0.712
 2077SOL    HW1 7130   6.838   4.355   0.624
 2077SOL    HW2 7131   6.877   4.493   0.704
 2078SOL     OW 7132   0.885   2.677   6.611
 2078SOL    HW1 7133   0.836   2.728   6.681
 2078SOL    HW2 7134   0.857   2.581   6.612
 2079SOL     OW 7135   5.431   1.553   2.913
 2079SOL    HW1 7136   5.365   1.627   2.908
 2079SOL    HW2 7137   5.520   1.586   2.882
 2080SOL     OW 7138   2.349   3.716   6.196
 2080SOL    HW1 7139   2.386   3.808   6.180
 2080SOL    HW2 7140   2.377   3.655   6.122
 2081SOL     OW 7141   0.517   6.100   2.481
 2081SOL    HW1 7142   0.544   6.026   2.543
 2081SOL    HW2 7143   0.599   6.148   2.450
 2082SOL     OW 7144   7.005   5.733   3.706
 2082SOL    HW1 7145   7.021   5.673   3.628
 2082SOL    HW2 7146   6.915   5.777   3.698
 2083SOL     OW 7147   0.433   5.789   4.113
 2083SOL    HW1 7148   0.353   5.763   4.058
 2083SOL    HW2 7149   0.433   5.888   4.126
 2084SOL     OW 7150   6.462   2.477   1.306
 2084SOL    HW1 7151   6.482   2.573   1.326
 2084SOL    HW2 7152   6.405   2.471   1.225
 2085SOL     OW 7153   6.148   5.863   0.277
 2085SOL    HW1 7154   6.242   5.831   0.264
 2085SOL    HW2 7155   6.148   5.943   0.338
 2086SOL     OW 7156   5.877   0.098   6.328
 2086SOL    HW1 7157   5.828   0.012   6.338
 2086SOL    HW2 7158   5.955   0.086   6.266
 2087SOL     OW 7159   4.638   1.172   6.964
 2087SOL    HW1 7160   4.666   1.264   6.990
 2087SOL    HW2 7161   4.719   1.115   6.947
 2088SOL     OW 7162   0.316   4.252   6.008
 2088SOL    HW1 7163   0.290   4.246   6.105
 2088SOL    HW2 7164   0.414   4.233   6.000
 2089SOL     OW 7165   2.770   4.867   5.686
 2089SOL    HW1 7166   2.835   4.821   5.747
 2089SOL    HW2 7167   2.820   4.915   5.614
 2090SOL     OW 7168   4.957   2.575   0.005
 2090SOL    HW1 7169   4.995   2.521   0.080
 2090SOL    HW2 7170   5.031   2.604   6.968
 2091SOL     OW 7171   5.188   6.406   1.097
 2091SOL    HW1 7172   5.240   6.481   1.057
 2091SOL    HW2 7173   5.190   6.327   1.035
 2092SOL     OW 7174   3.385   3.179   1.969
 2092SOL    HW1 7175   3.376   3.164   1.871
 2092SOL    HW2 7176   3.295   3.201   2.007
 2093SOL     OW 7177   4.700   0.095   0.542
 2093SOL    HW1 7178   4.681   0.041   0.459
 2093SOL    HW2 7179   4.688   0.037   0.622
 2094SOL     OW 7180   5.123   2.176   1.115
 2094SOL    HW1 7181   5.065   2.252   1.086
 2094SOL    HW2 7182   5.217   2.208   1.124
 2095SOL     OW 7183   5.371   4.992   4.139
 2095SOL    HW1 7184   5.337   4.908   4.096
 2095SOL    HW2 7185   5.293   5.043   4.177
 2096SOL     OW 7186   4.483   6.953   2.732
 2096SOL    HW1 7187   4.394   6.969   2.775
 2096SOL    HW2 7188   4.497   7.019   2.658
 2097SOL     OW 7189   0.925   5.925   5.699
 2097SOL    HW1 7190   0.987   5.957   5.627
 2097SOL    HW2 7191   0.830   5.937   5.669
 2098SOL     OW 7192   2.082   6.886   3.420
 2098SOL    HW1 7193   2.035   6.817   3.475
 2098SOL    HW2 7194   2.037   6.975   3.434
 2099SOL     OW 7195   4.465   1.448   0.126
 2099SOL    HW1 7196   4.486   1.462   0.030
 2099SOL    HW2 7197   4.550   1.443   0.179
 2100SOL     OW 7198   5.009   0.474   0.083
 2100SOL    HW1 7199   5.007   0.574   0.079
 2100SOL    HW2 7200   5.090   0.443   0.132
 2101SOL     OW 7201   2.023   0.583   2.428
 2101SOL    HW1 7202   1.948   0.619   2.373
 2101SOL    HW2 7203   2.095   0.652   2.436
 2102SOL     OW 7204   3.769   2.610   1.698
 2102SOL    HW1 7205   3.739   2.596   1.604
 2102SOL    HW2 7206   3.754   2.527   1.751
 2103SOL     OW 7207   1.455   0.153   0.764
 2103SOL    HW1 7208   1.360   0.134   0.790
 2103SOL    HW2 7209   1.517   0.108   0.828
 2104SOL     OW 7210   1.324   4.344   2.406
 2104SOL    HW1 7211   1.291   4.258   2.366
 2104SOL    HW2 7212   1.335   4.412   2.333
 2105SOL     OW 7213   5.381   6.962   5.045
 2105SOL    HW1 7214   5.420   6.930   4.958
 2105SOL    HW2 7215   5.319   6.892   5.081
 2106SOL     OW 7216   3.535   2.368   1.198
 2106SOL    HW1 7217   3.516   2.376   1.296
 2106SOL    HW2 7218   3.548   2.272   1.174
 2107SOL     OW 7219   4.909   4.288   4.618
 2107SOL    HW1 7220   4.948   4.273   4.709
 2107SOL    HW2 7221   4.971   4.251   4.549
 2108SOL     OW 7222   4.622   6.953   4.810
 2108SOL    HW1 7223   4.664   0.014   4.776
 2108SOL    HW2 7224   4.560   6.975   4.886
 2109SOL     OW 7225   2.447   5.714   1.859
 2109SOL    HW1 7226   2.385   5.761   1.922
 2109SOL    HW2 7227   2.541   5.743   1.876
 2110SOL     OW 7228   3.845   5.897   6.842
 2110SOL    HW1 7229   3.771   5.886   6.775
 2110SOL    HW2 7230   3.814   5.868   6.932
 2111SOL     OW 7231   0.842   2.409   0.021
 2111SOL    HW1 7232   0.816   2.419   0.117
 2111SOL    HW2 7233   0.887   2.493   7.013
 2112SOL     OW 7234   0.830   0.330   6.626
 2112SOL    HW1 7235   0.894   0.307   6.700
 2112SOL    HW2 7236   0.842   0.265   6.551
 2113SOL     OW 7237   6.733   1.786   4.935
 2113SOL    HW1 7238   6.717   1.757   5.029
 2113SOL    HW2 7239   6.678   1.868   4.916
 2114SOL     OW 7240   2.750   1.224   5.257
 2114SOL    HW1 7241   2.715   1.195   5.167
 2114SOL    HW2 7242   2.683   1.282   5.302
 2115SOL     OW 7243   6.999   6.331   3.527
 2115SOL    HW1 7244   7.020   6.255   3.466
 2115SOL    HW2 7245   6.940   6.300   3.601
 2116SOL     OW 7246   2.205   1.409   6.429
 2116SOL    HW1 7247   2.286   1.460   6.401
 2116SOL    HW2 7248   2.152   1.464   6.494
 2117SOL     OW 7249   6.023   2.672   2.209
 2117SOL    HW1 7250   6.005   2.695   2.113
 2117SOL    HW2 7251   6.120   2.687   2.229
 2118SOL     OW 7252   0.442   3.078   2.346
 2118SOL    HW1 7253   0.361   3.130   2.371
 2118SOL    HW2 7254   0.496   3.057   2.428
 2119SOL     OW 7255   1.061   3.281   0.496
 2119SOL    HW1 7256   1.070   3.238   0.586
 2119SOL    HW2 7257   0.974   3.255   0.455
 2120SOL     OW 7258   5.467   2.003   0.416
 2120SOL    HW1 7259   5.526   1.957   0.483
 2120SOL    HW2 7260   5.404   2.063   0.464
 2121SOL     OW 7261   2.623   6.578   1.435
 2121SOL    HW1 7262   2.616   6.484   1.469
 2121SOL    HW2 7263   2.569   6.639   1.492
 2122SOL     OW 7264   6.704   0.455   4.833
 2122SOL    HW1 7265   6.634   0.508   4.879
 2122SOL    HW2 7266   6.757   0.403   4.900
 2123SOL     OW 7267   1.199   4.760   3.244
 2123SOL    HW1 7268   1.164   4.752   3.338
 2123SOL    HW2 7269   1.145   4.701   3.184
 2124SOL     OW 7270   4.727   3.218   6.345
 2124SOL    HW1 7271   4.746   3.310   6.309
 2124SOL    HW2 7272   4.631   3.213   6.374
 2125SOL     OW 7273   1.087   5.948   4.752
 2125SOL    HW1 7274   1.148   5.935   4.831
 2125SOL    HW2 7275   1.102   5.874   4.686
 2126SOL     OW 7276   2.954   4.691   0.718
 2126SOL    HW1 7277   2.916   4.705   0.627
 2126SOL    HW2 7278   2.949   4.776   0.770
 2127SOL     OW 7279   1.291   3.783   4.558
 2127SOL    HW1 7280   1.319   3.695   4.596
 2127SOL    HW2 7281   1.191   3.787   4.551
 2128SOL     OW 7282   5.234   3.225   1.649
 2128SOL    HW1 7283   5.140   3.244   1.621
 2128SOL    HW2 7284   5.235   3.162   1.726
 2129SOL     OW 7285   5.531   4.015   3.930
 2129SOL    HW1 7286   5.475   4.024   4.012
 2129SOL    HW2 7287   5.507   4.089   3.866
 2130SOL     OW 7288   2.042   0.675   2.123
 2130SOL    HW1 7289   2.075   0.634   2.038
 2130SOL    HW2 7290   2.026   0.773   2.109
 2131SOL     OW 7291   6.073   0.766   6.721
 2131SOL    HW1 7292   6.060   0.671   6.692
 2131SOL    HW2 7293   6.013   0.786   6.798
 2132SOL     OW 7294   2.615   2.603   0.365
 2132SOL    HW1 7295   2.550   2.545   0.315
 2132SOL    HW2 7296   2.577   2.695   0.373
 2133SOL     OW 7297   4.251   2.569   1.766
 2133SOL    HW1 7298   4.203   2.491   1.807
 2133SOL    HW2 7299   4.290   2.542   1.679
 2134SOL     OW 7300   2.275   0.092   5.424
 2134SOL    HW1 7301   2.225   0.037   5.491
 2134SOL    HW2 7302   2.369   0.105   5.456
 2135SOL     OW 7303   1.027   6.109   4.314
 2135SOL    HW1 7304   1.062   6.108   4.221
 2135SOL    HW2 7305   1.082   6.172   4.370
 2136SOL     OW 7306   1.004   5.169   3.559
 2136SOL    HW1 7307   0.950   5.178   3.643
 2136SOL    HW2 7308   0.951   5.206   3.482
 2137SOL     OW 7309   0.474   0.123   4.631
 2137SOL    HW1 7310   0.502   0.049   4.692
 2137SOL    HW2 7311   0.375   0.123   4.622
 2138SOL     OW 7312   1.330   2.429   6.239
 2138SOL    HW1 7313   1.421   2.465   6.260
 2138SOL    HW2 7314   1.270   2.505   6.211
 2139SOL     OW 7315   2.845   6.728   4.558
 2139SOL    HW1 7316   2.875   6.790   4.630
 2139SOL    HW2 7317   2.813   6.642   4.600
 2140SOL     OW 7318   1.223   5.767   3.670
 2140SOL    HW1 7319   1.275   5.704   3.612
 2140SOL    HW2 7320   1.239   5.746   3.766
 2141SOL     OW 7321   6.769   1.735   6.457
 2141SOL    HW1 7322   6.715   1.726   6.373
 2141SOL    HW2 7323   6.854   1.683   6.448
 2142SOL     OW 7324   3.801   1.235   3.400
 2142SOL    HW1 7325   3.868   1.187   3.457
 2142SOL    HW2 7326   3.796   1.191   3.311
 2143SOL     OW 7327   3.062   5.744   0.588
 2143SOL    HW1 7328   3.135   5.707   0.529
 2143SOL    HW2 7329   2.982   5.684   0.583
 2144SOL     OW 7330   1.436   1.134   1.903
 2144SOL    HW1 7331   1.358   1.153   1.963
 2144SOL    HW2 7332   1.518   1.122   1.959
 2145SOL     OW 7333   2.619   5.481   3.024
 2145SOL    HW1 7334   2.622   5.503   2.927
 2145SOL    HW2 7335   2.662   5.554   3.076
 2146SOL     OW 7336   2.691   2.698   0.736
 2146SOL    HW1 7337   2.785   2.717   0.706
 2146SOL    HW2 7338   2.676   2.599   0.735
 2147SOL     OW 7339   0.219   0.398   5.183
 2147SOL    HW1 7340   0.207   0.491   5.147
 2147SOL    HW2 7341   0.216   0.401   5.283
 2148SOL     OW 7342   6.433   3.624   4.537
 2148SOL    HW1 7343   6.503   3.556   4.559
 2148SOL    HW2 7344   6.401   3.611   4.444
 2149SOL     OW 7345   3.085   0.427   3.192
 2149SOL    HW1 7346   3.104   0.365   3.268
 2149SOL    HW2 7347   2.989   0.456   3.196
 2150SOL     OW 7348   5.096   0.009   3.117
 2150SOL    HW1 7349   5.030   6.990   3.056
 2150SOL    HW2 7350   5.084   0.108   3.115
 2151SOL     OW 7351   4.955   4.874   6.142
 2151SOL    HW1 7352   4.883   4.872   6.211
 2151SOL    HW2 7353   4.962   4.785   6.098
 2152SOL     OW 7354   0.114   6.751   2.475
 2152SOL    HW1 7355   0.088   6.846   2.454
 2152SOL    HW2 7356   0.047   6.689   2.436
 2153SOL     OW 7357   4.690   1.612   3.942
 2153SOL    HW1 7358   4.660   1.697   3.985
 2153SOL    HW2 7359   4.643   1.600   3.855
 2154SOL     OW 7360   3.461   6.395   4.928
 2154SOL    HW1 7361   3.394   6.395   4.854
 2154SOL    HW2 7362   3.416   6.421   5.014
 2155SOL     OW 7363   5.772   3.498   0.450
 2155SOL    HW1 7364   5.721   3.438   0.388
 2155SOL    HW2 7365   5.767   3.461   0.543
 2156SOL     OW 7366   6.750   0.014   2.332
 2156SOL    HW1 7367   6.811   6.985   2.273
 2156SOL    HW2 7368   6.738   6.989   2.419
 2157SOL     OW 7369   5.987   1.089   4.131
 2157SOL    HW1 7370   5.940   1.155   4.188
 2157SOL    HW2 7371   5.939   1.080   4.043
 2158SOL     OW 7372   4.369   0.325   4.122
 2158SOL    HW1 7373   4.342   0.242   4.073
 2158SOL    HW2 7374   4.464   0.318   4.150
 2159SOL     OW 7375   2.536   0.517   5.252
 2159SOL    HW1 7376   2.520   0.614   5.265
 2159SOL    HW2 7377   2.458   0.465   5.288
 2160SOL     OW 7378   2.665   3.304   1.119
 2160SOL    HW1 7379   2.609   3.232   1.078
 2160SOL    HW2 7380   2.700   3.364   1.047
 2161SOL     OW 7381   4.856   2.775   3.931
 2161SOL    HW1 7382   4.821   2.682   3.940
 2161SOL    HW2 7383   4.832   2.828   4.012
 2162SOL     OW 7384   2.619   1.511   1.864
 2162SOL    HW1 7385   2.564   1.459   1.798
 2162SOL    HW2 7386   2.600   1.479   1.957
 2163SOL     OW 7387   3.035   1.846   1.105
 2163SOL    HW1 7388   3.037   1.746   1.101
 2163SOL    HW2 7389   2.940   1.877   1.111
 2164SOL     OW 7390   6.777   1.011   1.196
 2164SOL    HW1 7391   6.846   1.079   1.223
 2164SOL    HW2 7392   6.687   1.040   1.230
 2165SOL     OW 7393   2.936   0.285   1.847
 2165SOL    HW1 7394   2.867   0.357   1.841
 2165SOL    HW2 7395   2.920   0.218   1.775
 2166SOL     OW 7396   5.596   2.291   5.358
 2166SOL    HW1 7397   5.581   2.251   5.448
 2166SOL    HW2 7398   5.569   2.225   5.288
 2167SOL     OW 7399   3.317   1.275   0.923
 2167SOL    HW1 7400   3.275   1.186   0.904
 2167SOL    HW2 7401   3.405   1.281   0.876
 2168SOL     OW 7402   6.159   6.202   4.431
 2168SOL    HW1 7403   6.244   6.192   4.484
 2168SOL    HW2 7404   6.131   6.112   4.397
 2169SOL     OW 7405   5.580   1.336   5.818
 2169SOL    HW1 7406   5.491   1.291   5.810
 2169SOL    HW2 7407   5.626   1.335   5.729
 2170SOL     OW 7408   5.090   4.673   4.138
 2170SOL    HW1 7409   5.057   4.767   4.152
 2170SOL    HW2 7410   5.179   4.676   4.094
 2171SOL     OW 7411   0.075   3.822   0.117
 2171SOL    HW1 7412   0.126   3.886   0.059
 2171SOL    HW2 7413   7.004   3.853   0.126
 2172SOL     OW 7414   2.604   0.563   2.068
 2172SOL    HW1 7415   2.604   0.475   2.117
 2172SOL    HW2 7416   2.619   0.547   1.971
 2173SOL     OW 7417   4.521   2.550   4.864
 2173SOL    HW1 7418   4.524   2.538   4.963
 2173SOL    HW2 7419   4.480   2.469   4.822
 2174SOL     OW 7420   1.096   5.745   4.584
 2174SOL    HW1 7421   1.144   5.750   4.496
 2174SOL    HW2 7422   1.079   5.649   4.607
 2175SOL     OW 7423   1.672   6.630   5.859
 2175SOL    HW1 7424   1.665   6.663   5.765
 2175SOL    HW2 7425   1.581   6.621   5.898
 2176SOL     OW 7426   2.046   2.330   2.835
 2176SOL    HW1 7427   2.098   2.245   2.832
 2176SOL    HW2 7428   2.108   2.408   2.837
 2177SOL     OW 7429   1.364   1.911   1.226
 2177SOL    HW1 7430   1.436   1.966   1.270
 2177SOL    HW2 7431   1.291   1.893   1.292
 2178SOL     OW 7432   6.384   6.496   0.538
 2178SOL    HW1 7433   6.433   6.583   0.547
 2178SOL    HW2 7434   6.407   6.454   0.450
 2179SOL     OW 7435   2.232   4.054   3.934
 2179SOL    HW1 7436   2.310   4.109   3.904
 2179SOL    HW2 7437   2.221   3.976   3.873
 2180SOL     OW 7438   3.350   2.729   1.845
 2180SOL    HW1 7439   3.326   2.781   1.927
 2180SOL    HW2 7440   3.266   2.697   1.801
 2181SOL     OW 7441   3.764   6.686   1.437
 2181SOL    HW1 7442   3.776   6.710   1.533
 2181SOL    HW2 7443   3.789   6.590   1.423
 2182SOL     OW 7444   4.643   2.951   0.795
 2182SOL    HW1 7445   4.640   2.933   0.893
 2182SOL    HW2 7446   4.661   2.866   0.746
 2183SOL     OW 7447   3.613   2.482   0.976
 2183SOL    HW1 7448   3.674   2.551   1.015
 2183SOL    HW2 7449   3.567   2.433   1.049
 2184SOL     OW 7450   5.355   3.027   6.383
 2184SOL    HW1 7451   5.388   2.989   6.470
 2184SOL    HW2 7452   5.304   2.957   6.334
 2185SOL     OW 7453   6.904   6.898   2.159
 2185SOL    HW1 7454   6.947   6.926   2.073
 2185SOL    HW2 7455   6.831   6.832   2.140
 2186SOL     OW 7456   0.712   4.198   3.117
 2186SOL    HW1 7457   0.702   4.102   3.143
 2186SOL    HW2 7458   0.689   4.256   3.195
 2187SOL     OW 7459   6.483   1.462   0.300
 2187SOL    HW1 7460   6.540   1.402   0.244
 2187SOL    HW2 7461   6.407   1.410   0.339
 2188SOL     OW 7462   5.172   1.622   4.024
 2188SOL    HW1 7463   5.195   1.681   4.102
 2188SOL    HW2 7464   5.088   1.655   3.981
 2189SOL     OW 7465   3.407   0.009   0.102
 2189SOL    HW1 7466   3.332   0.055   0.150
 2189SOL    HW2 7467   3.434   0.064   0.023
 2190SOL     OW 7468   5.134   3.022   0.649
 2190SOL    HW1 7469   5.066   2.962   0.608
 2190SOL    HW2 7470   5.207   2.967   0.690
 2191SOL     OW 7471   2.944   1.240   6.914
 2191SOL    HW1 7472   2.995   1.236   6.828
 2191SOL    HW2 7473   2.898   1.328   6.922
 2192SOL     OW 7474   3.895   5.751   2.159
 2192SOL    HW1 7475   3.942   5.792   2.081
 2192SOL    HW2 7476   3.813   5.703   2.127
 2193SOL     OW 7477   6.706   6.232   4.674
 2193SOL    HW1 7478   6.734   6.306   4.614
 2193SOL    HW2 7479   6.771   6.156   4.666
 2194SOL     OW 7480   2.814   6.804   1.697
 2194SOL    HW1 7481   2.913   6.812   1.711
 2194SOL    HW2 7482   2.791   6.829   1.604
 2195SOL     OW 7483   0.657   4.534   1.968
 2195SOL    HW1 7484   0.697   4.444   1.946
 2195SOL    HW2 7485   0.614   4.530   2.058
 2196SOL     OW 7486   4.406   3.854   0.435
 2196SOL    HW1 7487   4.474   3.873   0.364
 2196SOL    HW2 7488   4.448   3.870   0.525
 2197SOL     OW 7489   4.390   3.432   0.076
 2197SOL    HW1 7490   4.454   3.490   0.026
 2197SOL    HW2 7491   4.394   3.455   0.174
 2198SOL     OW 7492   6.679   4.520   0.084
 2198SOL    HW1 7493   6.634   4.539   0.171
 2198SOL    HW2 7494   6.750   4.589   0.067
 2199SOL     OW 7495   4.204   1.220   3.396
 2199SOL    HW1 7496   4.141   1.159   3.444
 2199SOL    HW2 7497   4.154   1.270   3.325
 2200SOL     OW 7498   3.008   6.753   4.176
 2200SOL    HW1 7499   3.083   6.788   4.119
 2200SOL    HW2 7500   3.039   6.671   4.225
 2201SOL     OW 7501   4.634   4.361   4.151
 2201SOL    HW1 7502   4.637   4.329   4.246
 2201SOL    HW2 7503   4.675   4.451   4.145
 2202SOL     OW 7504   4.530   5.285   3.585
 2202SOL    HW1 7505   4.480   5.314   3.667
 2202SOL    HW2 7506   4.571   5.365   3.542
 2203SOL     OW 7507   2.864   2.068   2.695
 2203SOL    HW1 7508   2.848   1.971   2.712
 2203SOL    HW2 7509   2.957   2.092   2.723
 2204SOL     OW 7510   2.776   2.136   0.821
 2204SOL    HW1 7511   2.853   2.189   0.855
 2204SOL    HW2 7512   2.762   2.156   0.723
 2205SOL     OW 7513   3.400   1.247   2.473
 2205SOL    HW1 7514   3.437   1.297   2.552
 2205SOL    HW2 7515   3.384   1.312   2.398
 2206SOL     OW 7516   1.695   3.764   0.511
 2206SOL    HW1 7517   1.639   3.772   0.429
 2206SOL    HW2 7518   1.643   3.719   0.583
 2207SOL     OW 7519   6.469   4.984   5.096
 2207SOL    HW1 7520   6.439   4.909   5.037
 2207SOL    HW2 7521   6.411   4.987   5.178
 2208SOL     OW 7522   6.614   5.567   1.774
 2208SOL    HW1 7523   6.601   5.621   1.690
 2208SOL    HW2 7524   6.526   5.535   1.807
 2209SOL     OW 7525   0.068   6.356   1.575
 2209SOL    HW1 7526   0.162   6.321   1.571
 2209SOL    HW2 7527   0.063   6.442   1.525
 2210SOL     OW 7528   1.853   4.996   4.049
 2210SOL    HW1 7529   1.909   5.036   4.122
 2210SOL    HW2 7530   1.846   5.060   3.973
 2211SOL     OW 7531   6.937   1.594   5.164
 2211SOL    HW1 7532   0.001   1.583   5.211
 2211SOL    HW2 7533   6.953   1.616   5.068
 2212SOL     OW 7534   2.946   0.100   5.846
 2212SOL    HW1 7535   3.004   0.023   5.819
 2212SOL    HW2 7536   2.934   0.099   5.945
 2213SOL     OW 7537   4.887   0.271   3.156
 2213SOL    HW1 7538   4.951   0.312   3.221
 2213SOL    HW2 7539   4.923   0.279   3.063
 2214SOL     OW 7540   3.699   0.121   5.182
 2214SOL    HW1 7541   3.622   0.166   5.228
 2214SOL    HW2 7542   3.732   0.045   5.238
 2215SOL     OW 7543   5.955   2.224   5.418
 2215SOL    HW1 7544   5.905   2.285   5.480
 2215SOL    HW2 7545   6.023   2.173   5.469
 2216SOL     OW 7546   3.446   1.714   2.732
 2216SOL    HW1 7547   3.441   1.790   2.796
 2216SOL    HW2 7548   3.514   1.733   2.662
 2217SOL     OW 7549   3.595   0.346   1.675
 2217SOL    HW1 7550   3.512   0.389   1.710
 2217SOL    HW2 7551   3.658   0.417   1.643
 2218SOL     OW 7552   0.438   0.381   2.455
 2218SOL    HW1 7553   0.452   0.347   2.362
 2218SOL    HW2 7554   0.420   0.479   2.452
 2219SOL     OW 7555   2.917   1.953   2.984
 2219SOL    HW1 7556   2.979   1.904   3.045
 2219SOL    HW2 7557   2.938   2.051   2.985
 2220SOL     OW 7558   1.242   0.277   1.911
 2220SOL    HW1 7559   1.145   0.283   1.935
 2220SOL    HW2 7560   1.294   0.344   1.964
 2221SOL     OW 7561   0.389   0.138   5.661
 2221SOL    HW1 7562   0.464   0.187   5.705
 2221SOL    HW2 7563   0.308   0.141   5.719
 2222SOL     OW 7564   6.255   4.931   3.731
 2222SOL    HW1 7565   6.240   5.029   3.720
 2222SOL    HW2 7566   6.171   4.889   3.767
 2223SOL     OW 7567   6.726   6.521   1.544
 2223SOL    HW1 7568   6.817   6.557   1.524
 2223SOL    HW2 7569   6.729   6.468   1.629
 2224SOL     OW 7570   0.650   5.357   0.461
 2224SOL    HW1 7571   0.703   5.429   0.416
 2224SOL    HW2 7572   0.712   5.286   0.495
 2225SOL     OW 7573   0.226   4.037   0.296
 2225SOL    HW1 7574   0.285   3.977   0.243
 2225SOL    HW2 7575   0.276   4.119   0.323
 2226SOL     OW 7576   3.866   3.446   2.426
 2226SOL    HW1 7577   3.915   3.367   2.390
 2226SOL    HW2 7578   3.930   3.508   2.471
 2227SOL     OW 7579   0.753   2.022   4.211
 2227SOL    HW1 7580   0.704   1.986   4.290
 2227SOL    HW2 7581   0.691   2.077   4.155
 2228SOL     OW 7582   2.732   4.698   4.013
 2228SOL    HW1 7583   2.693   4.632   4.078
 2228SOL    HW2 7584   2.817   4.661   3.975
 2229SOL     OW 7585   6.452   6.276   3.006
 2229SOL    HW1 7586   6.520   6.206   3.029
 2229SOL    HW2 7587   6.492   6.367   3.021
 2230SOL     OW 7588   1.989   5.517   2.463
 2230SOL    HW1 7589   2.021   5.428   2.494
 2230SOL    HW2 7590   1.911   5.505   2.402
 2231SOL     OW 7591   2.236   5.696   1.161
 2231SOL    HW1 7592   2.144   5.728   1.139
 2231SOL    HW2 7593   2.247   5.601   1.133
 2232SOL     OW 7594   5.586   2.093   3.693
 2232SOL    HW1 7595   5.609   2.063   3.786
 2232SOL    HW2 7596   5.492   2.127   3.692
 2233SOL     OW 7597   3.291   1.499   0.047
 2233SOL    HW1 7598   3.376   1.453   0.074
 2233SOL    HW2 7599   3.283   1.498   6.971
 2234SOL     OW 7600   3.843   2.779   1.243
 2234SOL    HW1 7601   3.851   2.702   1.306
 2234SOL    HW2 7602   3.805   2.748   1.156
 2235SOL     OW 7603   2.143   1.818   2.606
 2235SOL    HW1 7604   2.174   1.798   2.513
 2235SOL    HW2 7605   2.085   1.898   2.606
 2236SOL     OW 7606   1.079   4.482   5.265
 2236SOL    HW1 7607   1.047   4.576   5.268
 2236SOL    HW2 7608   1.171   4.479   5.228
 2237SOL     OW 7609   6.657   2.818   4.374
 2237SOL    HW1 7610   6.643   2.917   4.381
 2237SOL    HW2 7611   6.639   2.777   4.463
 2238SOL     OW 7612   5.331   6.434   0.231
 2238SOL    HW1 7613   5.308   6.340   0.256
 2238SOL    HW2 7614   5.382   6.434   0.145
 2239SOL     OW 7615   6.125   5.686   1.636
 2239SOL    HW1 7616   6.084   5.756   1.695
 2239SOL    HW2 7617   6.195   5.636   1.687
 2240SOL     OW 7618   6.160   3.922   1.784
 2240SOL    HW1 7619   6.232   3.991   1.786
 2240SOL    HW2 7620   6.165   3.866   1.866
 2241SOL     OW 7621   1.205   0.311   3.866
 2241SOL    HW1 7622   1.279   0.309   3.799
 2241SOL    HW2 7623   1.234   0.363   3.946
 2242SOL     OW 7624   2.892   1.375   3.081
 2242SOL    HW1 7625   2.863   1.391   2.987
 2242SOL    HW2 7626   2.989   1.352   3.082
 2243SOL     OW 7627   2.170   0.159   4.850
 2243SOL    HW1 7628   2.090   0.100   4.844
 2243SOL    HW2 7629   2.209   0.172   4.759
 2244SOL     OW 7630   4.108   0.724   5.077
 2244SOL    HW1 7631   4.092   0.679   5.165
 2244SOL    HW2 7632   4.168   0.666   5.021
 2245SOL     OW 7633   0.263   2.222   2.207
 2245SOL    HW1 7634   0.308   2.191   2.291
 2245SOL    HW2 7635   0.184   2.278   2.231
 2246SOL     OW 7636   0.865   4.309   5.307
 2246SOL    HW1 7637   0.950   4.362   5.303
 2246SOL    HW2 7638   0.859   4.249   5.227
 2247SOL     OW 7639   1.728   1.256   4.635
 2247SOL    HW1 7640   1.750   1.176   4.579
 2247SOL    HW2 7641   1.724   1.229   4.731
 2248SOL     OW 7642   5.472   4.310   5.924
 2248SOL    HW1 7643   5.543   4.369   5.963
 2248SOL    HW2 7644   5.511   4.220   5.903
 2249SOL     OW 7645   4.999   5.685   5.481
 2249SOL    HW1 7646   4.988   5.782   5.462
 2249SOL    HW2 7647   5.083   5.670   5.533
 2250SOL     OW 7648   4.686   5.018   1.710
 2250SOL    HW1 7649   4.631   5.045   1.631
 2250SOL    HW2 7650   4.627   4.978   1.780
 2251SOL     OW 7651   0.406   0.979   5.917
 2251SOL    HW1 7652   0.384   1.032   5.999
 2251SOL    HW2 7653   0.439   1.041   5.845
 2252SOL     OW 7654   3.592   0.907   6.601
 2252SOL    HW1 7655   3.536   0.989   6.608
 2252SOL    HW2 7656   3.535   0.829   6.575
 2253SOL     OW 7657   0.713   4.137   0.040
 2253SOL    HW1 7658   0.661   4.157   6.981
 2253SOL    HW2 7659   0.710   4.039   0.059
 2254SOL     OW 7660   1.971   5.121   6.423
 2254SOL    HW1 7661   1.884   5.148   6.382
 2254SOL    HW2 7662   2.024   5.203   6.446
 2255SOL     OW 7663   6.532   3.723   6.744
 2255SOL    HW1 7664   6.599   3.769   6.801
 2255SOL    HW2 7665   6.444   3.772   6.749
 2256SOL     OW 7666   2.575   5.019   1.851
 2256SOL    HW1 7667   2.617   5.108   1.831
 2256SOL    HW2 7668   2.628   4.947   1.805
 2257SOL     OW 7669   1.437   4.171   5.149
 2257SOL    HW1 7670   1.447   4.110   5.228
 2257SOL    HW2 7671   1.418   4.116   5.068
 2258SOL     OW 7672   1.967   5.539   5.025
 2258SOL    HW1 7673   2.000   5.445   5.025
 2258SOL    HW2 7674   1.944   5.567   4.932
 2259SOL     OW 7675   6.202   2.049   6.369
 2259SOL    HW1 7676   6.227   1.955   6.347
 2259SOL    HW2 7677   6.242   2.111   6.301
 2260SOL     OW 7678   3.980   3.265   0.593
 2260SOL    HW1 7679   4.037   3.273   0.511
 2260SOL    HW2 7680   4.035   3.283   0.674
 2261SOL     OW 7681   2.371   5.760   5.202
 2261SOL    HW1 7682   2.340   5.740   5.295
 2261SOL    HW2 7683   2.349   5.683   5.142
 2262SOL     OW 7684   3.340   1.731   2.997
 2262SOL    HW1 7685   3.342   1.665   2.922
 2262SOL    HW2 7686   3.250   1.774   3.001
 2263SOL     OW 7687   1.005   4.573   5.888
 2263SOL    HW1 7688   0.969   4.505   5.825
 2263SOL    HW2 7689   0.942   4.583   5.965
 2264SOL     OW 7690   3.819   3.690   3.443
 2264SOL    HW1 7691   3.862   3.726   3.360
 2264SOL    HW2 7692   3.723   3.717   3.446
 2265SOL     OW 7693   0.823   6.833   3.765
 2265SOL    HW1 7694   0.821   6.886   3.680
 2265SOL    HW2 7695   0.903   6.773   3.765
 2266SOL     OW 7696   0.054   0.430   5.958
 2266SOL    HW1 7697   0.092   0.454   5.869
 2266SOL    HW2 7698   0.126   0.432   6.027
 2267SOL     OW 7699   5.590   1.772   5.304
 2267SOL    HW1 7700   5.536   1.694   5.272
 2267SOL    HW2 7701   5.669   1.739   5.356
 2268SOL     OW 7702   6.743   5.668   0.201
 2268SOL    HW1 7703   6.740   5.739   0.272
 2268SOL    HW2 7704   6.794   5.702   0.122
 2269SOL     OW 7705   0.170   6.967   2.850
 2269SOL    HW1 7706   0.246   6.955   2.785
 2269SOL    HW2 7707   0.185   6.908   2.929
 2270SOL     OW 7708   3.558   3.144   3.492
 2270SOL    HW1 7709   3.531   3.232   3.452
 2270SOL    HW2 7710   3.491   3.074   3.468
 2271SOL     OW 7711   1.418   4.606   3.140
 2271SOL    HW1 7712   1.487   4.678   3.131
 2271SOL    HW2 7713   1.340   4.642   3.191
 2272SOL     OW 7714   5.261   0.901   5.508
 2272SOL    HW1 7715   5.245   0.970   5.579
 2272SOL    HW2 7716   5.201   0.823   5.522
 2273SOL     OW 7717   0.732   1.478   2.369
 2273SOL    HW1 7718   0.692   1.517   2.286
 2273SOL    HW2 7719   0.681   1.397   2.396
 2274SOL     OW 7720   0.854   4.217   3.723
 2274SOL    HW1 7721   0.854   4.147   3.652
 2274SOL    HW2 7722   0.923   4.195   3.792
 2275SOL     OW 7723   4.893   6.188   3.462
 2275SOL    HW1 7724   4.858   6.192   3.556
 2275SOL    HW2 7725   4.955   6.111   3.453
 2276SOL     OW 7726   3.346   5.660   2.156
 2276SOL    HW1 7727   3.369   5.654   2.254
 2276SOL    HW2 7728   3.270   5.598   2.136
 2277SOL     OW 7729   3.272   2.989   2.306
 2277SOL    HW1 7730   3.207   3.000   2.381
 2277SOL    HW2 7731   3.365   2.983   2.344
 2278SOL     OW 7732   3.990   5.518   1.273
 2278SOL    HW1 7733   3.969   5.602   1.225
 2278SOL    HW2 7734   3.929   5.445   1.242
 2279SOL     OW 7735   5.635   4.090   5.802
 2279SOL    HW1 7736   5.620   4.008   5.856
 2279SOL    HW2 7737   5.605   4.074   5.708
 2280SOL     OW 7738   5.726   0.363   6.215
 2280SOL    HW1 7739   5.716   0.344   6.313
 2280SOL    HW2 7740   5.788   0.295   6.175
 2281SOL     OW 7741   2.112   1.221   0.158
 2281SOL    HW1 7742   2.162   1.145   0.200
 2281SOL    HW2 7743   2.072   1.190   0.072
 2282SOL     OW 7744   4.084   6.007   2.691
 2282SOL    HW1 7745   4.108   6.088   2.639
 2282SOL    HW2 7746   4.167   5.957   2.715
 2283SOL     OW 7747   0.799   3.261   1.394
 2283SOL    HW1 7748   0.888   3.232   1.357
 2283SOL    HW2 7749   0.806   3.269   1.494
 2284SOL     OW 7750   2.272   2.331   1.318
 2284SOL    HW1 7751   2.319   2.411   1.355
 2284SOL    HW2 7752   2.177   2.331   1.351
 2285SOL     OW 7753   1.509   3.264   6.642
 2285SOL    HW1 7754   1.586   3.202   6.627
 2285SOL    HW2 7755   1.479   3.301   6.554
 2286SOL     OW 7756   6.666   6.921   4.154
 2286SOL    HW1 7757   6.575   6.947   4.185
 2286SOL    HW2 7758   6.727   7.001   4.160
 2287SOL     OW 7759   2.631   1.899   0.848
 2287SOL    HW1 7760   2.535   1.910   0.821
 2287SOL    HW2 7761   2.677   1.988   0.845
 2288SOL     OW 7762   2.681   5.911   4.391
 2288SOL    HW1 7763   2.702   6.008   4.373
 2288SOL    HW2 7764   2.752   5.854   4.351
 2289SOL     OW 7765   4.131   0.232   6.852
 2289SOL    HW1 7766   4.034   0.212   6.842
 2289SOL    HW2 7767   4.147   0.328   6.830
 2290SOL     OW 7768   3.290   3.297   4.650
 2290SOL    HW1 7769   3.334   3.235   4.715
 2290SOL    HW2 7770   3.194   3.271   4.638
 2291SOL     OW 7771   2.674   2.244   0.255
 2291SOL    HW1 7772   2.652   2.322   0.313
 2291SOL    HW2 7773   2.729   2.274   0.177
 2292SOL     OW 7774   4.735   2.239   3.429
 2292SOL    HW1 7775   4.652   2.228   3.483
 2292SOL    HW2 7776   4.813   2.256   3.489
 2293SOL     OW 7777   0.834   1.047   6.621
 2293SOL    HW1 7778   0.759   1.103   6.587
 2293SOL    HW2 7779   0.858   1.075   6.714
 2294SOL     OW 7780   6.192   2.075   5.104
 2294SOL    HW1 7781   6.226   2.090   5.197
 2294SOL    HW2 7782   6.110   2.018   5.107
 2295SOL     OW 7783   5.258   6.157   0.252
 2295SOL    HW1 7784   5.297   6.149   0.343
 2295SOL    HW2 7785   5.168   6.114   0.251
 2296SOL     OW 7786   3.682   5.482   5.025
 2296SOL    HW1 7787   3.625   5.564   5.024
 2296SOL    HW2 7788   3.637   5.411   4.971
 2297SOL     OW 7789   6.020   2.947   6.345
 2297SOL    HW1 7790   5.924   2.963   6.368
 2297SOL    HW2 7791   6.069   2.919   6.428
 2298SOL     OW 7792   2.679   3.788   5.459
 2298SOL    HW1 7793   2.689   3.831   5.549
 2298SOL    HW2 7794   2.671   3.860   5.389
 2299SOL     OW 7795   5.874   3.642   4.703
 2299SOL    HW1 7796   5.893   3.588   4.784
 2299SOL    HW2 7797   5.959   3.680   4.667
 2300SOL     OW 7798   5.046   0.036   2.785
 2300SOL    HW1 7799   5.135   0.071   2.755
 2300SOL    HW2 7800   5.044   6.960   2.774
 2301SOL     OW 7801   3.886   3.214   5.383
 2301SOL    HW1 7802   3.825   3.203   5.462
 2301SOL    HW2 7803   3.833   3.210   5.299
 2302SOL     OW 7804   6.425   3.882   5.752
 2302SOL    HW1 7805   6.441   3.979   5.772
 2302SOL    HW2 7806   6.497   3.848   5.692
 2303SOL     OW 7807   2.598   1.756   6.560
 2303SOL    HW1 7808   2.541   1.838   6.561
 2303SOL    HW2 7809   2.686   1.777   6.518
 2304SOL     OW 7810   6.079   0.032   2.092
 2304SOL    HW1 7811   6.025   0.102   2.139
 2304SOL    HW2 7812   6.163   0.073   2.056
 2305SOL     OW 7813   3.009   6.843   5.164
 2305SOL    HW1 7814   2.910   6.847   5.151
 2305SOL    HW2 7815   3.055   6.862   5.076
 2306SOL     OW 7816   0.789   4.351   4.707
 2306SOL    HW1 7817   0.841   4.273   4.742
 2306SOL    HW2 7818   0.846   4.406   4.647
 2307SOL     OW 7819   6.185   3.873   4.949
 2307SOL    HW1 7820   6.133   3.846   4.868
 2307SOL    HW2 7821   6.146   3.956   4.988
 2308SOL     OW 7822   0.999   6.042   1.823
 2308SOL    HW1 7823   0.967   5.991   1.742
 2308SOL    HW2 7824   1.070   5.989   1.869
 2309SOL     OW 7825   2.424   0.527   4.891
 2309SOL    HW1 7826   2.489   0.542   4.816
 2309SOL    HW2 7827   2.465   0.465   4.958
 2310SOL     OW 7828   4.174   6.484   0.098
 2310SOL    HW1 7829   4.152   6.458   0.193
 2310SOL    HW2 7830   4.181   6.402   0.042
 2311SOL     OW 7831   2.331   5.769   0.686
 2311SOL    HW1 7832   2.300   5.863   0.704
 2311SOL    HW2 7833   2.285   5.706   0.749
 2312SOL     OW 7834   2.851   4.783   3.169
 2312SOL    HW1 7835   2.878   4.879   3.182
 2312SOL    HW2 7836   2.807   4.750   3.253
 2313SOL     OW 7837   4.409   5.177   1.718
 2313SOL    HW1 7838   4.426   5.147   1.812
 2313SOL    HW2 7839   4.344   5.253   1.719
 2314SOL     OW 7840   2.377   4.354   3.296
 2314SOL    HW1 7841   2.288   4.356   3.340
 2314SOL    HW2 7842   2.386   4.431   3.233
 2315SOL     OW 7843   4.598   2.030   6.480
 2315SOL    HW1 7844   4.588   2.086   6.562
 2315SOL    HW2 7845   4.519   1.970   6.470
 2316SOL     OW 7846   4.868   3.235   1.737
 2316SOL    HW1 7847   4.928   3.176   1.791
 2316SOL    HW2 7848   4.794   3.180   1.698
 2317SOL     OW 7849   0.928   5.868   3.855
 2317SOL    HW1 7850   0.907   5.773   3.834
 2317SOL    HW2 7851   0.958   5.915   3.771
 2318SOL     OW 7852   6.984   1.469   3.518
 2318SOL    HW1 7853   7.021   1.407   3.449
 2318SOL    HW2 7854   0.024   1.475   3.595
 2319SOL     OW 7855   1.442   4.968   1.505
 2319SOL    HW1 7856   1.402   4.889   1.458
 2319SOL    HW2 7857   1.469   5.037   1.438
 2320SOL     OW 7858   6.293   4.624   4.262
 2320SOL    HW1 7859   6.297   4.528   4.233
 2320SOL    HW2 7860   6.206   4.664   4.234
 2321SOL     OW 7861   3.688   4.912   4.159
 2321SOL    HW1 7862   3.718   5.008   4.163
 2321SOL    HW2 7863   3.609   4.899   4.217
 2322SOL     OW 7864   2.764   0.908   4.621
 2322SOL    HW1 7865   2.705   0.958   4.685
 2322SOL    HW2 7866   2.843   0.964   4.598
 2323SOL     OW 7867   5.070   3.454   1.848
 2323SOL    HW1 7868   5.078   3.553   1.864
 2323SOL    HW2 7869   5.082   3.436   1.750
 2324SOL     OW 7870   0.383   5.484   3.837
 2324SOL    HW1 7871   0.361   5.573   3.798
 2324SOL    HW2 7872   0.419   5.496   3.929
 2325SOL     OW 7873   0.012   2.513   0.213
 2325SOL    HW1 7874   0.074   2.591   0.208
 2325SOL    HW2 7875   0.065   2.429   0.220
 2326SOL     OW 7876   0.403   4.622   0.762
 2326SOL    HW1 7877   0.425   4.661   0.673
 2326SOL    HW2 7878   0.314   4.577   0.758
 2327SOL     OW 7879   4.967   1.189   3.245
 2327SOL    HW1 7880   4.903   1.209   3.318
 2327SOL    HW2 7881   4.966   1.091   3.225
 2328SOL     OW 7882   6.291   5.223   3.727
 2328SOL    HW1 7883   6.308   5.280   3.647
 2328SOL    HW2 7884   6.315   5.274   3.810
 2329SOL     OW 7885   1.244   6.285   3.266
 2329SOL    HW1 7886   1.339   6.301   3.292
 2329SOL    HW2 7887   1.241   6.244   3.175
 2330SOL     OW 7888   1.280   4.505   0.154
 2330SOL    HW1 7889   1.206   4.481   0.092
 2330SOL    HW2 7890   1.366   4.512   0.103
 2331SOL     OW 7891   0.826   4.957   5.139
 2331SOL    HW1 7892   0.891   4.963   5.064
 2331SOL    HW2 7893   0.749   5.019   5.121
 2332SOL     OW 7894   6.079   3.370   5.699
 2332SOL    HW1 7895   6.127   3.427   5.632
 2332SOL    HW2 7896   6.115   3.388   5.791
 2333SOL     OW 7897   2.409   4.867   3.398
 2333SOL    HW1 7898   2.408   4.768   3.385
 2333SOL    HW2 7899   2.403   4.888   3.495
 2334SOL     OW 7900   2.288   0.577   5.948
 2334SOL    HW1 7901   2.235   0.608   5.869
 2334SOL    HW2 7902   2.294   0.477   5.947
 2335SOL     OW 7903   4.816   4.616   4.179
 2335SOL    HW1 7904   4.916   4.605   4.180
 2335SOL    HW2 7905   4.789   4.679   4.251
 2336SOL     OW 7906   4.046   2.189   5.677
 2336SOL    HW1 7907   4.064   2.114   5.613
 2336SOL    HW2 7908   3.967   2.242   5.645
 2337SOL     OW 7909   5.613   0.674   4.589
 2337SOL    HW1 7910   5.685   0.650   4.655
 2337SOL    HW2 7911   5.655   0.701   4.503
 2338SOL     OW 7912   1.232   0.047   6.723
 2338SOL    HW1 7913   1.290   0.001   6.790
 2338SOL    HW2 7914   1.288   0.081   6.648
 2339SOL     OW 7915   4.149   4.757   0.024
 2339SOL    HW1 7916   4.196   4.841   7.020
 2339SOL    HW2 7917   4.057   4.755   7.009
 2340SOL     OW 7918   3.566   5.316   4.793
 2340SOL    HW1 7919   3.586   5.232   4.743
 2340SOL    HW2 7920   3.467   5.325   4.804
 2341SOL     OW 7921   6.427   4.899   6.726
 2341SOL    HW1 7922   6.343   4.846   6.732
 2341SOL    HW2 7923   6.445   4.944   6.813
 2342SOL     OW 7924   6.681   1.442   5.836
 2342SOL    HW1 7925   6.734   1.369   5.792
 2342SOL    HW2 7926   6.591   1.406   5.861
 2343SOL     OW 7927   1.574   6.554   0.431
 2343SOL    HW1 7928   1.514   6.529   0.507
 2343SOL    HW2 7929   1.615   6.644   0.450
 2344SOL     OW 7930   2.734   0.815   2.873
 2344SOL    HW1 7931   2.808   0.794   2.809
 2344SOL    HW2 7932   2.651   0.767   2.846
 2345SOL     OW 7933   1.128   2.035   2.061
 2345SOL    HW1 7934   1.054   1.974   2.032
 2345SOL    HW2 7935   1.125   2.048   2.160
 2346SOL     OW 7936   4.732   3.005   5.413
 2346SOL    HW1 7937   4.672   3.084   5.430
 2346SOL    HW2 7938   4.790   3.024   5.334
 2347SOL     OW 7939   1.681   4.000   0.656
 2347SOL    HW1 7940   1.702   3.919   0.602
 2347SOL    HW2 7941   1.760   4.025   0.712
 2348SOL     OW 7942   2.510   6.913   1.400
 2348SOL    HW1 7943   2.472   6.869   1.319
 2348SOL    HW2 7944   2.457   6.995   1.422
 2349SOL     OW 7945   5.293   3.356   6.679
 2349SOL    HW1 7946   5.303   3.446   6.639
 2349SOL    HW2 7947   5.383   3.322   6.709
 2350SOL     OW 7948   1.834   6.379   4.613
 2350SOL    HW1 7949   1.832   6.383   4.713
 2350SOL    HW2 7950   1.915   6.428   4.580
 2351SOL     OW 7951   1.470   4.832   2.337
 2351SOL    HW1 7952   1.396   4.767   2.329
 2351SOL    HW2 7953   1.501   4.859   2.245
 2352SOL     OW 7954   5.607   5.480   0.386
 2352SOL    HW1 7955   5.552   5.403   0.418
 2352SOL    HW2 7956   5.638   5.462   0.292
 2353SOL     OW 7957   2.428   3.153   6.089
 2353SOL    HW1 7958   2.463   3.241   6.055
 2353SOL    HW2 7959   2.426   3.088   6.013
 2354SOL     OW 7960   4.225   1.746   2.363
 2354SOL    HW1 7961   4.242   1.806   2.441
 2354SOL    HW2 7962   4.128   1.744   2.342
 2355SOL     OW 7963   0.690   1.541   1.697
 2355SOL    HW1 7964   0.746   1.595   1.634
 2355SOL    HW2 7965   0.727   1.449   1.706
 2356SOL     OW 7966   3.231   5.374   4.116
 2356SOL    HW1 7967   3.173   5.316   4.058
 2356SOL    HW2 7968   3.280   5.317   4.182
 2357SOL     OW 7969   1.058   5.427   0.911
 2357SOL    HW1 7970   1.099   5.338   0.928
 2357SOL    HW2 7971   0.959   5.419   0.910
 2358SOL     OW 7972   3.054   0.531   5.462
 2358SOL    HW1 7973   2.961   0.497   5.446
 2358SOL    HW2 7974   3.056   0.630   5.451
 2359SOL     OW 7975   2.394   2.065   5.798
 2359SOL    HW1 7976   2.444   2.138   5.845
 2359SOL    HW2 7977   2.447   2.036   5.718
 2360SOL     OW 7978   3.197   5.018   0.524
 2360SOL    HW1 7979   3.102   5.043   0.503
 2360SOL    HW2 7980   3.233   5.081   0.592
 2361SOL     OW 7981   3.343   5.175   1.431
 2361SOL    HW1 7982   3.254   5.200   1.470
 2361SOL    HW2 7983   3.330   5.121   1.348
 2362SOL     OW 7984   2.958   5.083   4.527
 2362SOL    HW1 7985   2.868   5.122   4.510
 2362SOL    HW2 7986   2.954   4.983   4.521
 2363SOL     OW 7987   2.209   4.068   1.114
 2363SOL    HW1 7988   2.169   4.057   1.205
 2363SOL    HW2 7989   2.168   4.147   1.069
 2364SOL     OW 7990   4.657   1.037   2.342
 2364SOL    HW1 7991   4.618   0.978   2.271
 2364SOL    HW2 7992   4.706   1.112   2.300
 2365SOL     OW 7993   5.375   4.528   3.028
 2365SOL    HW1 7994   5.454   4.489   3.075
 2365SOL    HW2 7995   5.300   4.540   3.093
 2366SOL     OW 7996   3.061   5.243   5.203
 2366SOL    HW1 7997   3.100   5.335   5.196
 2366SOL    HW2 7998   3.024   5.217   5.113
 2367SOL     OW 7999   6.237   5.362   5.402
 2367SOL    HW1 8000   6.334   5.351   5.424
 2367SOL    HW2 8001   6.227   5.384   5.305
 2368SOL     OW 8002   5.572   0.332   4.909
 2368SOL    HW1 8003   5.508   0.346   4.833
 2368SOL    HW2 8004   5.524   0.344   4.995
 2369SOL     OW 8005   4.237   1.647   4.429
 2369SOL    HW1 8006   4.184   1.573   4.388
 2369SOL    HW2 8007   4.180   1.695   4.496
 2370SOL     OW 8008   4.699   1.679   1.778
 2370SOL    HW1 8009   4.667   1.760   1.828
 2370SOL    HW2 8010   4.653   1.598   1.814
 2371SOL     OW 8011   1.609   6.983   1.849
 2371SOL    HW1 8012   1.624   0.042   1.904
 2371SOL    HW2 8013   1.687   6.969   1.788
 2372SOL     OW 8014   6.775   6.769   5.487
 2372SOL    HW1 8015   6.692   6.738   5.533
 2372SOL    HW2 8016   6.794   6.711   5.408
 2373SOL     OW 8017   5.874   4.214   5.651
 2373SOL    HW1 8018   5.875   4.297   5.596
 2373SOL    HW2 8019   5.787   4.206   5.699
 2374SOL     OW 8020   0.101   6.428   2.217
 2374SOL    HW1 8021   0.059   6.360   2.277
 2374SOL    HW2 8022   0.069   6.519   2.243
 2375SOL     OW 8023   1.529   0.122   4.014
 2375SOL    HW1 8024   1.545   0.170   3.928
 2375SOL    HW2 8025   1.609   0.131   4.074
 2376SOL     OW 8026   5.179   2.940   3.381
 2376SOL    HW1 8027   5.196   2.849   3.345
 2376SOL    HW2 8028   5.139   2.998   3.309
 2377SOL     OW 8029   3.875   3.858   5.495
 2377SOL    HW1 8030   3.864   3.855   5.594
 2377SOL    HW2 8031   3.855   3.950   5.461
 2378SOL     OW 8032   0.294   0.464   0.618
 2378SOL    HW1 8033   0.354   0.431   0.546
 2378SOL    HW2 8034   0.349   0.498   0.694
 2379SOL     OW 8035   0.706   5.009   2.570
 2379SOL    HW1 8036   0.720   4.930   2.510
 2379SOL    HW2 8037   0.774   5.007   2.643
 2380SOL     OW 8038   4.301   5.350   6.316
 2380SOL    HW1 8039   4.299   5.253   6.291
 2380SOL    HW2 8040   4.347   5.361   6.404
 2381SOL     OW 8041   2.143   3.682   4.232
 2381SOL    HW1 8042   2.197   3.681   4.317
 2381SOL    HW2 8043   2.149   3.772   4.189
 2382SOL     OW 8044   6.916   5.696   3.069
 2382SOL    HW1 8045   6.867   5.612   3.091
 2382SOL    HW2 8046   6.878   5.772   3.122
 2383SOL     OW 8047   4.787   4.041   5.948
 2383SOL    HW1 8048   4.841   3.959   5.969
 2383SOL    HW2 8049   4.849   4.120   5.940
 2384SOL     OW 8050   0.776   2.687   3.042
 2384SOL    HW1 8051   0.787   2.687   2.943
 2384SOL    HW2 8052   0.804   2.598   3.078
 2385SOL     OW 8053   0.463   1.223   0.276
 2385SOL    HW1 8054   0.459   1.292   0.349
 2385SOL    HW2 8055   0.523   1.148   0.305
 2386SOL     OW 8056   6.563   5.525   5.243
 2386SOL    HW1 8057   6.566   5.592   5.168
 2386SOL    HW2 8058   6.598   5.437   5.210
 2387SOL     OW 8059   0.473   1.113   3.536
 2387SOL    HW1 8060   0.399   1.175   3.512
 2387SOL    HW2 8061   0.484   1.111   3.635
 2388SOL     OW 8062   0.686   3.445   4.957
 2388SOL    HW1 8063   0.733   3.360   4.932
 2388SOL    HW2 8064   0.661   3.495   4.875
 2389SOL     OW 8065   3.610   6.228   3.140
 2389SOL    HW1 8066   3.572   6.147   3.186
 2389SOL    HW2 8067   3.679   6.270   3.200
 2390SOL     OW 8068   5.499   2.266   6.088
 2390SOL    HW1 8069   5.587   2.271   6.042
 2390SOL    HW2 8070   5.512   2.278   6.186
 2391SOL     OW 8071   3.019   4.006   6.917
 2391SOL    HW1 8072   3.090   3.995   6.847
 2391SOL    HW2 8073   3.061   4.021   7.006
 2392SOL     OW 8074   4.041   4.773   6.008
 2392SOL    HW1 8075   4.004   4.697   6.061
 2392SOL    HW2 8076   4.082   4.840   6.070
 2393SOL     OW 8077   3.804   4.417   0.221
 2393SOL    HW1 8078   3.804   4.328   0.265
 2393SOL    HW2 8079   3.786   4.407   0.123
 2394SOL     OW 8080   6.164   1.841   3.852
 2394SOL    HW1 8081   6.224   1.863   3.775
 2394SOL    HW2 8082   6.216   1.796   3.924
 2395SOL     OW 8083   1.783   2.667   3.818
 2395SOL    HW1 8084   1.822   2.692   3.906
 2395SOL    HW2 8085   1.719   2.591   3.830
 2396SOL     OW 8086   0.009   0.303   6.659
 2396SOL    HW1 8087   0.000   0.402   6.654
 2396SOL    HW2 8088   0.068   0.277   6.735
 2397SOL     OW 8089   2.254   4.554   5.435
 2397SOL    HW1 8090   2.189   4.624   5.406
 2397SOL    HW2 8091   2.213   4.464   5.425
 2398SOL     OW 8092   4.177   6.003   5.032
 2398SOL    HW1 8093   4.085   6.031   5.003
 2398SOL    HW2 8094   4.170   5.926   5.095
 2399SOL     OW 8095   3.011   1.253   2.454
 2399SOL    HW1 8096   2.936   1.210   2.503
 2399SOL    HW2 8097   3.092   1.194   2.456
 2400SOL     OW 8098   1.269   2.623   0.195
 2400SOL    HW1 8099   1.361   2.661   0.189
 2400SOL    HW2 8100   1.259   2.572   0.280
 2401SOL     OW 8101   1.586   6.197   0.231
 2401SOL    HW1 8102   1.633   6.116   0.195
 2401SOL    HW2 8103   1.588   6.195   0.331
 2402SOL     OW 8104   0.609   3.779   1.827
 2402SOL    HW1 8105   0.566   3.841   1.761
 2402SOL    HW2 8106   0.693   3.743   1.788
 2403SOL     OW 8107   3.236   4.221   5.348
 2403SOL    HW1 8108   3.168   4.293   5.334
 2403SOL    HW2 8109   3.311   4.232   5.283
 2404SOL     OW 8110   6.272   1.549   1.659
 2404SOL    HW1 8111   6.370   1.528   1.669
 2404SOL    HW2 8112   6.252   1.635   1.705
 2405SOL     OW 8113   1.893   2.953   0.880
 2405SOL    HW1 8114   1.903   3.012   0.959
 2405SOL    HW2 8115   1.889   3.008   0.797
 2406SOL     OW 8116   3.905   5.580   4.851
 2406SOL    HW1 8117   3.856   5.496   4.874
 2406SOL    HW2 8118   3.999   5.575   4.886
 2407SOL     OW 8119   2.180   1.827   3.842
 2407SOL    HW1 8120   2.134   1.801   3.756
 2407SOL    HW2 8121   2.258   1.768   3.857
 2408SOL     OW 8122   3.650   0.236   6.350
 2408SOL    HW1 8123   3.598   0.301   6.295
 2408SOL    HW2 8124   3.689   0.166   6.290
 2409SOL     OW 8125   0.667   3.051   6.806
 2409SOL    HW1 8126   0.674   3.049   6.706
 2409SOL    HW2 8127   0.703   3.137   6.841
 2410SOL     OW 8128   0.002   3.407   4.443
 2410SOL    HW1 8129   7.005   3.345   4.368
 2410SOL    HW2 8130   6.994   3.368   4.529
 2411SOL     OW 8131   2.765   1.588   0.176
 2411SOL    HW1 8132   2.864   1.575   0.176
 2411SOL    HW2 8133   2.723   1.525   0.241
 2412SOL     OW 8134   3.434   2.263   6.608
 2412SOL    HW1 8135   3.426   2.210   6.524
 2412SOL    HW2 8136   3.400   2.209   6.685
 2413SOL     OW 8137   6.758   3.803   6.935
 2413SOL    HW1 8138   6.822   3.789   7.010
 2413SOL    HW2 8139   6.669   3.833   6.971
 2414SOL     OW 8140   0.247   1.426   5.437
 2414SOL    HW1 8141   0.264   1.373   5.354
 2414SOL    HW2 8142   0.330   1.430   5.492
 2415SOL     OW 8143   3.365   4.204   6.498
 2415SOL    HW1 8144   3.458   4.239   6.499
 2415SOL    HW2 8145   3.344   4.166   6.407
 2416SOL     OW 8146   6.983   3.109   3.612
 2416SOL    HW1 8147   6.970   3.033   3.676
 2416SOL    HW2 8148   0.009   3.077   3.531
 2417SOL     OW 8149   3.286   2.540   1.500
 2417SOL    HW1 8150   3.191   2.512   1.513
 2417SOL    HW2 8151   3.322   2.580   1.584
 2418SOL     OW 8152   5.343   4.310   6.610
 2418SOL    HW1 8153   5.382   4.218   6.597
 2418SOL    HW2 8154   5.414   4.378   6.591
 2419SOL     OW 8155   3.508   0.942   3.293
 2419SOL    HW1 8156   3.533   0.985   3.206
 2419SOL    HW2 8157   3.574   0.870   3.315
 2420SOL     OW 8158   1.357   3.792   2.583
 2420SOL    HW1 8159   1.262   3.784   2.613
 2420SOL    HW2 8160   1.377   3.888   2.563
 2421SOL     OW 8161   2.730   6.446   3.076
 2421SOL    HW1 8162   2.705   6.420   3.169
 2421SOL    HW2 8163   2.772   6.537   3.078
 2422SOL     OW 8164   3.745   6.189   0.314
 2422SOL    HW1 8165   3.706   6.167   0.404
 2422SOL    HW2 8166   3.713   6.280   0.286
 2423SOL     OW 8167   3.157   4.898   4.434
 2423SOL    HW1 8168   3.238   4.915   4.377
 2423SOL    HW2 8169   3.148   4.972   4.501
 2424SOL     OW 8170   4.993   6.703   6.499
 2424SOL    HW1 8171   4.937   6.635   6.545
 2424SOL    HW2 8172   5.047   6.753   6.567
 2425SOL     OW 8173   4.004   5.556   5.323
 2425SOL    HW1 8174   3.988   5.487   5.253
 2425SOL    HW2 8175   3.939   5.631   5.311
 2426SOL     OW 8176   3.028   2.415   5.410
 2426SOL    HW1 8177   3.089   2.407   5.331
 2426SOL    HW2 8178   2.958   2.483   5.390
 2427SOL     OW 8179   4.369   1.742   0.546
 2427SOL    HW1 8180   4.311   1.812   0.587
 2427SOL    HW2 8181   4.331   1.651   0.566
 2428SOL     OW 8182   1.674   1.461   3.233
 2428SOL    HW1 8183   1.749   1.496   3.289
 2428SOL    HW2 8184   1.708   1.438   3.142
 2429SOL     OW 8185   5.707   5.917   1.153
 2429SOL    HW1 8186   5.750   5.976   1.084
 2429SOL    HW2 8187   5.645   5.853   1.107
 2430SOL     OW 8188   6.534   0.250   6.550
 2430SOL    HW1 8189   6.568   0.251   6.644
 2430SOL    HW2 8190   6.482   0.333   6.533
 2431SOL     OW 8191   2.163   3.109   1.910
 2431SOL    HW1 8192   2.106   3.037   1.870
 2431SOL    HW2 8193   2.183   3.086   2.005
 2432SOL     OW 8194   2.914   5.927   2.409
 2432SOL    HW1 8195   2.876   6.017   2.386
 2432SOL    HW2 8196   2.956   5.886   2.328
 2433SOL     OW 8197   0.141   4.073   4.771
 2433SOL    HW1 8198   0.222   4.018   4.787
 2433SOL    HW2 8199   0.156   4.166   4.805
 2434SOL     OW 8200   4.591   1.522   3.046
 2434SOL    HW1 8201   4.685   1.511   3.014
 2434SOL    HW2 8202   4.582   1.609   3.095
 2435SOL     OW 8203   6.085   6.793   6.676
 2435SOL    HW1 8204   5.994   6.780   6.715
 2435SOL    HW2 8205   6.078   6.794   6.576
 2436SOL     OW 8206   6.826   2.777   0.362
 2436SOL    HW1 8207   6.753   2.825   0.411
 2436SOL    HW2 8208   6.822   2.800   0.265
 2437SOL     OW 8209   0.574   4.094   1.051
 2437SOL    HW1 8210   0.656   4.087   1.108
 2437SOL    HW2 8211   0.515   4.016   1.067
 2438SOL     OW 8212   3.387   1.391   4.935
 2438SOL    HW1 8213   3.471   1.338   4.940
 2438SOL    HW2 8214   3.391   1.453   4.858
 2439SOL     OW 8215   7.019   5.440   0.693
 2439SOL    HW1 8216   6.932   5.412   0.653
 2439SOL    HW2 8217   0.065   5.371   0.673
 2440SOL     OW 8218   6.407   1.794   5.563
 2440SOL    HW1 8219   6.502   1.822   5.554
 2440SOL    HW2 8220   6.351   1.847   5.499
 2441SOL     OW 8221   6.397   0.862   0.512
 2441SOL    HW1 8222   6.311   0.813   0.501
 2441SOL    HW2 8223   6.424   0.903   0.424
 2442SOL     OW 8224   5.198   2.948   2.269
 2442SOL    HW1 8225   5.237   3.031   2.309
 2442SOL    HW2 8226   5.241   2.931   2.180
 2443SOL     OW 8227   0.201   2.922   1.415
 2443SOL    HW1 8228   0.112   2.964   1.431
 2443SOL    HW2 8229   0.238   2.954   1.328
 2444SOL     OW 8230   3.343   5.358   3.313
 2444SOL    HW1 8231   3.356   5.260   3.330
 2444SOL    HW2 8232   3.411   5.410   3.365
 2445SOL     OW 8233   0.873   2.188   0.901
 2445SOL    HW1 8234   0.805   2.120   0.932
 2445SOL    HW2 8235   0.954   2.140   0.866
 2446SOL     OW 8236   0.148   5.632   1.957
 2446SOL    HW1 8237   0.202   5.548   1.949
 2446SOL    HW2 8238   0.174   5.680   2.042
 2447SOL     OW 8239   1.818   0.170   0.617
 2447SOL    HW1 8240   1.870   0.156   0.532
 2447SOL    HW2 8241   1.721   0.180   0.595
 2448SOL     OW 8242   5.787   1.010   3.853
 2448SOL    HW1 8243   5.701   0.971   3.885
 2448SOL    HW2 8244   5.769   1.097   3.807
 2449SOL     OW 8245   1.686   4.308   1.047
 2449SOL    HW1 8246   1.600   4.259   1.058
 2449SOL    HW2 8247   1.724   4.330   1.137
 2450SOL     OW 8248   0.770   6.376   5.405
 2450SOL    HW1 8249   0.834   6.429   5.460
 2450SOL    HW2 8250   0.702   6.437   5.364
 2451SOL     OW 8251   2.293   6.532   5.890
 2451SOL    HW1 8252   2.258   6.477   5.966
 2451SOL    HW2 8253   2.253   6.624   5.894
 2452SOL     OW 8254   2.064   1.847   4.596
 2452SOL    HW1 8255   2.157   1.837   4.560
 2452SOL    HW2 8256   2.052   1.939   4.632
 2453SOL     OW 8257   1.386   2.057   5.904
 2453SOL    HW1 8258   1.341   2.111   5.975
 2453SOL    HW2 8259   1.381   1.960   5.929
 2454SOL     OW 8260   3.120   6.206   1.022
 2454SOL    HW1 8261   3.188   6.140   0.992
 2454SOL    HW2 8262   3.139   6.232   1.117
 2455SOL     OW 8263   4.239   1.939   0.667
 2455SOL    HW1 8264   4.210   2.028   0.632
 2455SOL    HW2 8265   4.172   1.905   0.733
 2456SOL     OW 8266   0.681   3.826   6.267
 2456SOL    HW1 8267   0.625   3.807   6.348
 2456SOL    HW2 8268   0.723   3.741   6.235
 2457SOL     OW 8269   4.575   1.614   5.763
 2457SOL    HW1 8270   4.535   1.682   5.823
 2457SOL    HW2 8271   4.608   1.658   5.679
 2458SOL     OW 8272   0.877   0.502   2.327
 2458SOL    HW1 8273   0.837   0.573   2.385
 2458SOL    HW2 8274   0.811   0.428   2.312
 2459SOL     OW 8275   2.196   6.748   1.424
 2459SOL    HW1 8276   2.265   6.719   1.491
 2459SOL    HW2 8277   2.241   6.771   1.338
 2460SOL     OW 8278   0.502   0.764   4.169
 2460SOL    HW1 8279   0.594   0.803   4.167
 2460SOL    HW2 8280   0.488   0.706   4.089
 2461SOL     OW 8281   3.504   1.451   3.881
 2461SOL    HW1 8282   3.598   1.476   3.860
 2461SOL    HW2 8283   3.465   1.400   3.804
 2462SOL     OW 8284   0.582   5.772   0.925
 2462SOL    HW1 8285   0.535   5.831   0.991
 2462SOL    HW2 8286   0.552   5.796   0.832
 2463SOL     OW 8287   6.695   0.004   0.973
 2463SOL    HW1 8288   6.663   6.934   0.962
 2463SOL    HW2 8289   6.637   0.051   1.040
 2464SOL     OW 8290   0.723   2.926   4.613
 2464SOL    HW1 8291   0.703   2.834   4.647
 2464SOL    HW2 8292   0.802   2.963   4.661
 2465SOL     OW 8293   6.245   0.997   0.069
 2465SOL    HW1 8294   6.146   0.998   0.082
 2465SOL    HW2 8295   6.270   1.058   7.018
 2466SOL     OW 8296   0.795   2.221   1.561
 2466SOL    HW1 8297   0.858   2.158   1.607
 2466SOL    HW2 8298   0.812   2.314   1.594
 2467SOL     OW 8299   4.855   2.762   5.114
 2467SOL    HW1 8300   4.936   2.741   5.169
 2467SOL    HW2 8301   4.882   2.775   5.018
 2468SOL     OW 8302   3.414   0.072   5.264
 2468SOL    HW1 8303   3.463   0.002   5.212
 2468SOL    HW2 8304   3.437   0.063   5.361
 2469SOL     OW 8305   3.274   2.135   6.039
 2469SOL    HW1 8306   3.340   2.187   5.984
 2469SOL    HW2 8307   3.182   2.169   6.021
 2470SOL     OW 8308   2.165   5.967   6.610
 2470SOL    HW1 8309   2.194   5.983   6.516
 2470SOL    HW2 8310   2.241   5.985   6.672
 2471SOL     OW 8311   3.030   5.479   2.281
 2471SOL    HW1 8312   2.989   5.537   2.209
 2471SOL    HW2 8313   3.067   5.538   2.353
 2472SOL     OW 8314   4.908   1.177   2.886
 2472SOL    HW1 8315   4.943   1.248   2.946
 2472SOL    HW2 8316   4.981   1.114   2.861
 2473SOL     OW 8317   0.557   3.846   3.842
 2473SOL    HW1 8318   0.633   3.843   3.777
 2473SOL    HW2 8319   0.586   3.809   3.930
 2474SOL     OW 8320   1.247   6.643   1.445
 2474SOL    HW1 8321   1.269   6.694   1.528
 2474SOL    HW2 8322   1.240   6.706   1.367
 2475SOL     OW 8323   5.056   1.755   0.677
 2475SOL    HW1 8324   5.062   1.784   0.582
 2475SOL    HW2 8325   5.148   1.755   0.717
 2476SOL     OW 8326   4.104   6.953   0.584
 2476SOL    HW1 8327   4.159   6.960   0.500
 2476SOL    HW2 8328   4.007   6.961   0.561
 2477SOL     OW 8329   4.034   0.248   3.784
 2477SOL    HW1 8330   4.066   0.163   3.742
 2477SOL    HW2 8331   3.935   0.254   3.775
 2478SOL     OW 8332   3.564   0.358   4.870
 2478SOL    HW1 8333   3.502   0.371   4.947
 2478SOL    HW2 8334   3.638   0.297   4.897
 2479SOL     OW 8335   5.144   3.303   0.997
 2479SOL    HW1 8336   5.127   3.333   1.091
 2479SOL    HW2 8337   5.234   3.261   0.991
 2480SOL     OW 8338   3.520   2.360   1.471
 2480SOL    HW1 8339   3.501   2.280   1.528
 2480SOL    HW2 8340   3.464   2.437   1.501
 2481SOL     OW 8341   3.398   0.237   2.024
 2481SOL    HW1 8342   3.331   0.223   2.097
 2481SOL    HW2 8343   3.477   0.178   2.039
 2482SOL     OW 8344   6.368   3.096   0.340
 2482SOL    HW1 8345   6.298   3.151   0.294
 2482SOL    HW2 8346   6.355   3.101   0.439
 2483SOL     OW 8347   2.175   2.270   0.837
 2483SOL    HW1 8348   2.174   2.171   0.818
 2483SOL    HW2 8349   2.240   2.315   0.776
 2484SOL     OW 8350   4.129   0.352   0.105
 2484SOL    HW1 8351   4.079   0.392   0.183
 2484SOL    HW2 8352   4.081   0.374   0.020
 2485SOL     OW 8353   0.401   2.306   6.017
 2485SOL    HW1 8354   0.353   2.362   5.950
 2485SOL    HW2 8355   0.485   2.270   5.976
 2486SOL     OW 8356   0.049   5.625   3.438
 2486SOL    HW1 8357   0.131   5.681   3.424
 2486SOL    HW2 8358   0.066   5.532   3.405
 2487SOL     OW 8359   4.144   6.188   0.004
 2487SOL    HW1 8360   4.059   6.198   6.976
 2487SOL    HW2 8361   4.132   6.118   0.075
 2488SOL     OW 8362   6.880   4.063   0.286
 2488SOL    HW1 8363   6.783   4.041   0.297
 2488SOL    HW2 8364   6.935   3.988   0.323
 2489SOL     OW 8365   6.146   4.993   4.276
 2489SOL    HW1 8366   6.106   5.076   4.237
 2489SOL    HW2 8367   6.244   4.991   4.258
 2490SOL     OW 8368   2.673   5.928   3.102
 2490SOL    HW1 8369   2.616   5.981   3.165
 2490SOL    HW2 8370   2.734   5.989   3.052
 2491SOL     OW 8371   3.810   4.572   1.571
 2491SOL    HW1 8372   3.884   4.577   1.503
 2491SOL    HW2 8373   3.728   4.535   1.527
 2492SOL     OW 8374   6.308   5.359   1.562
 2492SOL    HW1 8375   6.389   5.301   1.553
 2492SOL    HW2 8376   6.311   5.406   1.650
 2493SOL     OW 8377   5.355   6.577   0.972
 2493SOL    HW1 8378   5.440   6.607   0.928
 2493SOL    HW2 8379   5.277   6.607   0.917
 2494SOL     OW 8380   6.634   3.572   1.237
 2494SOL    HW1 8381   6.558   3.597   1.176
 2494SOL    HW2 8382   6.714   3.628   1.215
 2495SOL     OW 8383   0.579   3.652   1.557
 2495SOL    HW1 8384   0.585   3.657   1.458
 2495SOL    HW2 8385   0.583   3.745   1.595
 2496SOL     OW 8386   5.631   4.504   6.817
 2496SOL    HW1 8387   5.646   4.480   6.721
 2496SOL    HW2 8388   5.705   4.563   6.848
 2497SOL     OW 8389   0.134   6.990   2.228
 2497SOL    HW1 8390   0.209   6.989   2.162
 2497SOL    HW2 8391   0.077   6.909   2.215
 2498SOL     OW 8392   1.922   3.380   5.066
 2498SOL    HW1 8393   1.838   3.325   5.066
 2498SOL    HW2 8394   1.904   3.468   5.110
 2499SOL     OW 8395   6.932   3.515   2.351
 2499SOL    HW1 8396   6.847   3.503   2.300
 2499SOL    HW2 8397   6.971   3.604   2.331
 2500SOL     OW 8398   4.006   3.167   1.447
 2500SOL    HW1 8399   4.006   3.258   1.487
 2500SOL    HW2 8400   4.093   3.121   1.465
 2501SOL     OW 8401   6.363   5.422   6.112
 2501SOL    HW1 8402   6.399   5.485   6.180
 2501SOL    HW2 8403   6.357   5.467   6.023
 2502SOL     OW 8404   2.101   6.435   4.580
 2502SOL    HW1 8405   2.175   6.374   4.554
 2502SOL    HW2 8406   2.087   6.431   4.679
 2503SOL     OW 8407   2.760   0.202   5.648
 2503SOL    HW1 8408   2.799   0.149   5.722
 2503SOL    HW2 8409   2.778   0.157   5.561
 2504SOL     OW 8410   3.765   0.236   3.766
 2504SOL    HW1 8411   3.726   0.316   3.810
 2504SOL    HW2 8412   3.704   0.158   3.778
 2505SOL     OW 8413   0.210   4.067   3.745
 2505SOL    HW1 8414   0.195   4.061   3.646
 2505SOL    HW2 8415   0.131   4.028   3.793
 2506SOL     OW 8416   5.407   5.372   6.384
 2506SOL    HW1 8417   5.323   5.415   6.353
 2506SOL    HW2 8418   5.481   5.440   6.385
 2507SOL     OW 8419   0.236   3.170   2.509
 2507SOL    HW1 8420   0.160   3.173   2.443
 2507SOL    HW2 8421   0.200   3.177   2.602
 2508SOL     OW 8422   5.965   0.909   4.331
 2508SOL    HW1 8423   5.967   0.970   4.253
 2508SOL    HW2 8424   6.010   0.952   4.409
 2509SOL     OW 8425   0.323   3.151   5.872
 2509SOL    HW1 8426   0.410   3.154   5.821
 2509SOL    HW2 8427   0.318   3.231   5.932
 2510SOL     OW 8428   3.146   3.989   2.491
 2510SOL    HW1 8429   3.217   3.918   2.493
 2510SOL    HW2 8430   3.101   3.992   2.580
 2511SOL     OW 8431   2.177   0.756   4.321
 2511SOL    HW1 8432   2.234   0.749   4.403
 2511SOL    HW2 8433   2.235   0.775   4.242
 2512SOL     OW 8434   4.125   4.788   4.017
 2512SOL    HW1 8435   4.146   4.707   4.072
 2512SOL    HW2 8436   4.184   4.790   3.937
 2513SOL     OW 8437   1.987   5.409   5.890
 2513SOL    HW1 8438   2.051   5.353   5.943
 2513SOL    HW2 8439   1.925   5.456   5.953
 2514SOL     OW 8440   1.446   1.799   3.418
 2514SOL    HW1 8441   1.398   1.801   3.506
 2514SOL    HW2 8442   1.383   1.823   3.345
 2515SOL     OW 8443   0.645   1.928   1.566
 2515SOL    HW1 8444   0.563   1.897   1.517
 2515SOL    HW2 8445   0.630   2.021   1.600
 2516SOL     OW 8446   5.761   2.618   4.620
 2516SOL    HW1 8447   5.850   2.663   4.612
 2516SOL    HW2 8448   5.728   2.591   4.530
 2517SOL     OW 8449   1.164   1.186   3.927
 2517SOL    HW1 8450   1.067   1.176   3.904
 2517SOL    HW2 8451   1.217   1.195   3.842
 2518SOL     OW 8452   2.360   4.386   1.385
 2518SOL    HW1 8453   2.325   4.427   1.469
 2518SOL    HW2 8454   2.342   4.447   1.308
 2519SOL     OW 8455   1.199   1.344   0.785
 2519SOL    HW1 8456   1.104   1.374   0.781
 2519SOL    HW2 8457   1.210   1.276   0.858
 2520SOL     OW 8458   2.404   2.022   0.763
 2520SOL    HW1 8459   2.304   2.016   0.767
 2520SOL    HW2 8460   2.432   2.055   0.673
 2521SOL     OW 8461   5.488   0.638   4.884
 2521SOL    HW1 8462   5.569   0.696   4.880
 2521SOL    HW2 8463   5.436   0.658   4.967
 2522SOL     OW 8464   1.203   1.756   6.700
 2522SOL    HW1 8465   1.246   1.671   6.670
 2522SOL    HW2 8466   1.272   1.829   6.704
 2523SOL     OW 8467   1.312   5.229   6.355
 2523SOL    HW1 8468   1.365   5.178   6.422
 2523SOL    HW2 8469   1.315   5.326   6.377
 2524SOL     OW 8470   0.978   0.586   4.469
 2524SOL    HW1 8471   0.936   0.610   4.381
 2524SOL    HW2 8472   1.060   0.531   4.452
 2525SOL     OW 8473   6.548   2.734   5.747
 2525SOL    HW1 8474   6.523   2.812   5.689
 2525SOL    HW2 8475   6.569   2.766   5.839
 2526SOL     OW 8476   1.830   0.198   1.085
 2526SOL    HW1 8477   1.893   0.173   1.158
 2526SOL    HW2 8478   1.769   0.121   1.065
 2527SOL     OW 8479   4.318   5.205   5.871
 2527SOL    HW1 8480   4.234   5.249   5.838
 2527SOL    HW2 8481   4.294   5.127   5.929
 2528SOL     OW 8482   4.697   5.769   6.117
 2528SOL    HW1 8483   4.625   5.715   6.162
 2528SOL    HW2 8484   4.659   5.820   6.040
 2529SOL     OW 8485   0.593   6.668   6.420
 2529SOL    HW1 8486   0.690   6.674   6.395
 2529SOL    HW2 8487   0.542   6.625   6.346
 2530SOL     OW 8488   2.353   5.991   6.777
 2530SOL    HW1 8489   2.395   6.079   6.797
 2530SOL    HW2 8490   2.423   5.920   6.778
 2531SOL     OW 8491   6.868   5.300   6.267
 2531SOL    HW1 8492   6.793   5.313   6.332
 2531SOL    HW2 8493   6.954   5.327   6.310
 2532SOL     OW 8494   5.456   6.338   1.635
 2532SOL    HW1 8495   5.449   6.375   1.542
 2532SOL    HW2 8496   5.486   6.243   1.630
 2533SOL     OW 8497   4.806   0.679   3.933
 2533SOL    HW1 8498   4.870   0.636   3.996
 2533SOL    HW2 8499   4.721   0.625   3.930
 2534SOL     OW 8500   4.024   1.417   2.704
 2534SOL    HW1 8501   4.063   1.411   2.795
 2534SOL    HW2 8502   4.033   1.329   2.657
 2535SOL     OW 8503   3.757   2.656   6.217
 2535SOL    HW1 8504   3.838   2.646   6.159
 2535SOL    HW2 8505   3.775   2.615   6.306
 2536SOL     OW 8506   1.646   0.887   1.109
 2536SOL    HW1 8507   1.683   0.825   1.040
 2536SOL    HW2 8508   1.553   0.860   1.132
 2537SOL     OW 8509   4.033   0.562   6.030
 2537SOL    HW1 8510   3.988   0.646   6.059
 2537SOL    HW2 8511   4.032   0.496   6.104
 2538SOL     OW 8512   6.373   3.338   3.942
 2538SOL    HW1 8513   6.303   3.308   3.877
 2538SOL    HW2 8514   6.410   3.258   3.990
 2539SOL     OW 8515   5.096   2.583   5.508
 2539SOL    HW1 8516   5.108   2.672   5.553
 2539SOL    HW2 8517   5.042   2.524   5.568
 2540SOL     OW 8518   2.829   1.504   1.625
 2540SOL    HW1 8519   2.771   1.435   1.666
 2540SOL    HW2 8520   2.869   1.561   1.697
 2541SOL     OW 8521   3.306   6.676   4.420
 2541SOL    HW1 8522   3.363   6.626   4.355
 2541SOL    HW2 8523   3.222   6.624   4.436
 2542SOL     OW 8524   2.170   5.582   6.184
 2542SOL    HW1 8525   2.246   5.557   6.244
 2542SOL    HW2 8526   2.188   5.671   6.143
 2543SOL     OW 8527   0.741   1.029   3.988
 2543SOL    HW1 8528   0.660   1.088   3.991
 2543SOL    HW2 8529   0.752   0.992   3.896
 2544SOL     OW 8530   0.734   5.058   0.166
 2544SOL    HW1 8531   0.805   5.111   0.119
 2544SOL    HW2 8532   0.687   5.000   0.099
 2545SOL     OW 8533   3.022   5.769   3.686
 2545SOL    HW1 8534   3.063   5.694   3.738
 2545SOL    HW2 8535   2.992   5.840   3.749
 2546SOL     OW 8536   6.640   1.388   1.345
 2546SOL    HW1 8537   6.721   1.359   1.294
 2546SOL    HW2 8538   6.659   1.386   1.443
 2547SOL     OW 8539   0.832   3.495   5.199
 2547SOL    HW1 8540   0.825   3.450   5.109
 2547SOL    HW2 8541   0.741   3.497   5.241
 2548SOL     OW 8542   0.798   0.267   4.994
 2548SOL    HW1 8543   0.776   0.316   5.078
 2548SOL    HW2 8544   0.894   0.282   4.970
 2549SOL     OW 8545   6.141   3.010   2.060
 2549SOL    HW1 8546   6.043   3.024   2.047
 2549SOL    HW2 8547   6.159   2.995   2.157
 2550SOL     OW 8548   6.130   5.472   0.116
 2550SOL    HW1 8549   6.176   5.384   0.100
 2550SOL    HW2 8550   6.132   5.526   0.032
 2551SOL     OW 8551   1.041   4.568   0.025
 2551SOL    HW1 8552   0.941   4.563   0.035
 2551SOL    HW2 8553   1.074   4.486   7.003
 2552SOL     OW 8554   1.838   5.487   3.670
 2552SOL    HW1 8555   1.849   5.400   3.622
 2552SOL    HW2 8556   1.846   5.562   3.604
 2553SOL     OW 8557   4.210   3.794   6.710
 2553SOL    HW1 8558   4.289   3.795   6.771
 2553SOL    HW2 8559   4.232   3.842   6.625
 2554SOL     OW 8560   1.593   1.282   0.379
 2554SOL    HW1 8561   1.647   1.292   0.463
 2554SOL    HW2 8562   1.496   1.285   0.401
 2555SOL     OW 8563   6.079   0.672   7.014
 2555SOL    HW1 8564   6.110   0.694   6.922
 2555SOL    HW2 8565   6.080   0.755   0.047
 2556SOL     OW 8566   3.689   5.042   0.962
 2556SOL    HW1 8567   3.644   4.967   1.010
 2556SOL    HW2 8568   3.650   5.052   0.871
 2557SOL     OW 8569   2.253   4.913   6.756
 2557SOL    HW1 8570   2.195   4.916   6.675
 2557SOL    HW2 8571   2.302   4.826   6.758
 2558SOL     OW 8572   4.257   0.743   5.727
 2558SOL    HW1 8573   4.261   0.760   5.628
 2558SOL    HW2 8574   4.180   0.683   5.747
 2559SOL     OW 8575   0.199   4.789   4.783
 2559SOL    HW1 8576   0.213   4.716   4.716
 2559SOL    HW2 8577   0.277   4.851   4.781
 2560SOL     OW 8578   6.170   1.568   0.117
 2560SOL    HW1 8579   6.210   1.568   0.025
 2560SOL    HW2 8580   6.178   1.477   0.157
 2561SOL     OW 8581   2.873   5.554   4.674
 2561SOL    HW1 8582   2.786   5.532   4.719
 2561SOL    HW2 8583   2.934   5.600   4.738
 2562SOL     OW 8584   2.773   4.104   6.845
 2562SOL    HW1 8585   2.777   4.200   6.819
 2562SOL    HW2 8586   2.857   4.078   6.892
 2563SOL     OW 8587   2.062   1.146   0.925
 2563SOL    HW1 8588   2.156   1.170   0.951
 2563SOL    HW2 8589   2.058   1.048   0.904
 2564SOL     OW 8590   1.710   6.625   2.239
 2564SOL    HW1 8591   1.697   6.717   2.277
 2564SOL    HW2 8592   1.698   6.628   2.140
 2565SOL     OW 8593   1.243   0.624   1.409
 2565SOL    HW1 8594   1.234   0.644   1.312
 2565SOL    HW2 8595   1.340   0.627   1.435
 2566SOL     OW 8596   2.283   6.829   5.723
 2566SOL    HW1 8597   2.209   6.878   5.677
 2566SOL    HW2 8598   2.337   6.893   5.777
 2567SOL     OW 8599   0.890   0.490   0.446
 2567SOL    HW1 8600   0.931   0.400   0.463
 2567SOL    HW2 8601   0.878   0.502   0.347
 2568SOL     OW 8602   5.345   3.916   0.010
 2568SOL    HW1 8603   5.268   3.872   0.056
 2568SOL    HW2 8604   5.323   4.013   7.018
 2569SOL     OW 8605   2.939   0.719   2.726
 2569SOL    HW1 8606   3.021   0.765   2.761
 2569SOL    HW2 8607   2.936   0.730   2.626
 2570SOL     OW 8608   5.379   2.903   6.051
 2570SOL    HW1 8609   5.343   2.865   6.136
 2570SOL    HW2 8610   5.318   2.880   5.975
 2571SOL     OW 8611   0.873   3.995   4.600
 2571SOL    HW1 8612   0.798   3.954   4.652
 2571SOL    HW2 8613   0.933   3.923   4.565
 2572SOL     OW 8614   1.205   4.964   3.879
 2572SOL    HW1 8615   1.162   5.012   3.955
 2572SOL    HW2 8616   1.143   4.964   3.800
 2573SOL     OW 8617   1.182   0.122   0.855
 2573SOL    HW1 8618   1.195   0.220   0.841
 2573SOL    HW2 8619   1.092   0.096   0.820
 2574SOL     OW 8620   5.976   3.502   0.654
 2574SOL    HW1 8621   5.948   3.407   0.667
 2574SOL    HW2 8622   5.962   3.528   0.558
 2575SOL     OW 8623   0.356   6.190   6.244
 2575SOL    HW1 8624   0.418   6.178   6.322
 2575SOL    HW2 8625   0.302   6.107   6.231
 2576SOL     OW 8626   4.123   5.989   4.688
 2576SOL    HW1 8627   4.191   5.927   4.650
 2576SOL    HW2 8628   4.167   6.073   4.718
 2577SOL     OW 8629   2.203   4.021   2.201
 2577SOL    HW1 8630   2.292   4.000   2.243
 2577SOL    HW2 8631   2.135   3.955   2.233
 2578SOL     OW 8632   4.143   1.732   3.033
 2578SOL    HW1 8633   4.146   1.780   3.121
 2578SOL    HW2 8634   4.131   1.798   2.959
 2579SOL     OW 8635   0.574   6.771   3.354
 2579SOL    HW1 8636   0.672   6.782   3.371
 2579SOL    HW2 8637   0.555   6.790   3.258
 2580SOL     OW 8638   2.479   2.319   5.937
 2580SOL    HW1 8639   2.572   2.330   5.902
 2580SOL    HW2 8640   2.471   2.367   6.025
 2581SOL     OW 8641   3.543   0.810   5.116
 2581SOL    HW1 8642   3.578   0.879   5.052
 2581SOL    HW2 8643   3.450   0.785   5.091
 2582SOL     OW 8644   6.653   3.378   1.687
 2582SOL    HW1 8645   6.742   3.344   1.718
 2582SOL    HW2 8646   6.666   3.453   1.623
 2583SOL     OW 8647   6.138   0.338   0.822
 2583SOL    HW1 8648   6.130   0.409   0.892
 2583SOL    HW2 8649   6.085   0.364   0.741
 2584SOL     OW 8650   3.923   4.326   6.169
 2584SOL    HW1 8651   3.983   4.308   6.091
 2584SOL    HW2 8652   3.828   4.334   6.138
 2585SOL     OW 8653   3.468   4.530   6.655
 2585SOL    HW1 8654   3.430   4.489   6.738
 2585SOL    HW2 8655   3.528   4.606   6.678
 2586SOL     OW 8656   2.880   0.865   3.813
 2586SOL    HW1 8657   2.828   0.927   3.754
 2586SOL    HW2 8658   2.820   0.790   3.843
 2587SOL     OW 8659   6.766   0.823   4.123
 2587SOL    HW1 8660   6.806   0.756   4.060
 2587SOL    HW2 8661   6.810   0.815   4.212
 2588SOL     OW 8662   4.676   0.568   6.353
 2588SOL    HW1 8663   4.699   0.666   6.348
 2588SOL    HW2 8664   4.758   0.514   6.338
 2589SOL     OW 8665   2.160   6.885   0.323
 2589SOL    HW1 8666   2.247   6.837   0.317
 2589SOL    HW2 8667   2.107   6.870   0.240
 2590SOL     OW 8668   2.871   5.963   0.634
 2590SOL    HW1 8669   2.921   5.876   0.632
 2590SOL    HW2 8670   2.883   6.007   0.723
 2591SOL     OW 8671   5.681   5.347   3.437
 2591SOL    HW1 8672   5.710   5.282   3.367
 2591SOL    HW2 8673   5.721   5.437   3.417
 2592SOL     OW 8674   2.689   4.260   0.986
 2592SOL    HW1 8675   2.605   4.290   0.941
 2592SOL    HW2 8676   2.767   4.275   0.925
 2593SOL     OW 8677   3.578   4.209   0.937
 2593SOL    HW1 8678   3.590   4.233   0.841
 2593SOL    HW2 8679   3.499   4.148   0.946
 2594SOL     OW 8680   2.163   3.093   4.514
 2594SOL    HW1 8681   2.196   3.182   4.545
 2594SOL    HW2 8682   2.161   3.091   4.414
 2595SOL     OW 8683   2.317   1.438   3.187
 2595SOL    HW1 8684   2.241   1.477   3.135
 2595SOL    HW2 8685   2.403   1.475   3.152
 2596SOL     OW 8686   0.960   1.425   0.450
 2596SOL    HW1 8687   1.035   1.448   0.388
 2596SOL    HW2 8688   0.891   1.498   0.447
 2597SOL     OW 8689   6.569   6.802   6.988
 2597SOL    HW1 8690   6.561   6.895   0.001
 2597SOL    HW2 8691   6.488   6.782   6.933
 2598SOL     OW 8692   5.421   2.407   2.409
 2598SOL    HW1 8693   5.410   2.501   2.442
 2598SOL    HW2 8694   5.491   2.405   2.338
 2599SOL     OW 8695   2.554   5.684   2.198
 2599SOL    HW1 8696   2.520   5.590   2.190
 2599SOL    HW2 8697   2.627   5.687   2.266
 2600SOL     OW 8698   5.588   3.591   4.076
 2600SOL    HW1 8699   5.501   3.627   4.042
 2600SOL    HW2 8700   5.656   3.596   4.003
 2601SOL     OW 8701   6.503   1.451   3.765
 2601SOL    HW1 8702   6.556   1.534   3.781
 2601SOL    HW2 8703   6.408   1.466   3.792
 2602SOL     OW 8704   0.960   4.594   2.537
 2602SOL    HW1 8705   0.939   4.523   2.605
 2602SOL    HW2 8706   0.895   4.670   2.547
 2603SOL     OW 8707   2.526   6.478   2.612
 2603SOL    HW1 8708   2.611   6.494   2.563
 2603SOL    HW2 8709   2.533   6.515   2.705
 2604SOL     OW 8710   4.627   2.642   3.745
 2604SOL    HW1 8711   4.630   2.561   3.804
 2604SOL    HW2 8712   4.573   2.713   3.788
 2605SOL     OW 8713   1.435   3.914   1.969
 2605SOL    HW1 8714   1.349   3.954   1.937
 2605SOL    HW2 8715   1.483   3.871   1.893
 2606SOL     OW 8716   4.994   3.846   0.998
 2606SOL    HW1 8717   5.000   3.782   0.922
 2606SOL    HW2 8718   5.074   3.907   0.998
 2607SOL     OW 8719   2.387   2.561   1.429
 2607SOL    HW1 8720   2.375   2.643   1.373
 2607SOL    HW2 8721   2.479   2.525   1.417
 2608SOL     OW 8722   2.745   5.238   5.801
 2608SOL    HW1 8723   2.704   5.208   5.715
 2608SOL    HW2 8724   2.843   5.217   5.799
 2609SOL     OW 8725   0.716   2.373   0.746
 2609SOL    HW1 8726   0.616   2.377   0.749
 2609SOL    HW2 8727   0.748   2.297   0.803
 2610SOL     OW 8728   1.518   3.932   4.860
 2610SOL    HW1 8729   1.606   3.974   4.884
 2610SOL    HW2 8730   1.525   3.833   4.870
 2611SOL     OW 8731   5.009   0.261   6.084
 2611SOL    HW1 8732   4.910   0.252   6.084
 2611SOL    HW2 8733   5.050   0.182   6.036
 2612SOL     OW 8734   6.481   6.833   6.537
 2612SOL    HW1 8735   6.418   6.892   6.486
 2612SOL    HW2 8736   6.526   6.770   6.473
 2613SOL     OW 8737   1.168   6.657   6.741
 2613SOL    HW1 8738   1.086   6.641   6.685
 2613SOL    HW2 8739   1.141   6.697   6.828
 2614SOL     OW 8740   6.190   2.164   0.005
 2614SOL    HW1 8741   6.245   2.179   0.087
 2614SOL    HW2 8742   6.123   2.091   0.023
 2615SOL     OW 8743   0.272   3.437   6.659
 2615SOL    HW1 8744   0.364   3.465   6.685
 2615SOL    HW2 8745   0.277   3.361   6.595
 2616SOL     OW 8746   1.374   0.809   5.414
 2616SOL    HW1 8747   1.455   0.818   5.356
 2616SOL    HW2 8748   1.292   0.809   5.357
 2617SOL     OW 8749   5.015   6.876   1.538
 2617SOL    HW1 8750   5.000   6.946   1.469
 2617SOL    HW2 8751   5.038   6.789   1.494
 2618SOL     OW 8752   1.305   6.931   6.005
 2618SOL    HW1 8753   1.362   6.889   6.075
 2618SOL    HW2 8754   1.281   0.000   6.033
 2619SOL     OW 8755   4.845   0.947   2.658
 2619SOL    HW1 8756   4.777   1.012   2.622
 2619SOL    HW2 8757   4.812   0.854   2.644
 2620SOL     OW 8758   6.089   1.881   1.649
 2620SOL    HW1 8759   6.112   1.829   1.731
 2620SOL    HW2 8760   6.001   1.848   1.612
 2621SOL     OW 8761   2.193   6.473   1.563
 2621SOL    HW1 8762   2.136   6.422   1.499
 2621SOL    HW2 8763   2.182   6.571   1.547
 2622SOL     OW 8764   2.683   4.086   0.091
 2622SOL    HW1 8765   2.700   4.041   0.003
 2622SOL    HW2 8766   2.704   4.023   0.165
 2623SOL     OW 8767   7.015   0.089   3.508
 2623SOL    HW1 8768   6.974   0.121   3.422
 2623SOL    HW2 8769   7.017   0.164   3.573
 2624SOL     OW 8770   0.937   1.460   5.304
 2624SOL    HW1 8771   0.957   1.406   5.222
 2624SOL    HW2 8772   1.003   1.437   5.376
 2625SOL     OW 8773   2.575   5.764   6.126
 2625SOL    HW1 8774   2.478   5.771   6.149
 2625SOL    HW2 8775   2.585   5.732   6.032
 2626SOL     OW 8776   6.786   6.645   6.885
 2626SOL    HW1 8777   6.719   6.703   6.932
 2626SOL    HW2 8778   6.845   6.702   6.828
 2627SOL     OW 8779   2.098   0.695   5.744
 2627SOL    HW1 8780   2.048   0.611   5.722
 2627SOL    HW2 8781   2.036   0.761   5.787
 2628SOL     OW 8782   0.230   4.974   1.398
 2628SOL    HW1 8783   0.183   4.905   1.453
 2628SOL    HW2 8784   0.300   4.929   1.342
 2629SOL     OW 8785   3.348   3.818   2.472
 2629SOL    HW1 8786   3.418   3.849   2.536
 2629SOL    HW2 8787   3.387   3.748   2.411
 2630SOL     OW 8788   3.670   0.451   3.908
 2630SOL    HW1 8789   3.642   0.535   3.860
 2630SOL    HW2 8790   3.753   0.470   3.961
 2631SOL     OW 8791   5.600   6.713   0.130
 2631SOL    HW1 8792   5.520   6.763   0.164
 2631SOL    HW2 8793   5.569   6.633   0.078
 2632SOL     OW 8794   5.760   4.938   2.005
 2632SOL    HW1 8795   5.812   5.023   1.998
 2632SOL    HW2 8796   5.702   4.928   1.924
 2633SOL     OW 8797   0.285   3.387   6.012
 2633SOL    HW1 8798   0.356   3.440   5.965
 2633SOL    HW2 8799   0.300   3.391   6.111
 2634SOL     OW 8800   1.153   1.681   5.531
 2634SOL    HW1 8801   1.086   1.617   5.569
 2634SOL    HW2 8802   1.106   1.765   5.503
 2635SOL     OW 8803   4.104   5.110   3.653
 2635SOL    HW1 8804   4.068   5.137   3.742
 2635SOL    HW2 8805   4.095   5.187   3.589
 2636SOL     OW 8806   3.560   6.588   6.102
 2636SOL    HW1 8807   3.525   6.590   6.196
 2636SOL    HW2 8808   3.627   6.514   6.092
 2637SOL     OW 8809   0.176   0.734   3.108
 2637SOL    HW1 8810   0.142   0.640   3.103
 2637SOL    HW2 8811   0.153   0.782   3.023
 2638SOL     OW 8812   0.743   6.825   4.376
 2638SOL    HW1 8813   0.780   6.792   4.463
 2638SOL    HW2 8814   0.666   6.887   4.393
 2639SOL     OW 8815   4.652   4.956   4.850
 2639SOL    HW1 8816   4.648   5.034   4.913
 2639SOL    HW2 8817   4.635   4.871   4.901
 2640SOL     OW 8818   2.576   1.043   3.699
 2640SOL    HW1 8819   2.549   1.133   3.733
 2640SOL    HW2 8820   2.639   1.054   3.622
 2641SOL     OW 8821   5.050   1.955   0.223
 2641SOL    HW1 8822   5.110   1.877   0.242
 2641SOL    HW2 8823   5.102   2.040   0.234
 2642SOL     OW 8824   6.993   0.066   2.716
 2642SOL    HW1 8825   0.006   0.110   2.634
 2642SOL    HW2 8826   0.041   0.012   2.761
 2643SOL     OW 8827   1.231   4.773   4.421
 2643SOL    HW1 8828   1.304   4.837   4.445
 2643SOL    HW2 8829   1.188   4.740   4.505
 2644SOL     OW 8830   5.464   5.618   4.554
 2644SOL    HW1 8831   5.417   5.606   4.641
 2644SOL    HW2 8832   5.493   5.529   4.518
 2645SOL     OW 8833   4.822   5.867   3.168
 2645SOL    HW1 8834   4.873   5.952   3.173
 2645SOL    HW2 8835   4.875   5.793   3.210
 2646SOL     OW 8836   0.584   2.191   6.409
 2646SOL    HW1 8837   0.532   2.246   6.343
 2646SOL    HW2 8838   0.660   2.146   6.363
 2647SOL     OW 8839   4.819   6.818   2.786
 2647SOL    HW1 8840   4.796   6.861   2.699
 2647SOL    HW2 8841   4.774   6.729   2.792
 2648SOL     OW 8842   1.273   0.148   6.140
 2648SOL    HW1 8843   1.363   0.150   6.183
 2648SOL    HW2 8844   1.247   0.241   6.112
 2649SOL     OW 8845   5.042   1.660   3.490
 2649SOL    HW1 8846   5.104   1.717   3.544
 2649SOL    HW2 8847   5.020   1.707   3.404
 2650SOL     OW 8848   1.957   7.014   3.756
 2650SOL    HW1 8849   1.862   0.023   3.766
 2650SOL    HW2 8850   1.998   0.032   3.676
 2651SOL     OW 8851   4.231   2.061   4.133
 2651SOL    HW1 8852   4.226   1.994   4.206
 2651SOL    HW2 8853   4.243   2.014   4.045
 2652SOL     OW 8854   5.264   4.211   5.116
 2652SOL    HW1 8855   5.232   4.302   5.090
 2652SOL    HW2 8856   5.214   4.180   5.196
 2653SOL     OW 8857   1.979   6.375   6.859
 2653SOL    HW1 8858   1.993   6.303   6.927
 2653SOL    HW2 8859   2.039   6.358   6.781
 2654SOL     OW 8860   0.198   1.056   0.930
 2654SOL    HW1 8861   0.242   1.012   0.852
 2654SOL    HW2 8862   0.250   1.036   1.013
 2655SOL     OW 8863   5.646   6.146   2.875
 2655SOL    HW1 8864   5.642   6.185   2.783
 2655SOL    HW2 8865   5.665   6.218   2.941
 2656SOL     OW 8866   4.642   5.615   3.710
 2656SOL    HW1 8867   4.708   5.682   3.677
 2656SOL    HW2 8868   4.691   5.532   3.740
 2657SOL     OW 8869   1.060   3.342   6.756
 2657SOL    HW1 8870   1.150   3.351   6.797
 2657SOL    HW2 8871   1.051   3.251   6.716
 2658SOL     OW 8872   3.653   4.931   0.038
 2658SOL    HW1 8873   3.638   5.014   7.009
 2658SOL    HW2 8874   3.714   4.951   0.115
 2659SOL     OW 8875   0.313   1.972   5.527
 2659SOL    HW1 8876   0.386   1.923   5.574
 2659SOL    HW2 8877   0.351   2.052   5.481
 2660SOL     OW 8878   0.340   1.433   0.991
 2660SOL    HW1 8879   0.306   1.516   1.034
 2660SOL    HW2 8880   0.440   1.431   0.997
 2661SOL     OW 8881   1.747   1.277   1.625
 2661SOL    HW1 8882   1.725   1.272   1.527
 2661SOL    HW2 8883   1.706   1.199   1.672
 2662SOL     OW 8884   2.737   1.916   2.103
 2662SOL    HW1 8885   2.747   1.839   2.040
 2662SOL    HW2 8886   2.739   2.002   2.052
 2663SOL     OW 8887   3.607   0.271   0.820
 2663SOL    HW1 8888   3.682   0.334   0.799
 2663SOL    HW2 8889   3.547   0.313   0.888
 2664SOL     OW 8890   4.937   3.575   5.461
 2664SOL    HW1 8891   4.886   3.507   5.410
 2664SOL    HW2 8892   4.891   3.595   5.547
 2665SOL     OW 8893   1.679   3.172   3.691
 2665SOL    HW1 8894   1.655   3.164   3.594
 2665SOL    HW2 8895   1.732   3.256   3.705
 2666SOL     OW 8896   2.082   4.253   1.906
 2666SOL    HW1 8897   2.129   4.180   1.855
 2666SOL    HW2 8898   2.145   4.291   1.974
 2667SOL     OW 8899   6.748   2.612   5.197
 2667SOL    HW1 8900   6.673   2.642   5.138
 2667SOL    HW2 8901   6.756   2.512   5.193
 2668SOL     OW 8902   6.250   0.689   3.503
 2668SOL    HW1 8903   6.284   0.783   3.507
 2668SOL    HW2 8904   6.327   0.625   3.497
 2669SOL     OW 8905   2.569   1.123   1.337
 2669SOL    HW1 8906   2.640   1.193   1.335
 2669SOL    HW2 8907   2.562   1.080   1.247
 2670SOL     OW 8908   0.332   0.256   0.055
 2670SOL    HW1 8909   0.378   0.344   0.065
 2670SOL    HW2 8910   0.396   0.189   0.017
 2671SOL     OW 8911   5.540   4.633   6.125
 2671SOL    HW1 8912   5.558   4.730   6.143
 2671SOL    HW2 8913   5.616   4.594   6.073
 2672SOL     OW 8914   2.580   0.978   2.253
 2672SOL    HW1 8915   2.568   0.992   2.351
 2672SOL    HW2 8916   2.615   1.062   2.212
 2673SOL     OW 8917   3.479   0.097   2.529
 2673SOL    HW1 8918   3.542   0.151   2.585
 2673SOL    HW2 8919   3.439   0.025   2.586
 2674SOL     OW 8920   6.937   5.970   3.212
 2674SOL    HW1 8921   6.921   6.065   3.242
 2674SOL    HW2 8922   6.879   5.909   3.265
 2675SOL     OW 8923   4.855   0.787   4.824
 2675SOL    HW1 8924   4.901   0.786   4.735
 2675SOL    HW2 8925   4.815   0.697   4.841
 2676SOL     OW 8926   4.104   3.772   4.013
 2676SOL    HW1 8927   4.080   3.831   4.090
 2676SOL    HW2 8928   4.055   3.801   3.931
 2677SOL     OW 8929   1.912   6.095   0.400
 2677SOL    HW1 8930   1.854   6.164   0.442
 2677SOL    HW2 8931   1.857   6.034   0.344
 2678SOL     OW 8932   3.421   2.047   2.524
 2678SOL    HW1 8933   3.399   1.959   2.480
 2678SOL    HW2 8934   3.337   2.101   2.534
 2679SOL     OW 8935   1.426   3.335   2.467
 2679SOL    HW1 8936   1.459   3.243   2.447
 2679SOL    HW2 8937   1.476   3.372   2.545
 2680SOL     OW 8938   5.384   2.651   6.993
 2680SOL    HW1 8939   5.340   2.741   6.992
 2680SOL    HW2 8940   5.476   2.660   0.007
 2681SOL     OW 8941   2.164   2.524   3.647
 2681SOL    HW1 8942   2.171   2.579   3.731
 2681SOL    HW2 8943   2.254   2.490   3.622
 2682SOL     OW 8944   3.522   3.782   1.756
 2682SOL    HW1 8945   3.517   3.804   1.853
 2682SOL    HW2 8946   3.609   3.736   1.737
 2683SOL     OW 8947   2.138   3.892   1.572
 2683SOL    HW1 8948   2.097   3.816   1.623
 2683SOL    HW2 8949   2.177   3.958   1.636
 2684SOL     OW 8950   6.264   0.565   3.747
 2684SOL    HW1 8951   6.305   0.533   3.661
 2684SOL    HW2 8952   6.307   0.651   3.773
 2685SOL     OW 8953   0.989   6.512   5.535
 2685SOL    HW1 8954   1.013   6.434   5.478
 2685SOL    HW2 8955   1.072   6.561   5.561
 2686SOL     OW 8956   1.459   0.743   5.921
 2686SOL    HW1 8957   1.410   0.777   6.002
 2686SOL    HW2 8958   1.438   0.802   5.843
 2687SOL     OW 8959   4.518   1.759   1.389
 2687SOL    HW1 8960   4.539   1.738   1.293
 2687SOL    HW2 8961   4.602   1.791   1.434
 2688SOL     OW 8962   4.136   2.642   0.218
 2688SOL    HW1 8963   4.066   2.671   0.153
 2688SOL    HW2 8964   4.094   2.631   0.308
 2689SOL     OW 8965   0.482   4.054   2.738
 2689SOL    HW1 8966   0.474   4.024   2.833
 2689SOL    HW2 8967   0.445   4.146   2.729
 2690SOL     OW 8968   5.468   1.074   5.245
 2690SOL    HW1 8969   5.373   1.099   5.224
 2690SOL    HW2 8970   5.470   0.981   5.282
 2691SOL     OW 8971   0.375   3.624   5.029
 2691SOL    HW1 8972   0.355   3.708   5.079
 2691SOL    HW2 8973   0.418   3.557   5.090
 2692SOL     OW 8974   2.761   5.510   2.036
 2692SOL    HW1 8975   2.794   5.416   2.029
 2692SOL    HW2 8976   2.678   5.521   1.982
 2693SOL     OW 8977   1.304   5.404   2.721
 2693SOL    HW1 8978   1.399   5.393   2.749
 2693SOL    HW2 8979   1.244   5.378   2.797
 2694SOL     OW 8980   2.606   0.333   2.224
 2694SOL    HW1 8981   2.560   0.318   2.312
 2694SOL    HW2 8982   2.602   0.250   2.169
 2695SOL     OW 8983   6.774   4.918   3.492
 2695SOL    HW1 8984   6.697   4.975   3.463
 2695SOL    HW2 8985   6.740   4.830   3.526
 2696SOL     OW 8986   4.374   4.604   6.696
 2696SOL    HW1 8987   4.356   4.588   6.793
 2696SOL    HW2 8988   4.329   4.688   6.667
 2697SOL     OW 8989   3.652   2.050   0.668
 2697SOL    HW1 8990   3.584   2.030   0.739
 2697SOL    HW2 8991   3.734   1.997   0.685
 2698SOL     OW 8992   1.403   5.655   5.982
 2698SOL    HW1 8993   1.363   5.563   5.983
 2698SOL    HW2 8994   1.500   5.649   5.957
 2699SOL     OW 8995   2.904   6.777   2.365
 2699SOL    HW1 8996   2.859   6.693   2.394
 2699SOL    HW2 8997   2.989   6.755   2.317
 2700SOL     OW 8998   4.268   2.099   1.618
 2700SOL    HW1 8999   4.195   2.160   1.589
 2700SOL    HW2 9000   4.326   2.146   1.684
 2701SOL     OW 9001   5.406   3.986   5.196
 2701SOL    HW1 9002   5.361   3.920   5.136
 2701SOL    HW2 9003   5.368   4.077   5.181
 2702SOL     OW 9004   2.623   1.357   4.768
 2702SOL    HW1 9005   2.590   1.451   4.760
 2702SOL    HW2 9006   2.617   1.329   4.864
 2703SOL     OW 9007   2.288   6.408   2.870
 2703SOL    HW1 9008   2.373   6.442   2.831
 2703SOL    HW2 9009   2.304   6.378   2.964
 2704SOL     OW 9010   4.581   0.703   3.500
 2704SOL    HW1 9011   4.647   0.683   3.572
 2704SOL    HW2 9012   4.516   0.772   3.531
 2705SOL     OW 9013   1.634   0.302   5.045
 2705SOL    HW1 9014   1.627   0.209   5.009
 2705SOL    HW2 9015   1.721   0.343   5.015
 2706SOL     OW 9016   6.992   4.482   4.023
 2706SOL    HW1 9017   6.947   4.464   4.110
 2706SOL    HW2 9018   0.065   4.503   4.038
 2707SOL     OW 9019   4.481   1.293   3.399
 2707SOL    HW1 9020   4.538   1.232   3.345
 2707SOL    HW2 9021   4.385   1.266   3.390
 2708SOL     OW 9022   5.048   3.408   5.901
 2708SOL    HW1 9023   5.044   3.503   5.933
 2708SOL    HW2 9024   5.126   3.397   5.840
 2709SOL     OW 9025   4.957   1.811   5.694
 2709SOL    HW1 9026   4.978   1.791   5.598
 2709SOL    HW2 9027   4.951   1.910   5.707
 2710SOL     OW 9028   1.264   2.485   4.117
 2710SOL    HW1 9029   1.238   2.558   4.053
 2710SOL    HW2 9030   1.311   2.525   4.196
 2711SOL     OW 9031   4.245   0.521   1.653
 2711SOL    HW1 9032   4.232   0.448   1.587
 2711SOL    HW2 9033   4.336   0.513   1.694
 2712SOL     OW 9034   5.528   6.090   1.608
 2712SOL    HW1 9035   5.455   6.052   1.552
 2712SOL    HW2 9036   5.600   6.022   1.620
 2713SOL     OW 9037   3.849   5.189   5.548
 2713SOL    HW1 9038   3.945   5.164   5.536
 2713SOL    HW2 9039   3.797   5.160   5.467
 2714SOL     OW 9040   3.385   4.386   6.010
 2714SOL    HW1 9041   3.324   4.310   5.988
 2714SOL    HW2 9042   3.392   4.446   5.931
 2715SOL     OW 9043   4.476   6.434   6.949
 2715SOL    HW1 9044   4.453   6.356   7.007
 2715SOL    HW2 9045   4.554   6.483   6.988
 2716SOL     OW 9046   4.385   0.620   3.065
 2716SOL    HW1 9047   4.431   0.686   3.005
 2716SOL    HW2 9048   4.453   0.569   3.117
 2717SOL     OW 9049   1.062   1.822   2.323
 2717SOL    HW1 9050   0.998   1.758   2.281
 2717SOL    HW2 9051   1.155   1.801   2.293
 2718SOL     OW 9052   6.302   1.402   6.096
 2718SOL    HW1 9053   6.218   1.431   6.050
 2718SOL    HW2 9054   6.287   1.401   6.195
 2719SOL     OW 9055   1.474   4.909   3.881
 2719SOL    HW1 9056   1.375   4.916   3.899
 2719SOL    HW2 9057   1.490   4.837   3.813
 2720SOL     OW 9058   2.046   5.745   6.375
 2720SOL    HW1 9059   2.066   5.840   6.351
 2720SOL    HW2 9060   2.085   5.684   6.307
 2721SOL     OW 9061   2.320   6.943   1.988
 2721SOL    HW1 9062   2.354   6.997   1.911
 2721SOL    HW2 9063   2.351   6.849   1.979
 2722SOL     OW 9064   3.822   4.559   6.596
 2722SOL    HW1 9065   3.799   4.464   6.617
 2722SOL    HW2 9066   3.905   4.584   6.646
 2723SOL     OW 9067   4.099   5.705   6.187
 2723SOL    HW1 9068   4.099   5.627   6.250
 2723SOL    HW2 9069   4.115   5.789   6.238
 2724SOL     OW 9070   6.562   5.774   1.550
 2724SOL    HW1 9071   6.568   5.770   1.450
 2724SOL    HW2 9072   6.648   5.809   1.587
 2725SOL     OW 9073   5.965   4.651   3.375
 2725SOL    HW1 9074   6.032   4.605   3.317
 2725SOL    HW2 9075   6.001   4.660   3.468
 2726SOL     OW 9076   6.473   2.084   2.790
 2726SOL    HW1 9077   6.530   2.124   2.719
 2726SOL    HW2 9078   6.386   2.053   2.751
 2727SOL     OW 9079   1.570   5.504   3.298
 2727SOL    HW1 9080   1.534   5.412   3.282
 2727SOL    HW2 9081   1.504   5.572   3.267
 2728SOL     OW 9082   4.614   5.887   5.866
 2728SOL    HW1 9083   4.520   5.857   5.884
 2728SOL    HW2 9084   4.645   5.850   5.778
 2729SOL     OW 9085   6.056   0.489   0.182
 2729SOL    HW1 9086   6.136   0.428   0.184
 2729SOL    HW2 9087   6.053   0.536   0.094
 2730SOL     OW 9088   1.396   5.923   2.527
 2730SOL    HW1 9089   1.347   5.842   2.559
 2730SOL    HW2 9090   1.470   5.894   2.465
 2731SOL     OW 9091   3.207   3.973   4.837
 2731SOL    HW1 9092   3.173   4.025   4.915
 2731SOL    HW2 9093   3.132   3.923   4.795
 2732SOL     OW 9094   5.075   0.637   1.593
 2732SOL    HW1 9095   5.031   0.716   1.634
 2732SOL    HW2 9096   5.014   0.596   1.525
 2733SOL     OW 9097   0.613   6.570   0.389
 2733SOL    HW1 9098   0.688   6.532   0.334
 2733SOL    HW2 9099   0.572   6.647   0.341
 2734SOL     OW 9100   3.797   6.255   2.366
 2734SOL    HW1 9101   3.873   6.201   2.330
 2734SOL    HW2 9102   3.721   6.194   2.390
 2735SOL     OW 9103   0.943   1.661   2.130
 2735SOL    HW1 9104   0.933   1.566   2.101
 2735SOL    HW2 9105   0.869   1.716   2.091
 2736SOL     OW 9106   5.893   4.110   2.615
 2736SOL    HW1 9107   5.881   4.054   2.532
 2736SOL    HW2 9108   5.815   4.171   2.626
 2737SOL     OW 9109   3.263   0.408   5.339
 2737SOL    HW1 9110   3.198   0.457   5.396
 2737SOL    HW2 9111   3.218   0.329   5.297
 2738SOL     OW 9112   4.797   5.445   0.950
 2738SOL    HW1 9113   4.708   5.428   0.992
 2738SOL    HW2 9114   4.869   5.418   1.013
 2739SOL     OW 9115   6.789   5.851   1.688
 2739SOL    HW1 9116   6.866   5.913   1.701
 2739SOL    HW2 9117   6.806   5.766   1.738
 2740SOL     OW 9118   0.220   4.943   3.502
 2740SOL    HW1 9119   0.141   4.977   3.551
 2740SOL    HW2 9120   0.221   4.843   3.504
 2741SOL     OW 9121   1.164   6.693   5.987
 2741SOL    HW1 9122   1.194   6.788   5.991
 2741SOL    HW2 9123   1.083   6.686   5.929
 2742SOL     OW 9124   3.371   5.562   3.131
 2742SOL    HW1 9125   3.346   5.479   3.181
 2742SOL    HW2 9126   3.391   5.540   3.036
 2743SOL     OW 9127   4.967   1.998   2.743
 2743SOL    HW1 9128   4.899   1.937   2.704
 2743SOL    HW2 9129   5.059   1.965   2.719
 2744SOL     OW 9130   3.507   4.043   2.187
 2744SOL    HW1 9131   3.588   4.035   2.245
 2744SOL    HW2 9132   3.434   4.088   2.238
 2745SOL     OW 9133   0.691   5.871   0.311
 2745SOL    HW1 9134   0.645   5.804   0.254
 2745SOL    HW2 9135   0.747   5.823   0.380
 2746SOL     OW 9136   1.714   0.986   3.745
 2746SOL    HW1 9137   1.698   0.934   3.660
 2746SOL    HW2 9138   1.784   1.055   3.729
 2747SOL     OW 9139   4.031   4.710   0.443
 2747SOL    HW1 9140   4.059   4.651   0.519
 2747SOL    HW2 9141   3.949   4.673   0.400
 2748SOL     OW 9142   3.806   0.426   0.802
 2748SOL    HW1 9143   3.803   0.511   0.855
 2748SOL    HW2 9144   3.863   0.359   0.850
 2749SOL     OW 9145   3.268   1.602   0.812
 2749SOL    HW1 9146   3.247   1.579   0.907
 2749SOL    HW2 9147   3.242   1.697   0.794
 2750SOL     OW 9148   3.215   5.760   3.321
 2750SOL    HW1 9149   3.271   5.691   3.275
 2750SOL    HW2 9150   3.232   5.849   3.280
 2751SOL     OW 9151   6.331   4.666   1.157
 2751SOL    HW1 9152   6.234   4.654   1.136
 2751SOL    HW2 9153   6.355   4.763   1.152
 2752SOL     OW 9154   3.832   5.716   6.558
 2752SOL    HW1 9155   3.742   5.748   6.589
 2752SOL    HW2 9156   3.904   5.768   6.605
 2753SOL     OW 9157   5.214   5.746   5.608
 2753SOL    HW1 9158   5.252   5.838   5.618
 2753SOL    HW2 9159   5.267   5.695   5.540
 2754SOL     OW 9160   1.352   0.397   6.039
 2754SOL    HW1 9161   1.258   0.401   6.073
 2754SOL    HW2 9162   1.407   0.467   6.084
 2755SOL     OW 9163   3.505   6.944   2.336
 2755SOL    HW1 9164   3.529   7.023   2.392
 2755SOL    HW2 9165   3.455   6.877   2.392
 2756SOL     OW 9166   4.185   6.026   0.270
 2756SOL    HW1 9167   4.105   6.068   0.312
 2756SOL    HW2 9168   4.234   5.972   0.339
 2757SOL     OW 9169   0.823   5.196   0.578
 2757SOL    HW1 9170   0.826   5.097   0.567
 2757SOL    HW2 9171   0.910   5.236   0.551
 2758SOL     OW 9172   5.145   0.873   5.201
 2758SOL    HW1 9173   5.220   0.810   5.178
 2758SOL    HW2 9174   5.114   0.853   5.294
 2759SOL     OW 9175   4.873   4.973   4.122
 2759SOL    HW1 9176   4.829   4.900   4.175
 2759SOL    HW2 9177   4.847   4.965   4.026
 2760SOL     OW 9178   1.232   6.809   3.569
 2760SOL    HW1 9179   1.228   6.843   3.475
 2760SOL    HW2 9180   1.236   6.709   3.568
 2761SOL     OW 9181   2.210   4.928   4.109
 2761SOL    HW1 9182   2.149   4.863   4.063
 2761SOL    HW2 9183   2.235   4.892   4.199
 2762SOL     OW 9184   2.097   0.802   5.355
 2762SOL    HW1 9185   2.147   0.762   5.432
 2762SOL    HW2 9186   2.160   0.815   5.278
 2763SOL     OW 9187   5.333   0.935   2.218
 2763SOL    HW1 9188   5.356   0.992   2.297
 2763SOL    HW2 9189   5.370   0.843   2.231
 2764SOL     OW 9190   6.290   0.811   1.614
 2764SOL    HW1 9191   6.379   0.789   1.653
 2764SOL    HW2 9192   6.287   0.782   1.519
 2765SOL     OW 9193   5.103   2.249   2.857
 2765SOL    HW1 9194   5.034   2.287   2.795
 2765SOL    HW2 9195   5.080   2.274   2.951
 2766SOL     OW 9196   5.843   0.030   2.683
 2766SOL    HW1 9197   5.893   0.109   2.647
 2766SOL    HW2 9198   5.792   7.010   2.610
 2767SOL     OW 9199   6.071   4.667   6.113
 2767SOL    HW1 9200   6.160   4.670   6.159
 2767SOL    HW2 9201   6.000   4.646   6.180
 2768SOL     OW 9202   6.051   1.612   6.758
 2768SOL    HW1 9203   6.013   1.622   6.850
 2768SOL    HW2 9204   6.135   1.559   6.763
 2769SOL     OW 9205   1.075   4.527   1.034
 2769SOL    HW1 9206   1.089   4.598   1.103
 2769SOL    HW2 9207   0.980   4.496   1.037
 2770SOL     OW 9208   5.849   5.657   1.977
 2770SOL    HW1 9209   5.811   5.699   1.895
 2770SOL    HW2 9210   5.900   5.725   2.029
 2771SOL     OW 9211   5.104   1.292   1.144
 2771SOL    HW1 9212   5.161   1.211   1.156
 2771SOL    HW2 9213   5.008   1.268   1.156
 2772SOL     OW 9214   3.689   2.222   6.767
 2772SOL    HW1 9215   3.616   2.258   6.709
 2772SOL    HW2 9216   3.774   2.218   6.714
 2773SOL     OW 9217   3.310   4.824   0.937
 2773SOL    HW1 9218   3.214   4.850   0.945
 2773SOL    HW2 9219   3.340   4.834   0.842
 2774SOL     OW 9220   5.503   3.363   1.964
 2774SOL    HW1 9221   5.544   3.352   1.873
 2774SOL    HW2 9222   5.406   3.340   1.960
 2775SOL     OW 9223   6.689   6.993   1.887
 2775SOL    HW1 9224   6.625   7.005   1.811
 2775SOL    HW2 9225   6.739   6.907   1.876
 2776SOL     OW 9226   3.015   6.258   6.444
 2776SOL    HW1 9227   3.091   6.231   6.503
 2776SOL    HW2 9228   2.979   6.178   6.397
 2777SOL     OW 9229   2.504   1.994   3.923
 2777SOL    HW1 9230   2.562   1.950   3.854
 2777SOL    HW2 9231   2.465   1.924   3.983
 2778SOL     OW 9232   2.397   2.522   4.524
 2778SOL    HW1 9233   2.313   2.468   4.511
 2778SOL    HW2 9234   2.476   2.471   4.491
 2779SOL     OW 9235   6.475   1.659   1.034
 2779SOL    HW1 9236   6.530   1.722   0.979
 2779SOL    HW2 9237   6.383   1.696   1.045
 2780SOL     OW 9238   3.437   5.952   0.350
 2780SOL    HW1 9239   3.509   6.014   0.383
 2780SOL    HW2 9240   3.363   6.005   0.309
 2781SOL     OW 9241   4.683   4.384   6.939
 2781SOL    HW1 9242   4.689   4.483   6.927
 2781SOL    HW2 9243   4.713   4.339   6.855
 2782SOL     OW 9244   3.098   1.185   6.109
 2782SOL    HW1 9245   3.166   1.228   6.050
 2782SOL    HW2 9246   3.118   1.206   6.205
 2783SOL     OW 9247   0.452   4.239   5.698
 2783SOL    HW1 9248   0.430   4.167   5.763
 2783SOL    HW2 9249   0.383   4.310   5.702
 2784SOL     OW 9250   2.334   2.291   1.700
 2784SOL    HW1 9251   2.410   2.286   1.635
 2784SOL    HW2 9252   2.325   2.205   1.749
 2785SOL     OW 9253   5.973   1.218   1.724
 2785SOL    HW1 9254   6.034   1.139   1.725
 2785SOL    HW2 9255   6.008   1.287   1.661
 2786SOL     OW 9256   3.091   0.400   0.147
 2786SOL    HW1 9257   3.187   0.374   0.150
 2786SOL    HW2 9258   3.034   0.320   0.162
 2787SOL     OW 9259   1.640   3.361   6.175
 2787SOL    HW1 9260   1.617   3.265   6.192
 2787SOL    HW2 9261   1.738   3.369   6.158
 2788SOL     OW 9262   0.088   3.619   6.732
 2788SOL    HW1 9263   0.126   3.712   6.731
 2788SOL    HW2 9264   0.161   3.554   6.711
 2789SOL     OW 9265   0.085   2.735   4.256
 2789SOL    HW1 9266   0.015   2.795   4.215
 2789SOL    HW2 9267   0.169   2.787   4.270
 2790SOL     OW 9268   3.362   6.127   4.495
 2790SOL    HW1 9269   3.342   6.044   4.548
 2790SOL    HW2 9270   3.459   6.150   4.506
 2791SOL     OW 9271   2.132   3.331   2.483
 2791SOL    HW1 9272   2.229   3.348   2.465
 2791SOL    HW2 9273   2.122   3.285   2.571
 2792SOL     OW 9274   1.290   2.012   4.857
 2792SOL    HW1 9275   1.341   2.059   4.785
 2792SOL    HW2 9276   1.352   1.984   4.930
 2793SOL     OW 9277   5.150   0.841   4.065
 2793SOL    HW1 9278   5.238   0.824   4.019
 2793SOL    HW2 9279   5.127   0.938   4.058
 2794SOL     OW 9280   0.896   1.185   1.727
 2794SOL    HW1 9281   0.976   1.235   1.760
 2794SOL    HW2 9282   0.925   1.103   1.677
 2795SOL     OW 9283   1.636   4.271   1.697
 2795SOL    HW1 9284   1.643   4.171   1.702
 2795SOL    HW2 9285   1.685   4.311   1.775
 2796SOL     OW 9286   5.683   4.050   2.181
 2796SOL    HW1 9287   5.648   3.957   2.188
 2796SOL    HW2 9288   5.717   4.066   2.088
 2797SOL     OW 9289   4.692   4.456   4.738
 2797SOL    HW1 9290   4.753   4.386   4.700
 2797SOL    HW2 9291   4.620   4.478   4.672
 2798SOL     OW 9292   1.735   3.617   3.345
 2798SOL    HW1 9293   1.792   3.539   3.370
 2798SOL    HW2 9294   1.768   3.657   3.260
 2799SOL     OW 9295   6.280   5.551   5.834
 2799SOL    HW1 9296   6.296   5.464   5.788
 2799SOL    HW2 9297   6.187   5.583   5.815
 2800SOL     OW 9298   2.864   2.108   6.895
 2800SOL    HW1 9299   2.802   2.103   6.817
 2800SOL    HW2 9300   2.896   2.017   6.919
 2801SOL     OW 9301   4.185   5.693   2.452
 2801SOL    HW1 9302   4.087   5.699   2.436
 2801SOL    HW2 9303   4.203   5.652   2.541
 2802SOL     OW 9304   6.363   0.389   6.083
 2802SOL    HW1 9305   6.434   0.397   6.153
 2802SOL    HW2 9306   6.320   0.478   6.068
 2803SOL     OW 9307   2.443   5.937   5.874
 2803SOL    HW1 9308   2.528   5.884   5.876
 2803SOL    HW2 9309   2.453   6.012   5.807
 2804SOL     OW 9310   0.310   4.935   2.014
 2804SOL    HW1 9311   0.294   4.837   2.027
 2804SOL    HW2 9312   0.361   4.950   1.929
 2805SOL     OW 9313   5.138   3.656   6.652
 2805SOL    HW1 9314   5.051   3.606   6.655
 2805SOL    HW2 9315   5.188   3.630   6.568
 2806SOL     OW 9316   6.590   5.661   2.792
 2806SOL    HW1 9317   6.640   5.737   2.834
 2806SOL    HW2 9318   6.654   5.587   2.771
 2807SOL     OW 9319   4.281   4.671   4.210
 2807SOL    HW1 9320   4.273   4.686   4.309
 2807SOL    HW2 9321   4.316   4.753   4.166
 2808SOL     OW 9322   4.316   5.980   4.345
 2808SOL    HW1 9323   4.324   5.975   4.246
 2808SOL    HW2 9324   4.279   5.894   4.380
 2809SOL     OW 9325   5.356   2.989   0.301
 2809SOL    HW1 9326   5.447   2.956   0.327
 2809SOL    HW2 9327   5.294   2.912   0.289
 2810SOL     OW 9328   1.525   0.584   6.143
 2810SOL    HW1 9329   1.492   0.620   6.231
 2810SOL    HW2 9330   1.521   0.656   6.074
 2811SOL     OW 9331   6.998   1.068   3.883
 2811SOL    HW1 9332   6.926   1.010   3.845
 2811SOL    HW2 9333   0.056   1.061   3.825
 2812SOL     OW 9334   4.842   4.011   2.301
 2812SOL    HW1 9335   4.837   3.948   2.224
 2812SOL    HW2 9336   4.899   4.090   2.277
 2813SOL     OW 9337   6.179   1.799   5.969
 2813SOL    HW1 9338   6.246   1.763   5.904
 2813SOL    HW2 9339   6.158   1.895   5.947
 2814SOL     OW 9340   5.225   4.455   4.715
 2814SOL    HW1 9341   5.301   4.434   4.776
 2814SOL    HW2 9342   5.179   4.538   4.746
 2815SOL     OW 9343   6.861   1.131   4.798
 2815SOL    HW1 9344   6.860   1.048   4.854
 2815SOL    HW2 9345   6.884   1.209   4.855
 2816SOL     OW 9346   5.663   6.463   2.847
 2816SOL    HW1 9347   5.707   6.460   2.757
 2816SOL    HW2 9348   5.644   6.558   2.872
 2817SOL     OW 9349   1.066   1.591   1.278
 2817SOL    HW1 9350   0.968   1.610   1.283
 2817SOL    HW2 9351   1.117   1.662   1.327
 2818SOL     OW 9352   0.742   3.407   6.639
 2818SOL    HW1 9353   0.798   3.489   6.630
 2818SOL    HW2 9354   0.690   3.392   6.555
 2819SOL     OW 9355   6.025   3.081   0.902
 2819SOL    HW1 9356   5.980   3.086   0.813
 2819SOL    HW2 9357   6.032   3.173   0.941
 2820SOL     OW 9358   5.462   2.467   3.667
 2820SOL    HW1 9359   5.377   2.513   3.645
 2820SOL    HW2 9360   5.447   2.368   3.672
 2821SOL     OW 9361   1.507   3.367   4.016
 2821SOL    HW1 9362   1.450   3.404   4.089
 2821SOL    HW2 9363   1.548   3.281   4.046
 2822SOL     OW 9364   2.638   1.791   0.462
 2822SOL    HW1 9365   2.697   1.818   0.387
 2822SOL    HW2 9366   2.652   1.694   0.483
 2823SOL     OW 9367   2.383   6.460   3.565
 2823SOL    HW1 9368   2.349   6.505   3.648
 2823SOL    HW2 9369   2.336   6.498   3.486
 2824SOL     OW 9370   2.760   2.148   5.440
 2824SOL    HW1 9371   2.743   2.232   5.491
 2824SOL    HW2 9372   2.705   2.146   5.357
 2825SOL     OW 9373   6.334   6.101   0.873
 2825SOL    HW1 9374   6.236   6.085   0.888
 2825SOL    HW2 9375   6.385   6.074   0.955
 2826SOL     OW 9376   4.726   2.703   4.395
 2826SOL    HW1 9377   4.746   2.646   4.315
 2826SOL    HW2 9378   4.812   2.730   4.439
 2827SOL     OW 9379   6.489   0.541   6.558
 2827SOL    HW1 9380   6.574   0.562   6.511
 2827SOL    HW2 9381   6.468   0.612   6.624
 2828SOL     OW 9382   3.877   1.932   0.041
 2828SOL    HW1 9383   3.791   1.933   7.014
 2828SOL    HW2 9384   3.871   1.996   0.118
 2829SOL     OW 9385   2.744   0.299   6.603
 2829SOL    HW1 9386   2.675   0.243   6.648
 2829SOL    HW2 9387   2.770   0.374   6.663
 2830SOL     OW 9388   3.302   3.737   6.726
 2830SOL    HW1 9389   3.342   3.740   6.634
 2830SOL    HW2 9390   3.287   3.642   6.753
 2831SOL     OW 9391   6.817   5.787   4.223
 2831SOL    HW1 9392   6.838   5.820   4.315
 2831SOL    HW2 9393   6.728   5.824   4.194
 2832SOL     OW 9394   0.480   1.054   1.820
 2832SOL    HW1 9395   0.390   1.031   1.783
 2832SOL    HW2 9396   0.548   0.988   1.786
 2833SOL     OW 9397   6.498   3.216   2.671
 2833SOL    HW1 9398   6.588   3.216   2.626
 2833SOL    HW2 9399   6.488   3.131   2.724
 2834SOL     OW 9400   4.417   1.011   5.610
 2834SOL    HW1 9401   4.448   0.916   5.603
 2834SOL    HW2 9402   4.317   1.014   5.607
 2835SOL     OW 9403   0.413   6.529   3.411
 2835SOL    HW1 9404   0.316   6.544   3.391
 2835SOL    HW2 9405   0.467   6.599   3.364
 2836SOL     OW 9406   6.522   0.636   0.541
 2836SOL    HW1 9407   6.468   0.719   0.554
 2836SOL    HW2 9408   6.553   0.602   0.630
 2837SOL     OW 9409   6.581   3.143   3.733
 2837SOL    HW1 9410   6.514   3.116   3.803
 2837SOL    HW2 9411   6.614   3.062   3.686
 2838SOL     OW 9412   1.790   4.720   3.986
 2838SOL    HW1 9413   1.698   4.690   4.011
 2838SOL    HW2 9414   1.798   4.819   4.001
 2839SOL     OW 9415   4.903   2.550   0.729
 2839SOL    HW1 9416   4.970   2.479   0.753
 2839SOL    HW2 9417   4.819   2.535   0.781
 2840SOL     OW 9418   6.661   2.921   5.202
 2840SOL    HW1 9419   6.670   2.864   5.284
 2840SOL    HW2 9420   6.632   2.864   5.126
 2841SOL     OW 9421   0.334   6.318   1.543
 2841SOL    HW1 9422   0.416   6.261   1.538
 2841SOL    HW2 9423   0.345   6.399   1.486
 2842SOL     OW 9424   5.904   3.325   2.909
 2842SOL    HW1 9425   5.952   3.238   2.902
 2842SOL    HW2 9426   5.856   3.329   2.997
 2843SOL     OW 9427   4.262   1.322   4.563
 2843SOL    HW1 9428   4.312   1.403   4.593
 2843SOL    HW2 9429   4.281   1.246   4.625
 2844SOL     OW 9430   0.528   3.992   5.855
 2844SOL    HW1 9431   0.612   3.963   5.809
 2844SOL    HW2 9432   0.504   3.926   5.926
 2845SOL     OW 9433   6.770   4.460   6.118
 2845SOL    HW1 9434   6.703   4.414   6.177
 2845SOL    HW2 9435   6.814   4.392   6.059
 2846SOL     OW 9436   4.645   0.995   5.972
 2846SOL    HW1 9437   4.578   1.066   5.951
 2846SOL    HW2 9438   4.606   0.931   6.039
 2847SOL     OW 9439   4.736   4.670   3.911
 2847SOL    HW1 9440   4.756   4.673   4.008
 2847SOL    HW2 9441   4.648   4.624   3.896
 2848SOL     OW 9442   1.952   6.454   5.639
 2848SOL    HW1 9443   1.886   6.383   5.617
 2848SOL    HW2 9444   2.043   6.413   5.647
 2849SOL     OW 9445   2.127   3.112   1.567
 2849SOL    HW1 9446   2.153   3.187   1.627
 2849SOL    HW2 9447   2.209   3.074   1.523
 2850SOL     OW 9448   3.591   0.942   0.326
 2850SOL    HW1 9449   3.547   0.889   0.398
 2850SOL    HW2 9450   3.683   0.969   0.355
 2851SOL     OW 9451   2.544   5.359   6.175
 2851SOL    HW1 9452   2.546   5.295   6.098
 2851SOL    HW2 9453   2.550   5.309   6.261
 2852SOL     OW 9454   0.320   3.017   6.307
 2852SOL    HW1 9455   0.301   2.950   6.379
 2852SOL    HW2 9456   0.299   2.976   6.218
 2853SOL     OW 9457   3.732   2.561   1.427
 2853SOL    HW1 9458   3.668   2.493   1.461
 2853SOL    HW2 9459   3.685   2.649   1.416
 2854SOL     OW 9460   1.144   0.985   3.640
 2854SOL    HW1 9461   1.149   0.999   3.541
 2854SOL    HW2 9462   1.098   1.063   3.683
 2855SOL     OW 9463   3.031   0.785   5.389
 2855SOL    HW1 9464   3.037   0.867   5.446
 2855SOL    HW2 9465   2.951   0.791   5.330
 2856SOL     OW 9466   2.126   1.613   5.422
 2856SOL    HW1 9467   2.029   1.591   5.439
 2856SOL    HW2 9468   2.145   1.705   5.454
 2857SOL     OW 9469   3.566   3.828   3.397
 2857SOL    HW1 9470   3.540   3.896   3.466
 2857SOL    HW2 9471   3.498   3.827   3.324
 2858SOL     OW 9472   5.589   2.276   2.997
 2858SOL    HW1 9473   5.654   2.201   3.005
 2858SOL    HW2 9474   5.517   2.252   2.933
 2859SOL     OW 9475   5.116   6.446   0.518
 2859SOL    HW1 9476   5.046   6.481   0.456
 2859SOL    HW2 9477   5.203   6.494   0.502
 2860SOL     OW 9478   4.179   2.083   0.928
 2860SOL    HW1 9479   4.110   2.101   0.997
 2860SOL    HW2 9480   4.244   2.159   0.924
 2861SOL     OW 9481   3.922   5.189   6.081
 2861SOL    HW1 9482   3.934   5.137   5.996
 2861SOL    HW2 9483   3.875   5.274   6.061
 2862SOL     OW 9484   6.138   0.110   4.289
 2862SOL    HW1 9485   6.150   0.146   4.381
 2862SOL    HW2 9486   6.053   0.144   4.250
 2863SOL     OW 9487   6.762   1.833   6.989
 2863SOL    HW1 9488   6.828   1.845   6.916
 2863SOL    HW2 9489   6.669   1.839   6.952
 2864SOL     OW 9490   3.403   1.575   0.369
 2864SOL    HW1 9491   3.443   1.552   0.281
 2864SOL    HW2 9492   3.304   1.586   0.359
 2865SOL     OW 9493   4.738   5.003   5.366
 2865SOL    HW1 9494   4.638   5.003   5.360
 2865SOL    HW2 9495   4.774   5.093   5.342
 2866SOL     OW 9496   0.030   0.027   6.269
 2866SOL    HW1 9497   7.004   6.982   6.321
 2866SOL    HW2 9498   7.022   0.027   6.174
 2867SOL     OW 9499   6.750   4.014   3.261
 2867SOL    HW1 9500   6.748   3.988   3.358
 2867SOL    HW2 9501   6.780   4.108   3.252
 2868SOL     OW 9502   1.498   4.827   4.885
 2868SOL    HW1 9503   1.490   4.827   4.985
 2868SOL    HW2 9504   1.546   4.910   4.856
 2869SOL     OW 9505   5.940   0.767   2.219
 2869SOL    HW1 9506   5.988   0.812   2.143
 2869SOL    HW2 9507   5.955   0.820   2.303
 2870SOL     OW 9508   4.769   1.850   2.286
 2870SOL    HW1 9509   4.763   1.948   2.268
 2870SOL    HW2 9510   4.848   1.812   2.238
 2871SOL     OW 9511   1.926   1.845   6.392
 2871SOL    HW1 9512   1.988   1.898   6.334
 2871SOL    HW2 9513   1.937   1.748   6.373
 2872SOL     OW 9514   2.138   6.242   3.671
 2872SOL    HW1 9515   2.141   6.256   3.770
 2872SOL    HW2 9516   2.167   6.326   3.625
 2873SOL     OW 9517   0.048   5.799   1.760
 2873SOL    HW1 9518   0.087   5.738   1.828
 2873SOL    HW2 9519   0.016   5.883   1.804
 2874SOL     OW 9520   5.989   1.467   2.427
 2874SOL    HW1 9521   6.085   1.451   2.402
 2874SOL    HW2 9522   5.983   1.551   2.481
 2875SOL     OW 9523   2.798   4.848   1.110
 2875SOL    HW1 9524   2.837   4.837   1.201
 2875SOL    HW2 9525   2.699   4.840   1.114
 2876SOL     OW 9526   0.066   2.028   2.316
 2876SOL    HW1 9527   0.156   1.990   2.293
 2876SOL    HW2 9528   0.013   2.042   2.232
 2877SOL     OW 9529   2.347   3.868   5.776
 2877SOL    HW1 9530   2.262   3.815   5.772
 2877SOL    HW2 9531   2.394   3.863   5.688
 2878SOL     OW 9532   3.368   5.106   0.252
 2878SOL    HW1 9533   3.320   5.081   0.336
 2878SOL    HW2 9534   3.456   5.148   0.275
 2879SOL     OW 9535   4.480   4.796   0.137
 2879SOL    HW1 9536   4.532   4.790   0.222
 2879SOL    HW2 9537   4.405   4.730   0.139
 2880SOL     OW 9538   1.317   0.044   1.818
 2880SOL    HW1 9539   1.414   0.018   1.818
 2880SOL    HW2 9540   1.305   0.127   1.872
 2881SOL     OW 9541   0.649   0.127   6.720
 2881SOL    HW1 9542   0.710   0.050   6.700
 2881SOL    HW2 9543   0.698   0.213   6.706
 2882SOL     OW 9544   6.845   3.273   3.754
 2882SOL    HW1 9545   6.748   3.253   3.759
 2882SOL    HW2 9546   6.890   3.208   3.693
 2883SOL     OW 9547   4.795   6.061   2.472
 2883SOL    HW1 9548   4.881   6.113   2.467
 2883SOL    HW2 9549   4.788   6.018   2.561
 2884SOL     OW 9550   1.628   5.719   2.858
 2884SOL    HW1 9551   1.708   5.774   2.834
 2884SOL    HW2 9552   1.551   5.779   2.879
 2885SOL     OW 9553   0.474   2.448   4.038
 2885SOL    HW1 9554   0.377   2.452   4.063
 2885SOL    HW2 9555   0.497   2.529   3.984
 2886SOL     OW 9556   2.510   3.122   6.339
 2886SOL    HW1 9557   2.550   3.031   6.349
 2886SOL    HW2 9558   2.497   3.142   6.242
 2887SOL     OW 9559   2.561   1.355   5.049
 2887SOL    HW1 9560   2.570   1.361   5.149
 2887SOL    HW2 9561   2.529   1.443   5.014
 2888SOL     OW 9562   0.052   5.038   0.115
 2888SOL    HW1 9563   0.116   4.979   0.065
 2888SOL    HW2 9564   7.021   5.090   0.050
 2889SOL     OW 9565   0.566   6.897   0.992
 2889SOL    HW1 9566   0.469   6.883   1.012
 2889SOL    HW2 9567   0.595   6.830   0.923
 2890SOL     OW 9568   2.943   6.990   0.479
 2890SOL    HW1 9569   2.995   6.983   0.564
 2890SOL    HW2 9570   2.971   0.048   0.430
 2891SOL     OW 9571   2.873   4.819   4.513
 2891SOL    HW1 9572   2.829   4.780   4.593
 2891SOL    HW2 9573   2.967   4.787   4.507
 2892SOL     OW 9574   4.488   4.370   5.417
 2892SOL    HW1 9575   4.465   4.279   5.383
 2892SOL    HW2 9576   4.583   4.371   5.448
 2893SOL     OW 9577   2.943   0.696   5.949
 2893SOL    HW1 9578   2.966   0.635   5.874
 2893SOL    HW2 9579   2.950   0.646   6.036
 2894SOL     OW 9580   3.380   2.606   1.248
 2894SOL    HW1 9581   3.332   2.600   1.336
 2894SOL    HW2 9582   3.414   2.516   1.222
 2895SOL     OW 9583   3.067   3.296   6.829
 2895SOL    HW1 9584   3.030   3.368   6.886
 2895SOL    HW2 9585   3.106   3.224   6.887
 2896SOL     OW 9586   2.295   5.431   1.086
 2896SOL    HW1 9587   2.324   5.415   0.991
 2896SOL    HW2 9588   2.328   5.356   1.144
 2897SOL     OW 9589   1.550   6.814   3.699
 2897SOL    HW1 9590   1.462   6.783   3.736
 2897SOL    HW2 9591   1.589   6.742   3.642
 2898SOL     OW 9592   2.348   4.932   2.593
 2898SOL    HW1 9593   2.303   4.868   2.655
 2898SOL    HW2 9594   2.355   4.891   2.502
 2899SOL     OW 9595   6.324   1.191   0.558
 2899SOL    HW1 9596   6.291   1.138   0.480
 2899SOL    HW2 9597   6.423   1.202   0.551
 2900SOL     OW 9598   2.757   5.662   6.554
 2900SOL    HW1 9599   2.740   5.597   6.628
 2900SOL    HW2 9600   2.783   5.612   6.472
 2901SOL     OW 9601   2.832   0.314   1.201
 2901SOL    HW1 9602   2.861   0.370   1.123
 2901SOL    HW2 9603   2.912   0.292   1.257
 2902SOL     OW 9604   5.429   5.061   1.212
 2902SOL    HW1 9605   5.508   5.007   1.239
 2902SOL    HW2 9606   5.404   5.039   1.118
 2903SOL     OW 9607   2.806   2.400   1.655
 2903SOL    HW1 9608   2.715   2.440   1.660
 2903SOL    HW2 9609   2.848   2.401   1.746
 2904SOL     OW 9610   1.916   3.213   4.535
 2904SOL    HW1 9611   1.971   3.296   4.537
 2904SOL    HW2 9612   1.975   3.133   4.528
 2905SOL     OW 9613   1.336   1.926   1.702
 2905SOL    HW1 9614   1.258   1.898   1.758
 2905SOL    HW2 9615   1.381   2.005   1.745
 2906SOL     OW 9616   5.008   5.692   2.068
 2906SOL    HW1 9617   5.016   5.604   2.115
 2906SOL    HW2 9618   4.915   5.704   2.033
 2907SOL     OW 9619   6.300   0.481   4.465
 2907SOL    HW1 9620   6.313   0.450   4.560
 2907SOL    HW2 9621   6.367   0.552   4.444
 2908SOL     OW 9622   4.395   6.256   5.073
 2908SOL    HW1 9623   4.324   6.188   5.089
 2908SOL    HW2 9624   4.485   6.212   5.072
 2909SOL     OW 9625   1.388   6.006   5.373
 2909SOL    HW1 9626   1.448   6.086   5.383
 2909SOL    HW2 9627   1.325   6.002   5.450
 2910SOL     OW 9628   5.127   6.552   5.129
 2910SOL    HW1 9629   5.216   6.530   5.090
 2910SOL    HW2 9630   5.123   6.518   5.223
 2911SOL     OW 9631   2.211   4.187   3.485
 2911SOL    HW1 9632   2.210   4.229   3.576
 2911SOL    HW2 9633   2.118   4.186   3.449
 2912SOL     OW 9634   2.679   5.145   0.524
 2912SOL    HW1 9635   2.762   5.198   0.543
 2912SOL    HW2 9636   2.681   5.060   0.576
 2913SOL     OW 9637   1.276   3.530   2.775
 2913SOL    HW1 9638   1.236   3.471   2.706
 2913SOL    HW2 9639   1.376   3.520   2.774
 2914SOL     OW 9640   5.041   4.752   5.581
 2914SOL    HW1 9641   5.128   4.794   5.604
 2914SOL    HW2 9642   5.005   4.795   5.497
 2915SOL     OW 9643   3.987   1.453   4.549
 2915SOL    HW1 9644   3.948   1.475   4.638
 2915SOL    HW2 9645   4.079   1.416   4.561
 2916SOL     OW 9646   4.355   5.774   4.649
 2916SOL    HW1 9647   4.307   5.750   4.565
 2916SOL    HW2 9648   4.413   5.698   4.677
 2917SOL     OW 9649   4.608   0.872   2.127
 2917SOL    HW1 9650   4.680   0.821   2.080
 2917SOL    HW2 9651   4.519   0.841   2.094
 2918SOL     OW 9652   0.476   3.299   4.123
 2918SOL    HW1 9653   0.509   3.337   4.210
 2918SOL    HW2 9654   0.438   3.208   4.139
 2919SOL     OW 9655   6.228   6.263   0.272
 2919SOL    HW1 9656   6.164   6.232   0.203
 2919SOL    HW2 9657   6.202   6.354   0.305
 2920SOL     OW 9658   4.390   2.022   3.039
 2920SOL    HW1 9659   4.315   2.082   3.011
 2920SOL    HW2 9660   4.417   2.045   3.132
 2921SOL     OW 9661   0.397   6.819   1.286
 2921SOL    HW1 9662   0.384   6.796   1.383
 2921SOL    HW2 9663   0.492   6.847   1.272
 2922SOL     OW 9664   4.260   6.528   5.392
 2922SOL    HW1 9665   4.277   6.502   5.297
 2922SOL    HW2 9666   4.249   6.445   5.447
 2923SOL     OW 9667   0.083   4.369   0.077
 2923SOL    HW1 9668   0.073   4.420   0.162
 2923SOL    HW2 9669   7.016   4.348   0.040
 2924SOL     OW 9670   6.152   0.135   5.686
 2924SOL    HW1 9671   6.157   0.202   5.760
 2924SOL    HW2 9672   6.221   0.065   5.699
 2925SOL     OW 9673   5.773   3.520   1.247
 2925SOL    HW1 9674   5.847   3.586   1.261
 2925SOL    HW2 9675   5.698   3.539   1.311
 2926SOL     OW 9676   6.750   1.280   3.627
 2926SOL    HW1 9677   6.832   1.287   3.684
 2926SOL    HW2 9678   6.669   1.299   3.683
 2927SOL     OW 9679   0.936   2.903   2.356
 2927SOL    HW1 9680   0.871   2.973   2.329
 2927SOL    HW2 9681   1.015   2.946   2.399
 2928SOL     OW 9682   5.428   6.019   1.109
 2928SOL    HW1 9683   5.457   5.996   1.201
 2928SOL    HW2 9684   5.442   5.940   1.049
 2929SOL     OW 9685   0.899   0.214   5.918
 2929SOL    HW1 9686   0.951   0.130   5.905
 2929SOL    HW2 9687   0.926   0.282   5.850
 2930SOL     OW 9688   3.074   6.562   4.387
 2930SOL    HW1 9689   3.089   6.465   4.368
 2930SOL    HW2 9690   3.002   6.572   4.455
 2931SOL     OW 9691   3.651   5.129   6.886
 2931SOL    HW1 9692   3.696   5.120   6.797
 2931SOL    HW2 9693   3.565   5.179   6.875
 2932SOL     OW 9694   0.960   4.491   1.767
 2932SOL    HW1 9695   1.031   4.539   1.716
 2932SOL    HW2 9696   0.982   4.493   1.865
 2933SOL     OW 9697   4.757   1.851   3.562
 2933SOL    HW1 9698   4.743   1.758   3.526
 2933SOL    HW2 9699   4.786   1.911   3.487
 2934SOL     OW 9700   2.120   1.054   0.455
 2934SOL    HW1 9701   2.046   0.990   0.478
 2934SOL    HW2 9702   2.172   1.017   0.378
 2935SOL     OW 9703   6.712   1.924   1.263
 2935SOL    HW1 9704   6.692   1.832   1.228
 2935SOL    HW2 9705   6.804   1.950   1.234
 2936SOL     OW 9706   3.467   5.928   1.146
 2936SOL    HW1 9707   3.409   5.964   1.073
 2936SOL    HW2 9708   3.524   6.002   1.182
 2937SOL     OW 9709   2.365   4.646   0.199
 2937SOL    HW1 9710   2.318   4.726   0.235
 2937SOL    HW2 9711   2.394   4.587   0.274
 2938SOL     OW 9712   5.262   4.807   5.284
 2938SOL    HW1 9713   5.262   4.887   5.225
 2938SOL    HW2 9714   5.251   4.836   5.379
 2939SOL     OW 9715   0.197   6.692   6.165
 2939SOL    HW1 9716   0.187   6.601   6.125
 2939SOL    HW2 9717   0.244   6.685   6.253
 2940SOL     OW 9718   4.403   0.558   5.236
 2940SOL    HW1 9719   4.312   0.518   5.223
 2940SOL    HW2 9720   4.457   0.501   5.296
 2941SOL     OW 9721   3.094   1.513   5.615
 2941SOL    HW1 9722   3.128   1.496   5.523
 2941SOL    HW2 9723   3.026   1.443   5.639
 2942SOL     OW 9724   3.512   6.478   4.226
 2942SOL    HW1 9725   3.604   6.450   4.198
 2942SOL    HW2 9726   3.445   6.416   4.187
 2943SOL     OW 9727   5.176   3.842   2.617
 2943SOL    HW1 9728   5.107   3.885   2.558
 2943SOL    HW2 9729   5.149   3.748   2.638
 2944SOL     OW 9730   4.284   6.038   6.833
 2944SOL    HW1 9731   4.238   6.113   6.881
 2944SOL    HW2 9732   4.217   5.967   6.810
 2945SOL     OW 9733   3.199   4.127   3.078
 2945SOL    HW1 9734   3.175   4.218   3.045
 2945SOL    HW2 9735   3.224   4.131   3.175
 2946SOL     OW 9736   0.204   5.650   5.838
 2946SOL    HW1 9737   0.241   5.711   5.907
 2946SOL    HW2 9738   0.278   5.621   5.776
 2947SOL     OW 9739   0.182   5.204   0.287
 2947SOL    HW1 9740   0.108   5.227   0.351
 2947SOL    HW2 9741   0.144   5.156   0.208
 2948SOL     OW 9742   5.833   4.447   5.490
 2948SOL    HW1 9743   5.823   4.539   5.529
 2948SOL    HW2 9744   5.774   4.439   5.410
 2949SOL     OW 9745   1.186   6.165   0.535
 2949SOL    HW1 9746   1.125   6.180   0.613
 2949SOL    HW2 9747   1.190   6.068   0.513
 2950SOL     OW 9748   5.158   3.571   4.727
 2950SOL    HW1 9749   5.161   3.567   4.627
 2950SOL    HW2 9750   5.066   3.598   4.756
 2951SOL     OW 9751   6.221   0.962   1.062
 2951SOL    HW1 9752   6.173   0.933   1.144
 2951SOL    HW2 9753   6.171   0.931   0.981
 2952SOL     OW 9754   1.271   4.114   2.286
 2952SOL    HW1 9755   1.187   4.066   2.311
 2952SOL    HW2 9756   1.347   4.050   2.283
 2953SOL     OW 9757   5.649   0.940   2.412
 2953SOL    HW1 9758   5.607   1.017   2.461
 2953SOL    HW2 9759   5.680   0.971   2.322
 2954SOL     OW 9760   6.048   5.969   1.173
 2954SOL    HW1 9761   6.040   5.982   1.075
 2954SOL    HW2 9762   6.142   5.985   1.202
 2955SOL     OW 9763   6.359   2.795   0.530
 2955SOL    HW1 9764   6.303   2.803   0.613
 2955SOL    HW2 9765   6.389   2.700   0.519
 2956SOL     OW 9766   6.498   5.121   2.714
 2956SOL    HW1 9767   6.474   5.135   2.618
 2956SOL    HW2 9768   6.445   5.046   2.752
 2957SOL     OW 9769   0.846   5.015   1.224
 2957SOL    HW1 9770   0.818   5.096   1.172
 2957SOL    HW2 9771   0.857   5.040   1.320
 2958SOL     OW 9772   3.467   4.942   6.611
 2958SOL    HW1 9773   3.443   4.976   6.520
 2958SOL    HW2 9774   3.563   4.913   6.612
 2959SOL     OW 9775   4.275   5.832   0.430
 2959SOL    HW1 9776   4.182   5.795   0.425
 2959SOL    HW2 9777   4.334   5.783   0.366
 2960SOL     OW 9778   2.751   1.703   6.800
 2960SOL    HW1 9779   2.829   1.696   6.737
 2960SOL    HW2 9780   2.673   1.744   6.752
 2961SOL     OW 9781   5.501   1.925   4.354
 2961SOL    HW1 9782   5.586   1.943   4.403
 2961SOL    HW2 9783   5.461   1.839   4.386
 2962SOL     OW 9784   3.912   0.876   3.006
 2962SOL    HW1 9785   3.922   0.797   3.067
 2962SOL    HW2 9786   4.000   0.897   2.964
 2963SOL     OW 9787   2.111   3.299   5.252
 2963SOL    HW1 9788   2.134   3.387   5.294
 2963SOL    HW2 9789   2.038   3.312   5.185
 2964SOL     OW 9790   2.983   6.333   0.281
 2964SOL    HW1 9791   2.967   6.294   0.372
 2964SOL    HW2 9792   3.035   6.418   0.289
 2965SOL     OW 9793   0.338   2.423   5.755
 2965SOL    HW1 9794   0.408   2.369   5.708
 2965SOL    HW2 9795   0.375   2.513   5.777
 2966SOL     OW 9796   4.798   4.371   3.305
 2966SOL    HW1 9797   4.762   4.297   3.361
 2966SOL    HW2 9798   4.725   4.437   3.287
 2967SOL     OW 9799   5.791   2.397   3.859
 2967SOL    HW1 9800   5.776   2.322   3.795
 2967SOL    HW2 9801   5.815   2.361   3.949
 2968SOL     OW 9802   6.780   3.933   3.515
 2968SOL    HW1 9803   6.752   3.861   3.578
 2968SOL    HW2 9804   6.843   3.996   3.562
 2969SOL     OW 9805   4.558   1.087   4.321
 2969SOL    HW1 9806   4.534   1.002   4.368
 2969SOL    HW2 9807   4.480   1.119   4.268
 2970SOL     OW 9808   0.887   4.848   6.314
 2970SOL    HW1 9809   0.794   4.863   6.349
 2970SOL    HW2 9810   0.932   4.937   6.301
 2971SOL     OW 9811   5.274   3.640   3.069
 2971SOL    HW1 9812   5.251   3.719   3.013
 2971SOL    HW2 9813   5.314   3.671   3.155
 2972SOL     OW 9814   1.339   3.979   5.958
 2972SOL    HW1 9815   1.376   3.907   6.017
 2972SOL    HW2 9816   1.276   3.939   5.892
 2973SOL     OW 9817   5.590   0.258   4.469
 2973SOL    HW1 9818   5.602   0.339   4.413
 2973SOL    HW2 9819   5.499   0.220   4.454
 2974SOL     OW 9820   0.408   4.145   1.943
 2974SOL    HW1 9821   0.344   4.155   1.866
 2974SOL    HW2 9822   0.365   4.182   2.026
 2975SOL     OW 9823   0.175   1.489   4.226
 2975SOL    HW1 9824   0.270   1.501   4.256
 2975SOL    HW2 9825   0.144   1.398   4.250
 2976SOL     OW 9826   2.927   6.059   1.605
 2976SOL    HW1 9827   2.890   6.144   1.644
 2976SOL    HW2 9828   2.887   5.981   1.652
 2977SOL     OW 9829   3.537   6.092   4.007
 2977SOL    HW1 9830   3.586   6.131   3.928
 2977SOL    HW2 9831   3.438   6.098   3.990
 2978SOL     OW 9832   3.614   6.726   7.015
 2978SOL    HW1 9833   3.618   6.802   6.951
 2978SOL    HW2 9834   3.699   6.722   0.044
 2979SOL     OW 9835   3.318   1.187   3.345
 2979SOL    HW1 9836   3.286   1.167   3.252
 2979SOL    HW2 9837   3.374   1.270   3.344
 2980SOL     OW 9838   6.683   6.224   4.125
 2980SOL    HW1 9839   6.629   6.160   4.070
 2980SOL    HW2 9840   6.709   6.303   4.069
 2981SOL     OW 9841   1.853   1.504   5.465
 2981SOL    HW1 9842   1.845   1.468   5.372
 2981SOL    HW2 9843   1.763   1.504   5.509
 2982SOL     OW 9844   4.748   6.432   3.002
 2982SOL    HW1 9845   4.809   6.496   3.049
 2982SOL    HW2 9846   4.749   6.344   3.049
 2983SOL     OW 9847   6.719   0.009   2.675
 2983SOL    HW1 9848   6.711   6.935   2.654
 2983SOL    HW2 9849   6.804   0.025   2.725
 2984SOL     OW 9850   5.825   4.880   1.577
 2984SOL    HW1 9851   5.915   4.870   1.620
 2984SOL    HW2 9852   5.831   4.852   1.481
 2985SOL     OW 9853   6.491   1.876   3.220
 2985SOL    HW1 9854   6.533   1.832   3.300
 2985SOL    HW2 9855   6.449   1.805   3.162
 2986SOL     OW 9856   2.241   3.867   5.309
 2986SOL    HW1 9857   2.284   3.920   5.236
 2986SOL    HW2 9858   2.174   3.804   5.270
 2987SOL     OW 9859   4.900   1.855   4.874
 2987SOL    HW1 9860   4.993   1.829   4.898
 2987SOL    HW2 9861   4.902   1.932   4.810
 2988SOL     OW 9862   0.514   0.050   1.640
 2988SOL    HW1 9863   0.566   6.990   1.656
 2988SOL    HW2 9864   0.503   0.099   1.727
 2989SOL     OW 9865   6.416   5.672   0.859
 2989SOL    HW1 9866   6.341   5.656   0.923
 2989SOL    HW2 9867   6.383   5.727   0.782
 2990SOL     OW 9868   3.163   0.738   1.006
 2990SOL    HW1 9869   3.251   0.779   1.033
 2990SOL    HW2 9870   3.129   0.784   0.925
 2991SOL     OW 9871   6.328   4.814   0.226
 2991SOL    HW1 9872   6.231   4.838   0.234
 2991SOL    HW2 9873   6.378   4.849   0.305
 2992SOL     OW 9874   4.256   4.232   6.869
 2992SOL    HW1 9875   4.334   4.247   6.808
 2992SOL    HW2 9876   4.182   4.295   6.844
 2993SOL     OW 9877   1.702   5.494   0.429
 2993SOL    HW1 9878   1.787   5.468   0.476
 2993SOL    HW2 9879   1.643   5.414   0.421
 2994SOL     OW 9880   3.797   6.491   6.698
 2994SOL    HW1 9881   3.714   6.496   6.753
 2994SOL    HW2 9882   3.868   6.549   6.738
 2995SOL     OW 9883   2.620   0.979   5.511
 2995SOL    HW1 9884   2.688   0.953   5.579
 2995SOL    HW2 9885   2.605   1.077   5.514
 2996SOL     OW 9886   4.238   5.886   5.462
 2996SOL    HW1 9887   4.163   5.934   5.418
 2996SOL    HW2 9888   4.243   5.792   5.427
 2997SOL     OW 9889   4.504   6.244   0.352
 2997SOL    HW1 9890   4.493   6.188   0.435
 2997SOL    HW2 9891   4.493   6.341   0.376
 2998SOL     OW 9892   6.139   5.179   5.088
 2998SOL    HW1 9893   6.179   5.103   5.037
 2998SOL    HW2 9894   6.208   5.250   5.102
 2999SOL     OW 9895   3.123   6.989   2.260
 2999SOL    HW1 9896   3.051   0.012   2.209
 2999SOL    HW2 9897   3.113   7.009   2.358
 3000SOL     OW 9898   1.319   2.219   4.458
 3000SOL    HW1 9899   1.250   2.186   4.523
 3000SOL    HW2 9900   1.274   2.250   4.374
 3001SOL     OW 9901   4.515   6.853   5.600
 3001SOL    HW1 9902   4.578   6.898   5.537
 3001SOL    HW2 9903   4.526   6.893   5.691
 3002SOL     OW 9904   3.179   0.562   5.738
 3002SOL    HW1 9905   3.151   0.530   5.647
 3002SOL    HW2 9906   3.184   0.483   5.800
 3003SOL     OW 9907   2.318   0.050   5.872
 3003SOL    HW1 9908   2.399   0.097   5.907
 3003SOL    HW2 9909   2.257   0.029   5.948
 3004SOL     OW 9910   6.331   3.356   5.370
 3004SOL    HW1 9911   6.281   3.419   5.430
 3004SOL    HW2 9912   6.266   3.305   5.314
 3005SOL     OW 9913   4.390   2.283   1.283
 3005SOL    HW1 9914   4.429   2.352   1.221
 3005SOL    HW2 9915   4.442   2.198   1.277
 3006SOL     OW 9916   4.730   0.604   0.958
 3006SOL    HW1 9917   4.640   0.568   0.985
 3006SOL    HW2 9918   4.735   0.701   0.980
 3007SOL     OW 9919   6.377   5.212   1.924
 3007SOL    HW1 9920   6.290   5.180   1.960
 3007SOL    HW2 9921   6.444   5.138   1.927
 3008SOL     OW 9922   4.745   5.782   5.647
 3008SOL    HW1 9923   4.820   5.720   5.670
 3008SOL    HW2 9924   4.677   5.733   5.592
 3009SOL     OW 9925   1.424   1.064   2.638
 3009SOL    HW1 9926   1.475   1.121   2.703
 3009SOL    HW2 9927   1.433   0.968   2.665
 3010SOL     OW 9928   2.778   6.550   2.474
 3010SOL    HW1 9929   2.853   6.514   2.530
 3010SOL    HW2 9930   2.777   6.503   2.385
 3011SOL     OW 9931   5.546   0.571   0.212
 3011SOL    HW1 9932   5.523   0.668   0.201
 3011SOL    HW2 9933   5.525   0.522   0.127
 3012SOL     OW 9934   0.078   4.379   1.947
 3012SOL    HW1 9935   0.154   4.353   2.006
 3012SOL    HW2 9936   0.107   4.375   1.852
 3013SOL     OW 9937   6.438   3.909   2.348
 3013SOL    HW1 9938   6.486   3.868   2.426
 3013SOL    HW2 9939   6.496   3.903   2.267
 3014SOL     OW 9940   5.226   0.498   5.247
 3014SOL    HW1 9941   5.128   0.489   5.229
 3014SOL    HW2 9942   5.239   0.537   5.338
 3015SOL     OW 9943   3.276   2.291   0.033
 3015SOL    HW1 9944   3.213   2.362   0.002
 3015SOL    HW2 9945   3.246   2.256   0.121
 3016SOL     OW 9946   3.997   6.304   3.556
 3016SOL    HW1 9947   4.093   6.331   3.546
 3016SOL    HW2 9948   3.986   6.209   3.527
 3017SOL     OW 9949   6.900   6.343   0.925
 3017SOL    HW1 9950   6.991   6.340   0.884
 3017SOL    HW2 9951   6.839   6.283   0.875
 3018SOL     OW 9952   3.695   6.837   6.198
 3018SOL    HW1 9953   3.716   6.739   6.194
 3018SOL    HW2 9954   3.614   6.855   6.142
 3019SOL     OW 9955   5.095   6.522   2.178
 3019SOL    HW1 9956   5.150   6.484   2.104
 3019SOL    HW2 9957   5.005   6.549   2.143
 3020SOL     OW 9958   2.129   1.294   1.382
 3020SOL    HW1 9959   2.152   1.221   1.318
 3020SOL    HW2 9960   2.076   1.256   1.458
 3021SOL     OW 9961   4.248   0.656   6.258
 3021SOL    HW1 9962   4.228   0.558   6.264
 3021SOL    HW2 9963   4.163   0.707   6.250
 3022SOL     OW 9964   5.873   0.244   1.740
 3022SOL    HW1 9965   5.816   0.192   1.804
 3022SOL    HW2 9966   5.946   0.186   1.705
 3023SOL     OW 9967   5.445   6.972   1.443
 3023SOL    HW1 9968   5.437   6.876   1.470
 3023SOL    HW2 9969   5.408   6.984   1.351
 3024SOL     OW 9970   2.511   6.670   6.803
 3024SOL    HW1 9971   2.417   6.656   6.774
 3024SOL    HW2 9972   2.513   6.709   6.895
 3025SOL     OW 9973   1.756   2.398   2.042
 3025SOL    HW1 9974   1.849   2.428   2.064
 3025SOL    HW2 9975   1.736   2.314   2.092
 3026SOL     OW 9976   1.738   5.157   0.598
 3026SOL    HW1 9977   1.746   5.069   0.551
 3026SOL    HW2 9978   1.802   5.222   0.556
 3027SOL     OW 9979   1.552   1.428   4.180
 3027SOL    HW1 9980   1.563   1.528   4.186
 3027SOL    HW2 9981   1.550   1.401   4.084
 3028SOL     OW 9982   1.351   0.642   4.597
 3028SOL    HW1 9983   1.312   0.724   4.555
 3028SOL    HW2 9984   1.300   0.618   4.679
 3029SOL     OW 9985   5.505   5.246   6.145
 3029SOL    HW1 9986   5.532   5.167   6.200
 3029SOL    HW2 9987   5.437   5.299   6.195
 3030SOL     OW 9988   0.997   1.509   5.650
 3030SOL    HW1 9989   0.980   1.411   5.635
 3030SOL    HW2 9990   1.014   1.525   5.747
 3031SOL     OW 9991   0.916   5.206   0.041
 3031SOL    HW1 9992   0.990   5.219   0.105
 3031SOL    HW2 9993   0.875   5.295   0.017
 3032SOL     OW 9994   4.152   0.415   5.242
 3032SOL    HW1 9995   4.163   0.338   5.305
 3032SOL    HW2 9996   4.079   0.394   5.177
 3033SOL     OW 9997   5.668   4.787   5.791
 3033SOL    HW1 9998   5.655   4.777   5.692
 3033SOL    HW2 9999   5.611   4.863   5.824
 3034SOL     OW10000   2.450   6.933   4.379
 3034SOL    HW110001   2.360   6.968   4.355
 3034SOL    HW210002   2.477   6.969   4.469
 3035SOL     OW10003   6.351   6.801   6.770
 3035SOL    HW110004   6.255   6.820   6.752
 3035SOL    HW210005   6.403   6.811   6.684
 3036SOL     OW10006   1.049   4.863   6.074
 3036SOL    HW110007   1.003   4.800   6.136
 3036SOL    HW210008   1.020   4.957   6.094
 3037SOL     OW10009   6.395   6.659   5.677
 3037SOL    HW110010   6.334   6.589   5.639
 3037SOL    HW210011   6.490   6.635   5.657
 3038SOL     OW10012   5.877   6.314   5.918
 3038SOL    HW110013   5.877   6.224   5.960
 3038SOL    HW210014   5.958   6.323   5.860
 3039SOL     OW10015   0.012   4.871   0.320
 3039SOL    HW110016   0.010   4.921   0.234
 3039SOL    HW210017   7.019   4.934   0.396
 3040SOL     OW10018   2.344   2.177   0.094
 3040SOL    HW110019   2.247   2.187   0.070
 3040SOL    HW210020   2.352   2.168   0.194
 3041SOL     OW10021   1.617   2.277   5.831
 3041SOL    HW110022   1.705   2.291   5.877
 3041SOL    HW210023   1.571   2.198   5.871
 3042SOL     OW10024   5.224   6.820   1.921
 3042SOL    HW110025   5.218   6.895   1.856
 3042SOL    HW210026   5.252   6.736   1.873
 3043SOL     OW10027   6.779   5.216   0.240
 3043SOL    HW110028   6.731   5.304   0.238
 3043SOL    HW210029   6.865   5.227   0.288
 3044SOL     OW10030   3.050   3.712   5.509
 3044SOL    HW110031   2.979   3.682   5.572
 3044SOL    HW210032   3.092   3.796   5.543
 3045SOL     OW10033   5.419   2.186   4.319
 3045SOL    HW110034   5.510   2.217   4.291
 3045SOL    HW210035   5.426   2.093   4.356
 3046SOL     OW10036   2.254   2.471   6.084
 3046SOL    HW110037   2.226   2.566   6.068
 3046SOL    HW210038   2.217   2.413   6.012
 3047SOL     OW10039   0.081   4.757   1.510
 3047SOL    HW110040   0.072   4.782   1.607
 3047SOL    HW210041   7.014   4.735   1.473
 3048SOL     OW10042   3.103   2.652   1.735
 3048SOL    HW110043   3.036   2.725   1.743
 3048SOL    HW210044   3.064   2.567   1.770
 3049SOL     OW10045   1.011   0.093   1.193
 3049SOL    HW110046   0.930   0.095   1.253
 3049SOL    HW210047   1.009   0.010   1.138
 3050SOL     OW10048   2.390   6.093   3.795
 3050SOL    HW110049   2.413   6.062   3.703
 3050SOL    HW210050   2.409   6.191   3.803
 3051SOL     OW10051   2.486   4.400   5.327
 3051SOL    HW110052   2.409   4.455   5.360
 3051SOL    HW210053   2.572   4.442   5.358
 3052SOL     OW10054   5.107   6.458   2.950
 3052SOL    HW110055   5.036   6.388   2.948
 3052SOL    HW210056   5.074   6.538   2.999
 3053SOL     OW10057   4.910   6.702   1.284
 3053SOL    HW110058   4.903   6.615   1.235
 3053SOL    HW210059   5.005   6.719   1.308
 3054SOL     OW10060   2.097   4.242   5.822
 3054SOL    HW110061   2.046   4.202   5.746
 3054SOL    HW210062   2.093   4.180   5.900
 3055SOL     OW10063   5.771   6.495   2.599
 3055SOL    HW110064   5.859   6.535   2.573
 3055SOL    HW210065   5.776   6.395   2.593
 3056SOL     OW10066   6.034   0.833   1.243
 3056SOL    HW110067   5.980   0.762   1.198
 3056SOL    HW210068   6.003   0.843   1.338
 3057SOL     OW10069   6.681   5.921   2.583
 3057SOL    HW110070   6.594   5.964   2.561
 3057SOL    HW210071   6.731   5.978   2.648
 3058SOL     OW10072   6.351   5.457   1.827
 3058SOL    HW110073   6.259   5.482   1.857
 3058SOL    HW210074   6.370   5.362   1.852
 3059SOL     OW10075   2.063   2.741   5.113
 3059SOL    HW110076   2.134   2.682   5.075
 3059SOL    HW210077   2.029   2.703   5.199
 3060SOL     OW10078   6.720   6.602   0.438
 3060SOL    HW110079   6.647   6.645   0.490
 3060SOL    HW210080   6.774   6.542   0.498
 3061SOL     OW10081   0.278   0.536   6.161
 3061SOL    HW110082   0.326   0.623   6.157
 3061SOL    HW210083   0.340   0.462   6.133
 3062SOL     OW10084   3.136   5.725   6.150
 3062SOL    HW110085   3.167   5.632   6.133
 3062SOL    HW210086   3.038   5.724   6.170
 3063SOL     OW10087   1.983   5.736   0.344
 3063SOL    HW110088   1.976   5.689   0.256
 3063SOL    HW210089   1.910   5.705   0.404
 3064SOL     OW10090   0.101   4.046   3.484
 3064SOL    HW110091   0.051   3.988   3.421
 3064SOL    HW210092   0.162   4.106   3.432
 3065SOL     OW10093   2.677   1.358   1.271
 3065SOL    HW110094   2.727   1.439   1.242
 3065SOL    HW210095   2.589   1.385   1.309
 3066SOL     OW10096   5.322   5.727   0.765
 3066SOL    HW110097   5.412   5.684   0.771
 3066SOL    HW210098   5.258   5.679   0.824
 3067SOL     OW10099   4.490   6.755   3.418
 3067SOL    HW110100   4.563   6.760   3.486
 3067SOL    HW210101   4.440   6.841   3.418
 3068SOL     OW10102   5.806   4.743   0.457
 3068SOL    HW110103   5.784   4.834   0.424
 3068SOL    HW210104   5.868   4.698   0.392
 3069SOL     OW10105   0.872   5.234   3.797
 3069SOL    HW110106   0.779   5.252   3.765
 3069SOL    HW210107   0.881   5.263   3.892
 3070SOL     OW10108   3.923   1.451   4.840
 3070SOL    HW110109   3.896   1.547   4.847
 3070SOL    HW210110   4.010   1.437   4.886
 3071SOL     OW10111   5.594   0.153   4.050
 3071SOL    HW110112   5.612   0.072   3.995
 3071SOL    HW210113   5.598   0.235   3.992
 3072SOL     OW10114   0.878   0.848   2.195
 3072SOL    HW110115   0.976   0.866   2.181
 3072SOL    HW210116   0.838   0.923   2.248
 3073SOL     OW10117   1.678   2.660   4.302
 3073SOL    HW110118   1.764   2.610   4.316
 3073SOL    HW210119   1.679   2.744   4.356
 3074SOL     OW10120   4.807   3.465   6.258
 3074SOL    HW110121   4.795   3.459   6.158
 3074SOL    HW210122   4.730   3.515   6.298
 3075SOL     OW10123   0.051   5.962   0.880
 3075SOL    HW110124   0.055   5.956   0.780
 3075SOL    HW210125   0.110   5.893   0.921
 3076SOL     OW10126   1.011   0.431   5.203
 3076SOL    HW110127   0.976   0.513   5.159
 3076SOL    HW210128   1.036   0.364   5.134
 3077SOL     OW10129   5.393   4.156   4.154
 3077SOL    HW110130   5.367   4.218   4.227
 3077SOL    HW210131   5.343   4.179   4.070
 3078SOL     OW10132   2.267   3.339   0.520
 3078SOL    HW110133   2.273   3.257   0.576
 3078SOL    HW210134   2.321   3.327   0.437
 3079SOL     OW10135   5.247   2.807   6.258
 3079SOL    HW110136   5.268   2.724   6.310
 3079SOL    HW210137   5.151   2.832   6.273
 3080SOL     OW10138   6.082   5.802   0.685
 3080SOL    HW110139   6.068   5.713   0.729
 3080SOL    HW210140   6.004   5.822   0.626
 3081SOL     OW10141   6.628   4.869   5.839
 3081SOL    HW110142   6.547   4.902   5.889
 3081SOL    HW210143   6.663   4.943   5.781
 3082SOL     OW10144   2.596   0.188   1.922
 3082SOL    HW110145   2.606   0.092   1.950
 3082SOL    HW210146   2.600   0.193   1.822
 3083SOL     OW10147   3.534   0.569   2.272
 3083SOL    HW110148   3.533   0.471   2.292
 3083SOL    HW210149   3.570   0.619   2.351
 3084SOL     OW10150   4.410   6.593   4.137
 3084SOL    HW110151   4.427   6.533   4.059
 3084SOL    HW210152   4.339   6.554   4.195
 3085SOL     OW10153   1.086   6.023   1.445
 3085SOL    HW110154   1.184   6.024   1.465
 3085SOL    HW210155   1.065   6.095   1.379
 3086SOL     OW10156   5.846   1.620   3.821
 3086SOL    HW110157   5.766   1.576   3.781
 3086SOL    HW210158   5.829   1.718   3.831
 3087SOL     OW10159   5.550   3.305   2.311
 3087SOL    HW110160   5.592   3.359   2.238
 3087SOL    HW210161   5.621   3.254   2.360
 3088SOL     OW10162   2.756   3.885   5.979
 3088SOL    HW110163   2.747   3.936   6.064
 3088SOL    HW210164   2.848   3.846   5.973
 3089SOL     OW10165   2.567   2.372   0.726
 3089SOL    HW110166   2.653   2.322   0.735
 3089SOL    HW210167   2.538   2.406   0.816
 3090SOL     OW10168   0.341   1.699   1.182
 3090SOL    HW110169   0.332   1.619   1.241
 3090SOL    HW210170   0.357   1.780   1.239
 3091SOL     OW10171   2.723   7.018   0.945
 3091SOL    HW110172   2.675   0.027   1.026
 3091SOL    HW210173   2.738   0.070   0.881
 3092SOL     OW10174   3.908   6.201   1.062
 3092SOL    HW110175   3.894   6.131   0.993
 3092SOL    HW210176   4.002   6.196   1.097
 3093SOL     OW10177   5.266   5.811   3.586
 3093SOL    HW110178   5.269   5.850   3.678
 3093SOL    HW210179   5.353   5.767   3.566
 3094SOL     OW10180   3.171   5.428   5.686
 3094SOL    HW110181   3.237   5.494   5.723
 3094SOL    HW210182   3.177   5.427   5.586
 3095SOL     OW10183   2.299   4.757   4.812
 3095SOL    HW110184   2.341   4.836   4.768
 3095SOL    HW210185   2.321   4.757   4.909
 3096SOL     OW10186   6.638   0.738   5.374
 3096SOL    HW110187   6.709   0.695   5.319
 3096SOL    HW210188   6.671   0.752   5.467
 3097SOL     OW10189   1.905   2.648   0.331
 3097SOL    HW110190   1.922   2.592   0.412
 3097SOL    HW210191   1.821   2.618   0.286
 3098SOL     OW10192   4.109   2.174   0.600
 3098SOL    HW110193   4.068   2.220   0.679
 3098SOL    HW210194   4.138   2.242   0.533
 3099SOL     OW10195   1.086   6.105   5.200
 3099SOL    HW110196   1.180   6.133   5.182
 3099SOL    HW210197   1.051   6.053   5.123
 3100SOL     OW10198   6.089   6.186   6.901
 3100SOL    HW110199   6.098   6.237   6.816
 3100SOL    HW210200   6.004   6.135   6.901
 3101SOL     OW10201   4.388   6.853   0.868
 3101SOL    HW110202   4.476   6.843   0.914
 3101SOL    HW210203   4.328   6.777   0.895
 3102SOL     OW10204   0.447   5.785   0.516
 3102SOL    HW110205   0.493   5.785   0.427
 3102SOL    HW210206   0.443   5.691   0.551
 3103SOL     OW10207   4.154   3.784   1.764
 3103SOL    HW110208   4.238   3.832   1.736
 3103SOL    HW210209   4.092   3.849   1.807
 3104SOL     OW10210   6.346   5.403   3.921
 3104SOL    HW110211   6.411   5.397   3.997
 3104SOL    HW210212   6.266   5.456   3.949
 3105SOL     OW10213   6.272   5.954   3.386
 3105SOL    HW110214   6.321   5.907   3.312
 3105SOL    HW210215   6.175   5.959   3.362
 3106SOL     OW10216   6.894   2.871   4.543
 3106SOL    HW110217   6.862   2.820   4.463
 3106SOL    HW210218   6.821   2.874   4.611
 3107SOL     OW10219   2.893   6.676   3.639
 3107SOL    HW110220   2.807   6.626   3.650
 3107SOL    HW210221   2.965   6.631   3.691
 3108SOL     OW10222   3.283   1.092   3.099
 3108SOL    HW110223   3.223   1.015   3.122
 3108SOL    HW210224   3.373   1.058   3.074
 3109SOL     OW10225   4.688   6.045   2.975
 3109SOL    HW110226   4.621   6.082   3.039
 3109SOL    HW210227   4.727   5.960   3.011
 3110SOL     OW10228   1.308   2.645   1.780
 3110SOL    HW110229   1.348   2.639   1.872
 3110SOL    HW210230   1.368   2.699   1.721
 3111SOL     OW10231   6.609   5.112   3.104
 3111SOL    HW110232   6.680   5.063   3.054
 3111SOL    HW210233   6.563   5.176   3.042
 3112SOL     OW10234   3.035   3.689   6.522
 3112SOL    HW110235   3.016   3.591   6.527
 3112SOL    HW210236   2.979   3.737   6.589
 3113SOL     OW10237   4.357   0.040   4.092
 3113SOL    HW110238   4.407   6.978   4.080
 3113SOL    HW210239   4.270   0.036   4.042
 3114SOL     OW10240   5.551   5.596   0.805
 3114SOL    HW110241   5.636   5.579   0.756
 3114SOL    HW210242   5.523   5.513   0.853
 3115SOL     OW10243   2.634   3.493   1.675
 3115SOL    HW110244   2.702   3.561   1.701
 3115SOL    HW210245   2.550   3.508   1.726
 3116SOL     OW10246   0.225   1.545   6.710
 3116SOL    HW110247   0.312   1.533   6.663
 3116SOL    HW210248   0.242   1.552   6.809
 3117SOL     OW10249   3.467   3.853   5.455
 3117SOL    HW110250   3.482   3.771   5.510
 3117SOL    HW210251   3.382   3.897   5.484
 3118SOL     OW10252   5.868   5.247   0.267
 3118SOL    HW110253   5.936   5.286   0.204
 3118SOL    HW210254   5.777   5.251   0.224
 3119SOL     OW10255   2.207   4.953   6.120
 3119SOL    HW110256   2.171   4.879   6.177
 3119SOL    HW210257   2.256   5.019   6.177
 3120SOL     OW10258   2.676   5.792   5.806
 3120SOL    HW110259   2.740   5.719   5.830
 3120SOL    HW210260   2.661   5.792   5.707
 3121SOL     OW10261   0.632   6.154   3.070
 3121SOL    HW110262   0.539   6.147   3.034
 3121SOL    HW210263   0.653   6.250   3.088
 3122SOL     OW10264   2.598   5.504   0.616
 3122SOL    HW110265   2.565   5.430   0.675
 3122SOL    HW210266   2.578   5.592   0.660
 3123SOL     OW10267   3.522   6.722   4.618
 3123SOL    HW110268   3.460   6.689   4.547
 3123SOL    HW210269   3.589   6.652   4.639
 3124SOL     OW10270   3.986   0.307   6.268
 3124SOL    HW110271   4.073   0.344   6.236
 3124SOL    HW210272   3.982   0.209   6.250
 3125SOL     OW10273   6.911   2.060   5.726
 3125SOL    HW110274   6.954   2.080   5.637
 3125SOL    HW210275   6.895   2.145   5.775
 3126SOL     OW10276   3.389   6.958   0.545
 3126SOL    HW110277   3.419   6.993   0.633
 3126SOL    HW210278   3.326   6.881   0.559
 3127SOL     OW10279   1.547   1.120   3.879
 3127SOL    HW110280   1.616   1.066   3.832
 3127SOL    HW210281   1.469   1.062   3.902
 3128SOL     OW10282   1.085   0.662   0.536
 3128SOL    HW110283   1.073   0.673   0.634
 3128SOL    HW210284   1.008   0.609   0.499
 3129SOL     OW10285   1.926   3.010   3.997
 3129SOL    HW110286   1.958   3.044   4.085
 3129SOL    HW210287   1.995   3.029   3.927
 3130SOL     OW10288   1.961   5.712   3.519
 3130SOL    HW110289   1.881   5.773   3.524
 3130SOL    HW210290   1.952   5.652   3.440
 3131SOL     OW10291   0.499   3.253   3.862
 3131SOL    HW110292   0.476   3.268   3.958
 3131SOL    HW210293   0.518   3.341   3.818
 3132SOL     OW10294   5.215   6.131   5.149
 3132SOL    HW110295   5.275   6.171   5.080
 3132SOL    HW210296   5.192   6.037   5.123
 3133SOL     OW10297   2.491   2.085   3.178
 3133SOL    HW110298   2.464   2.125   3.265
 3133SOL    HW210299   2.489   2.154   3.106
 3134SOL     OW10300   5.494   2.959   1.815
 3134SOL    HW110301   5.477   2.974   1.912
 3134SOL    HW210302   5.408   2.940   1.768
 3135SOL     OW10303   2.628   1.888   3.337
 3135SOL    HW110304   2.633   1.974   3.286
 3135SOL    HW210305   2.533   1.868   3.360
 3136SOL     OW10306   6.473   7.019   5.334
 3136SOL    HW110307   6.539   6.982   5.269
 3136SOL    HW210308   6.452   6.951   5.403
 3137SOL     OW10309   6.955   1.353   4.990
 3137SOL    HW110310   6.890   1.348   5.066
 3137SOL    HW210311   6.938   1.437   4.939
 3138SOL     OW10312   5.479   1.885   4.735
 3138SOL    HW110313   5.561   1.905   4.681
 3138SOL    HW210314   5.440   1.798   4.706
 3139SOL     OW10315   4.965   6.261   5.143
 3139SOL    HW110316   4.929   6.225   5.057
 3139SOL    HW210317   5.061   6.234   5.153
 3140SOL     OW10318   6.266   5.710   6.312
 3140SOL    HW110319   6.235   5.707   6.217
 3140SOL    HW210320   6.268   5.617   6.349
 3141SOL     OW10321   0.828   5.785   0.525
 3141SOL    HW110322   0.855   5.873   0.566
 3141SOL    HW210323   0.849   5.711   0.589
 3142SOL     OW10324   3.516   0.087   6.532
 3142SOL    HW110325   3.432   0.137   6.550
 3142SOL    HW210326   3.576   0.142   6.474
 3143SOL     OW10327   0.237   1.779   0.919
 3143SOL    HW110328   0.290   1.840   0.862
 3143SOL    HW210329   0.288   1.757   1.002
 3144SOL     OW10330   1.725   3.475   6.731
 3144SOL    HW110331   1.675   3.395   6.700
 3144SOL    HW210332   1.779   3.452   6.811
 3145SOL     OW10333   3.251   5.731   3.938
 3145SOL    HW110334   3.344   5.741   3.973
 3145SOL    HW210335   3.254   5.720   3.838
 3146SOL     OW10336   2.139   0.428   3.726
 3146SOL    HW110337   2.102   0.473   3.645
 3146SOL    HW210338   2.117   0.481   3.807
 3147SOL     OW10339   3.462   4.377   0.522
 3147SOL    HW110340   3.483   4.409   0.614
 3147SOL    HW210341   3.467   4.277   0.519
 3148SOL     OW10342   3.517   5.681   5.020
 3148SOL    HW110343   3.468   5.750   5.073
 3148SOL    HW210344   3.553   5.722   4.936
 3149SOL     OW10345   3.180   6.130   6.137
 3149SOL    HW110346   3.142   6.070   6.209
 3149SOL    HW210347   3.270   6.162   6.165
 3150SOL     OW10348   0.221   0.099   4.080
 3150SOL    HW110349   0.234   0.013   4.130
 3150SOL    HW210350   0.261   0.174   4.132
 3151SOL     OW10351   3.848   0.058   0.537
 3151SOL    HW110352   3.888   0.148   0.557
 3151SOL    HW210353   3.752   0.070   0.511
 3152SOL     OW10354   1.480   4.784   6.931
 3152SOL    HW110355   1.481   4.733   7.017
 3152SOL    HW210356   1.572   4.787   6.892
 3153SOL     OW10357   0.051   4.830   2.887
 3153SOL    HW110358   7.017   4.749   2.879
 3153SOL    HW210359   0.023   4.883   2.967
 3154SOL     OW10360   5.602   2.234   6.778
 3154SOL    HW110361   5.694   2.266   6.757
 3154SOL    HW210362   5.605   2.175   6.859
 3155SOL     OW10363   3.710   6.461   0.252
 3155SOL    HW110364   3.719   6.510   0.165
 3155SOL    HW210365   3.698   6.528   0.325
 3156SOL     OW10366   3.610   3.495   3.166
 3156SOL    HW110367   3.666   3.497   3.249
 3156SOL    HW210368   3.521   3.454   3.186
 3157SOL     OW10369   1.870   2.798   4.916
 3157SOL    HW110370   1.880   2.897   4.924
 3157SOL    HW210371   1.932   2.753   4.980
 3158SOL     OW10372   4.282   5.952   1.178
 3158SOL    HW110373   4.219   5.974   1.104
 3158SOL    HW210374   4.329   6.035   1.208
 3159SOL     OW10375   5.450   4.854   0.559
 3159SOL    HW110376   5.548   4.876   0.558
 3159SOL    HW210377   5.423   4.826   0.651
 3160SOL     OW10378   5.860   4.867   0.691
 3160SOL    HW110379   5.842   4.792   0.754
 3160SOL    HW210380   5.849   4.835   0.597
 3161SOL     OW10381   0.775   1.897   2.944
 3161SOL    HW110382   0.694   1.955   2.942
 3161SOL    HW210383   0.852   1.947   2.904
 3162SOL     OW10384   6.444   0.057   5.900
 3162SOL    HW110385   6.404   0.147   5.913
 3162SOL    HW210386   6.494   0.030   5.983
 3163SOL     OW10387   2.040   4.670   5.314
 3163SOL    HW110388   2.093   4.632   5.238
 3163SOL    HW210389   1.943   4.649   5.300
 3164SOL     OW10390   5.830   5.367   6.312
 3164SOL    HW110391   5.816   5.319   6.225
 3164SOL    HW210392   5.753   5.429   6.328
 3165SOL     OW10393   0.203   2.511   1.787
 3165SOL    HW110394   0.181   2.434   1.846
 3165SOL    HW210395   0.234   2.478   1.698
 3166SOL     OW10396   4.458   3.158   6.401
 3166SOL    HW110397   4.394   3.168   6.478
 3166SOL    HW210398   4.410   3.115   6.325
 3167SOL     OW10399   0.333   3.882   1.516
 3167SOL    HW110400   0.392   3.920   1.588
 3167SOL    HW210401   0.274   3.955   1.480
 3168SOL     OW10402   5.136   3.289   0.712
 3168SOL    HW110403   5.134   3.299   0.811
 3168SOL    HW210404   5.113   3.194   0.687
 3169SOL     OW10405   1.918   2.223   4.990
 3169SOL    HW110406   1.956   2.315   4.977
 3169SOL    HW210407   1.948   2.186   5.078
 3170SOL     OW10408   4.518   0.696   5.546
 3170SOL    HW110409   4.610   0.729   5.526
 3170SOL    HW210410   4.522   0.629   5.620
 3171SOL     OW10411   6.327   0.107   3.075
 3171SOL    HW110412   6.295   0.012   3.066
 3171SOL    HW210413   6.404   0.121   3.013
 3172SOL     OW10414   5.859   0.134   5.738
 3172SOL    HW110415   5.952   0.100   5.728
 3172SOL    HW210416   5.860   0.223   5.783
 3173SOL     OW10417   2.237   1.428   1.768
 3173SOL    HW110418   2.155   1.439   1.825
 3173SOL    HW210419   2.296   1.357   1.809
 3174SOL     OW10420   1.806   3.176   6.719
 3174SOL    HW110421   1.869   3.106   6.687
 3174SOL    HW210422   1.845   3.223   6.798
 3175SOL     OW10423   6.688   5.871   0.361
 3175SOL    HW110424   6.769   5.913   0.321
 3175SOL    HW210425   6.673   5.906   0.453
 3176SOL     OW10426   1.187   6.013   6.622
 3176SOL    HW110427   1.163   6.027   6.718
 3176SOL    HW210428   1.236   6.093   6.587
 3177SOL     OW10429   1.183   6.921   4.325
 3177SOL    HW110430   1.150   6.912   4.420
 3177SOL    HW210431   1.137   6.998   4.282
 3178SOL     OW10432   2.366   3.609   0.606
 3178SOL    HW110433   2.341   3.621   0.702
 3178SOL    HW210434   2.318   3.529   0.569
 3179SOL     OW10435   0.942   2.451   3.466
 3179SOL    HW110436   1.001   2.424   3.541
 3179SOL    HW210437   0.996   2.490   3.392
 3180SOL     OW10438   5.770   1.363   6.134
 3180SOL    HW110439   5.861   1.339   6.168
 3180SOL    HW210440   5.701   1.317   6.191
 3181SOL     OW10441   1.132   1.434   2.925
 3181SOL    HW110442   1.128   1.534   2.931
 3181SOL    HW210443   1.047   1.399   2.887
 3182SOL     OW10444   1.575   4.765   5.455
 3182SOL    HW110445   1.592   4.672   5.488
 3182SOL    HW210446   1.526   4.817   5.525
 3183SOL     OW10447   4.892   2.897   1.265
 3183SOL    HW110448   4.968   2.879   1.203
 3183SOL    HW210449   4.912   2.856   1.354
 3184SOL     OW10450   0.814   2.067   3.869
 3184SOL    HW110451   0.791   1.973   3.893
 3184SOL    HW210452   0.824   2.075   3.769
 3185SOL     OW10453   0.376   6.242   6.829
 3185SOL    HW110454   0.291   6.211   6.872
 3185SOL    HW210455   0.423   6.165   6.787
 3186SOL     OW10456   3.388   0.876   1.394
 3186SOL    HW110457   3.377   0.862   1.493
 3186SOL    HW210458   3.324   0.946   1.364
 3187SOL     OW10459   2.909   4.265   0.054
 3187SOL    HW110460   2.917   4.324   0.134
 3187SOL    HW210461   2.830   4.205   0.064
 3188SOL     OW10462   4.233   6.968   3.184
 3188SOL    HW110463   4.314   6.941   3.131
 3188SOL    HW210464   4.178   0.009   3.130
 3189SOL     OW10465   6.744   6.668   2.137
 3189SOL    HW110466   6.702   6.634   2.054
 3189SOL    HW210467   6.677   6.668   2.211
 3190SOL     OW10468   0.650   6.864   1.251
 3190SOL    HW110469   0.708   6.941   1.278
 3190SOL    HW210470   0.612   6.882   1.160
 3191SOL     OW10471   2.918   0.250   0.426
 3191SOL    HW110472   2.895   0.229   0.331
 3191SOL    HW210473   2.896   0.345   0.445
 3192SOL     OW10474   5.960   1.757   3.462
 3192SOL    HW110475   5.864   1.786   3.458
 3192SOL    HW210476   5.998   1.754   3.370
 3193SOL     OW10477   4.615   4.419   1.027
 3193SOL    HW110478   4.644   4.335   1.073
 3193SOL    HW210479   4.694   4.461   0.981
 3194SOL     OW10480   1.529   4.770   5.169
 3194SOL    HW110481   1.554   4.748   5.264
 3194SOL    HW210482   1.584   4.847   5.137
 3195SOL     OW10483   0.704   3.908   3.125
 3195SOL    HW110484   0.682   3.820   3.168
 3195SOL    HW210485   0.796   3.903   3.085
 3196SOL     OW10486   0.158   6.906   5.695
 3196SOL    HW110487   0.203   6.832   5.644
 3196SOL    HW210488   0.106   6.866   5.771
 3197SOL     OW10489   0.210   4.116   4.210
 3197SOL    HW110490   0.181   4.125   4.305
 3197SOL    HW210491   0.278   4.044   4.202
 3198SOL     OW10492   5.357   6.589   0.457
 3198SOL    HW110493   5.454   6.593   0.481
 3198SOL    HW210494   5.345   6.529   0.378
 3199SOL     OW10495   3.702   1.652   3.336
 3199SOL    HW110496   3.785   1.708   3.330
 3199SOL    HW210497   3.624   1.710   3.358
 3200SOL     OW10498   0.132   2.252   0.274
 3200SOL    HW110499   0.072   2.218   0.346
 3200SOL    HW210500   0.207   2.304   0.314
 3201SOL     OW10501   4.581   4.553   3.240
 3201SOL    HW110502   4.499   4.601   3.209
 3201SOL    HW210503   4.560   4.506   3.326
 3202SOL     OW10504   1.184   6.300   1.851
 3202SOL    HW110505   1.197   6.302   1.752
 3202SOL    HW210506   1.111   6.234   1.873
 3203SOL     OW10507   4.982   0.437   1.140
 3203SOL    HW110508   4.968   0.362   1.075
 3203SOL    HW210509   4.936   0.519   1.107
 3204SOL     OW10510   6.385   6.204   2.141
 3204SOL    HW110511   6.299   6.184   2.095
 3204SOL    HW210512   6.366   6.249   2.228
 3205SOL     OW10513   0.999   3.981   3.644
 3205SOL    HW110514   1.009   3.929   3.560
 3205SOL    HW210515   1.083   4.033   3.661
 3206SOL     OW10516   1.711   6.878   0.397
 3206SOL    HW110517   1.722   6.812   0.323
 3206SOL    HW210518   1.666   6.960   0.362
 3207SOL     OW10519   1.258   1.616   2.527
 3207SOL    HW110520   1.353   1.644   2.519
 3207SOL    HW210521   1.213   1.671   2.597
 3208SOL     OW10522   6.085   0.232   4.556
 3208SOL    HW110523   6.146   0.310   4.552
 3208SOL    HW210524   6.064   0.210   4.651
 3209SOL     OW10525   2.221   0.225   2.669
 3209SOL    HW110526   2.168   0.302   2.706
 3209SOL    HW210527   2.253   0.248   2.577
 3210SOL     OW10528   0.553   5.119   1.962
 3210SOL    HW110529   0.477   5.119   1.897
 3210SOL    HW210530   0.517   5.116   2.055
 3211SOL     OW10531   0.784   4.296   2.478
 3211SOL    HW110532   0.734   4.361   2.535
 3211SOL    HW210533   0.821   4.223   2.536
 3212SOL     OW10534   5.023   3.166   5.642
 3212SOL    HW110535   5.068   3.255   5.648
 3212SOL    HW210536   5.057   3.116   5.563
 3213SOL     OW10537   5.012   0.082   1.319
 3213SOL    HW110538   4.926   0.130   1.338
 3213SOL    HW210539   5.032   0.087   1.221
 3214SOL     OW10540   4.220   4.174   6.394
 3214SOL    HW110541   4.216   4.184   6.295
 3214SOL    HW210542   4.163   4.245   6.436
 3215SOL     OW10543   6.250   1.313   0.308
 3215SOL    HW110544   6.297   1.230   0.279
 3215SOL    HW210545   6.164   1.289   0.352
 3216SOL     OW10546   5.381   6.653   4.781
 3216SOL    HW110547   5.293   6.695   4.801
 3216SOL    HW210548   5.448   6.724   4.762
 3217SOL     OW10549   6.474   4.153   0.109
 3217SOL    HW110550   6.481   4.188   0.015
 3217SOL    HW210551   6.506   4.223   0.173
 3218SOL     OW10552   3.677   1.548   2.074
 3218SOL    HW110553   3.708   1.545   2.169
 3218SOL    HW210554   3.604   1.616   2.064
 3219SOL     OW10555   0.341   0.043   3.823
 3219SOL    HW110556   0.294   0.074   3.906
 3219SOL    HW210557   0.439   0.036   3.841
 3220SOL     OW10558   5.888   3.191   6.041
 3220SOL    HW110559   5.900   3.136   5.959
 3220SOL    HW210560   5.817   3.149   6.099
 3221SOL     OW10561   3.902   0.459   2.318
 3221SOL    HW110562   3.995   0.437   2.291
 3221SOL    HW210563   3.890   0.558   2.322
 3222SOL     OW10564   6.723   4.181   2.231
 3222SOL    HW110565   6.711   4.267   2.183
 3222SOL    HW210566   6.724   4.198   2.330
 3223SOL     OW10567   2.197   4.336   3.699
 3223SOL    HW110568   2.251   4.389   3.764
 3223SOL    HW210569   2.111   4.384   3.680
 3224SOL     OW10570   3.107   5.812   1.222
 3224SOL    HW110571   3.202   5.788   1.203
 3224SOL    HW210572   3.059   5.828   1.136
 3225SOL     OW10573   1.881   2.509   1.095
 3225SOL    HW110574   1.784   2.512   1.118
 3225SOL    HW210575   1.902   2.583   1.031
 3226SOL     OW10576   0.237   0.561   4.039
 3226SOL    HW110577   0.166   0.628   4.062
 3226SOL    HW210578   0.246   0.495   4.114
 3227SOL     OW10579   2.063   2.500   5.657
 3227SOL    HW110580   2.131   2.436   5.620
 3227SOL    HW210581   1.991   2.514   5.589
 3228SOL     OW10582   4.935   3.328   5.036
 3228SOL    HW110583   4.881   3.413   5.031
 3228SOL    HW210584   5.016   3.345   5.091
 3229SOL     OW10585   4.676   1.600   5.297
 3229SOL    HW110586   4.721   1.655   5.226
 3229SOL    HW210587   4.707   1.505   5.290
 3230SOL     OW10588   1.810   0.368   3.947
 3230SOL    HW110589   1.756   0.445   3.982
 3230SOL    HW210590   1.885   0.402   3.891
 3231SOL     OW10591   4.788   4.554   0.488
 3231SOL    HW110592   4.880   4.515   0.484
 3231SOL    HW210593   4.734   4.518   0.412
 3232SOL     OW10594   1.478   4.292   2.813
 3232SOL    HW110595   1.532   4.340   2.883
 3232SOL    HW210596   1.537   4.268   2.736
 3233SOL     OW10597   1.864   4.444   0.744
 3233SOL    HW110598   1.835   4.435   0.648
 3233SOL    HW210599   1.910   4.532   0.756
 3234SOL     OW10600   6.441   2.378   5.178
 3234SOL    HW110601   6.361   2.371   5.118
 3234SOL    HW210602   6.520   2.336   5.134
 3235SOL     OW10603   5.542   0.702   2.411
 3235SOL    HW110604   5.602   0.781   2.425
 3235SOL    HW210605   5.559   0.662   2.321
 3236SOL     OW10606   0.099   2.633   1.449
 3236SOL    HW110607   0.168   2.570   1.484
 3236SOL    HW210608   0.144   2.711   1.405
 3237SOL     OW10609   3.234   6.003   4.772
 3237SOL    HW110610   3.246   5.910   4.739
 3237SOL    HW210611   3.156   6.045   4.726
 3238SOL     OW10612   6.512   5.867   6.376
 3238SOL    HW110613   6.415   5.862   6.353
 3238SOL    HW210614   6.566   5.879   6.292
 3239SOL     OW10615   0.620   6.170   5.512
 3239SOL    HW110616   0.696   6.214   5.464
 3239SOL    HW210617   0.652   6.088   5.558
 3240SOL     OW10618   0.409   2.362   4.704
 3240SOL    HW110619   0.386   2.401   4.614
 3240SOL    HW210620   0.360   2.414   4.775
 3241SOL     OW10621   3.963   6.927   4.857
 3241SOL    HW110622   3.969   6.978   4.943
 3241SOL    HW210623   4.041   6.950   4.799
 3242SOL     OW10624   3.223   0.148   0.759
 3242SOL    HW110625   3.222   0.197   0.671
 3242SOL    HW210626   3.314   0.109   0.774
 3243SOL     OW10627   3.305   5.043   1.171
 3243SOL    HW110628   3.267   4.955   1.199
 3243SOL    HW210629   3.255   5.078   1.092
 3244SOL     OW10630   1.156   6.180   5.586
 3244SOL    HW110631   1.196   6.093   5.613
 3244SOL    HW210632   1.085   6.206   5.652
 3245SOL     OW10633   3.226   1.925   5.798
 3245SOL    HW110634   3.323   1.897   5.798
 3245SOL    HW210635   3.206   1.975   5.882
 3246SOL     OW10636   5.490   6.060   3.541
 3246SOL    HW110637   5.544   6.081   3.623
 3246SOL    HW210638   5.401   6.104   3.548
 3247SOL     OW10639   6.541   2.914   5.529
 3247SOL    HW110640   6.476   2.897   5.455
 3247SOL    HW210641   6.608   2.840   5.533
 3248SOL     OW10642   4.981   3.843   2.906
 3248SOL    HW110643   4.953   3.775   2.838
 3248SOL    HW210644   4.900   3.885   2.946
 3249SOL     OW10645   3.163   4.703   5.863
 3249SOL    HW110646   3.217   4.641   5.805
 3249SOL    HW210647   3.143   4.658   5.950
 3250SOL     OW10648   4.731   4.965   1.299
 3250SOL    HW110649   4.669   4.992   1.373
 3250SOL    HW210650   4.794   4.895   1.333
 3251SOL     OW10651   3.669   0.694   3.785
 3251SOL    HW110652   3.605   0.767   3.811
 3251SOL    HW210653   3.763   0.724   3.804
 3252SOL     OW10654   3.586   1.767   3.701
 3252SOL    HW110655   3.548   1.838   3.760
 3252SOL    HW210656   3.534   1.763   3.616
 3253SOL     OW10657   4.955   4.264   1.186
 3253SOL    HW110658   4.954   4.307   1.276
 3253SOL    HW210659   4.872   4.288   1.136
 3254SOL     OW10660   6.315   4.114   2.657
 3254SOL    HW110661   6.380   4.190   2.648
 3254SOL    HW210662   6.228   4.149   2.690
 3255SOL     OW10663   3.813   5.113   0.503
 3255SOL    HW110664   3.830   5.192   0.563
 3255SOL    HW210665   3.842   5.029   0.550
 3256SOL     OW10666   6.418   6.284   5.654
 3256SOL    HW110667   6.381   6.192   5.647
 3256SOL    HW210668   6.365   6.346   5.597
 3257SOL     OW10669   2.498   1.476   1.416
 3257SOL    HW110670   2.531   1.571   1.421
 3257SOL    HW210671   2.401   1.473   1.442
 3258SOL     OW10672   4.946   6.462   1.192
 3258SOL    HW110673   5.029   6.466   1.136
 3258SOL    HW210674   4.905   6.371   1.184
 3259SOL     OW10675   6.000   5.875   3.321
 3259SOL    HW110676   6.037   5.803   3.263
 3259SOL    HW210677   5.929   5.924   3.271
 3260SOL     OW10678   2.160   1.805   1.566
 3260SOL    HW110679   2.231   1.870   1.538
 3260SOL    HW210680   2.146   1.737   1.494
 3261SOL     OW10681   4.721   6.655   3.956
 3261SOL    HW110682   4.730   6.631   4.053
 3261SOL    HW210683   4.667   6.739   3.948
 3262SOL     OW10684   4.024   1.859   4.282
 3262SOL    HW110685   4.001   1.779   4.226
 3262SOL    HW210686   3.985   1.848   4.374
 3263SOL     OW10687   3.418   4.895   2.953
 3263SOL    HW110688   3.490   4.860   3.014
 3263SOL    HW210689   3.352   4.947   3.007
 3264SOL     OW10690   5.480   4.918   6.190
 3264SOL    HW110691   5.385   4.902   6.218
 3264SOL    HW210692   5.531   4.956   6.268
 3265SOL     OW10693   5.328   0.348   5.853
 3265SOL    HW110694   5.400   0.369   5.919
 3265SOL    HW210695   5.244   0.398   5.877
 3266SOL     OW10696   1.327   2.828   6.377
 3266SOL    HW110697   1.282   2.828   6.467
 3266SOL    HW210698   1.426   2.822   6.390
 3267SOL     OW10699   5.069   2.781   1.811
 3267SOL    HW110700   5.060   2.732   1.898
 3267SOL    HW210701   4.987   2.836   1.794
 3268SOL     OW10702   1.570   5.344   6.461
 3268SOL    HW110703   1.655   5.302   6.493
 3268SOL    HW210704   1.586   5.391   6.375
 3269SOL     OW10705   4.417   3.495   0.949
 3269SOL    HW110706   4.321   3.510   0.973
 3269SOL    HW210707   4.468   3.466   1.030
 3270SOL     OW10708   6.638   5.201   3.635
 3270SOL    HW110709   6.732   5.203   3.669
 3270SOL    HW210710   6.632   5.139   3.557
 3271SOL     OW10711   4.639   0.033   1.565
 3271SOL    HW110712   4.680   7.022   1.650
 3271SOL    HW210713   4.632   6.983   1.498
 3272SOL     OW10714   4.871   6.401   6.719
 3272SOL    HW110715   4.904   6.340   6.648
 3272SOL    HW210716   4.788   6.447   6.688
 3273SOL     OW10717   1.160   0.749   3.084
 3273SOL    HW110718   1.257   0.766   3.070
 3273SOL    HW210719   1.119   0.825   3.135
 3274SOL     OW10720   2.796   1.462   6.920
 3274SOL    HW110721   2.775   1.474   7.017
 3274SOL    HW210722   2.769   1.544   6.870
 3275SOL     OW10723   4.689   0.594   6.876
 3275SOL    HW110724   4.681   0.693   6.859
 3275SOL    HW210725   4.757   0.556   6.813
 3276SOL     OW10726   1.890   5.922   6.871
 3276SOL    HW110727   1.794   5.939   6.894
 3276SOL    HW210728   1.906   5.938   6.774
 3277SOL     OW10729   6.806   6.036   6.645
 3277SOL    HW110730   6.821   6.081   6.733
 3277SOL    HW210731   6.721   5.983   6.648
 3278SOL     OW10732   0.657   0.727   6.966
 3278SOL    HW110733   0.641   0.801   6.901
 3278SOL    HW210734   0.627   0.755   0.033
 3279SOL     OW10735   1.977   6.677   1.108
 3279SOL    HW110736   1.983   6.585   1.070
 3279SOL    HW210737   2.069   6.717   1.115
 3280SOL     OW10738   2.686   6.334   4.028
 3280SOL    HW110739   2.605   6.370   3.981
 3280SOL    HW210740   2.677   6.235   4.039
 3281SOL     OW10741   1.913   6.727   0.497
 3281SOL    HW110742   1.861   6.797   0.448
 3281SOL    HW210743   2.011   6.746   0.489
 3282SOL     OW10744   2.096   5.316   2.613
 3282SOL    HW110745   2.101   5.282   2.707
 3282SOL    HW210746   2.169   5.273   2.558
 3283SOL     OW10747   2.096   6.739   3.177
 3283SOL    HW110748   2.079   6.796   3.257
 3283SOL    HW210749   2.144   6.792   3.107
 3284SOL     OW10750   1.286   5.122   5.617
 3284SOL    HW110751   1.245   5.213   5.619
 3284SOL    HW210752   1.285   5.086   5.523
 3285SOL     OW10753   0.292   2.689   3.868
 3285SOL    HW110754   0.248   2.779   3.863
 3285SOL    HW210755   0.225   2.621   3.895
 3286SOL     OW10756   4.570   4.445   6.562
 3286SOL    HW110757   4.507   4.369   6.544
 3286SOL    HW210758   4.520   4.518   6.608
 3287SOL     OW10759   6.883   3.203   1.800
 3287SOL    HW110760   6.925   3.276   1.746
 3287SOL    HW210761   6.905   3.216   1.897
 3288SOL     OW10762   0.869   6.949   6.707
 3288SOL    HW110763   0.822   6.905   6.783
 3288SOL    HW210764   0.905   0.014   6.737
 3289SOL     OW10765   1.390   6.401   4.232
 3289SOL    HW110766   1.376   6.499   4.243
 3289SOL    HW210767   1.375   6.354   4.319
 3290SOL     OW10768   0.251   4.649   3.585
 3290SOL    HW110769   0.229   4.582   3.514
 3290SOL    HW210770   0.290   4.602   3.664
 3291SOL     OW10771   1.994   1.072   2.339
 3291SOL    HW110772   1.900   1.083   2.372
 3291SOL    HW210773   2.058   1.087   2.415
 3292SOL     OW10774   0.675   5.623   4.965
 3292SOL    HW110775   0.694   5.554   4.896
 3292SOL    HW210776   0.636   5.705   4.921
 3293SOL     OW10777   5.962   0.691   3.475
 3293SOL    HW110778   6.012   0.762   3.525
 3293SOL    HW210779   6.010   0.669   3.390
 3294SOL     OW10780   0.108   6.908   0.851
 3294SOL    HW110781   0.173   6.857   0.909
 3294SOL    HW210782   0.035   6.945   0.908
 3295SOL     OW10783   2.002   2.747   6.200
 3295SOL    HW110784   2.095   2.785   6.195
 3295SOL    HW210785   1.937   2.814   6.162
 3296SOL     OW10786   0.986   6.242   2.616
 3296SOL    HW110787   1.053   6.316   2.623
 3296SOL    HW210788   1.031   6.161   2.579
 3297SOL     OW10789   3.324   1.244   5.935
 3297SOL    HW110790   3.340   1.148   5.913
 3297SOL    HW210791   3.412   1.290   5.950
 3298SOL     OW10792   0.357   4.305   2.699
 3298SOL    HW110793   0.353   4.365   2.778
 3298SOL    HW210794   0.275   4.317   2.644
 3299SOL     OW10795   0.531   1.554   4.260
 3299SOL    HW110796   0.616   1.529   4.214
 3299SOL    HW210797   0.502   1.478   4.319
 3300SOL     OW10798   7.021   0.046   4.904
 3300SOL    HW110799   0.036   0.107   4.974
 3300SOL    HW210800   0.006   6.975   4.935
 3301SOL     OW10801   6.621   3.789   2.519
 3301SOL    HW110802   6.705   3.839   2.498
 3301SOL    HW210803   6.644   3.699   2.556
 3302SOL     OW10804   0.813   6.209   5.200
 3302SOL    HW110805   0.911   6.188   5.194
 3302SOL    HW210806   0.797   6.270   5.277
 3303SOL     OW10807   2.913   3.402   3.945
 3303SOL    HW110808   2.881   3.337   3.876
 3303SOL    HW210809   2.984   3.460   3.906
 3304SOL     OW10810   1.699   0.373   3.313
 3304SOL    HW110811   1.603   0.378   3.339
 3304SOL    HW210812   1.756   0.374   3.395
 3305SOL     OW10813   0.900   3.027   0.449
 3305SOL    HW110814   0.893   2.987   0.540
 3305SOL    HW210815   0.811   3.024   0.404
 3306SOL     OW10816   1.329   2.555   2.080
 3306SOL    HW110817   1.275   2.471   2.075
 3306SOL    HW210818   1.423   2.535   2.051
 3307SOL     OW10819   0.769   0.144   0.059
 3307SOL    HW110820   0.681   0.098   0.043
 3307SOL    HW210821   0.786   0.150   0.157
 3308SOL     OW10822   4.964   6.009   1.015
 3308SOL    HW110823   4.888   5.963   1.060
 3308SOL    HW210824   5.039   6.022   1.080
 3309SOL     OW10825   1.581   4.682   1.971
 3309SOL    HW110826   1.536   4.762   2.009
 3309SOL    HW210827   1.674   4.705   1.944
 3310SOL     OW10828   1.578   7.007   2.163
 3310SOL    HW110829   1.675   6.983   2.160
 3310SOL    HW210830   1.562   0.063   2.105
 3311SOL     OW10831   4.002   5.611   0.773
 3311SOL    HW110832   4.094   5.642   0.800
 3311SOL    HW210833   3.959   5.681   0.717
 3312SOL     OW10834   1.396   2.911   6.095
 3312SOL    HW110835   1.334   2.919   6.018
 3312SOL    HW210836   1.344   2.901   6.180
 3313SOL     OW10837   6.014   6.624   4.540
 3313SOL    HW110838   5.942   6.611   4.472
 3313SOL    HW210839   6.040   6.721   4.543
 3314SOL     OW10840   0.751   4.439   6.908
 3314SOL    HW110841   0.759   4.477   6.816
 3314SOL    HW210842   0.793   4.349   6.910
 3315SOL     OW10843   6.657   2.900   3.582
 3315SOL    HW110844   6.577   2.880   3.527
 3315SOL    HW210845   6.706   2.816   3.602
 3316SOL     OW10846   4.269   0.971   0.154
 3316SOL    HW110847   4.331   1.049   0.148
 3316SOL    HW210848   4.185   0.999   0.200
 3317SOL     OW10849   4.131   2.351   1.383
 3317SOL    HW110850   4.226   2.327   1.365
 3317SOL    HW210851   4.071   2.292   1.329
 3318SOL     OW10852   2.550   5.183   5.979
 3318SOL    HW110853   2.483   5.120   5.938
 3318SOL    HW210854   2.612   5.216   5.908
 3319SOL     OW10855   6.726   6.404   6.461
 3319SOL    HW110856   6.714   6.459   6.379
 3319SOL    HW210857   6.819   6.366   6.463
 3320SOL     OW10858   0.881   0.792   0.972
 3320SOL    HW110859   0.798   0.768   1.023
 3320SOL    HW210860   0.860   0.864   0.906
 3321SOL     OW10861   3.633   3.885   4.477
 3321SOL    HW110862   3.599   3.976   4.454
 3321SOL    HW210863   3.704   3.859   4.412
 3322SOL     OW10864   4.754   2.377   2.128
 3322SOL    HW110865   4.676   2.424   2.086
 3322SOL    HW210866   4.781   2.423   2.212
 3323SOL     OW10867   2.069   4.765   0.396
 3323SOL    HW110868   1.989   4.770   0.456
 3323SOL    HW210869   2.131   4.841   0.417
 3324SOL     OW10870   6.274   3.414   1.686
 3324SOL    HW110871   6.217   3.373   1.757
 3324SOL    HW210872   6.335   3.345   1.647
 3325SOL     OW10873   0.874   4.868   5.825
 3325SOL    HW110874   0.799   4.805   5.844
 3325SOL    HW210875   0.939   4.867   5.901
 3326SOL     OW10876   5.717   0.322   2.455
 3326SOL    HW110877   5.653   0.278   2.517
 3326SOL    HW210878   5.774   0.387   2.506
 3327SOL     OW10879   4.993   6.109   1.786
 3327SOL    HW110880   4.955   6.016   1.790
 3327SOL    HW210881   4.921   6.174   1.810
 3328SOL     OW10882   5.991   6.577   4.252
 3328SOL    HW110883   5.981   6.578   4.152
 3328SOL    HW210884   6.044   6.656   4.281
 3329SOL     OW10885   5.867   0.628   5.969
 3329SOL    HW110886   5.902   0.686   5.896
 3329SOL    HW210887   5.871   0.677   6.056
 3330SOL     OW10888   6.746   6.489   2.816
 3330SOL    HW110889   6.806   6.410   2.804
 3330SOL    HW210890   6.797   6.562   2.861
 3331SOL     OW10891   1.423   4.059   2.550
 3331SOL    HW110892   1.519   4.078   2.570
 3331SOL    HW210893   1.365   4.124   2.599
 3332SOL     OW10894   3.800   5.238   0.071
 3332SOL    HW110895   3.864   5.162   0.075
 3332SOL    HW210896   3.737   5.224   7.019
 3333SOL     OW10897   1.724   3.952   1.011
 3333SOL    HW110898   1.757   3.875   0.956
 3333SOL    HW210899   1.718   4.034   0.954
 3334SOL     OW10900   1.266   2.187   2.386
 3334SOL    HW110901   1.259   2.266   2.326
 3334SOL    HW210902   1.180   2.135   2.384
 3335SOL     OW10903   3.684   4.214   5.929
 3335SOL    HW110904   3.694   4.297   5.984
 3335SOL    HW210905   3.770   4.194   5.883
 3336SOL     OW10906   3.965   5.814   5.739
 3336SOL    HW110907   3.979   5.732   5.795
 3336SOL    HW210908   4.021   5.889   5.775
 3337SOL     OW10909   3.168   2.988   3.567
 3337SOL    HW110910   3.153   2.961   3.662
 3337SOL    HW210911   3.099   3.054   3.539
 3338SOL     OW10912   2.684   3.220   1.600
 3338SOL    HW110913   2.735   3.231   1.515
 3338SOL    HW210914   2.680   3.308   1.648
 3339SOL     OW10915   0.912   6.575   6.673
 3339SOL    HW110916   0.955   6.499   6.722
 3339SOL    HW210917   0.813   6.575   6.692
 3340SOL     OW10918   4.619   1.272   6.150
 3340SOL    HW110919   4.652   1.336   6.220
 3340SOL    HW210920   4.623   1.316   6.060
 3341SOL     OW10921   1.395   4.512   1.359
 3341SOL    HW110922   1.456   4.434   1.375
 3341SOL    HW210923   1.373   4.518   1.262
 3342SOL     OW10924   5.730   0.052   1.914
 3342SOL    HW110925   5.642   0.038   1.868
 3342SOL    HW210926   5.769   6.987   1.938
 3343SOL     OW10927   3.472   5.402   0.970
 3343SOL    HW110928   3.500   5.318   1.015
 3343SOL    HW210929   3.406   5.450   1.027
 3344SOL     OW10930   1.373   3.593   1.522
 3344SOL    HW110931   1.371   3.610   1.621
 3344SOL    HW210932   1.467   3.582   1.492
 3345SOL     OW10933   5.220   5.126   1.369
 3345SOL    HW110934   5.282   5.097   1.297
 3345SOL    HW210935   5.234   5.069   1.450
 3346SOL     OW10936   1.224   0.823   6.954
 3346SOL    HW110937   1.316   0.785   6.958
 3346SOL    HW210938   1.172   0.795   0.011
 3347SOL     OW10939   0.955   4.081   5.694
 3347SOL    HW110940   0.930   4.163   5.745
 3347SOL    HW210941   0.903   4.077   5.609
 3348SOL     OW10942   3.479   4.084   6.066
 3348SOL    HW110943   3.536   4.135   6.001
 3348SOL    HW210944   3.515   4.097   6.159
 3349SOL     OW10945   1.598   5.636   1.792
 3349SOL    HW110946   1.633   5.599   1.706
 3349SOL    HW210947   1.503   5.665   1.780
 3350SOL     OW10948   2.384   5.127   5.222
 3350SOL    HW110949   2.415   5.048   5.275
 3350SOL    HW210950   2.293   5.108   5.186
 3351SOL     OW10951   5.167   6.703   1.378
 3351SOL    HW110952   5.250   6.749   1.346
 3351SOL    HW210953   5.190   6.644   1.455
 3352SOL     OW10954   5.501   1.472   6.840
 3352SOL    HW110955   5.467   1.512   6.754
 3352SOL    HW210956   5.490   1.538   6.914
 3353SOL     OW10957   3.916   0.587   6.686
 3353SOL    HW110958   3.859   0.532   6.625
 3353SOL    HW210959   3.883   0.681   6.688
 3354SOL     OW10960   2.300   2.768   0.360
 3354SOL    HW110961   2.204   2.741   0.363
 3354SOL    HW210962   2.318   2.820   0.277
 3355SOL     OW10963   1.234   1.055   5.034
 3355SOL    HW110964   1.197   1.023   4.947
 3355SOL    HW210965   1.202   0.995   5.108
 3356SOL     OW10966   3.103   0.885   6.059
 3356SOL    HW110967   3.070   0.812   6.000
 3356SOL    HW210968   3.029   0.951   6.074
 3357SOL     OW10969   2.956   3.817   3.310
 3357SOL    HW110970   2.895   3.758   3.364
 3357SOL    HW210971   3.050   3.808   3.343
 3358SOL     OW10972   6.966   1.957   1.114
 3358SOL    HW110973   7.023   1.924   1.190
 3358SOL    HW210974   7.023   2.005   1.048
 3359SOL     OW10975   1.289   6.966   3.911
 3359SOL    HW110976   1.366   7.022   3.941
 3359SOL    HW210977   1.318   6.871   3.900
 3360SOL     OW10978   1.490   5.537   4.804
 3360SOL    HW110979   1.471   5.440   4.792
 3360SOL    HW210980   1.457   5.568   4.893
 3361SOL     OW10981   6.980   6.949   4.401
 3361SOL    HW110982   6.931   6.889   4.465
 3361SOL    HW210983   6.914   6.989   4.337
 3362SOL     OW10984   3.662   0.556   4.320
 3362SOL    HW110985   3.733   0.486   4.326
 3362SOL    HW210986   3.682   0.617   4.244
 3363SOL     OW10987   4.966   3.546   0.420
 3363SOL    HW110988   5.045   3.491   0.447
 3363SOL    HW210989   4.893   3.534   0.488
 3364SOL     OW10990   1.649   3.534   1.476
 3364SOL    HW110991   1.687   3.455   1.428
 3364SOL    HW210992   1.677   3.532   1.572
 3365SOL     OW10993   1.088   2.977   2.733
 3365SOL    HW110994   1.096   2.976   2.832
 3365SOL    HW210995   1.156   2.915   2.693
 3366SOL     OW10996   5.899   2.646   3.963
 3366SOL    HW110997   5.959   2.624   4.040
 3366SOL    HW210998   5.867   2.561   3.921
 3367SOL     OW10999   3.439   2.894   3.795
 3367SOL    HW111000   3.489   2.861   3.715
 3367SOL    HW211001   3.360   2.947   3.764
 3368SOL     OW11002   2.244   0.830   3.614
 3368SOL    HW111003   2.302   0.853   3.692
 3368SOL    HW211004   2.298   0.780   3.546
 3369SOL     OW11005   5.075   2.562   1.254
 3369SOL    HW111006   5.142   2.588   1.185
 3369SOL    HW211007   4.983   2.568   1.215
 3370SOL     OW11008   0.857   5.434   2.918
 3370SOL    HW111009   0.833   5.338   2.901
 3370SOL    HW211010   0.792   5.473   2.984
 3371SOL     OW11011   2.447   2.778   1.259
 3371SOL    HW111012   2.511   2.779   1.182
 3371SOL    HW211013   2.373   2.842   1.241
 3372SOL     OW11014   5.905   2.691   3.347
 3372SOL    HW111015   5.810   2.687   3.378
 3372SOL    HW211016   5.961   2.631   3.404
 3373SOL     OW11017   0.070   4.442   0.330
 3373SOL    HW111018   0.100   4.526   0.374
 3373SOL    HW211019   0.125   4.365   0.363
 3374SOL     OW11020   0.981   5.546   4.100
 3374SOL    HW111021   0.972   5.639   4.137
 3374SOL    HW211022   1.049   5.545   4.027
 3375SOL     OW11023   0.222   6.097   5.710
 3375SOL    HW111024   0.134   6.077   5.753
 3375SOL    HW211025   0.266   6.173   5.758
 3376SOL     OW11026   3.212   3.809   5.241
 3376SOL    HW111027   3.148   3.859   5.182
 3376SOL    HW211028   3.167   3.787   5.327
 3377SOL     OW11029   7.022   5.423   4.241
 3377SOL    HW111030   6.989   5.336   4.204
 3377SOL    HW211031   7.017   5.493   4.169
 3378SOL     OW11032   1.142   5.772   0.203
 3378SOL    HW111033   1.102   5.764   0.112
 3378SOL    HW211034   1.117   5.861   0.242
 3379SOL     OW11035   5.906   4.080   4.104
 3379SOL    HW111036   5.880   4.155   4.043
 3379SOL    HW211037   5.965   4.116   4.177
 3380SOL     OW11038   2.214   5.307   1.896
 3380SOL    HW111039   2.152   5.355   1.834
 3380SOL    HW211040   2.201   5.341   1.989
 3381SOL     OW11041   2.869   4.069   6.535
 3381SOL    HW111042   2.889   3.996   6.600
 3381SOL    HW211043   2.798   4.039   6.472
 3382SOL     OW11044   0.157   4.038   6.532
 3382SOL    HW111045   0.204   4.115   6.574
 3382SOL    HW211046   0.058   4.050   6.542
 3383SOL     OW11047   2.907   6.103   0.869
 3383SOL    HW111048   2.984   6.131   0.927
 3383SOL    HW211049   2.852   6.183   0.846
 3384SOL     OW11050   2.638   2.897   6.472
 3384SOL    HW111051   2.720   2.883   6.418
 3384SOL    HW211052   2.656   2.875   6.568
 3385SOL     OW11053   5.566   2.719   4.787
 3385SOL    HW111054   5.619   2.666   4.720
 3385SOL    HW211055   5.604   2.811   4.793
 3386SOL     OW11056   0.255   5.517   4.838
 3386SOL    HW111057   0.334   5.520   4.776
 3386SOL    HW211058   0.278   5.564   4.923
 3387SOL     OW11059   6.063   0.211   2.574
 3387SOL    HW111060   6.047   0.301   2.614
 3387SOL    HW211061   6.115   0.221   2.489
 3388SOL     OW11062   0.635   4.042   0.397
 3388SOL    HW111063   0.733   4.060   0.387
 3388SOL    HW211064   0.618   3.944   0.389
 3389SOL     OW11065   6.346   5.173   6.026
 3389SOL    HW111066   6.281   5.171   5.950
 3389SOL    HW211067   6.355   5.267   6.060
 3390SOL     OW11068   3.147   5.393   0.690
 3390SOL    HW111069   3.154   5.434   0.599
 3390SOL    HW211070   3.165   5.462   0.759
 3391SOL     OW11071   5.238   3.897   5.430
 3391SOL    HW111072   5.311   3.855   5.376
 3391SOL    HW211073   5.199   3.973   5.378
 3392SOL     OW11074   5.355   6.360   5.737
 3392SOL    HW111075   5.318   6.268   5.749
 3392SOL    HW211076   5.374   6.375   5.640
 3393SOL     OW11077   3.603   0.179   0.427
 3393SOL    HW111078   3.540   0.233   0.483
 3393SOL    HW211079   3.590   0.203   0.330
 3394SOL     OW11080   2.719   5.695   1.581
 3394SOL    HW111081   2.620   5.692   1.568
 3394SOL    HW211082   2.763   5.725   1.497
 3395SOL     OW11083   2.031   6.494   3.209
 3395SOL    HW111084   1.961   6.460   3.145
 3395SOL    HW211085   2.072   6.577   3.171
 3396SOL     OW11086   4.564   0.620   4.795
 3396SOL    HW111087   4.543   0.715   4.817
 3396SOL    HW211088   4.483   0.577   4.753
 3397SOL     OW11089   2.150   6.286   1.036
 3397SOL    HW111090   2.058   6.325   1.030
 3397SOL    HW211091   2.171   6.236   0.951
 3398SOL     OW11092   6.621   1.155   6.575
 3398SOL    HW111093   6.694   1.087   6.565
 3398SOL    HW211094   6.655   1.244   6.543
 3399SOL     OW11095   0.355   6.016   2.276
 3399SOL    HW111096   0.336   6.078   2.200
 3399SOL    HW211097   0.430   6.052   2.330
 3400SOL     OW11098   3.511   3.124   5.706
 3400SOL    HW111099   3.498   3.185   5.628
 3400SOL    HW211100   3.460   3.158   5.785
 3401SOL     OW11101   6.859   3.298   4.040
 3401SOL    HW111102   6.924   3.369   4.066
 3401SOL    HW211103   6.871   3.275   3.943
 3402SOL     OW11104   5.576   3.406   0.178
 3402SOL    HW111105   5.583   3.506   0.168
 3402SOL    HW211106   5.497   3.373   0.126
 3403SOL     OW11107   5.475   6.595   4.282
 3403SOL    HW111108   5.538   6.521   4.258
 3403SOL    HW211109   5.527   6.670   4.324
 3404SOL     OW11110   5.203   5.168   3.249
 3404SOL    HW111111   5.269   5.220   3.195
 3404SOL    HW211112   5.137   5.124   3.189
 3405SOL     OW11113   4.371   5.718   1.282
 3405SOL    HW111114   4.407   5.770   1.359
 3405SOL    HW211115   4.341   5.781   1.210
 3406SOL     OW11116   4.366   4.913   1.285
 3406SOL    HW111117   4.305   4.965   1.224
 3406SOL    HW211118   4.336   4.818   1.289
 3407SOL     OW11119   1.529   2.778   0.639
 3407SOL    HW111120   1.563   2.844   0.572
 3407SOL    HW211121   1.605   2.720   0.670
 3408SOL     OW11122   3.850   6.493   3.832
 3408SOL    HW111123   3.867   6.402   3.870
 3408SOL    HW211124   3.756   6.521   3.852
 3409SOL     OW11125   4.449   1.627   6.863
 3409SOL    HW111126   4.438   1.588   6.771
 3409SOL    HW211127   4.359   1.647   6.901
 3410SOL     OW11128   6.828   0.605   2.401
 3410SOL    HW111129   6.838   0.508   2.424
 3410SOL    HW211130   6.884   0.660   2.462
 3411SOL     OW11131   5.734   3.400   6.298
 3411SOL    HW111132   5.770   3.318   6.344
 3411SOL    HW211133   5.780   3.412   6.210
 3412SOL     OW11134   5.507   2.913   3.321
 3412SOL    HW111135   5.547   2.968   3.394
 3412SOL    HW211136   5.407   2.918   3.326
 3413SOL     OW11137   0.008   2.621   0.992
 3413SOL    HW111138   0.098   2.648   1.027
 3413SOL    HW211139   7.004   2.534   1.033
 3414SOL     OW11140   3.908   2.994   1.783
 3414SOL    HW111141   3.969   2.927   1.739
 3414SOL    HW211142   3.820   2.994   1.735
 3415SOL     OW11143   2.476   1.234   6.276
 3415SOL    HW111144   2.415   1.305   6.311
 3415SOL    HW211145   2.529   1.196   6.352
 3416SOL     OW11146   5.395   6.455   5.995
 3416SOL    HW111147   5.479   6.510   5.995
 3416SOL    HW211148   5.388   6.405   5.909
 3417SOL     OW11149   5.883   0.581   2.400
 3417SOL    HW111150   5.860   0.496   2.353
 3417SOL    HW211151   5.916   0.649   2.334
 3418SOL     OW11152   3.895   5.849   0.574
 3418SOL    HW111153   3.851   5.834   0.662
 3418SOL    HW211154   3.883   5.768   0.516
 3419SOL     OW11155   3.087   4.726   5.234
 3419SOL    HW111156   3.067   4.628   5.221
 3419SOL    HW211157   3.001   4.778   5.232
 3420SOL     OW11158   4.193   0.667   1.867
 3420SOL    HW111159   4.211   0.637   1.774
 3420SOL    HW211160   4.100   0.641   1.893
 3421SOL     OW11161   0.486   1.387   4.469
 3421SOL    HW111162   0.507   1.290   4.454
 3421SOL    HW211163   0.527   1.417   4.555
 3422SOL     OW11164   3.293   5.397   1.783
 3422SOL    HW111165   3.213   5.449   1.753
 3422SOL    HW211166   3.310   5.414   1.880
 3423SOL     OW11167   2.877   4.589   6.274
 3423SOL    HW111168   2.899   4.654   6.347
 3423SOL    HW211169   2.816   4.632   6.208
 3424SOL     OW11170   5.476   7.017   2.665
 3424SOL    HW111171   5.418   0.073   2.680
 3424SOL    HW211172   5.440   6.939   2.716
 3425SOL     OW11173   5.734   2.916   6.362
 3425SOL    HW111174   5.673   2.844   6.395
 3425SOL    HW211175   5.683   3.002   6.355
 3426SOL     OW11176   6.755   5.604   6.544
 3426SOL    HW111177   6.764   5.685   6.602
 3426SOL    HW211178   6.701   5.535   6.591
 3427SOL     OW11179   1.796   1.576   6.563
 3427SOL    HW111180   1.834   1.548   6.474
 3427SOL    HW211181   1.737   1.656   6.551
 3428SOL     OW11182   5.021   0.591   4.076
 3428SOL    HW111183   5.073   0.674   4.054
 3428SOL    HW211184   5.084   0.513   4.082
 3429SOL     OW11185   4.039   6.111   0.501
 3429SOL    HW111186   4.003   6.024   0.534
 3429SOL    HW211187   4.139   6.108   0.500
 3430SOL     OW11188   3.088   4.752   6.767
 3430SOL    HW111189   3.129   4.748   6.675
 3430SOL    HW211190   2.998   4.708   6.766
 3431SOL     OW11191   1.288   4.630   2.840
 3431SOL    HW111192   1.244   4.552   2.795
 3431SOL    HW211193   1.248   4.643   2.931
 3432SOL     OW11194   0.393   5.282   6.694
 3432SOL    HW111195   0.379   5.186   6.716
 3432SOL    HW211196   0.428   5.290   6.600
 3433SOL     OW11197   0.626   0.536   0.577
 3433SOL    HW111198   0.719   0.545   0.540
 3433SOL    HW211199   0.587   0.627   0.589
 3434SOL     OW11200   4.008   2.164   2.477
 3434SOL    HW111201   4.085   2.227   2.479
 3434SOL    HW211202   3.956   2.178   2.393
 3435SOL     OW11203   1.745   3.075   1.147
 3435SOL    HW111204   1.701   2.985   1.145
 3435SOL    HW211205   1.824   3.072   1.209
 3436SOL     OW11206   4.346   6.032   5.688
 3436SOL    HW111207   4.323   5.987   5.602
 3436SOL    HW211208   4.412   6.105   5.671
 3437SOL     OW11209   1.440   6.638   0.149
 3437SOL    HW111210   1.528   6.666   0.189
 3437SOL    HW211211   1.442   6.655   0.050
 3438SOL     OW11212   2.168   4.121   0.510
 3438SOL    HW111213   2.185   4.137   0.413
 3438SOL    HW211214   2.205   4.032   0.536
 3439SOL     OW11215   2.463   6.043   1.271
 3439SOL    HW111216   2.513   6.002   1.348
 3439SOL    HW211217   2.523   6.050   1.192
 3440SOL     OW11218   3.872   3.863   5.790
 3440SOL    HW111219   3.804   3.871   5.862
 3440SOL    HW211220   3.953   3.815   5.825
 3441SOL     OW11221   6.707   5.120   4.703
 3441SOL    HW111222   6.630   5.147   4.761
 3441SOL    HW211223   6.790   5.167   4.734
 3442SOL     OW11224   1.151   1.780   0.659
 3442SOL    HW111225   1.096   1.801   0.578
 3442SOL    HW211226   1.096   1.796   0.741
 3443SOL     OW11227   0.262   5.583   2.454
 3443SOL    HW111228   0.181   5.540   2.415
 3443SOL    HW211229   0.248   5.682   2.462
 3444SOL     OW11230   0.684   4.358   6.420
 3444SOL    HW111231   0.771   4.404   6.405
 3444SOL    HW211232   0.700   4.265   6.452
 3445SOL     OW11233   5.691   5.463   4.400
 3445SOL    HW111234   5.715   5.537   4.463
 3445SOL    HW211235   5.752   5.465   4.321
 3446SOL     OW11236   5.186   1.705   0.226
 3446SOL    HW111237   5.183   1.645   0.146
 3446SOL    HW211238   5.174   1.650   0.309
 3447SOL     OW11239   5.248   1.437   5.764
 3447SOL    HW111240   5.286   1.407   5.677
 3447SOL    HW211241   5.207   1.528   5.754
 3448SOL     OW11242   0.713   4.936   5.429
 3448SOL    HW111243   0.731   4.933   5.331
 3448SOL    HW211244   0.780   4.880   5.477
 3449SOL     OW11245   1.600   3.682   4.927
 3449SOL    HW111246   1.679   3.654   4.874
 3449SOL    HW211247   1.553   3.601   4.963
 3450SOL     OW11248   2.676   6.432   2.253
 3450SOL    HW111249   2.714   6.403   2.165
 3450SOL    HW211250   2.580   6.405   2.259
 3451SOL     OW11251   1.808   1.766   0.468
 3451SOL    HW111252   1.736   1.706   0.499
 3451SOL    HW211253   1.799   1.782   0.370
 3452SOL     OW11254   4.433   1.092   6.221
 3452SOL    HW111255   4.455   1.094   6.318
 3452SOL    HW211256   4.509   1.129   6.168
 3453SOL     OW11257   4.269   6.327   5.610
 3453SOL    HW111258   4.222   6.242   5.635
 3453SOL    HW211259   4.365   6.321   5.634
 3454SOL     OW11260   1.351   3.105   3.129
 3454SOL    HW111261   1.320   3.145   3.215
 3454SOL    HW211262   1.275   3.059   3.084
 3455SOL     OW11263   0.898   4.529   6.401
 3455SOL    HW111264   0.935   4.617   6.432
 3455SOL    HW211265   0.962   4.487   6.336
 3456SOL     OW11266   4.414   5.208   3.325
 3456SOL    HW111267   4.447   5.222   3.418
 3456SOL    HW211268   4.489   5.175   3.267
 3457SOL     OW11269   3.921   4.159   0.066
 3457SOL    HW111270   3.869   4.079   0.096
 3457SOL    HW211271   3.876   4.200   7.011
 3458SOL     OW11272   4.415   1.907   0.976
 3458SOL    HW111273   4.334   1.964   0.960
 3458SOL    HW211274   4.407   1.822   0.923
 3459SOL     OW11275   6.835   6.747   2.651
 3459SOL    HW111276   6.817   6.753   2.749
 3459SOL    HW211277   6.836   6.650   2.624
 3460SOL     OW11278   4.227   1.237   5.346
 3460SOL    HW111279   4.221   1.332   5.376
 3460SOL    HW211280   4.199   1.177   5.421
 3461SOL     OW11281   4.722   4.182   3.508
 3461SOL    HW111282   4.786   4.230   3.567
 3461SOL    HW211283   4.735   4.083   3.519
 3462SOL     OW11284   1.120   5.035   6.566
 3462SOL    HW111285   1.068   4.994   6.641
 3462SOL    HW211286   1.217   5.022   6.582
 3463SOL     OW11287   5.856   4.226   7.001
 3463SOL    HW111288   5.881   4.164   0.052
 3463SOL    HW211289   5.886   4.319   7.023
 3464SOL     OW11290   0.027   4.367   3.778
 3464SOL    HW111291   7.016   4.412   3.860
 3464SOL    HW211292   0.105   4.310   3.802
 3465SOL     OW11293   1.015   2.870   1.364
 3465SOL    HW111294   0.927   2.824   1.381
 3465SOL    HW211295   1.024   2.949   1.425
 3466SOL     OW11296   6.335   4.087   3.322
 3466SOL    HW111297   6.243   4.082   3.360
 3466SOL    HW211298   6.368   3.996   3.301
 3467SOL     OW11299   1.575   2.563   6.215
 3467SOL    HW111300   1.663   2.542   6.173
 3467SOL    HW211301   1.589   2.620   6.295
 3468SOL     OW11302   4.487   5.814   1.689
 3468SOL    HW111303   4.545   5.833   1.610
 3468SOL    HW211304   4.514   5.728   1.731
 3469SOL     OW11305   5.239   4.280   0.339
 3469SOL    HW111306   5.328   4.264   0.297
 3469SOL    HW211307   5.180   4.201   0.321
 3470SOL     OW11308   6.168   5.295   1.048
 3470SOL    HW111309   6.200   5.390   1.051
 3470SOL    HW211310   6.123   5.273   1.135
 3471SOL     OW11311   3.944   6.800   4.411
 3471SOL    HW111312   3.908   6.821   4.502
 3471SOL    HW211313   4.043   6.812   4.410
 3472SOL     OW11314   4.222   0.533   4.893
 3472SOL    HW111315   4.255   0.451   4.938
 3472SOL    HW211316   4.240   0.527   4.794
 3473SOL     OW11317   4.421   6.396   3.961
 3473SOL    HW111318   4.466   6.424   3.876
 3473SOL    HW211319   4.322   6.392   3.946
 3474SOL     OW11320   4.234   4.681   0.266
 3474SOL    HW111321   4.207   4.700   0.172
 3474SOL    HW211322   4.157   4.700   0.327
 3475SOL     OW11323   1.309   5.028   5.354
 3475SOL    HW111324   1.299   4.930   5.340
 3475SOL    HW211325   1.380   5.064   5.293
 3476SOL     OW11326   4.014   1.679   3.613
 3476SOL    HW111327   3.982   1.602   3.558
 3476SOL    HW211328   3.936   1.733   3.644
 3477SOL     OW11329   4.695   5.415   2.196
 3477SOL    HW111330   4.629   5.361   2.142
 3477SOL    HW211331   4.772   5.357   2.221
 3478SOL     OW11332   3.451   4.098   0.515
 3478SOL    HW111333   3.357   4.082   0.544
 3478SOL    HW211334   3.471   4.045   0.433
 3479SOL     OW11335   1.928   0.506   0.337
 3479SOL    HW111336   1.891   0.559   0.413
 3479SOL    HW211337   1.982   0.429   0.372
 3480SOL     OW11338   1.289   6.520   4.491
 3480SOL    HW111339   1.332   6.607   4.467
 3480SOL    HW211340   1.351   6.467   4.549
 3481SOL     OW11341   2.051   5.374   0.059
 3481SOL    HW111342   1.984   5.343   7.016
 3481SOL    HW211343   2.034   5.470   0.082
 3482SOL     OW11344   0.156   2.035   1.385
 3482SOL    HW111345   0.148   2.054   1.483
 3482SOL    HW211346   0.128   1.940   1.368
 3483SOL     OW11347   3.835   1.026   0.787
 3483SOL    HW111348   3.880   1.103   0.832
 3483SOL    HW211349   3.755   1.059   0.737
 3484SOL     OW11350   3.699   3.946   3.115
 3484SOL    HW111351   3.789   3.909   3.135
 3484SOL    HW211352   3.641   3.874   3.077
 3485SOL     OW11353   6.205   2.336   5.025
 3485SOL    HW111354   6.212   2.236   5.029
 3485SOL    HW211355   6.136   2.367   5.092
 3486SOL     OW11356   5.717   0.908   3.292
 3486SOL    HW111357   5.734   0.992   3.241
 3486SOL    HW211358   5.683   0.931   3.383
 3487SOL     OW11359   1.322   6.923   0.868
 3487SOL    HW111360   1.256   6.994   0.845
 3487SOL    HW211361   1.297   6.838   0.821
 3488SOL     OW11362   6.239   4.142   5.264
 3488SOL    HW111363   6.241   4.240   5.249
 3488SOL    HW211364   6.174   4.099   5.202
 3489SOL     OW11365   2.967   5.394   6.610
 3489SOL    HW111366   3.063   5.420   6.598
 3489SOL    HW211367   2.937   5.341   6.531
 3490SOL     OW11368   4.612   3.899   0.248
 3490SOL    HW111369   4.695   3.898   0.304
 3490SOL    HW211370   4.610   3.982   0.192
 3491SOL     OW11371   5.688   2.577   5.242
 3491SOL    HW111372   5.689   2.573   5.142
 3491SOL    HW211373   5.594   2.569   5.275
 3492SOL     OW11374   6.467   4.432   6.576
 3492SOL    HW111375   6.531   4.357   6.560
 3492SOL    HW211376   6.493   4.481   6.659
 3493SOL     OW11377   6.417   4.215   1.138
 3493SOL    HW111378   6.354   4.235   1.213
 3493SOL    HW211379   6.431   4.297   1.083
 3494SOL     OW11380   3.483   6.314   1.379
 3494SOL    HW111381   3.548   6.261   1.433
 3494SOL    HW211382   3.519   6.325   1.286
 3495SOL     OW11383   5.906   4.697   6.333
 3495SOL    HW111384   5.894   4.608   6.377
 3495SOL    HW211385   5.831   4.758   6.358
 3496SOL     OW11386   0.462   5.932   1.141
 3496SOL    HW111387   0.377   5.902   1.186
 3496SOL    HW211388   0.485   6.024   1.173
 3497SOL     OW11389   3.444   6.873   5.111
 3497SOL    HW111390   3.456   6.858   5.013
 3497SOL    HW211391   3.367   6.819   5.144
 3498SOL     OW11392   0.733   1.684   0.171
 3498SOL    HW111393   0.751   1.775   0.134
 3498SOL    HW211394   0.796   1.618   0.129
 3499SOL     OW11395   6.869   4.060   4.363
 3499SOL    HW111396   6.821   3.987   4.411
 3499SOL    HW211397   6.803   4.122   4.321
 3500SOL     OW11398   5.907   2.709   0.842
 3500SOL    HW111399   5.880   2.757   0.925
 3500SOL    HW211400   5.991   2.749   0.806
 3501SOL     OW11401   0.743   5.170   3.143
 3501SOL    HW111402   0.759   5.171   3.045
 3501SOL    HW211403   0.651   5.134   3.162
 3502SOL     OW11404   1.176   5.488   1.186
 3502SOL    HW111405   1.154   5.501   1.089
 3502SOL    HW211406   1.102   5.437   1.230
 3503SOL     OW11407   3.463   6.817   3.679
 3503SOL    HW111408   3.388   6.808   3.614
 3503SOL    HW211409   3.541   6.763   3.647
 3504SOL     OW11410   2.059   3.228   2.235
 3504SOL    HW111411   2.054   3.286   2.154
 3504SOL    HW211412   2.050   3.285   2.317
 3505SOL     OW11413   4.671   6.446   4.906
 3505SOL    HW111414   4.584   6.490   4.886
 3505SOL    HW211415   4.653   6.356   4.946
 3506SOL     OW11416   6.954   4.569   2.078
 3506SOL    HW111417   6.937   4.646   2.016
 3506SOL    HW211418   7.011   4.501   2.032
 3507SOL     OW11419   6.915   0.154   5.827
 3507SOL    HW111420   6.833   0.099   5.811
 3507SOL    HW211421   6.927   0.168   5.925
 3508SOL     OW11422   6.566   4.533   6.854
 3508SOL    HW111423   6.614   4.541   6.942
 3508SOL    HW211424   6.605   4.598   6.789
 3509SOL     OW11425   5.326   0.016   6.967
 3509SOL    HW111426   5.366   0.102   6.935
 3509SOL    HW211427   5.324   6.974   6.891
 3510SOL     OW11428   2.353   1.277   1.938
 3510SOL    HW111429   2.385   1.191   1.898
 3510SOL    HW211430   2.409   1.299   2.018
 3511SOL     OW11431   1.011   0.880   4.360
 3511SOL    HW111432   1.110   0.869   4.347
 3511SOL    HW211433   0.994   0.955   4.424
 3512SOL     OW11434   3.878   3.054   1.236
 3512SOL    HW111435   3.922   3.095   1.316
 3512SOL    HW211436   3.869   2.955   1.250
 3513SOL     OW11437   6.243   4.295   1.322
 3513SOL    HW111438   6.232   4.391   1.348
 3513SOL    HW211439   6.282   4.244   1.398
 3514SOL     OW11440   2.496   5.988   2.541
 3514SOL    HW111441   2.409   6.000   2.494
 3514SOL    HW211442   2.515   5.891   2.553
 3515SOL     OW11443   3.850   5.414   3.482
 3515SOL    HW111444   3.896   5.495   3.445
 3515SOL    HW211445   3.915   5.338   3.485
 3516SOL     OW11446   1.738   1.027   0.282
 3516SOL    HW111447   1.732   1.127   0.279
 3516SOL    HW211448   1.759   0.998   0.376
 3517SOL     OW11449   0.435   0.668   6.644
 3517SOL    HW111450   0.472   0.688   6.735
 3517SOL    HW211451   0.474   0.732   6.578
 3518SOL     OW11452   3.990   3.093   6.021
 3518SOL    HW111453   3.895   3.106   5.990
 3518SOL    HW211454   4.010   3.159   6.094
 3519SOL     OW11455   3.189   0.259   0.498
 3519SOL    HW111456   3.093   0.256   0.472
 3519SOL    HW211457   3.227   0.349   0.477
 3520SOL     OW11458   3.644   4.829   1.593
 3520SOL    HW111459   3.628   4.904   1.529
 3520SOL    HW211460   3.559   4.808   1.642
 3521SOL     OW11461   6.663   1.937   5.561
 3521SOL    HW111462   6.697   2.015   5.613
 3521SOL    HW211463   6.715   1.855   5.587
 3522SOL     OW11464   2.643   0.311   0.673
 3522SOL    HW111465   2.560   0.292   0.724
 3522SOL    HW211466   2.721   0.266   0.718
 3523SOL     OW11467   2.175   4.586   5.096
 3523SOL    HW111468   2.218   4.497   5.087
 3523SOL    HW211469   2.241   4.658   5.077
 3524SOL     OW11470   2.715   1.426   3.519
 3524SOL    HW111471   2.720   1.369   3.436
 3524SOL    HW211472   2.801   1.420   3.569
 3525SOL     OW11473   1.663   3.125   3.385
 3525SOL    HW111474   1.736   3.079   3.334
 3525SOL    HW211475   1.686   3.222   3.396
 3526SOL     OW11476   3.583   6.385   3.568
 3526SOL    HW111477   3.649   6.350   3.502
 3526SOL    HW211478   3.589   6.485   3.573
 3527SOL     OW11479   5.634   3.646   0.067
 3527SOL    HW111480   5.679   3.652   7.002
 3527SOL    HW211481   5.617   3.738   0.101
 3528SOL     OW11482   1.567   6.990   4.466
 3528SOL    HW111483   1.627   0.042   4.491
 3528SOL    HW211484   1.516   7.013   4.384
 3529SOL     OW11485   3.970   5.822   0.120
 3529SOL    HW111486   3.950   5.920   0.119
 3529SOL    HW211487   4.006   5.796   0.209
 3530SOL     OW11488   1.892   5.869   3.237
 3530SOL    HW111489   1.891   5.968   3.249
 3530SOL    HW211490   1.859   5.824   3.320
 3531SOL     OW11491   4.791   4.903   0.006
 3531SOL    HW111492   4.789   4.882   0.104
 3531SOL    HW211493   4.871   4.859   6.988
 3532SOL     OW11494   2.612   6.725   0.828
 3532SOL    HW111495   2.576   6.675   0.906
 3532SOL    HW211496   2.672   6.799   0.860
 3533SOL     OW11497   1.513   0.745   3.364
 3533SOL    HW111498   1.593   0.690   3.340
 3533SOL    HW211499   1.432   0.686   3.368
 3534SOL     OW11500   5.292   6.773   4.173
 3534SOL    HW111501   5.367   6.720   4.212
 3534SOL    HW211502   5.316   6.870   4.171
 3535SOL     OW11503   4.736   6.143   0.262
 3535SOL    HW111504   4.653   6.183   0.302
 3535SOL    HW211505   4.800   6.119   0.334
 3536SOL     OW11506   1.170   3.417   2.565
 3536SOL    HW111507   1.268   3.412   2.546
 3536SOL    HW211508   1.119   3.398   2.482
 3537SOL     OW11509   3.011   4.972   2.105
 3537SOL    HW111510   3.041   4.898   2.046
 3537SOL    HW211511   3.082   4.993   2.172
 3538SOL     OW11512   4.104   0.686   3.639
 3538SOL    HW111513   4.029   0.737   3.681
 3538SOL    HW211514   4.190   0.716   3.678
 3539SOL     OW11515   4.828   5.484   5.017
 3539SOL    HW111516   4.808   5.563   4.959
 3539SOL    HW211517   4.887   5.512   5.093
 3540SOL     OW11518   4.057   4.716   6.448
 3540SOL    HW111519   4.050   4.704   6.547
 3540SOL    HW211520   4.081   4.628   6.405
 3541SOL     OW11521   0.328   2.825   2.273
 3541SOL    HW111522   0.415   2.777   2.281
 3541SOL    HW211523   0.339   2.920   2.304
 3542SOL     OW11524   5.810   1.947   0.297
 3542SOL    HW111525   5.759   2.033   0.292
 3542SOL    HW211526   5.883   1.956   0.364
 3543SOL     OW11527   6.734   2.985   3.946
 3543SOL    HW111528   6.702   3.077   3.968
 3543SOL    HW211529   6.663   2.937   3.894
 3544SOL     OW11530   3.107   4.630   6.116
 3544SOL    HW111531   3.042   4.565   6.154
 3544SOL    HW211532   3.089   4.722   6.153
 3545SOL     OW11533   3.544   6.647   1.090
 3545SOL    HW111534   3.604   6.721   1.120
 3545SOL    HW211535   3.504   6.670   1.001
 3546SOL     OW11536   6.193   4.609   1.454
 3546SOL    HW111537   6.218   4.618   1.551
 3546SOL    HW211538   6.238   4.682   1.402
 3547SOL     OW11539   1.023   3.749   4.350
 3547SOL    HW111540   1.040   3.846   4.334
 3547SOL    HW211541   1.099   3.695   4.315
 3548SOL     OW11542   6.660   0.458   5.771
 3548SOL    HW111543   6.689   0.435   5.864
 3548SOL    HW211544   6.736   0.443   5.708
 3549SOL     OW11545   2.260   6.613   6.682
 3549SOL    HW111546   2.197   6.613   6.605
 3549SOL    HW211547   2.212   6.638   6.766
 3550SOL     OW11548   5.926   1.859   5.685
 3550SOL    HW111549   5.992   1.787   5.664
 3550SOL    HW211550   5.871   1.833   5.764
 3551SOL     OW11551   5.713   1.533   5.061
 3551SOL    HW111552   5.796   1.528   5.117
 3551SOL    HW211553   5.641   1.478   5.104
 3552SOL     OW11554   0.024   0.417   3.397
 3552SOL    HW111555   0.108   0.363   3.406
 3552SOL    HW211556   7.014   0.410   3.304
 3553SOL     OW11557   5.666   6.153   6.433
 3553SOL    HW111558   5.757   6.121   6.406
 3553SOL    HW211559   5.669   6.191   6.525
 3554SOL     OW11560   5.120   4.416   6.737
 3554SOL    HW111561   5.138   4.454   6.828
 3554SOL    HW211562   5.206   4.390   6.694
 3555SOL     OW11563   2.429   1.504   5.647
 3555SOL    HW111564   2.495   1.468   5.713
 3555SOL    HW211565   2.475   1.518   5.559
 3556SOL     OW11566   6.039   1.110   0.382
 3556SOL    HW111567   6.069   1.098   0.476
 3556SOL    HW211568   5.958   1.169   0.380
 3557SOL     OW11569   4.804   6.113   1.409
 3557SOL    HW111570   4.902   6.114   1.430
 3557SOL    HW211571   4.790   6.136   1.312
 3558SOL     OW11572   4.294   5.441   2.192
 3558SOL    HW111573   4.194   5.431   2.186
 3558SOL    HW211574   4.323   5.428   2.287
 3559SOL     OW11575   3.993   6.209   6.216
 3559SOL    HW111576   4.017   6.294   6.263
 3559SOL    HW211577   3.909   6.172   6.255
 3560SOL     OW11578   2.187   5.799   4.520
 3560SOL    HW111579   2.193   5.797   4.620
 3560SOL    HW211580   2.096   5.769   4.492
 3561SOL     OW11581   3.719   3.127   5.977
 3561SOL    HW111582   3.706   3.044   5.923
 3561SOL    HW211583   3.757   3.199   5.920
 3562SOL     OW11584   3.009   1.260   0.904
 3562SOL    HW111585   3.080   1.206   0.859
 3562SOL    HW211586   2.951   1.200   0.959
 3563SOL     OW11587   0.269   2.540   6.874
 3563SOL    HW111588   0.295   2.629   6.911
 3563SOL    HW211589   0.176   2.517   6.904
 3564SOL     OW11590   6.371   3.794   3.305
 3564SOL    HW111591   6.294   3.765   3.248
 3564SOL    HW211592   6.454   3.799   3.250
 3565SOL     OW11593   4.956   6.562   4.922
 3565SOL    HW111594   4.864   6.524   4.932
 3565SOL    HW211595   5.006   6.553   5.009
 3566SOL     OW11596   0.848   0.858   5.916
 3566SOL    HW111597   0.896   0.875   6.002
 3566SOL    HW211598   0.840   0.760   5.901
 3567SOL     OW11599   0.205   4.830   7.014
 3567SOL    HW111600   0.228   4.743   0.034
 3567SOL    HW211601   0.126   4.818   6.954
 3568SOL     OW11602   3.618   4.073   5.366
 3568SOL    HW111603   3.601   3.976   5.384
 3568SOL    HW211604   3.573   4.129   5.436
 3569SOL     OW11605   1.723   0.702   3.179
 3569SOL    HW111606   1.758   0.794   3.163
 3569SOL    HW211607   1.767   0.638   3.116
 3570SOL     OW11608   6.465   1.738   4.381
 3570SOL    HW111609   6.561   1.760   4.360
 3570SOL    HW211610   6.405   1.803   4.336
 3571SOL     OW11611   6.323   5.414   4.489
 3571SOL    HW111612   6.246   5.433   4.428
 3571SOL    HW211613   6.383   5.494   4.494
 3572SOL     OW11614   5.664   0.046   5.565
 3572SOL    HW111615   5.746   0.074   5.614
 3572SOL    HW211616   5.626   0.124   5.515
 3573SOL     OW11617   0.204   2.282   1.259
 3573SOL    HW111618   0.173   2.203   1.312
 3573SOL    HW211619   0.125   2.334   1.227
 3574SOL     OW11620   6.494   3.472   0.548
 3574SOL    HW111621   6.448   3.470   0.459
 3574SOL    HW211622   6.439   3.421   0.615
 3575SOL     OW11623   6.356   6.800   2.142
 3575SOL    HW111624   6.260   6.791   2.116
 3575SOL    HW211625   6.406   6.847   2.070
 3576SOL     OW11626   0.276   0.953   0.315
 3576SOL    HW111627   0.357   0.953   0.373
 3576SOL    HW211628   0.301   0.923   0.222
 3577SOL     OW11629   2.688   4.767   6.873
 3577SOL    HW111630   2.704   4.732   6.781
 3577SOL    HW211631   2.621   4.709   6.920
 3578SOL     OW11632   3.427   4.507   1.652
 3578SOL    HW111633   3.481   4.564   1.714
 3578SOL    HW211634   3.330   4.530   1.660
 3579SOL     OW11635   1.743   3.807   5.544
 3579SOL    HW111636   1.760   3.708   5.548
 3579SOL    HW211637   1.645   3.824   5.555
 3580SOL     OW11638   5.802   2.205   0.815
 3580SOL    HW111639   5.834   2.293   0.852
 3580SOL    HW211640   5.706   2.214   0.787
 3581SOL     OW11641   6.866   0.632   3.113
 3581SOL    HW111642   6.858   0.700   3.040
 3581SOL    HW211643   6.857   0.677   3.202
 3582SOL     OW11644   0.186   0.150   5.855
 3582SOL    HW111645   0.092   0.178   5.836
 3582SOL    HW211646   0.187   0.054   5.883
 3583SOL     OW11647   0.950   5.848   1.650
 3583SOL    HW111648   0.962   5.749   1.654
 3583SOL    HW211649   0.983   5.883   1.562
 3584SOL     OW11650   5.723   0.737   5.289
 3584SOL    HW111651   5.654   0.745   5.361
 3584SOL    HW211652   5.698   0.662   5.228
 3585SOL     OW11653   2.463   4.535   3.547
 3585SOL    HW111654   2.399   4.459   3.541
 3585SOL    HW211655   2.484   4.553   3.644
 3586SOL     OW11656   1.132   1.279   6.352
 3586SOL    HW111657   1.183   1.213   6.297
 3586SOL    HW211658   1.114   1.240   6.442
 3587SOL     OW11659   3.493   6.609   6.358
 3587SOL    HW111660   3.398   6.580   6.343
 3587SOL    HW211661   3.496   6.707   6.376
 3588SOL     OW11662   2.450   2.236   5.427
 3588SOL    HW111663   2.514   2.263   5.355
 3588SOL    HW211664   2.498   2.179   5.494
 3589SOL     OW11665   3.018   6.306   4.628
 3589SOL    HW111666   2.988   6.385   4.682
 3589SOL    HW211667   2.945   6.238   4.624
 3590SOL     OW11668   1.149   5.616   6.433
 3590SOL    HW111669   1.119   5.694   6.379
 3590SOL    HW211670   1.219   5.565   6.382
 3591SOL     OW11671   5.079   1.257   5.428
 3591SOL    HW111672   5.091   1.228   5.333
 3591SOL    HW211673   5.010   1.329   5.433
 3592SOL     OW11674   5.922   1.934   2.047
 3592SOL    HW111675   5.867   1.929   2.130
 3592SOL    HW211676   5.910   1.850   1.994
 3593SOL     OW11677   1.051   5.368   4.316
 3593SOL    HW111678   0.997   5.420   4.249
 3593SOL    HW211679   0.992   5.300   4.360
 3594SOL     OW11680   4.108   1.433   4.304
 3594SOL    HW111681   4.068   1.432   4.396
 3594SOL    HW211682   4.057   1.371   4.244
 3595SOL     OW11683   2.587   6.321   5.886
 3595SOL    HW111684   2.550   6.280   5.970
 3595SOL    HW211685   2.547   6.411   5.872
 3596SOL     OW11686   0.298   3.507   3.280
 3596SOL    HW111687   0.389   3.511   3.237
 3596SOL    HW211688   0.231   3.479   3.212
 3597SOL     OW11689   3.989   0.090   4.372
 3597SOL    HW111690   3.923   0.102   4.445
 3597SOL    HW211691   3.996   7.017   4.348
 3598SOL     OW11692   1.782   0.149   6.925
 3598SOL    HW111693   1.862   0.210   6.921
 3598SOL    HW211694   1.703   0.196   6.886
 3599SOL     OW11695   6.965   1.634   4.916
 3599SOL    HW111696   6.904   1.713   4.907
 3599SOL    HW211697   0.015   1.642   4.849
 3600SOL     OW11698   6.386   6.678   1.096
 3600SOL    HW111699   6.451   6.679   1.172
 3600SOL    HW211700   6.403   6.596   1.040
 3601SOL     OW11701   6.596   3.804   6.291
 3601SOL    HW111702   6.516   3.755   6.256
 3601SOL    HW211703   6.566   3.882   6.347
 3602SOL     OW11704   3.207   2.268   1.166
 3602SOL    HW111705   3.282   2.310   1.117
 3602SOL    HW211706   3.219   2.169   1.168
 3603SOL     OW11707   3.884   5.003   4.699
 3603SOL    HW111708   3.969   5.057   4.703
 3603SOL    HW211709   3.826   5.027   4.777
 3604SOL     OW11710   6.237   4.163   3.057
 3604SOL    HW111711   6.140   4.178   3.039
 3604SOL    HW211712   6.250   4.144   3.154
 3605SOL     OW11713   6.222   1.785   6.236
 3605SOL    HW111714   6.157   1.713   6.259
 3605SOL    HW211715   6.237   1.787   6.137
 3606SOL     OW11716   2.293   4.133   3.165
 3606SOL    HW111717   2.342   4.053   3.132
 3606SOL    HW211718   2.354   4.189   3.221
 3607SOL     OW11719   4.384   0.029   6.570
 3607SOL    HW111720   4.322   6.976   6.552
 3607SOL    HW211721   4.368   0.101   6.502
 3608SOL     OW11722   0.863   3.031   3.366
 3608SOL    HW111723   0.925   3.101   3.404
 3608SOL    HW211724   0.774   3.039   3.410
 3609SOL     OW11725   7.003   0.209   4.011
 3609SOL    HW111726   0.067   0.163   4.019
 3609SOL    HW211727   6.954   0.174   3.931
 3610SOL     OW11728   1.546   5.154   5.733
 3610SOL    HW111729   1.550   5.253   5.737
 3610SOL    HW211730   1.462   5.125   5.686
 3611SOL     OW11731   4.788   5.494   5.421
 3611SOL    HW111732   4.835   5.421   5.371
 3611SOL    HW211733   4.849   5.573   5.430
 3612SOL     OW11734   2.128   5.936   0.955
 3612SOL    HW111735   2.202   5.949   1.021
 3612SOL    HW211736   2.136   5.846   0.913
 3613SOL     OW11737   5.054   5.161   6.347
 3613SOL    HW111738   5.107   5.082   6.317
 3613SOL    HW211739   5.057   5.233   6.277
 3614SOL     OW11740   3.557   2.899   4.371
 3614SOL    HW111741   3.572   2.905   4.273
 3614SOL    HW211742   3.463   2.867   4.389
 3615SOL     OW11743   5.174   6.825   5.999
 3615SOL    HW111744   5.166   6.764   6.078
 3615SOL    HW211745   5.214   6.776   5.922
 3616SOL     OW11746   6.415   0.800   4.613
 3616SOL    HW111747   6.443   0.823   4.520
 3616SOL    HW211748   6.479   0.840   4.679
 3617SOL     OW11749   0.055   1.125   0.291
 3617SOL    HW111750   0.137   1.067   0.285
 3617SOL    HW211751   0.005   1.121   0.205
 3618SOL     OW11752   3.213   6.486   6.289
 3618SOL    HW111753   3.119   6.455   6.274
 3618SOL    HW211754   3.227   6.501   6.387
 3619SOL     OW11755   5.317   3.447   3.611
 3619SOL    HW111756   5.230   3.422   3.568
 3619SOL    HW211757   5.377   3.489   3.542
 3620SOL     OW11758   6.030   1.834   5.128
 3620SOL    HW111759   5.972   1.821   5.048
 3620SOL    HW211760   6.072   1.747   5.154
 3621SOL     OW11761   1.351   2.805   5.645
 3621SOL    HW111762   1.330   2.855   5.729
 3621SOL    HW211763   1.390   2.868   5.578
 3622SOL     OW11764   0.735   3.835   1.003
 3622SOL    HW111765   0.739   3.749   1.053
 3622SOL    HW211766   0.659   3.834   0.939
 3623SOL     OW11767   6.689   4.852   3.960
 3623SOL    HW111768   6.652   4.930   3.910
 3623SOL    HW211769   6.702   4.774   3.898
 3624SOL     OW11770   2.406   0.720   1.576
 3624SOL    HW111771   2.462   0.797   1.608
 3624SOL    HW211772   2.309   0.746   1.580
 3625SOL     OW11773   0.957   2.814   4.294
 3625SOL    HW111774   1.021   2.757   4.345
 3625SOL    HW211775   1.007   2.881   4.239
 3626SOL     OW11776   2.574   4.121   5.642
 3626SOL    HW111777   2.497   4.175   5.677
 3626SOL    HW211778   2.568   4.115   5.542
 3627SOL     OW11779   3.403   3.305   3.934
 3627SOL    HW111780   3.442   3.379   3.989
 3627SOL    HW211781   3.477   3.245   3.903
 3628SOL     OW11782   2.666   6.066   4.034
 3628SOL    HW111783   2.710   5.979   4.053
 3628SOL    HW211784   2.619   6.061   3.946
 3629SOL     OW11785   5.765   3.346   5.139
 3629SOL    HW111786   5.775   3.322   5.235
 3629SOL    HW211787   5.740   3.443   5.131
 3630SOL     OW11788   5.743   1.025   4.819
 3630SOL    HW111789   5.749   0.926   4.818
 3630SOL    HW211790   5.672   1.054   4.883
 3631SOL     OW11791   2.018   1.005   3.957
 3631SOL    HW111792   2.110   1.016   3.994
 3631SOL    HW211793   1.954   0.986   4.031
 3632SOL     OW11794   4.259   6.743   6.001
 3632SOL    HW111795   4.186   6.737   6.069
 3632SOL    HW211796   4.305   6.655   5.994
 3633SOL     OW11797   1.140   2.671   5.500
 3633SOL    HW111798   1.088   2.756   5.492
 3633SOL    HW211799   1.223   2.687   5.553
 3634SOL     OW11800   3.130   5.095   6.036
 3634SOL    HW111801   3.092   5.181   6.070
 3634SOL    HW211802   3.229   5.093   6.053
 3635SOL     OW11803   2.172   1.422   4.906
 3635SOL    HW111804   2.161   1.476   4.990
 3635SOL    HW211805   2.098   1.444   4.842
 3636SOL     OW11806   1.412   6.413   0.939
 3636SOL    HW111807   1.392   6.432   1.035
 3636SOL    HW211808   1.508   6.385   0.930
 3637SOL     OW11809   4.844   0.809   1.587
 3637SOL    HW111810   4.750   0.774   1.579
 3637SOL    HW211811   4.860   0.841   1.681
 3638SOL     OW11812   6.706   4.590   3.300
 3638SOL    HW111813   6.673   4.592   3.395
 3638SOL    HW211814   6.806   4.590   3.299
 3639SOL     OW11815   2.542   6.119   0.489
 3639SOL    HW111816   2.537   6.188   0.416
 3639SOL    HW211817   2.612   6.145   0.555
 3640SOL     OW11818   2.376   6.982   1.697
 3640SOL    HW111819   2.470   7.009   1.675
 3640SOL    HW211820   2.315   0.036   1.684
 3641SOL     OW11821   1.844   0.650   4.756
 3641SOL    HW111822   1.844   0.579   4.826
 3641SOL    HW211823   1.771   0.632   4.690
 3642SOL     OW11824   6.211   6.591   1.937
 3642SOL    HW111825   6.164   6.672   1.971
 3642SOL    HW211826   6.285   6.619   1.875
 3643SOL     OW11827   3.627   5.837   4.838
 3643SOL    HW111828   3.591   5.930   4.834
 3643SOL    HW211829   3.725   5.838   4.818
 3644SOL     OW11830   6.731   0.070   1.411
 3644SOL    HW111831   6.792   0.129   1.464
 3644SOL    HW211832   6.660   0.126   1.369
 3645SOL     OW11833   3.959   5.866   3.084
 3645SOL    HW111834   4.054   5.847   3.059
 3645SOL    HW211835   3.899   5.809   3.029
 3646SOL     OW11836   0.207   5.244   4.847
 3646SOL    HW111837   0.227   5.337   4.818
 3646SOL    HW211838   0.190   5.243   4.946
 3647SOL     OW11839   2.964   2.718   0.958
 3647SOL    HW111840   2.964   2.661   1.041
 3647SOL    HW211841   3.007   2.806   0.978
 3648SOL     OW11842   3.098   6.805   3.012
 3648SOL    HW111843   3.163   6.745   3.058
 3648SOL    HW211844   3.118   6.900   3.036
 3649SOL     OW11845   3.207   2.876   2.045
 3649SOL    HW111846   3.107   2.877   2.053
 3649SOL    HW211847   3.247   2.931   2.118
 3650SOL     OW11848   5.742   6.892   1.139
 3650SOL    HW111849   5.675   6.936   1.079
 3650SOL    HW211850   5.833   6.928   1.119
 3651SOL     OW11851   1.486   6.188   2.240
 3651SOL    HW111852   1.521   6.099   2.212
 3651SOL    HW211853   1.562   6.253   2.244
 3652SOL     OW11854   4.508   5.384   3.050
 3652SOL    HW111855   4.496   5.287   3.068
 3652SOL    HW211856   4.440   5.414   2.982
 3653SOL     OW11857   6.360   2.818   4.662
 3653SOL    HW111858   6.330   2.895   4.719
 3653SOL    HW211859   6.327   2.831   4.568
 3654SOL     OW11860   1.835   6.953   1.701
 3654SOL    HW111861   1.899   6.879   1.720
 3654SOL    HW211862   1.875   0.016   1.731
 3655SOL     OW11863   6.657   1.211   3.149
 3655SOL    HW111864   6.723   1.136   3.141
 3655SOL    HW211865   6.681   1.269   3.226
 3656SOL     OW11866   2.400   1.871   3.059
 3656SOL    HW111867   2.465   1.797   3.077
 3656SOL    HW211868   2.430   1.954   3.106
 3657SOL     OW11869   4.465   5.268   2.043
 3657SOL    HW111870   4.395   5.331   2.078
 3657SOL    HW211871   4.445   5.175   2.073
 3658SOL     OW11872   2.233   5.202   5.658
 3658SOL    HW111873   2.184   5.160   5.581
 3658SOL    HW211874   2.194   5.292   5.676
 3659SOL     OW11875   1.270   3.757   0.277
 3659SOL    HW111876   1.173   3.761   0.256
 3659SOL    HW211877   1.283   3.754   0.376
 3660SOL     OW11878   4.078   4.886   1.026
 3660SOL    HW111879   4.025   4.964   0.992
 3660SOL    HW211880   4.176   4.907   1.021
 3661SOL     OW11881   5.565   1.932   1.628
 3661SOL    HW111882   5.543   1.870   1.553
 3661SOL    HW211883   5.518   2.019   1.614
 3662SOL     OW11884   1.586   5.988   4.699
 3662SOL    HW111885   1.645   6.050   4.647
 3662SOL    HW211886   1.530   6.041   4.763
 3663SOL     OW11887   1.318   3.534   5.404
 3663SOL    HW111888   1.408   3.490   5.412
 3663SOL    HW211889   1.282   3.555   5.495
 3664SOL     OW11890   3.822   6.707   2.390
 3664SOL    HW111891   3.771   6.731   2.308
 3664SOL    HW211892   3.900   6.648   2.365
 3665SOL     OW11893   1.860   1.201   5.303
 3665SOL    HW111894   1.839   1.152   5.218
 3665SOL    HW211895   1.850   1.299   5.288
 3666SOL     OW11896   0.746   4.477   4.101
 3666SOL    HW111897   0.765   4.534   4.021
 3666SOL    HW211898   0.702   4.393   4.072
 3667SOL     OW11899   0.798   1.579   6.471
 3667SOL    HW111900   0.823   1.545   6.380
 3667SOL    HW211901   0.859   1.654   6.497
 3668SOL     OW11902   2.144   6.380   1.835
 3668SOL    HW111903   2.174   6.415   1.746
 3668SOL    HW211904   2.059   6.425   1.861
 3669SOL     OW11905   5.598   1.518   3.752
 3669SOL    HW111906   5.541   1.449   3.798
 3669SOL    HW211907   5.545   1.602   3.740
 3670SOL     OW11908   2.406   5.543   6.332
 3670SOL    HW111909   2.448   5.593   6.408
 3670SOL    HW211910   2.477   5.500   6.277
 3671SOL     OW11911   2.058   0.525   3.478
 3671SOL    HW111912   2.058   0.621   3.450
 3671SOL    HW211913   2.055   0.466   3.396
 3672SOL     OW11914   6.340   0.355   0.497
 3672SOL    HW111915   6.313   0.337   0.402
 3672SOL    HW211916   6.396   0.437   0.501
 3673SOL     OW11917   4.556   0.266   6.686
 3673SOL    HW111918   4.473   0.317   6.663
 3673SOL    HW211919   4.589   0.294   6.776
 3674SOL     OW11920   1.212   6.469   0.753
 3674SOL    HW111921   1.270   6.454   0.833
 3674SOL    HW211922   1.117   6.478   0.783
 3675SOL     OW11923   1.906   2.501   4.325
 3675SOL    HW111924   1.872   2.411   4.296
 3675SOL    HW211925   1.925   2.499   4.423
 3676SOL     OW11926   1.640   4.641   2.745
 3676SOL    HW111927   1.632   4.620   2.647
 3676SOL    HW211928   1.630   4.557   2.798
 3677SOL     OW11929   6.190   0.035   3.787
 3677SOL    HW111930   6.148   0.105   3.845
 3677SOL    HW211931   6.210   6.977   3.842
 3678SOL     OW11932   1.328   1.695   3.992
 3678SOL    HW111933   1.350   1.639   3.912
 3678SOL    HW211934   1.412   1.716   4.042
 3679SOL     OW11935   6.819   0.290   1.539
 3679SOL    HW111936   6.740   0.351   1.528
 3679SOL    HW211937   6.847   0.289   1.635
 3680SOL     OW11938   5.971   4.233   4.626
 3680SOL    HW111939   5.988   4.145   4.669
 3680SOL    HW211940   5.926   4.294   4.691
 3681SOL     OW11941   5.648   6.301   4.265
 3681SOL    HW111942   5.578   6.234   4.290
 3681SOL    HW211943   5.736   6.272   4.304
 3682SOL     OW11944   0.977   2.665   7.003
 3682SOL    HW111945   1.059   2.705   6.962
 3682SOL    HW211946   0.896   2.710   6.966
 3683SOL     OW11947   5.479   6.448   3.748
 3683SOL    HW111948   5.498   6.454   3.846
 3683SOL    HW211949   5.562   6.424   3.699
 3684SOL     OW11950   1.655   3.445   0.925
 3684SOL    HW111951   1.710   3.409   0.850
 3684SOL    HW211952   1.689   3.410   1.012
 3685SOL     OW11953   5.450   6.706   6.480
 3685SOL    HW111954   5.439   6.682   6.576
 3685SOL    HW211955   5.400   6.790   6.460
 3686SOL     OW11956   7.017   4.248   1.029
 3686SOL    HW111957   6.998   4.257   1.127
 3686SOL    HW211958   6.963   4.172   0.992
 3687SOL     OW11959   3.548   1.410   0.115
 3687SOL    HW111960   3.569   1.347   0.190
 3687SOL    HW211961   3.561   1.363   0.027
 3688SOL     OW11962   6.637   3.197   0.283
 3688SOL    HW111963   6.614   3.289   0.252
 3688SOL    HW211964   6.558   3.156   0.327
 3689SOL     OW11965   2.326   6.777   3.433
 3689SOL    HW111966   2.366   6.719   3.362
 3689SOL    HW211967   2.239   6.813   3.400
 3690SOL     OW11968   4.837   5.857   5.112
 3690SOL    HW111969   4.880   5.889   5.196
 3690SOL    HW211970   4.745   5.895   5.105
 3691SOL     OW11971   2.877   2.852   6.352
 3691SOL    HW111972   2.905   2.759   6.374
 3691SOL    HW211973   2.957   2.911   6.346
 3692SOL     OW11974   0.250   6.965   6.036
 3692SOL    HW111975   0.307   6.999   6.111
 3692SOL    HW211976   0.213   6.876   6.060
 3693SOL     OW11977   1.555   1.530   3.627
 3693SOL    HW111978   1.633   1.587   3.652
 3693SOL    HW211979   1.587   1.441   3.595
 3694SOL     OW11980   1.904   5.649   3.058
 3694SOL    HW111981   1.877   5.734   3.103
 3694SOL    HW211982   1.826   5.586   3.055
 3695SOL     OW11983   1.311   2.397   1.070
 3695SOL    HW111984   1.398   2.375   1.027
 3695SOL    HW211985   1.252   2.316   1.071
 3696SOL     OW11986   3.196   6.174   5.576
 3696SOL    HW111987   3.134   6.177   5.655
 3696SOL    HW211988   3.290   6.188   5.607
 3697SOL     OW11989   5.367   0.480   3.907
 3697SOL    HW111990   5.295   0.416   3.933
 3697SOL    HW211991   5.404   0.523   3.989
 3698SOL     OW11992   3.787   0.084   6.659
 3698SOL    HW111993   3.796   0.049   6.752
 3698SOL    HW211994   3.703   0.048   6.618
 3699SOL     OW11995   0.782   4.900   1.698
 3699SOL    HW111996   0.726   4.967   1.650
 3699SOL    HW211997   0.811   4.937   1.787
 3700SOL     OW11998   7.003   0.677   3.503
 3700SOL    HW111999   0.072   0.673   3.538
 3700SOL    HW212000   6.977   0.587   3.468
 3701SOL     OW12001   5.519   0.607   3.711
 3701SOL    HW112002   5.577   0.544   3.658
 3701SOL    HW212003   5.474   0.556   3.784
 3702SOL     OW12004   5.352   1.146   5.859
 3702SOL    HW112005   5.385   1.054   5.879
 3702SOL    HW212006   5.265   1.141   5.810
 3703SOL     OW12007   3.556   4.740   0.577
 3703SOL    HW112008   3.458   4.755   0.596
 3703SOL    HW212009   3.575   4.760   0.481
 3704SOL     OW12010   2.670   6.699   1.936
 3704SOL    HW112011   2.717   6.709   1.848
 3704SOL    HW212012   2.693   6.611   1.976
 3705SOL     OW12013   6.267   1.013   4.189
 3705SOL    HW112014   6.168   1.032   4.185
 3705SOL    HW212015   6.294   0.960   4.108
 3706SOL     OW12016   3.085   1.983   3.582
 3706SOL    HW112017   3.034   1.915   3.529
 3706SOL    HW212018   3.027   2.063   3.598
 3707SOL     OW12019   4.225   2.381   5.566
 3707SOL    HW112020   4.263   2.431   5.643
 3707SOL    HW212021   4.153   2.320   5.598
 3708SOL     OW12022   6.821   0.156   6.755
 3708SOL    HW112023   6.899   0.202   6.713
 3708SOL    HW212024   6.745   0.221   6.764
 3709SOL     OW12025   5.639   0.240   0.101
 3709SOL    HW112026   5.688   0.179   0.163
 3709SOL    HW212027   5.700   0.312   0.069
 3710SOL     OW12028   0.296   4.538   6.985
 3710SOL    HW112029   0.219   4.500   0.012
 3710SOL    HW212030   0.269   4.555   6.890
 3711SOL     OW12031   0.007   5.429   2.390
 3711SOL    HW112032   7.015   5.434   2.291
 3711SOL    HW212033   7.012   5.336   2.422
 3712SOL     OW12034   1.334   0.381   6.948
 3712SOL    HW112035   1.425   0.349   6.922
 3712SOL    HW212036   1.294   0.318   7.014
 3713SOL     OW12037   3.779   4.819   5.959
 3713SOL    HW112038   3.766   4.900   5.901
 3713SOL    HW212039   3.876   4.809   5.980
 3714SOL     OW12040   4.395   1.482   5.082
 3714SOL    HW112041   4.318   1.429   5.048
 3714SOL    HW212042   4.481   1.441   5.050
 3715SOL     OW12043   5.464   3.908   4.238
 3715SOL    HW112044   5.426   3.852   4.165
 3715SOL    HW212045   5.427   4.001   4.231
 3716SOL     OW12046   0.448   1.432   4.007
 3716SOL    HW112047   0.430   1.512   4.063
 3716SOL    HW212048   0.511   1.371   4.055
 3717SOL     OW12049   6.227   0.643   0.336
 3717SOL    HW112050   6.303   0.654   0.273
 3717SOL    HW212051   6.144   0.622   0.284
 3718SOL     OW12052   0.659   5.432   0.013
 3718SOL    HW112053   0.599   5.378   0.072
 3718SOL    HW212054   0.604   5.483   6.971
 3719SOL     OW12055   3.522   4.759   0.262
 3719SOL    HW112056   3.486   4.681   0.211
 3719SOL    HW212057   3.594   4.804   0.209
 3720SOL     OW12058   0.231   1.078   5.518
 3720SOL    HW112059   0.252   1.147   5.588
 3720SOL    HW212060   0.253   1.115   5.427
 3721SOL     OW12061   4.877   3.490   0.171
 3721SOL    HW112062   4.777   3.485   0.178
 3721SOL    HW212063   4.916   3.501   0.263
 3722SOL     OW12064   5.747   5.743   1.340
 3722SOL    HW112065   5.668   5.686   1.315
 3722SOL    HW212066   5.760   5.813   1.271
 3723SOL     OW12067   4.906   0.987   0.506
 3723SOL    HW112068   4.863   0.950   0.588
 3723SOL    HW212069   4.852   0.960   0.426
 3724SOL     OW12070   7.011   4.920   5.585
 3724SOL    HW112071   6.925   4.953   5.622
 3724SOL    HW212072   6.997   4.887   5.492
 3725SOL     OW12073   5.769   6.095   0.596
 3725SOL    HW112074   5.677   6.094   0.556
 3725SOL    HW212075   5.787   6.185   0.637
 3726SOL     OW12076   6.014   2.888   1.345
 3726SOL    HW112077   6.056   2.976   1.365
 3726SOL    HW212078   6.015   2.831   1.427
 3727SOL     OW12079   2.483   2.858   5.375
 3727SOL    HW112080   2.478   2.924   5.301
 3727SOL    HW212081   2.524   2.901   5.456
 3728SOL     OW12082   0.520   3.468   6.773
 3728SOL    HW112083   0.534   3.533   6.847
 3728SOL    HW212084   0.608   3.444   6.733
 3729SOL     OW12085   0.566   2.662   3.873
 3729SOL    HW112086   0.608   2.654   3.782
 3729SOL    HW212087   0.475   2.702   3.864
 3730SOL     OW12088   2.277   0.498   0.970
 3730SOL    HW112089   2.214   0.457   0.905
 3730SOL    HW212090   2.368   0.458   0.959
 3731SOL     OW12091   3.257   5.755   6.664
 3731SOL    HW112092   3.275   5.841   6.712
 3731SOL    HW212093   3.180   5.708   6.706
 3732SOL     OW12094   2.127   3.641   4.540
 3732SOL    HW112095   2.133   3.734   4.578
 3732SOL    HW212096   2.042   3.631   4.490
 3733SOL     OW12097   3.339   3.298   1.069
 3733SOL    HW112098   3.365   3.218   1.124
 3733SOL    HW212099   3.331   3.271   0.973
 3734SOL     OW12100   4.760   0.057   4.154
 3734SOL    HW112101   4.830   0.058   4.083
 3734SOL    HW212102   4.725   0.150   4.167
 3735SOL     OW12103   3.679   1.933   2.062
 3735SOL    HW112104   3.629   1.912   2.146
 3735SOL    HW212105   3.674   2.031   2.044
 3736SOL     OW12106   4.937   1.019   5.891
 3736SOL    HW112107   4.990   1.102   5.909
 3736SOL    HW212108   4.842   1.044   5.872
 3737SOL     OW12109   3.786   6.947   3.943
 3737SOL    HW112110   3.823   6.862   3.907
 3737SOL    HW212111   3.757   6.934   4.038
 3738SOL     OW12112   0.189   0.036   4.666
 3738SOL    HW112113   0.212   6.962   4.666
 3738SOL    HW212114   0.123   0.054   4.739
 3739SOL     OW12115   1.120   3.505   1.535
 3739SOL    HW112116   1.208   3.544   1.507
 3739SOL    HW212117   1.125   3.476   1.631
 3740SOL     OW12118   5.673   0.685   6.697
 3740SOL    HW112119   5.671   0.641   6.607
 3740SOL    HW212120   5.605   0.642   6.757
 3741SOL     OW12121   3.321   2.593   6.902
 3741SOL    HW112122   3.297   2.636   6.989
 3741SOL    HW212123   3.245   2.538   6.869
 3742SOL     OW12124   3.375   3.277   5.516
 3742SOL    HW112125   3.329   3.258   5.429
 3742SOL    HW212126   3.319   3.340   5.570
 3743SOL     OW12127   1.125   5.911   6.350
 3743SOL    HW112128   1.174   5.944   6.269
 3743SOL    HW212129   1.162   5.957   6.432
 3744SOL     OW12130   6.767   5.283   2.861
 3744SOL    HW112131   6.668   5.278   2.873
 3744SOL    HW212132   6.807   5.192   2.871
 3745SOL     OW12133   5.190   5.644   1.886
 3745SOL    HW112134   5.230   5.554   1.905
 3745SOL    HW212135   5.128   5.670   1.959
 3746SOL     OW12136   4.437   1.437   1.682
 3746SOL    HW112137   4.417   1.343   1.707
 3746SOL    HW212138   4.410   1.499   1.756
 3747SOL     OW12139   2.806   0.504   0.498
 3747SOL    HW112140   2.749   0.526   0.419
 3747SOL    HW212141   2.747   0.489   0.578
 3748SOL     OW12142   5.063   0.247   1.650
 3748SOL    HW112143   4.985   0.213   1.597
 3748SOL    HW212144   5.142   0.256   1.590
 3749SOL     OW12145   1.697   0.726   4.402
 3749SOL    HW112146   1.783   0.777   4.413
 3749SOL    HW212147   1.680   0.672   4.484
 3750SOL     OW12148   6.987   4.213   6.242
 3750SOL    HW112149   0.004   4.238   6.154
 3750SOL    HW212150   6.896   4.176   6.226
 3751SOL     OW12151   1.310   4.772   1.405
 3751SOL    HW112152   1.294   4.838   1.332
 3751SOL    HW212153   1.333   4.683   1.365
 3752SOL     OW12154   4.836   5.779   0.010
 3752SOL    HW112155   4.753   5.812   0.055
 3752SOL    HW212156   4.872   5.851   6.975
 3753SOL     OW12157   0.273   0.291   3.469
 3753SOL    HW112158   0.288   0.315   3.564
 3753SOL    HW212159   0.324   0.207   3.447
 3754SOL     OW12160   3.062   1.197   1.711
 3754SOL    HW112161   3.037   1.275   1.769
 3754SOL    HW212162   2.991   1.183   1.643
 3755SOL     OW12163   2.437   5.636   4.168
 3755SOL    HW112164   2.430   5.725   4.122
 3755SOL    HW212165   2.510   5.639   4.235
 3756SOL     OW12166   1.214   6.958   0.515
 3756SOL    HW112167   1.273   6.909   0.579
 3756SOL    HW212168   1.201   6.903   0.433
 3757SOL     OW12169   0.503   4.131   0.650
 3757SOL    HW112170   0.409   4.104   0.671
 3757SOL    HW212171   0.527   4.101   0.558
 3758SOL     OW12172   1.689   6.876   3.937
 3758SOL    HW112173   1.677   6.972   3.961
 3758SOL    HW212174   1.642   6.857   3.851
 3759SOL     OW12175   5.212   0.058   3.967
 3759SOL    HW112176   5.127   0.005   3.968
 3759SOL    HW212177   5.268   0.030   3.889
 3760SOL     OW12178   1.141   0.969   3.247
 3760SOL    HW112179   1.222   0.959   3.305
 3760SOL    HW212180   1.153   1.047   3.186
 3761SOL     OW12181   4.670   1.763   5.544
 3761SOL    HW112182   4.701   1.858   5.541
 3761SOL    HW212183   4.679   1.721   5.454
 3762SOL     OW12184   0.715   2.476   4.143
 3762SOL    HW112185   0.705   2.575   4.132
 3762SOL    HW212186   0.626   2.432   4.128
 3763SOL     OW12187   0.530   5.620   6.885
 3763SOL    HW112188   0.444   5.616   6.835
 3763SOL    HW212189   0.606   5.622   6.819
 3764SOL     OW12190   2.864   1.157   2.652
 3764SOL    HW112191   2.947   1.111   2.683
 3764SOL    HW212192   2.791   1.143   2.719
 3765SOL     OW12193   5.258   2.836   2.705
 3765SOL    HW112194   5.248   2.914   2.643
 3765SOL    HW212195   5.348   2.841   2.749
 3766SOL     OW12196   1.387   2.723   2.298
 3766SOL    HW112197   1.337   2.669   2.365
 3766SOL    HW212198   1.398   2.670   2.214
 3767SOL     OW12199   1.880   6.073   5.912
 3767SOL    HW112200   1.841   6.163   5.892
 3767SOL    HW212201   1.808   6.004   5.911
 3768SOL     OW12202   1.972   6.591   2.643
 3768SOL    HW112203   1.902   6.662   2.644
 3768SOL    HW212204   1.999   6.572   2.548
 3769SOL     OW12205   5.126   5.424   4.544
 3769SOL    HW112206   5.069   5.394   4.468
 3769SOL    HW212207   5.074   5.486   4.602
 3770SOL     OW12208   3.052   0.365   1.409
 3770SOL    HW112209   3.110   0.410   1.342
 3770SOL    HW212210   3.098   0.283   1.444
 3771SOL     OW12211   6.626   5.915   5.506
 3771SOL    HW112212   6.556   5.847   5.529
 3771SOL    HW212213   6.668   5.891   5.419
 3772SOL     OW12214   2.036   6.124   1.770
 3772SOL    HW112215   2.064   6.210   1.812
 3772SOL    HW212216   1.982   6.071   1.835
 3773SOL     OW12217   4.493   4.983   6.951
 3773SOL    HW112218   4.515   4.924   0.005
 3773SOL    HW212219   4.571   4.985   6.888
 3774SOL     OW12220   6.900   4.755   1.857
 3774SOL    HW112221   6.878   4.681   1.794
 3774SOL    HW212222   6.984   4.801   1.826
 3775SOL     OW12223   5.155   5.289   4.805
 3775SOL    HW112224   5.189   5.346   4.731
 3775SOL    HW212225   5.160   5.193   4.779
 3776SOL     OW12226   4.043   2.853   6.123
 3776SOL    HW112227   4.040   2.945   6.082
 3776SOL    HW212228   4.001   2.788   6.060
 3777SOL     OW12229   3.023   5.200   3.979
 3777SOL    HW112230   2.975   5.150   4.051
 3777SOL    HW212231   3.017   5.148   3.893
 3778SOL     OW12232   2.859   4.986   6.836
 3778SOL    HW112233   2.787   4.917   6.834
 3778SOL    HW212234   2.948   4.943   6.829
 3779SOL     OW12235   6.631   4.715   6.680
 3779SOL    HW112236   6.578   4.799   6.691
 3779SOL    HW212237   6.641   4.694   6.583
 3780SOL     OW12238   6.371   3.020   1.882
 3780SOL    HW112239   6.297   3.014   1.949
 3780SOL    HW212240   6.335   3.055   1.795
 3781SOL     OW12241   1.537   6.758   5.608
 3781SOL    HW112242   1.610   6.825   5.590
 3781SOL    HW212243   1.464   6.770   5.540
 3782SOL     OW12244   4.025   5.435   0.036
 3782SOL    HW112245   3.963   5.358   0.051
 3782SOL    HW212246   3.975   5.521   0.047
 3783SOL     OW12247   4.647   5.155   5.095
 3783SOL    HW112248   4.619   5.251   5.091
 3783SOL    HW212249   4.566   5.096   5.086
 3784SOL     OW12250   5.781   3.271   5.389
 3784SOL    HW112251   5.706   3.259   5.454
 3784SOL    HW212252   5.851   3.201   5.405
 3785SOL     OW12253   1.320   2.783   2.941
 3785SOL    HW112254   1.267   2.867   2.953
 3785SOL    HW212255   1.401   2.786   3.000
 3786SOL     OW12256   2.017   2.948   5.291
 3786SOL    HW112257   2.032   2.866   5.236
 3786SOL    HW212258   2.100   3.003   5.294
 3787SOL     OW12259   4.863   6.049   4.316
 3787SOL    HW112260   4.923   6.092   4.383
 3787SOL    HW212261   4.767   6.065   4.340
 3788SOL     OW12262   5.616   3.559   5.621
 3788SOL    HW112263   5.579   3.471   5.590
 3788SOL    HW212264   5.694   3.543   5.681
 3789SOL     OW12265   1.988   3.089   1.305
 3789SOL    HW112266   2.008   3.120   1.398
 3789SOL    HW212267   2.066   3.037   1.270
 3790SOL     OW12268   1.005   6.818   1.469
 3790SOL    HW112269   0.991   6.863   1.381
 3790SOL    HW212270   1.085   6.857   1.514
 3791SOL     OW12271   5.061   0.487   4.731
 3791SOL    HW112272   5.070   0.580   4.694
 3791SOL    HW212273   4.967   0.471   4.761
 3792SOL     OW12274   6.618   0.013   3.846
 3792SOL    HW112275   6.605   7.000   3.938
 3792SOL    HW212276   6.569   0.099   3.837
 3793SOL     OW12277   4.158   4.208   0.489
 3793SOL    HW112278   4.122   4.123   0.526
 3793SOL    HW212279   4.165   4.201   0.390
 3794SOL     OW12280   1.357   5.497   6.294
 3794SOL    HW112281   1.327   5.480   6.200
 3794SOL    HW212282   1.438   5.556   6.293
 3795SOL     OW12283   3.224   6.262   1.284
 3795SOL    HW112284   3.174   6.194   1.337
 3795SOL    HW212285   3.316   6.272   1.322
 3796SOL     OW12286   5.578   0.877   0.161
 3796SOL    HW112287   5.528   0.871   0.074
 3796SOL    HW212288   5.667   0.921   0.145
 3797SOL     OW12289   0.195   2.769   1.130
 3797SOL    HW112290   0.190   2.868   1.117
 3797SOL    HW212291   0.290   2.743   1.150
 3798SOL     OW12292   1.263   5.184   3.607
 3798SOL    HW112293   1.251   5.257   3.673
 3798SOL    HW212294   1.177   5.168   3.558
 3799SOL     OW12295   6.815   1.007   3.146
 3799SOL    HW112296   6.881   0.954   3.201
 3799SOL    HW212297   6.743   0.947   3.114
 3800SOL     OW12298   5.480   2.777   2.872
 3800SOL    HW112299   5.450   2.815   2.959
 3800SOL    HW212300   5.579   2.784   2.865
 3801SOL     OW12301   6.018   1.697   0.770
 3801SOL    HW112302   6.034   1.619   0.831
 3801SOL    HW212303   6.105   1.727   0.730
 3802SOL     OW12304   6.599   3.478   2.478
 3802SOL    HW112305   6.648   3.391   2.480
 3802SOL    HW212306   6.524   3.475   2.543
 3803SOL     OW12307   4.213   3.971   5.338
 3803SOL    HW112308   4.160   4.056   5.329
 3803SOL    HW212309   4.171   3.899   5.283
 3804SOL     OW12310   3.766   6.339   3.359
 3804SOL    HW112311   3.856   6.309   3.391
 3804SOL    HW212312   3.773   6.429   3.317
 3805SOL     OW12313   2.468   2.005   6.557
 3805SOL    HW112314   2.449   2.048   6.469
 3805SOL    HW212315   2.383   1.967   6.595
 3806SOL     OW12316   2.475   4.703   1.654
 3806SOL    HW112317   2.437   4.611   1.667
 3806SOL    HW212318   2.402   4.767   1.632
 3807SOL     OW12319   0.657   4.662   3.455
 3807SOL    HW112320   0.615   4.584   3.501
 3807SOL    HW212321   0.747   4.635   3.420
 3808SOL     OW12322   2.975   6.859   5.779
 3808SOL    HW112323   2.986   6.849   5.680
 3808SOL    HW212324   2.894   6.807   5.808
 3809SOL     OW12325   5.529   1.283   1.931
 3809SOL    HW112326   5.626   1.263   1.941
 3809SOL    HW212327   5.476   1.213   1.979
 3810SOL     OW12328   4.809   2.217   2.814
 3810SOL    HW112329   4.731   2.155   2.804
 3810SOL    HW212330   4.894   2.165   2.810
 3811SOL     OW12331   6.765   5.931   5.270
 3811SOL    HW112332   6.848   5.951   5.322
 3811SOL    HW212333   6.749   6.005   5.204
 3812SOL     OW12334   4.242   5.719   6.973
 3812SOL    HW112335   4.334   5.757   6.969
 3812SOL    HW212336   4.201   5.740   0.038
 3813SOL     OW12337   5.860   3.973   0.106
 3813SOL    HW112338   5.899   3.898   0.053
 3813SOL    HW212339   5.761   3.960   0.116
 3814SOL     OW12340   0.696   0.382   5.227
 3814SOL    HW112341   0.769   0.446   5.247
 3814SOL    HW212342   0.623   0.428   5.176
 3815SOL     OW12343   5.301   3.184   6.095
 3815SOL    HW112344   5.308   3.084   6.089
 3815SOL    HW212345   5.271   3.210   6.186
 3816SOL     OW12346   6.619   6.473   0.824
 3816SOL    HW112347   6.664   6.424   0.898
 3816SOL    HW212348   6.674   6.466   0.741
 3817SOL     OW12349   4.021   3.659   1.576
 3817SOL    HW112350   4.059   3.731   1.634
 3817SOL    HW212351   4.066   3.573   1.597
 3818SOL     OW12352   5.081   5.940   2.442
 3818SOL    HW112353   5.121   5.917   2.354
 3818SOL    HW212354   5.137   5.901   2.515
 3819SOL     OW12355   6.410   3.537   3.412
 3819SOL    HW112356   6.314   3.513   3.425
 3819SOL    HW212357   6.417   3.630   3.377
 3820SOL     OW12358   3.313   6.494   5.834
 3820SOL    HW112359   3.233   6.537   5.876
 3820SOL    HW212360   3.394   6.513   5.889
 3821SOL     OW12361   2.021   0.077   0.423
 3821SOL    HW112362   2.101   0.017   0.410
 3821SOL    HW212363   1.959   0.068   0.345
 3822SOL     OW12364   5.017   6.614   2.422
 3822SOL    HW112365   5.038   6.569   2.335
 3822SOL    HW212366   4.928   6.582   2.456
 3823SOL     OW12367   5.447   6.137   5.016
 3823SOL    HW112368   5.500   6.139   4.931
 3823SOL    HW212369   5.486   6.202   5.081
 3824SOL     OW12370   2.320   2.861   0.927
 3824SOL    HW112371   2.261   2.784   0.901
 3824SOL    HW212372   2.416   2.833   0.922
 3825SOL     OW12373   0.461   5.073   5.734
 3825SOL    HW112374   0.369   5.034   5.726
 3825SOL    HW212375   0.509   5.065   5.647
 3826SOL     OW12376   5.375   3.723   3.337
 3826SOL    HW112377   5.316   3.795   3.375
 3826SOL    HW212378   5.435   3.689   3.409
 3827SOL     OW12379   0.126   2.093   6.843
 3827SOL    HW112380   0.059   2.085   6.918
 3827SOL    HW212381   0.205   2.144   6.875
 3828SOL     OW12382   3.988   3.129   4.144
 3828SOL    HW112383   4.027   3.129   4.052
 3828SOL    HW212384   3.889   3.116   4.138
 3829SOL     OW12385   0.557   3.081   1.663
 3829SOL    HW112386   0.644   3.129   1.653
 3829SOL    HW212387   0.483   3.148   1.675
 3830SOL     OW12388   5.924   0.229   3.712
 3830SOL    HW112389   5.981   0.238   3.794
 3830SOL    HW212390   5.937   0.310   3.654
 3831SOL     OW12391   4.416   2.467   3.550
 3831SOL    HW112392   4.388   2.409   3.626
 3831SOL    HW212393   4.489   2.529   3.579
 3832SOL     OW12394   6.464   0.840   3.755
 3832SOL    HW112395   6.554   0.881   3.768
 3832SOL    HW212396   6.429   0.862   3.664
 3833SOL     OW12397   1.847   2.981   5.521
 3833SOL    HW112398   1.890   2.963   5.433
 3833SOL    HW212399   1.748   2.967   5.513
 3834SOL     OW12400   5.062   4.632   1.099
 3834SOL    HW112401   5.078   4.605   1.193
 3834SOL    HW212402   5.064   4.732   1.092
 3835SOL     OW12403   4.496   5.918   5.358
 3835SOL    HW112404   4.408   5.929   5.404
 3835SOL    HW212405   4.538   5.832   5.386
 3836SOL     OW12406   6.647   6.559   4.564
 3836SOL    HW112407   6.736   6.593   4.592
 3836SOL    HW212408   6.576   6.599   4.621
 3837SOL     OW12409   4.610   4.717   5.955
 3837SOL    HW112410   4.644   4.652   6.023
 3837SOL    HW212411   4.666   4.801   5.959
 3838SOL     OW12412   6.789   0.486   4.071
 3838SOL    HW112413   6.728   0.447   4.140
 3838SOL    HW212414   6.884   0.476   4.101
 3839SOL     OW12415   4.878   0.423   3.497
 3839SOL    HW112416   4.795   0.368   3.492
 3839SOL    HW212417   4.857   0.513   3.536
 3840SOL     OW12418   3.335   1.323   6.454
 3840SOL    HW112419   3.313   1.226   6.469
 3840SOL    HW212420   3.419   1.331   6.402
 3841SOL     OW12421   5.886   4.308   3.697
 3841SOL    HW112422   5.842   4.293   3.786
 3841SOL    HW212423   5.815   4.326   3.628
 3842SOL     OW12424   1.978   4.525   6.052
 3842SOL    HW112425   1.945   4.430   6.053
 3842SOL    HW212426   2.032   4.540   5.969
 3843SOL     OW12427   5.465   2.566   6.018
 3843SOL    HW112428   5.532   2.637   6.036
 3843SOL    HW212429   5.476   2.491   6.084
 3844SOL     OW12430   6.673   0.148   0.753
 3844SOL    HW112431   6.580   0.184   0.765
 3844SOL    HW212432   6.692   0.080   0.824
 3845SOL     OW12433   2.130   5.953   0.360
 3845SOL    HW112434   2.100   5.858   0.359
 3845SOL    HW212435   2.053   6.013   0.381
 3846SOL     OW12436   0.331   3.108   2.906
 3846SOL    HW112437   0.254   3.147   2.855
 3846SOL    HW212438   0.347   3.014   2.876
 3847SOL     OW12439   0.414   1.921   6.649
 3847SOL    HW112440   0.349   1.913   6.573
 3847SOL    HW212441   0.493   1.974   6.620
 3848SOL     OW12442   6.526   4.404   1.786
 3848SOL    HW112443   6.540   4.324   1.728
 3848SOL    HW212444   6.574   4.391   1.872
 3849SOL     OW12445   0.426   4.406   6.396
 3849SOL    HW112446   0.417   4.502   6.369
 3849SOL    HW212447   0.523   4.381   6.395
 3850SOL     OW12448   3.005   2.431   1.474
 3850SOL    HW112449   2.943   2.416   1.551
 3850SOL    HW212450   3.021   2.344   1.427
 3851SOL     OW12451   0.533   6.280   2.769
 3851SOL    HW112452   0.624   6.249   2.794
 3851SOL    HW212453   0.512   6.250   2.676
 3852SOL     OW12454   1.596   0.606   4.915
 3852SOL    HW112455   1.555   0.654   4.837
 3852SOL    HW212456   1.659   0.537   4.881
 3853SOL     OW12457   2.881   0.561   3.641
 3853SOL    HW112458   2.871   0.495   3.567
 3853SOL    HW212459   2.889   0.653   3.603
 3854SOL     OW12460   0.137   2.283   1.939
 3854SOL    HW112461   0.074   2.355   1.971
 3854SOL    HW212462   0.153   2.218   2.014
 3855SOL     OW12463   3.280   6.897   6.710
 3855SOL    HW112464   3.207   6.843   6.667
 3855SOL    HW212465   3.242   6.947   6.788
 3856SOL     OW12466   0.115   2.763   6.240
 3856SOL    HW112467   0.083   2.757   6.335
 3856SOL    HW212468   0.130   2.671   6.204
 3857SOL     OW12469   2.597   0.549   5.940
 3857SOL    HW112470   2.507   0.593   5.933
 3857SOL    HW212471   2.653   0.575   5.862
 3858SOL     OW12472   4.820   1.013   4.249
 3858SOL    HW112473   4.874   1.097   4.253
 3858SOL    HW212474   4.723   1.036   4.262
 3859SOL     OW12475   6.096   6.653   1.603
 3859SOL    HW112476   6.007   6.608   1.598
 3859SOL    HW212477   6.083   6.752   1.612
 3860SOL     OW12478   1.414   0.037   4.244
 3860SOL    HW112479   1.347   6.986   4.242
 3860SOL    HW212480   1.430   0.071   4.152
 3861SOL     OW12481   2.697   5.507   1.349
 3861SOL    HW112482   2.744   5.439   1.406
 3861SOL    HW212483   2.599   5.503   1.365
 3862SOL     OW12484   1.915   0.919   4.656
 3862SOL    HW112485   1.915   0.831   4.703
 3862SOL    HW212486   2.004   0.965   4.670
 3863SOL     OW12487   3.233   0.509   0.392
 3863SOL    HW112488   3.173   0.474   0.321
 3863SOL    HW212489   3.253   0.606   0.374
 3864SOL     OW12490   1.582   0.289   4.645
 3864SOL    HW112491   1.665   0.243   4.612
 3864SOL    HW212492   1.549   0.243   4.728
 3865SOL     OW12493   5.195   1.344   0.628
 3865SOL    HW112494   5.176   1.299   0.714
 3865SOL    HW212495   5.294   1.358   0.618
 3866SOL     OW12496   2.975   1.738   6.632
 3866SOL    HW112497   2.969   1.787   6.545
 3866SOL    HW212498   3.066   1.696   6.640
 3867SOL     OW12499   0.176   3.042   2.143
 3867SOL    HW112500   0.222   2.962   2.181
 3867SOL    HW212501   0.227   3.077   2.065
 3868SOL     OW12502   4.289   0.711   0.440
 3868SOL    HW112503   4.217   0.730   0.373
 3868SOL    HW212504   4.377   0.708   0.393
 3869SOL     OW12505   4.816   1.423   4.110
 3869SOL    HW112506   4.787   1.483   4.036
 3869SOL    HW212507   4.741   1.411   4.175
 3870SOL     OW12508   0.082   0.613   5.461
 3870SOL    HW112509   0.024   0.671   5.519
 3870SOL    HW212510   0.060   0.630   5.365
 3871SOL     OW12511   2.476   5.711   4.583
 3871SOL    HW112512   2.387   5.751   4.604
 3871SOL    HW212513   2.517   5.760   4.506
 3872SOL     OW12514   2.851   3.466   5.192
 3872SOL    HW112515   2.844   3.481   5.094
 3872SOL    HW212516   2.948   3.468   5.220
 3873SOL     OW12517   3.903   1.955   0.717
 3873SOL    HW112518   3.947   2.027   0.664
 3873SOL    HW212519   3.968   1.917   0.783
 3874SOL     OW12520   2.112   1.249   0.644
 3874SOL    HW112521   2.092   1.212   0.734
 3874SOL    HW212522   2.108   1.176   0.576
 3875SOL     OW12523   0.953   2.466   6.032
 3875SOL    HW112524   1.040   2.506   6.002
 3875SOL    HW212525   0.886   2.539   6.046
 3876SOL     OW12526   3.421   5.470   2.587
 3876SOL    HW112527   3.328   5.448   2.617
 3876SOL    HW212528   3.482   5.470   2.666
 3877SOL     OW12529   0.070   2.088   6.093
 3877SOL    HW112530   0.158   2.119   6.127
 3877SOL    HW212531   7.023   2.155   6.117
 3878SOL     OW12532   5.480   1.280   4.203
 3878SOL    HW112533   5.388   1.312   4.185
 3878SOL    HW212534   5.497   1.195   4.152
 3879SOL     OW12535   5.317   5.800   0.222
 3879SOL    HW112536   5.400   5.755   0.189
 3879SOL    HW212537   5.304   5.779   0.319
 3880SOL     OW12538   4.434   4.519   4.044
 3880SOL    HW112539   4.373   4.566   4.108
 3880SOL    HW212540   4.487   4.450   4.092
 3881SOL     OW12541   1.272   3.106   0.384
 3881SOL    HW112542   1.238   3.064   0.300
 3881SOL    HW212543   1.202   3.167   0.422
 3882SOL     OW12544   0.677   2.158   5.918
 3882SOL    HW112545   0.747   2.222   5.887
 3882SOL    HW212546   0.700   2.066   5.888
 3883SOL     OW12547   4.446   5.678   3.534
 3883SOL    HW112548   4.511   5.643   3.601
 3883SOL    HW212549   4.491   5.749   3.480
 3884SOL     OW12550   0.294   3.749   1.900
 3884SOL    HW112551   0.370   3.798   1.857
 3884SOL    HW212552   0.310   3.744   1.999
 3885SOL     OW12553   4.598   5.610   2.365
 3885SOL    HW112554   4.526   5.675   2.343
 3885SOL    HW212555   4.621   5.557   2.283
 3886SOL     OW12556   2.841   6.265   5.638
 3886SOL    HW112557   2.852   6.296   5.732
 3886SOL    HW212558   2.863   6.167   5.632
 3887SOL     OW12559   1.699   5.914   1.732
 3887SOL    HW112560   1.638   5.837   1.751
 3887SOL    HW212561   1.768   5.920   1.804
 3888SOL     OW12562   5.929   5.015   3.856
 3888SOL    HW112563   5.953   5.046   3.763
 3888SOL    HW212564   5.989   4.940   3.882
 3889SOL     OW12565   5.626   4.140   0.521
 3889SOL    HW112566   5.545   4.092   0.489
 3889SOL    HW212567   5.674   4.180   0.443
 3890SOL     OW12568   5.308   2.957   4.493
 3890SOL    HW112569   5.389   3.005   4.528
 3890SOL    HW212570   5.311   2.861   4.522
 3891SOL     OW12571   4.979   5.642   3.248
 3891SOL    HW112572   5.004   5.634   3.151
 3891SOL    HW212573   4.957   5.552   3.284
 3892SOL     OW12574   7.004   1.968   1.584
 3892SOL    HW112575   6.971   1.968   1.490
 3892SOL    HW212576   6.956   1.897   1.636
 3893SOL     OW12577   4.161   3.554   2.774
 3893SOL    HW112578   4.241   3.556   2.834
 3893SOL    HW212579   4.082   3.592   2.823
 3894SOL     OW12580   4.749   0.669   5.743
 3894SOL    HW112581   4.813   0.739   5.712
 3894SOL    HW212582   4.741   0.674   5.843
 3895SOL     OW12583   0.612   0.427   4.093
 3895SOL    HW112584   0.612   0.328   4.082
 3895SOL    HW212585   0.688   0.454   4.153
 3896SOL     OW12586   1.578   1.392   6.482
 3896SOL    HW112587   1.574   1.309   6.537
 3896SOL    HW212588   1.657   1.447   6.509
 3897SOL     OW12589   4.240   6.155   1.529
 3897SOL    HW112590   4.199   6.229   1.583
 3897SOL    HW212591   4.243   6.072   1.585
 3898SOL     OW12592   3.715   3.196   0.957
 3898SOL    HW112593   3.664   3.150   1.030
 3898SOL    HW212594   3.800   3.146   0.939
 3899SOL     OW12595   3.394   0.623   5.976
 3899SOL    HW112596   3.410   0.650   5.880
 3899SOL    HW212597   3.477   0.642   6.029
 3900SOL     OW12598   4.793   3.978   3.049
 3900SOL    HW112599   4.780   4.076   3.034
 3900SOL    HW212600   4.783   3.958   3.146
 3901SOL     OW12601   2.818   0.519   6.785
 3901SOL    HW112602   2.908   0.561   6.799
 3901SOL    HW212603   2.753   0.589   6.755
 3902SOL     OW12604   5.652   2.944   2.531
 3902SOL    HW112605   5.691   2.861   2.570
 3902SOL    HW212606   5.623   2.927   2.437
 3903SOL     OW12607   3.302   4.499   6.243
 3903SOL    HW112608   3.227   4.548   6.199
 3903SOL    HW212609   3.352   4.446   6.174
 3904SOL     OW12610   1.475   0.691   0.749
 3904SOL    HW112611   1.376   0.684   0.748
 3904SOL    HW212612   1.515   0.604   0.718
 3905SOL     OW12613   6.619   6.162   5.116
 3905SOL    HW112614   6.658   6.199   5.200
 3905SOL    HW212615   6.631   6.227   5.041
 3906SOL     OW12616   6.327   6.402   4.922
 3906SOL    HW112617   6.296   6.400   4.827
 3906SOL    HW212618   6.405   6.464   4.931
 3907SOL     OW12619   6.377   2.317   3.664
 3907SOL    HW112620   6.450   2.322   3.596
 3907SOL    HW212621   6.288   2.320   3.619
 3908SOL     OW12622   2.485   3.948   6.138
 3908SOL    HW112623   2.555   4.010   6.174
 3908SOL    HW212624   2.433   3.995   6.065
 3909SOL     OW12625   5.560   5.685   3.748
 3909SOL    HW112626   5.583   5.734   3.833
 3909SOL    HW212627   5.600   5.594   3.751
 3910SOL     OW12628   4.029   3.364   3.096
 3910SOL    HW112629   4.044   3.348   3.193
 3910SOL    HW212630   4.061   3.455   3.071
 3911SOL     OW12631   6.625   2.502   5.592
 3911SOL    HW112632   6.652   2.591   5.629
 3911SOL    HW212633   6.579   2.516   5.503
 3912SOL     OW12634   4.982   2.882   6.352
 3912SOL    HW112635   4.990   2.982   6.357
 3912SOL    HW212636   4.888   2.857   6.332
 3913SOL     OW12637   0.951   6.556   1.410
 3913SOL    HW112638   0.947   6.488   1.484
 3913SOL    HW212639   0.980   6.644   1.447
 3914SOL     OW12640   3.252   5.847   5.739
 3914SOL    HW112641   3.204   5.870   5.654
 3914SOL    HW212642   3.232   5.917   5.808
 3915SOL     OW12643   6.459   6.202   1.745
 3915SOL    HW112644   6.543   6.157   1.773
 3915SOL    HW212645   6.459   6.214   1.645
 3916SOL     OW12646   0.750   0.345   3.085
 3916SOL    HW112647   0.733   0.381   3.176
 3916SOL    HW212648   0.670   0.293   3.054
 3917SOL     OW12649   2.215   0.305   0.134
 3917SOL    HW112650   2.219   0.229   0.069
 3917SOL    HW212651   2.131   0.357   0.120
 3918SOL     OW12652   5.391   3.200   0.074
 3918SOL    HW112653   5.376   3.159   0.164
 3918SOL    HW212654   5.304   3.235   0.039
 3919SOL     OW12655   3.390   6.654   0.866
 3919SOL    HW112656   3.361   6.747   0.890
 3919SOL    HW212657   3.329   6.588   0.910
 3920SOL     OW12658   2.097   1.636   6.900
 3920SOL    HW112659   2.002   1.664   6.893
 3920SOL    HW212660   2.135   1.666   6.987
 3921SOL     OW12661   1.369   3.631   1.781
 3921SOL    HW112662   1.457   3.639   1.828
 3921SOL    HW212663   1.333   3.722   1.761
 3922SOL     OW12664   1.152   5.132   1.267
 3922SOL    HW112665   1.067   5.116   1.316
 3922SOL    HW212666   1.218   5.177   1.327
 3923SOL     OW12667   6.669   0.500   1.208
 3923SOL    HW112668   6.740   0.549   1.258
 3923SOL    HW212669   6.711   0.450   1.132
 3924SOL     OW12670   6.605   5.056   4.256
 3924SOL    HW112671   6.559   4.973   4.288
 3924SOL    HW212672   6.682   5.077   4.317
 3925SOL     OW12673   1.911   5.313   1.733
 3925SOL    HW112674   1.911   5.266   1.821
 3925SOL    HW212675   1.938   5.250   1.661
 3926SOL     OW12676   3.646   5.221   2.809
 3926SOL    HW112677   3.740   5.232   2.775
 3926SOL    HW212678   3.603   5.142   2.766
 3927SOL     OW12679   1.159   3.530   6.276
 3927SOL    HW112680   1.130   3.621   6.245
 3927SOL    HW212681   1.080   3.481   6.314
 3928SOL     OW12682   6.023   5.430   6.599
 3928SOL    HW112683   5.983   5.514   6.634
 3928SOL    HW212684   5.950   5.365   6.578
 3929SOL     OW12685   0.585   1.811   4.362
 3929SOL    HW112686   0.604   1.849   4.453
 3929SOL    HW212687   0.568   1.713   4.370
 3930SOL     OW12688   2.987   1.699   4.096
 3930SOL    HW112689   2.930   1.633   4.145
 3930SOL    HW212690   3.065   1.652   4.055
 3931SOL     OW12691   5.396   0.068   2.269
 3931SOL    HW112692   5.419   0.150   2.217
 3931SOL    HW212693   5.440   7.012   2.227
 3932SOL     OW12694   1.929   1.471   4.257
 3932SOL    HW112695   1.907   1.525   4.176
 3932SOL    HW212696   1.898   1.377   4.244
 3933SOL     OW12697   0.787   6.949   5.676
 3933SOL    HW112698   0.792   6.870   5.737
 3933SOL    HW212699   0.691   6.974   5.662
 3934SOL     OW12700   5.198   6.632   6.733
 3934SOL    HW112701   5.183   6.616   6.830
 3934SOL    HW212702   5.186   6.546   6.683
 3935SOL     OW12703   4.780   0.187   0.948
 3935SOL    HW112704   4.726   0.206   1.030
 3935SOL    HW212705   4.820   0.272   0.913
 3936SOL     OW12706   0.654   4.662   2.588
 3936SOL    HW112707   0.623   4.568   2.606
 3936SOL    HW212708   0.575   4.723   2.589
 3937SOL     OW12709   0.217   1.481   2.466
 3937SOL    HW112710   0.243   1.411   2.532
 3937SOL    HW212711   0.170   1.556   2.513
 3938SOL     OW12712   0.559   2.327   2.907
 3938SOL    HW112713   0.633   2.305   2.843
 3938SOL    HW212714   0.516   2.412   2.878
 3939SOL     OW12715   2.733   2.074   1.555
 3939SOL    HW112716   2.716   1.975   1.560
 3939SOL    HW212717   2.805   2.099   1.619
 3940SOL     OW12718   4.319   3.627   1.442
 3940SOL    HW112719   4.352   3.550   1.496
 3940SOL    HW212720   4.320   3.710   1.497
 3941SOL     OW12721   4.469   3.540   6.731
 3941SOL    HW112722   4.408   3.475   6.686
 3941SOL    HW212723   4.505   3.604   6.663
 3942SOL     OW12724   6.856   0.453   6.976
 3942SOL    HW112725   6.847   0.548   7.004
 3942SOL    HW212726   6.946   0.439   6.934
 3943SOL     OW12727   0.007   3.076   4.797
 3943SOL    HW112728   0.076   3.039   4.860
 3943SOL    HW212729   6.955   3.012   4.789
 3944SOL     OW12730   5.269   1.655   4.678
 3944SOL    HW112731   5.190   1.602   4.646
 3944SOL    HW212732   5.338   1.659   4.605
 3945SOL     OW12733   0.036   0.870   0.582
 3945SOL    HW112734   6.976   0.873   0.636
 3945SOL    HW212735   0.024   0.807   0.506
 3946SOL     OW12736   4.002   4.783   3.091
 3946SOL    HW112737   4.059   4.750   3.016
 3946SOL    HW212738   4.049   4.768   3.178
 3947SOL     OW12739   6.177   4.898   6.380
 3947SOL    HW112740   6.107   4.879   6.311
 3947SOL    HW212741   6.237   4.818   6.390
 3948SOL     OW12742   6.277   3.446   0.870
 3948SOL    HW112743   6.225   3.444   0.955
 3948SOL    HW212744   6.361   3.393   0.882
 3949SOL     OW12745   5.679   6.466   3.428
 3949SOL    HW112746   5.710   6.539   3.367
 3949SOL    HW212747   5.587   6.438   3.403
 3950SOL     OW12748   2.046   6.402   0.660
 3950SOL    HW112749   2.019   6.333   0.727
 3950SOL    HW212750   2.142   6.388   0.635
 3951SOL     OW12751   5.451   6.725   1.552
 3951SOL    HW112752   5.466   6.643   1.497
 3951SOL    HW212753   5.447   6.700   1.649
 3952SOL     OW12754   5.558   2.116   0.009
 3952SOL    HW112755   5.460   2.099   0.024
 3952SOL    HW212756   5.592   2.175   0.081
 3953SOL     OW12757   3.986   3.852   2.898
 3953SOL    HW112758   4.004   3.937   2.947
 3953SOL    HW212759   3.936   3.872   2.813
 3954SOL     OW12760   4.324   4.938   5.635
 3954SOL    HW112761   4.389   4.975   5.702
 3954SOL    HW212762   4.314   4.840   5.650
 3955SOL     OW12763   3.928   1.088   4.678
 3955SOL    HW112764   3.883   1.073   4.590
 3955SOL    HW212765   4.027   1.076   4.668
 3956SOL     OW12766   2.745   1.235   1.775
 3956SOL    HW112767   2.671   1.273   1.720
 3956SOL    HW212768   2.760   1.139   1.749
 3957SOL     OW12769   3.869   0.766   4.427
 3957SOL    HW112770   3.861   0.690   4.362
 3957SOL    HW212771   3.780   0.786   4.467
 3958SOL     OW12772   5.435   0.268   5.589
 3958SOL    HW112773   5.369   0.204   5.549
 3958SOL    HW212774   5.404   0.294   5.680
 3959SOL     OW12775   4.675   5.303   0.207
 3959SOL    HW112776   4.700   5.357   0.288
 3959SOL    HW212777   4.715   5.344   0.126
 3960SOL     OW12778   5.647   1.593   4.823
 3960SOL    HW112779   5.687   1.564   4.910
 3960SOL    HW212780   5.555   1.555   4.815
 3961SOL     OW12781   5.738   6.403   3.670
 3961SOL    HW112782   5.832   6.375   3.693
 3961SOL    HW212783   5.731   6.413   3.571
 3962SOL     OW12784   0.073   5.645   5.252
 3962SOL    HW112785   0.000   5.713   5.264
 3962SOL    HW212786   0.128   5.640   5.335
 3963SOL     OW12787   4.834   6.617   2.123
 3963SOL    HW112788   4.778   6.587   2.201
 3963SOL    HW212789   4.780   6.608   2.039
 3964SOL     OW12790   5.638   2.668   3.319
 3964SOL    HW112791   5.650   2.614   3.236
 3964SOL    HW212792   5.585   2.750   3.299
 3965SOL     OW12793   4.960   3.875   4.308
 3965SOL    HW112794   4.925   3.848   4.398
 3965SOL    HW212795   4.886   3.912   4.253
 3966SOL     OW12796   2.499   6.244   6.651
 3966SOL    HW112797   2.524   6.262   6.746
 3966SOL    HW212798   2.524   6.323   6.594
 3967SOL     OW12799   1.979   4.422   3.387
 3967SOL    HW112800   1.990   4.494   3.318
 3967SOL    HW212801   1.954   4.463   3.475
 3968SOL     OW12802   3.466   0.053   0.790
 3968SOL    HW112803   3.447   0.007   0.877
 3968SOL    HW212804   3.535   0.124   0.804
 3969SOL     OW12805   0.780   5.177   2.848
 3969SOL    HW112806   0.687   5.139   2.848
 3969SOL    HW212807   0.840   5.117   2.796
 3970SOL     OW12808   4.729   6.252   2.224
 3970SOL    HW112809   4.820   6.250   2.182
 3970SOL    HW212810   4.694   6.158   2.230
 3971SOL     OW12811   2.166   6.167   3.335
 3971SOL    HW112812   2.218   6.091   3.297
 3971SOL    HW212813   2.071   6.161   3.305
 3972SOL     OW12814   1.753   3.963   0.071
 3972SOL    HW112815   1.687   3.927   0.004
 3972SOL    HW212816   1.736   3.919   0.159
 3973SOL     OW12817   1.733   5.326   1.047
 3973SOL    HW112818   1.773   5.325   0.955
 3973SOL    HW212819   1.804   5.350   1.113
 3974SOL     OW12820   2.517   1.329   5.344
 3974SOL    HW112821   2.445   1.261   5.337
 3974SOL    HW212822   2.477   1.421   5.343
 3975SOL     OW12823   6.079   2.638   6.132
 3975SOL    HW112824   6.040   2.585   6.057
 3975SOL    HW212825   6.044   2.732   6.129
 3976SOL     OW12826   2.008   5.216   2.291
 3976SOL    HW112827   2.085   5.218   2.355
 3976SOL    HW212828   1.935   5.159   2.328
 3977SOL     OW12829   0.953   3.563   6.616
 3977SOL    HW112830   1.008   3.638   6.579
 3977SOL    HW212831   1.011   3.500   6.667
 3978SOL     OW12832   6.373   4.237   3.617
 3978SOL    HW112833   6.436   4.168   3.650
 3978SOL    HW212834   6.401   4.266   3.525
 3979SOL     OW12835   3.683   6.851   6.480
 3979SOL    HW112836   3.646   6.854   6.387
 3979SOL    HW212837   3.778   6.882   6.478
 3980SOL     OW12838   5.081   5.679   6.088
 3980SOL    HW112839   5.120   5.770   6.076
 3980SOL    HW212840   5.041   5.648   6.001
 3981SOL     OW12841   4.458   6.206   0.067
 3981SOL    HW112842   4.478   6.228   0.163
 3981SOL    HW212843   4.361   6.182   0.059
 3982SOL     OW12844   3.056   6.361   3.186
 3982SOL    HW112845   3.007   6.431   3.239
 3982SOL    HW212846   3.105   6.404   3.111
 3983SOL     OW12847   3.766   5.817   4.373
 3983SOL    HW112848   3.719   5.883   4.314
 3983SOL    HW212849   3.816   5.865   4.445
 3984SOL     OW12850   6.722   2.483   3.209
 3984SOL    HW112851   6.739   2.391   3.176
 3984SOL    HW212852   6.642   2.521   3.162
 3985SOL     OW12853   4.218   4.963   6.485
 3985SOL    HW112854   4.261   4.935   6.571
 3985SOL    HW212855   4.175   4.884   6.442
 3986SOL     OW12856   5.436   0.625   2.757
 3986SOL    HW112857   5.427   0.660   2.850
 3986SOL    HW212858   5.530   0.638   2.726
 3987SOL     OW12859   3.359   5.440   5.000
 3987SOL    HW112860   3.436   5.501   5.019
 3987SOL    HW212861   3.281   5.464   5.057
 3988SOL     OW12862   3.672   6.064   0.749
 3988SOL    HW112863   3.745   6.133   0.753
 3988SOL    HW212864   3.713   5.973   0.759
 3989SOL     OW12865   5.661   2.178   0.314
 3989SOL    HW112866   5.578   2.146   0.360
 3989SOL    HW212867   5.702   2.253   0.366
 3990SOL     OW12868   6.612   1.745   2.516
 3990SOL    HW112869   6.551   1.745   2.436
 3990SOL    HW212870   6.561   1.714   2.596
 3991SOL     OW12871   6.368   0.572   3.185
 3991SOL    HW112872   6.439   0.552   3.118
 3991SOL    HW212873   6.355   0.493   3.245
 3992SOL     OW12874   3.246   1.986   1.223
 3992SOL    HW112875   3.267   1.998   1.320
 3992SOL    HW212876   3.195   1.900   1.210
 3993SOL     OW12877   0.866   2.870   1.925
 3993SOL    HW112878   0.790   2.834   1.871
 3993SOL    HW212879   0.925   2.795   1.954
 3994SOL     OW12880   2.279   6.044   4.609
 3994SOL    HW112881   2.248   5.974   4.544
 3994SOL    HW212882   2.369   6.020   4.644
 3995SOL     OW12883   1.485   2.049   4.561
 3995SOL    HW112884   1.411   2.094   4.511
 3995SOL    HW212885   1.544   2.118   4.603
 3996SOL     OW12886   6.851   6.358   4.389
 3996SOL    HW112887   6.754   6.378   4.401
 3996SOL    HW212888   6.862   6.275   4.335
 3997SOL     OW12889   4.537   0.899   4.531
 3997SOL    HW112890   4.565   0.816   4.481
 3997SOL    HW212891   4.460   0.879   4.590
 3998SOL     OW12892   4.618   1.687   3.361
 3998SOL    HW112893   4.604   1.737   3.275
 3998SOL    HW212894   4.534   1.638   3.385
 3999SOL     OW12895   5.098   2.400   4.618
 3999SOL    HW112896   5.089   2.383   4.716
 3999SOL    HW212897   5.054   2.487   4.595
 4000SOL     OW12898   4.090   6.652   4.047
 4000SOL    HW112899   4.043   6.614   4.127
 4000SOL    HW212900   4.113   6.578   3.984
 4001SOL     OW12901   1.141   2.315   4.274
 4001SOL    HW112902   1.187   2.377   4.211
 4001SOL    HW212903   1.047   2.300   4.242
 4002SOL     OW12904   2.259   4.270   2.109
 4002SOL    HW112905   2.319   4.322   2.170
 4002SOL    HW212906   2.252   4.176   2.141
 4003SOL     OW12907   3.463   1.835   5.100
 4003SOL    HW112908   3.449   1.830   5.199
 4003SOL    HW212909   3.521   1.914   5.079
 4004SOL     OW12910   6.631   1.678   5.151
 4004SOL    HW112911   6.607   1.582   5.136
 4004SOL    HW212912   6.556   1.726   5.195
 4005SOL     OW12913   6.130   4.931   4.925
 4005SOL    HW112914   6.185   4.870   4.868
 4005SOL    HW212915   6.033   4.919   4.903
 4006SOL     OW12916   3.800   5.432   2.496
 4006SOL    HW112917   3.829   5.520   2.458
 4006SOL    HW212918   3.875   5.391   2.546
 4007SOL     OW12919   6.590   2.043   6.356
 4007SOL    HW112920   6.686   2.017   6.357
 4007SOL    HW212921   6.534   1.963   6.335
 4008SOL     OW12922   2.713   2.329   4.822
 4008SOL    HW112923   2.691   2.425   4.802
 4008SOL    HW212924   2.766   2.324   4.906
 4009SOL     OW12925   3.253   3.395   2.783
 4009SOL    HW112926   3.274   3.348   2.697
 4009SOL    HW212927   3.161   3.433   2.778
 4010SOL     OW12928   1.460   2.960   7.013
 4010SOL    HW112929   1.511   2.982   6.930
 4010SOL    HW212930   1.424   3.044   0.029
 4011SOL     OW12931   0.859   2.608   0.807
 4011SOL    HW112932   0.812   2.523   0.784
 4011SOL    HW212933   0.956   2.590   0.820
 4012SOL     OW12934   5.712   2.588   3.594
 4012SOL    HW112935   5.658   2.597   3.510
 4012SOL    HW212936   5.665   2.530   3.659
 4013SOL     OW12937   4.291   2.378   3.322
 4013SOL    HW112938   4.329   2.429   3.400
 4013SOL    HW212939   4.363   2.322   3.281
 4014SOL     OW12940   5.812   6.442   2.283
 4014SOL    HW112941   5.888   6.497   2.317
 4014SOL    HW212942   5.749   6.421   2.358
 4015SOL     OW12943   4.319   3.180   0.063
 4015SOL    HW112944   4.374   3.263   0.066
 4015SOL    HW212945   4.240   3.195   0.004
 4016SOL     OW12946   3.302   6.174   5.119
 4016SOL    HW112947   3.234   6.193   5.048
 4016SOL    HW212948   3.354   6.257   5.139
 4017SOL     OW12949   5.974   6.575   0.017
 4017SOL    HW112950   5.925   6.659   7.018
 4017SOL    HW212951   6.015   6.584   0.108
 4018SOL     OW12952   1.712   6.435   0.182
 4018SOL    HW112953   1.687   6.339   0.197
 4018SOL    HW212954   1.665   6.492   0.249
 4019SOL     OW12955   4.905   5.357   3.291
 4019SOL    HW112956   4.962   5.280   3.319
 4019SOL    HW212957   4.861   5.336   3.204
 4020SOL     OW12958   5.392   1.626   5.178
 4020SOL    HW112959   5.374   1.537   5.137
 4020SOL    HW212960   5.348   1.697   5.124
 4021SOL     OW12961   4.283   4.195   0.114
 4021SOL    HW112962   4.287   4.224   0.018
 4021SOL    HW212963   4.209   4.245   0.160
 4022SOL     OW12964   5.223   0.251   0.600
 4022SOL    HW112965   5.266   0.251   0.691
 4022SOL    HW212966   5.218   0.345   0.566
 4023SOL     OW12967   6.816   0.011   5.492
 4023SOL    HW112968   6.914   0.031   5.495
 4023SOL    HW212969   6.801   6.936   5.500
 4024SOL     OW12970   4.535   4.562   4.525
 4024SOL    HW112971   4.574   4.654   4.523
 4024SOL    HW212972   4.440   4.566   4.494
 4025SOL     OW12973   1.239   4.108   3.728
 4025SOL    HW112974   1.322   4.109   3.672
 4025SOL    HW212975   1.260   4.138   3.821
 4026SOL     OW12976   4.948   6.947   5.096
 4026SOL    HW112977   4.918   6.926   5.003
 4026SOL    HW212978   4.994   0.012   5.097
 4027SOL     OW12979   3.705   4.862   2.248
 4027SOL    HW112980   3.803   4.872   2.265
 4027SOL    HW212981   3.685   4.888   2.153
 4028SOL     OW12982   2.449   5.930   3.576
 4028SOL    HW112983   2.483   5.894   3.489
 4028SOL    HW212984   2.353   5.957   3.565
 4029SOL     OW12985   1.977   3.592   3.567
 4029SOL    HW112986   2.016   3.593   3.659
 4029SOL    HW212987   1.960   3.686   3.537
 4030SOL     OW12988   1.235   1.684   6.160
 4030SOL    HW112989   1.295   1.708   6.084
 4030SOL    HW212990   1.146   1.727   6.147
 4031SOL     OW12991   5.626   5.733   4.023
 4031SOL    HW112992   5.689   5.793   4.073
 4031SOL    HW212993   5.534   5.745   4.059
 4032SOL     OW12994   3.827   6.926   5.303
 4032SOL    HW112995   3.906   6.984   5.283
 4032SOL    HW212996   3.820   6.911   5.401
 4033SOL     OW12997   3.394   3.921   5.821
 4033SOL    HW112998   3.342   3.848   5.866
 4033SOL    HW212999   3.340   4.006   5.823
 4034SOL     OW13000   5.819   2.919   4.916
 4034SOL    HW113001   5.792   2.856   4.988
 4034SOL    HW213002   5.738   2.949   4.866
 4035SOL     OW13003   0.229   5.345   1.354
 4035SOL    HW113004   0.183   5.257   1.345
 4035SOL    HW213005   0.164   5.419   1.333
 4036SOL     OW13006   0.005   6.279   2.421
 4036SOL    HW113007   6.945   6.256   2.371
 4036SOL    HW213008   7.010   6.280   2.519
 4037SOL     OW13009   0.011   3.784   5.755
 4037SOL    HW113010   6.946   3.749   5.724
 4037SOL    HW213011   0.058   3.713   5.808
 4038SOL     OW13012   6.538   5.360   3.376
 4038SOL    HW113013   6.473   5.362   3.453
 4038SOL    HW213014   6.502   5.415   3.301
 4039SOL     OW13015   3.178   5.584   0.904
 4039SOL    HW113016   3.090   5.628   0.882
 4039SOL    HW213017   3.234   5.647   0.958
 4040SOL     OW13018   3.235   6.704   0.612
 4040SOL    HW113019   3.271   6.676   0.700
 4040SOL    HW213020   3.300   6.680   0.540
 4041SOL     OW13021   0.985   6.508   3.010
 4041SOL    HW113022   1.084   6.494   3.013
 4041SOL    HW213023   0.967   6.606   2.999
 4042SOL     OW13024   5.980   5.959   2.310
 4042SOL    HW113025   5.986   6.059   2.307
 4042SOL    HW213026   6.026   5.925   2.392
 4043SOL     OW13027   6.652   3.832   1.610
 4043SOL    HW113028   6.582   3.865   1.546
 4043SOL    HW213029   6.625   3.854   1.703
 4044SOL     OW13030   5.992   5.593   2.911
 4044SOL    HW113031   6.055   5.517   2.894
 4044SOL    HW213032   5.932   5.571   2.988
 4045SOL     OW13033   2.408   4.597   5.763
 4045SOL    HW113034   2.436   4.614   5.668
 4045SOL    HW213035   2.454   4.662   5.823
 4046SOL     OW13036   0.090   3.140   0.418
 4046SOL    HW113037   7.017   3.167   0.420
 4046SOL    HW213038   0.115   3.109   0.326
 4047SOL     OW13039   3.064   3.893   2.746
 4047SOL    HW113040   3.015   3.839   2.678
 4047SOL    HW213041   3.008   3.902   2.828
 4048SOL     OW13042   4.777   2.367   0.321
 4048SOL    HW113043   4.728   2.451   0.344
 4048SOL    HW213044   4.723   2.315   0.254
 4049SOL     OW13045   6.767   0.891   6.118
 4049SOL    HW113046   6.807   0.965   6.064
 4049SOL    HW213047   6.840   0.827   6.146
 4050SOL     OW13048   3.228   0.783   2.538
 4050SOL    HW113049   3.316   0.805   2.579
 4050SOL    HW213050   3.212   0.684   2.544
 4051SOL     OW13051   1.439   4.188   1.048
 4051SOL    HW113052   1.423   4.138   1.133
 4051SOL    HW213053   1.428   4.126   0.970
 4052SOL     OW13054   1.619   6.971   1.444
 4052SOL    HW113055   1.651   6.985   1.538
 4052SOL    HW213056   1.667   0.010   1.383
 4053SOL     OW13057   2.991   5.391   3.353
 4053SOL    HW113058   3.090   5.381   3.347
 4053SOL    HW213059   2.967   5.487   3.369
 4054SOL     OW13060   5.191   1.543   6.391
 4054SOL    HW113061   5.215   1.546   6.294
 4054SOL    HW213062   5.130   1.619   6.413
 4055SOL     OW13063   4.603   2.893   0.344
 4055SOL    HW113064   4.606   2.799   0.380
 4055SOL    HW213065   4.521   2.904   0.287
 4056SOL     OW13066   4.335   2.735   0.412
 4056SOL    HW113067   4.335   2.827   0.450
 4056SOL    HW213068   4.282   2.734   0.327
 4057SOL     OW13069   6.222   2.380   0.414
 4057SOL    HW113070   6.233   2.307   0.481
 4057SOL    HW213071   6.166   2.347   0.338
 4058SOL     OW13072   0.539   1.881   3.589
 4058SOL    HW113073   0.625   1.839   3.618
 4058SOL    HW213074   0.517   1.957   3.651
 4059SOL     OW13075   0.035   2.039   5.483
 4059SOL    HW113076   0.131   2.014   5.490
 4059SOL    HW213077   7.019   1.996   5.402
 4060SOL     OW13078   3.506   5.776   5.587
 4060SOL    HW113079   3.562   5.699   5.618
 4060SOL    HW213080   3.430   5.789   5.650
 4061SOL     OW13081   2.048   2.783   1.301
 4061SOL    HW113082   1.966   2.756   1.252
 4061SOL    HW213083   2.028   2.790   1.399
 4062SOL     OW13084   3.166   6.259   2.711
 4062SOL    HW113085   3.177   6.223   2.618
 4062SOL    HW213086   3.172   6.184   2.777
 4063SOL     OW13087   2.639   5.313   6.445
 4063SOL    HW113088   2.668   5.218   6.460
 4063SOL    HW213089   2.567   5.336   6.510
 4064SOL     OW13090   6.432   0.020   4.180
 4064SOL    HW113091   6.485   0.088   4.129
 4064SOL    HW213092   6.355   0.066   4.226
 4065SOL     OW13093   0.043   4.475   6.117
 4065SOL    HW113094   6.967   4.476   6.122
 4065SOL    HW213095   0.081   4.503   6.205
 4066SOL     OW13096   5.621   5.084   1.561
 4066SOL    HW113097   5.666   5.160   1.515
 4066SOL    HW213098   5.670   4.999   1.541
 4067SOL     OW13099   5.962   1.006   1.497
 4067SOL    HW113100   5.866   0.981   1.507
 4067SOL    HW213101   6.007   1.002   1.586
 4068SOL     OW13102   5.697   1.086   4.391
 4068SOL    HW113103   5.729   0.995   4.418
 4068SOL    HW213104   5.638   1.077   4.310
 4069SOL     OW13105   6.737   6.190   0.782
 4069SOL    HW113106   6.684   6.116   0.824
 4069SOL    HW213107   6.729   6.184   0.683
 4070SOL     OW13108   0.192   3.858   3.030
 4070SOL    HW113109   0.123   3.889   3.094
 4070SOL    HW213110   0.176   3.761   3.008
 4071SOL     OW13111   2.912   0.250   4.038
 4071SOL    HW113112   2.903   0.259   3.939
 4071SOL    HW213113   2.847   0.180   4.070
 4072SOL     OW13114   0.899   0.029   4.212
 4072SOL    HW113115   0.951   0.039   4.127
 4072SOL    HW213116   0.868   6.958   4.221
 4073SOL     OW13117   2.386   5.132   2.166
 4073SOL    HW113118   2.304   5.092   2.124
 4073SOL    HW213119   2.439   5.059   2.209
 4074SOL     OW13120   0.256   2.998   0.201
 4074SOL    HW113121   0.310   3.025   0.121
 4074SOL    HW213122   0.303   3.027   0.284
 4075SOL     OW13123   5.733   0.343   3.885
 4075SOL    HW113124   5.761   0.438   3.896
 4075SOL    HW213125   5.802   0.293   3.833
 4076SOL     OW13126   1.787   2.667   3.107
 4076SOL    HW113127   1.872   2.684   3.057
 4076SOL    HW213128   1.795   2.580   3.155
 4077SOL     OW13129   3.502   0.836   0.567
 4077SOL    HW113130   3.565   0.759   0.582
 4077SOL    HW213131   3.441   0.845   0.645
 4078SOL     OW13132   4.758   4.246   2.560
 4078SOL    HW113133   4.739   4.256   2.462
 4078SOL    HW213134   4.787   4.152   2.579
 4079SOL     OW13135   5.657   0.404   4.231
 4079SOL    HW113136   5.637   0.330   4.166
 4079SOL    HW213137   5.583   0.471   4.228
 4080SOL     OW13138   3.065   3.224   3.436
 4080SOL    HW113139   2.999   3.274   3.380
 4080SOL    HW213140   3.143   3.198   3.380
 4081SOL     OW13141   2.483   2.050   6.926
 4081SOL    HW113142   2.402   2.076   6.873
 4081SOL    HW213143   2.480   2.095   7.015
 4082SOL     OW13144   1.001   1.822   5.861
 4082SOL    HW113145   1.052   1.895   5.816
 4082SOL    HW213146   1.058   1.740   5.867
 4083SOL     OW13147   6.163   5.401   2.817
 4083SOL    HW113148   6.179   5.304   2.830
 4083SOL    HW213149   6.122   5.417   2.727
 4084SOL     OW13150   4.963   6.873   2.028
 4084SOL    HW113151   5.051   6.852   1.985
 4084SOL    HW213152   4.916   6.788   2.051
 4085SOL     OW13153   2.211   4.312   2.970
 4085SOL    HW113154   2.235   4.395   3.021
 4085SOL    HW213155   2.224   4.232   3.029
 4086SOL     OW13156   5.867   5.238   5.052
 4086SOL    HW113157   5.797   5.193   5.108
 4086SOL    HW213158   5.957   5.205   5.078
 4087SOL     OW13159   2.007   0.972   2.099
 4087SOL    HW113160   1.994   1.056   2.048
 4087SOL    HW213161   1.991   0.989   2.196
 4088SOL     OW13162   6.935   1.435   5.519
 4088SOL    HW113163   6.983   1.383   5.449
 4088SOL    HW213164   6.859   1.486   5.478
 4089SOL     OW13165   1.861   0.947   3.112
 4089SOL    HW113166   1.960   0.935   3.115
 4089SOL    HW213167   1.837   1.001   3.031
 4090SOL     OW13168   3.089   2.391   5.684
 4090SOL    HW113169   3.109   2.486   5.708
 4090SOL    HW213170   3.036   2.388   5.600
 4091SOL     OW13171   3.588   6.080   2.413
 4091SOL    HW113172   3.523   6.080   2.338
 4091SOL    HW213173   3.577   5.997   2.467
 4092SOL     OW13174   5.432   1.738   5.859
 4092SOL    HW113175   5.442   1.650   5.905
 4092SOL    HW213176   5.465   1.731   5.765
 4093SOL     OW13177   5.720   3.699   2.918
 4093SOL    HW113178   5.762   3.762   2.983
 4093SOL    HW213179   5.789   3.667   2.853
 4094SOL     OW13180   6.751   6.864   0.339
 4094SOL    HW113181   6.775   6.883   0.244
 4094SOL    HW213182   6.756   6.765   0.355
 4095SOL     OW13183   1.934   5.336   0.830
 4095SOL    HW113184   1.985   5.258   0.865
 4095SOL    HW213185   1.950   5.415   0.888
 4096SOL     OW13186   0.646   0.045   6.323
 4096SOL    HW113187   0.607   0.132   6.293
 4096SOL    HW213188   0.585   0.002   6.389
 4097SOL     OW13189   0.853   3.560   5.521
 4097SOL    HW113190   0.919   3.621   5.564
 4097SOL    HW213191   0.788   3.613   5.467
 4098SOL     OW13192   1.380   6.129   1.984
 4098SOL    HW113193   1.327   6.195   1.930
 4098SOL    HW213194   1.365   6.147   2.081
 4099SOL     OW13195   6.580   3.451   5.613
 4099SOL    HW113196   6.599   3.359   5.581
 4099SOL    HW213197   6.501   3.450   5.674
 4100SOL     OW13198   2.521   0.445   3.529
 4100SOL    HW113199   2.463   0.404   3.459
 4100SOL    HW213200   2.583   0.376   3.566
 4101SOL     OW13201   6.155   5.693   6.070
 4101SOL    HW113202   6.127   5.776   6.020
 4101SOL    HW213203   6.195   5.628   6.006
 4102SOL     OW13204   1.498   5.901   0.486
 4102SOL    HW113205   1.545   5.835   0.428
 4102SOL    HW213206   1.450   5.853   0.560
 4103SOL     OW13207   2.449   5.439   2.691
 4103SOL    HW113208   2.527   5.491   2.725
 4103SOL    HW213209   2.376   5.439   2.761
 4104SOL     OW13210   1.747   6.047   5.393
 4104SOL    HW113211   1.765   5.992   5.312
 4104SOL    HW213212   1.832   6.065   5.442
 4105SOL     OW13213   3.633   6.636   1.829
 4105SOL    HW113214   3.701   6.573   1.792
 4105SOL    HW213215   3.557   6.644   1.765
 4106SOL     OW13216   1.631   0.209   2.621
 4106SOL    HW113217   1.716   0.214   2.570
 4106SOL    HW213218   1.591   0.301   2.628
 4107SOL     OW13219   1.634   1.300   0.889
 4107SOL    HW113220   1.546   1.299   0.935
 4107SOL    HW213221   1.657   1.207   0.859
 4108SOL     OW13222   6.687   6.523   5.240
 4108SOL    HW113223   6.758   6.454   5.256
 4108SOL    HW213224   6.598   6.488   5.270
 4109SOL     OW13225   4.782   6.759   4.680
 4109SOL    HW113226   4.713   6.694   4.649
 4109SOL    HW213227   4.738   6.834   4.729
 4110SOL     OW13228   4.234   3.274   0.333
 4110SOL    HW113229   4.296   3.352   0.341
 4110SOL    HW213230   4.247   3.231   0.244
 4111SOL     OW13231   6.050   4.753   3.650
 4111SOL    HW113232   6.123   4.811   3.615
 4111SOL    HW213233   6.081   4.658   3.653
 4112SOL     OW13234   3.918   6.070   4.948
 4112SOL    HW113235   3.918   5.996   4.880
 4112SOL    HW213236   3.963   6.150   4.909
 4113SOL     OW13237   4.853   5.267   5.274
 4113SOL    HW113238   4.818   5.218   5.194
 4113SOL    HW213239   4.939   5.312   5.251
 4114SOL     OW13240   0.192   0.592   2.507
 4114SOL    HW113241   0.174   0.554   2.597
 4114SOL    HW213242   0.290   0.595   2.490
 4115SOL     OW13243   3.907   5.837   4.794
 4115SOL    HW113244   3.986   5.847   4.733
 4115SOL    HW213245   3.895   5.741   4.819
 4116SOL     OW13246   6.151   3.508   4.066
 4116SOL    HW113247   6.222   3.450   4.026
 4116SOL    HW213248   6.186   3.601   4.078
 4117SOL     OW13249   0.151   1.481   2.945
 4117SOL    HW113250   0.224   1.450   3.006
 4117SOL    HW213251   0.183   1.559   2.891
 4118SOL     OW13252   1.701   0.300   1.465
 4118SOL    HW113253   1.751   0.219   1.432
 4118SOL    HW213254   1.756   0.382   1.447
 4119SOL     OW13255   6.974   0.827   5.193
 4119SOL    HW113256   6.890   0.775   5.176
 4119SOL    HW213257   6.956   0.902   5.256
 4120SOL     OW13258   2.139   1.097   5.992
 4120SOL    HW113259   2.200   1.094   6.072
 4120SOL    HW213260   2.048   1.064   6.018
 4121SOL     OW13261   6.480   0.991   1.257
 4121SOL    HW113262   6.472   1.088   1.237
 4121SOL    HW213263   6.395   0.944   1.231
 4122SOL     OW13264   1.042   5.075   3.044
 4122SOL    HW113265   0.955   5.059   3.090
 4122SOL    HW213266   1.066   4.995   2.989
 4123SOL     OW13267   5.763   4.440   1.557
 4123SOL    HW113268   5.850   4.489   1.570
 4123SOL    HW213269   5.776   4.366   1.491
 4124SOL     OW13270   6.269   0.067   0.148
 4124SOL    HW113271   6.359   0.024   0.143
 4124SOL    HW213272   6.204   0.002   0.188
 4125SOL     OW13273   0.038   2.804   6.721
 4125SOL    HW113274   6.981   2.834   6.669
 4125SOL    HW213275   0.077   2.882   6.769
 4126SOL     OW13276   1.506   4.097   4.119
 4126SOL    HW113277   1.543   4.179   4.161
 4126SOL    HW213278   1.468   4.037   4.189
 4127SOL     OW13279   4.919   2.184   3.855
 4127SOL    HW113280   4.961   2.096   3.832
 4127SOL    HW213281   4.985   2.258   3.837
 4128SOL     OW13282   6.628   2.378   6.203
 4128SOL    HW113283   6.595   2.358   6.111
 4128SOL    HW213284   6.622   2.476   6.221
 4129SOL     OW13285   3.771   1.021   1.418
 4129SOL    HW113286   3.697   0.988   1.360
 4129SOL    HW213287   3.853   1.035   1.361
 4130SOL     OW13288   5.340   2.381   0.027
 4130SOL    HW113289   5.373   2.474   0.016
 4130SOL    HW213290   5.327   2.340   6.960
 4131SOL     OW13291   4.702   6.262   3.988
 4131SOL    HW113292   4.798   6.280   4.011
 4131SOL    HW213293   4.644   6.286   4.065
 4132SOL     OW13294   6.633   4.238   2.852
 4132SOL    HW113295   6.720   4.261   2.895
 4132SOL    HW213296   6.590   4.163   2.902
 4133SOL     OW13297   5.673   6.124   3.735
 4133SOL    HW113298   5.688   6.222   3.724
 4133SOL    HW213299   5.659   6.103   3.832
 4134SOL     OW13300   1.196   3.898   1.113
 4134SOL    HW113301   1.286   3.886   1.071
 4134SOL    HW213302   1.157   3.985   1.085
 4135SOL     OW13303   6.075   1.195   0.892
 4135SOL    HW113304   6.049   1.190   0.989
 4135SOL    HW213305   6.161   1.246   0.884
 4136SOL     OW13306   0.815   4.685   0.197
 4136SOL    HW113307   0.861   4.756   0.250
 4136SOL    HW213308   0.765   4.727   0.121
 4137SOL     OW13309   6.932   2.917   5.704
 4137SOL    HW113310   6.878   2.949   5.781
 4137SOL    HW213311   6.903   2.825   5.679
 4138SOL     OW13312   5.246   0.330   6.224
 4138SOL    HW113313   5.233   0.401   6.293
 4138SOL    HW213314   5.158   0.307   6.183
 4139SOL     OW13315   1.790   4.339   2.435
 4139SOL    HW113316   1.736   4.409   2.387
 4139SOL    HW213317   1.859   4.383   2.492
 4140SOL     OW13318   2.296   0.472   6.732
 4140SOL    HW113319   2.233   0.395   6.725
 4140SOL    HW213320   2.269   0.531   6.808
 4141SOL     OW13321   5.424   0.879   5.906
 4141SOL    HW113322   5.362   0.830   5.968
 4141SOL    HW213323   5.515   0.839   5.912
 4142SOL     OW13324   6.476   6.094   1.482
 4142SOL    HW113325   6.520   6.007   1.460
 4142SOL    HW213326   6.531   6.169   1.445
 4143SOL     OW13327   6.449   4.133   6.673
 4143SOL    HW113328   6.387   4.055   6.678
 4143SOL    HW213329   6.523   4.113   6.609
 4144SOL     OW13330   4.445   0.285   1.481
 4144SOL    HW113331   4.397   0.207   1.520
 4144SOL    HW213332   4.501   0.329   1.551
 4145SOL     OW13333   5.268   0.456   1.198
 4145SOL    HW113334   5.170   0.460   1.183
 4145SOL    HW213335   5.315   0.481   1.113
 4146SOL     OW13336   4.583   0.321   2.393
 4146SOL    HW113337   4.547   0.410   2.365
 4146SOL    HW213338   4.681   0.317   2.373
 4147SOL     OW13339   4.390   4.544   7.021
 4147SOL    HW113340   4.393   4.485   0.078
 4147SOL    HW213341   4.466   4.523   6.960
 4148SOL     OW13342   2.697   1.518   6.250
 4148SOL    HW113343   2.686   1.617   6.236
 4148SOL    HW213344   2.609   1.479   6.278
 4149SOL     OW13345   1.806   3.505   6.480
 4149SOL    HW113346   1.782   3.508   6.577
 4149SOL    HW213347   1.892   3.456   6.467
 4150SOL     OW13348   5.929   1.506   0.575
 4150SOL    HW113349   5.892   1.553   0.496
 4150SOL    HW213350   5.954   1.573   0.646
 4151SOL     OW13351   2.534   6.011   4.660
 4151SOL    HW113352   2.544   5.974   4.568
 4151SOL    HW213353   2.622   6.007   4.707
 4152SOL     OW13354   2.939   3.993   1.223
 4152SOL    HW113355   2.986   4.007   1.136
 4152SOL    HW213356   2.897   4.080   1.252
 4153SOL     OW13357   6.650   6.051   1.862
 4153SOL    HW113358   6.593   5.969   1.859
 4153SOL    HW213359   6.746   6.025   1.858
 4154SOL     OW13360   0.481   6.933   4.356
 4154SOL    HW113361   0.476   6.843   4.399
 4154SOL    HW213362   0.402   6.988   4.385
 4155SOL     OW13363   6.143   0.937   2.068
 4155SOL    HW113364   6.088   0.885   2.003
 4155SOL    HW213365   6.234   0.897   2.074
 4156SOL     OW13366   0.703   4.331   5.787
 4156SOL    HW113367   0.614   4.299   5.756
 4156SOL    HW213368   0.757   4.362   5.708
 4157SOL     OW13369   5.192   5.572   0.970
 4157SOL    HW113370   5.133   5.600   1.046
 4157SOL    HW213371   5.190   5.473   0.961
 4158SOL     OW13372   0.201   2.716   0.698
 4158SOL    HW113373   0.125   2.743   0.639
 4158SOL    HW213374   0.206   2.777   0.777
 4159SOL     OW13375   3.093   0.561   4.509
 4159SOL    HW113376   3.129   0.527   4.423
 4159SOL    HW213377   3.150   0.527   4.585
 4160SOL     OW13378   1.891   0.029   5.756
 4160SOL    HW113379   1.868   0.123   5.780
 4160SOL    HW213380   1.865   6.992   5.831
 4161SOL     OW13381   3.410   2.912   3.470
 4161SOL    HW113382   3.407   2.907   3.370
 4161SOL    HW213383   3.317   2.920   3.506
 4162SOL     OW13384   5.300   5.978   1.471
 4162SOL    HW113385   5.306   5.881   1.450
 4162SOL    HW213386   5.205   6.008   1.469
 4163SOL     OW13387   3.733   5.349   1.290
 4163SOL    HW113388   3.756   5.315   1.381
 4163SOL    HW213389   3.674   5.283   1.243
 4164SOL     OW13390   5.152   1.916   6.881
 4164SOL    HW113391   5.150   1.892   6.784
 4164SOL    HW213392   5.096   1.851   6.932
 4165SOL     OW13393   3.314   1.992   4.306
 4165SOL    HW113394   3.259   1.950   4.378
 4165SOL    HW213395   3.379   2.056   4.347
 4166SOL     OW13396   6.169   2.013   2.038
 4166SOL    HW113397   6.193   2.048   2.129
 4166SOL    HW213398   6.076   1.977   2.040
 4167SOL     OW13399   3.947   5.351   4.715
 4167SOL    HW113400   3.964   5.449   4.721
 4167SOL    HW213401   3.892   5.331   4.634
 4168SOL     OW13402   5.303   4.135   6.907
 4168SOL    HW113403   5.234   4.203   6.931
 4168SOL    HW213404   5.394   4.175   6.917
 4169SOL     OW13405   5.377   3.601   6.974
 4169SOL    HW113406   5.454   3.658   7.002
 4169SOL    HW213407   5.368   3.605   6.874
 4170SOL     OW13408   1.045   2.869   5.176
 4170SOL    HW113409   1.124   2.889   5.118
 4170SOL    HW213410   1.071   2.872   5.272
 4171SOL     OW13411   0.359   1.325   6.137
 4171SOL    HW113412   0.306   1.345   6.054
 4171SOL    HW213413   0.345   1.398   6.204
 4172SOL     OW13414   2.444   2.465   6.275
 4172SOL    HW113415   2.410   2.439   6.365
 4172SOL    HW213416   2.371   2.457   6.208
 4173SOL     OW13417   5.026   1.743   5.442
 4173SOL    HW113418   5.110   1.691   5.458
 4173SOL    HW213419   5.001   1.737   5.345
 4174SOL     OW13420   3.560   6.707   4.089
 4174SOL    HW113421   3.551   6.620   4.139
 4174SOL    HW213422   3.591   6.778   4.152
 4175SOL     OW13423   1.210   4.790   6.331
 4175SOL    HW113424   1.112   4.813   6.338
 4175SOL    HW213425   1.256   4.860   6.277
 4176SOL     OW13426   4.880   0.006   5.740
 4176SOL    HW113427   4.863   0.082   5.677
 4176SOL    HW213428   4.970   0.017   5.782
 4177SOL     OW13429   4.223   5.194   2.871
 4177SOL    HW113430   4.138   5.146   2.847
 4177SOL    HW213431   4.207   5.252   2.951
 4178SOL     OW13432   3.611   6.072   1.445
 4178SOL    HW113433   3.607   5.972   1.447
 4178SOL    HW213434   3.678   6.102   1.378
 4179SOL     OW13435   4.569   2.280   6.905
 4179SOL    HW113436   4.596   2.238   6.991
 4179SOL    HW213437   4.482   2.327   6.916
 4180SOL     OW13438   3.721   3.611   0.354
 4180SOL    HW113439   3.783   3.645   0.283
 4180SOL    HW213440   3.744   3.516   0.377
 4181SOL     OW13441   5.683   6.443   5.770
 4181SOL    HW113442   5.656   6.513   5.837
 4181SOL    HW213443   5.770   6.403   5.798
 4182SOL     OW13444   0.382   5.923   5.543
 4182SOL    HW113445   0.479   5.930   5.564
 4182SOL    HW213446   0.330   5.979   5.607
 4183SOL     OW13447   4.518   1.955   0.035
 4183SOL    HW113448   4.606   1.976   0.076
 4183SOL    HW213449   4.531   1.918   6.967
 4184SOL     OW13450   3.501   5.550   3.462
 4184SOL    HW113451   3.564   5.600   3.403
 4184SOL    HW213452   3.450   5.615   3.519
 4185SOL     OW13453   4.848   3.893   3.300
 4185SOL    HW113454   4.815   3.889   3.394
 4185SOL    HW213455   4.915   3.967   3.291
 4186SOL     OW13456   1.872   5.257   6.881
 4186SOL    HW113457   1.845   5.164   6.856
 4186SOL    HW213458   1.790   5.315   6.888
 4187SOL     OW13459   2.648   4.134   6.259
 4187SOL    HW113460   2.724   4.196   6.279
 4187SOL    HW213461   2.580   4.141   6.332
 4188SOL     OW13462   5.223   0.500   6.449
 4188SOL    HW113463   5.163   0.492   6.529
 4188SOL    HW213464   5.218   0.593   6.413
 4189SOL     OW13465   4.773   5.320   3.025
 4189SOL    HW113466   4.689   5.374   3.024
 4189SOL    HW213467   4.816   5.324   2.935
 4190SOL     OW13468   6.021   6.906   1.787
 4190SOL    HW113469   6.048   6.863   1.873
 4190SOL    HW213470   5.936   6.866   1.754
 4191SOL     OW13471   4.358   2.670   6.315
 4191SOL    HW113472   4.366   2.577   6.279
 4191SOL    HW213473   4.316   2.668   6.405
 4192SOL     OW13474   1.789   3.745   6.369
 4192SOL    HW113475   1.766   3.661   6.419
 4192SOL    HW213476   1.858   3.724   6.299
 4193SOL     OW13477   6.880   0.705   0.050
 4193SOL    HW113478   6.943   0.756   7.016
 4193SOL    HW213479   6.888   0.737   0.145
 4194SOL     OW13480   5.962   0.841   6.452
 4194SOL    HW113481   5.882   0.875   6.502
 4194SOL    HW213482   6.031   0.809   6.516
 4195SOL     OW13483   2.538   6.411   0.885
 4195SOL    HW113484   2.464   6.477   0.893
 4195SOL    HW213485   2.519   6.332   0.943
 4196SOL     OW13486   0.259   2.638   3.402
 4196SOL    HW113487   0.293   2.678   3.317
 4196SOL    HW213488   0.335   2.631   3.467
 4197SOL     OW13489   3.333   1.129   0.057
 4197SOL    HW113490   3.395   1.189   0.006
 4197SOL    HW213491   3.290   1.064   7.019
 4198SOL     OW13492   6.785   2.312   2.173
 4198SOL    HW113493   6.760   2.344   2.082
 4198SOL    HW213494   6.800   2.391   2.233
 4199SOL     OW13495   0.810   3.795   6.724
 4199SOL    HW113496   0.834   3.722   6.660
 4199SOL    HW213497   0.766   3.870   6.675
 4200SOL     OW13498   4.996   1.780   3.898
 4200SOL    HW113499   4.988   1.842   3.820
 4200SOL    HW213500   4.947   1.818   3.976
 4201SOL     OW13501   5.493   6.833   4.527
 4201SOL    HW113502   5.395   6.832   4.509
 4201SOL    HW213503   5.542   6.852   4.442
 4202SOL     OW13504   4.719   4.100   1.586
 4202SOL    HW113505   4.694   4.072   1.494
 4202SOL    HW213506   4.667   4.182   1.612
 4203SOL     OW13507   5.871   4.614   5.822
 4203SOL    HW113508   5.809   4.670   5.767
 4203SOL    HW213509   5.964   4.621   5.784
 4204SOL     OW13510   1.821   4.633   6.329
 4204SOL    HW113511   1.753   4.666   6.394
 4204SOL    HW213512   1.786   4.642   6.236
 4205SOL     OW13513   4.673   6.525   6.577
 4205SOL    HW113514   4.672   6.578   6.492
 4205SOL    HW213515   4.580   6.492   6.597
 4206SOL     OW13516   2.424   1.688   4.428
 4206SOL    HW113517   2.430   1.599   4.473
 4206SOL    HW213518   2.517   1.725   4.416
 4207SOL     OW13519   1.649   2.171   2.158
 4207SOL    HW113520   1.650   2.078   2.120
 4207SOL    HW213521   1.606   2.169   2.248
 4208SOL     OW13522   2.592   2.484   3.668
 4208SOL    HW113523   2.630   2.463   3.578
 4208SOL    HW213524   2.632   2.423   3.736
 4209SOL     OW13525   6.540   5.763   2.030
 4209SOL    HW113526   6.526   5.667   2.056
 4209SOL    HW213527   6.522   5.773   1.932
 4210SOL     OW13528   3.015   4.382   5.342
 4210SOL    HW113529   2.966   4.437   5.275
 4210SOL    HW213530   3.017   4.429   5.430
 4211SOL     OW13531   3.440   2.844   5.721
 4211SOL    HW113532   3.463   2.941   5.708
 4211SOL    HW213533   3.505   2.787   5.672
 4212SOL     OW13534   0.896   2.232   2.944
 4212SOL    HW113535   0.815   2.231   3.003
 4212SOL    HW213536   0.969   2.283   2.990
 4213SOL     OW13537   3.930   0.231   4.103
 4213SOL    HW113538   3.973   0.172   4.171
 4213SOL    HW213539   3.910   0.179   4.020
 4214SOL     OW13540   6.836   6.228   3.309
 4214SOL    HW113541   6.753   6.173   3.314
 4214SOL    HW213542   6.817   6.321   3.343
 4215SOL     OW13543   5.931   0.396   5.806
 4215SOL    HW113544   5.891   0.464   5.868
 4215SOL    HW213545   5.986   0.443   5.737
 4216SOL     OW13546   2.465   5.442   2.282
 4216SOL    HW113547   2.446   5.363   2.223
 4216SOL    HW213548   2.520   5.412   2.360
 4217SOL     OW13549   1.776   0.413   3.041
 4217SOL    HW113550   1.743   0.399   3.134
 4217SOL    HW213551   1.718   0.478   2.994
 4218SOL     OW13552   3.255   1.081   2.192
 4218SOL    HW113553   3.205   1.071   2.278
 4218SOL    HW213554   3.296   0.993   2.167
 4219SOL     OW13555   3.726   4.933   3.723
 4219SOL    HW113556   3.771   4.923   3.812
 4219SOL    HW213557   3.684   5.023   3.717
 4220SOL     OW13558   6.118   1.963   0.945
 4220SOL    HW113559   6.210   1.942   0.979
 4220SOL    HW213560   6.055   1.970   1.022
 4221SOL     OW13561   0.462   6.363   0.466
 4221SOL    HW113562   0.503   6.451   0.442
 4221SOL    HW213563   0.486   6.295   0.398
 4222SOL     OW13564   4.910   3.326   4.625
 4222SOL    HW113565   4.951   3.264   4.557
 4222SOL    HW213566   4.902   3.418   4.586
 4223SOL     OW13567   3.562   4.133   2.505
 4223SOL    HW113568   3.509   4.112   2.587
 4223SOL    HW213569   3.501   4.163   2.432
 4224SOL     OW13570   4.714   4.836   4.310
 4224SOL    HW113571   4.687   4.802   4.400
 4224SOL    HW213572   4.645   4.900   4.276
 4225SOL     OW13573   1.115   2.035   5.737
 4225SOL    HW113574   1.208   2.071   5.748
 4225SOL    HW213575   1.105   1.996   5.645
 4226SOL     OW13576   6.531   4.574   4.701
 4226SOL    HW113577   6.624   4.568   4.737
 4226SOL    HW213578   6.487   4.484   4.710
 4227SOL     OW13579   4.898   5.357   1.671
 4227SOL    HW113580   4.966   5.284   1.665
 4227SOL    HW213581   4.833   5.336   1.744
 4228SOL     OW13582   1.511   4.773   3.641
 4228SOL    HW113583   1.479   4.705   3.575
 4228SOL    HW213584   1.481   4.864   3.612
 4229SOL     OW13585   5.974   6.193   5.447
 4229SOL    HW113586   6.001   6.287   5.426
 4229SOL    HW213587   5.893   6.169   5.394
 4230SOL     OW13588   0.182   1.251   1.816
 4230SOL    HW113589   0.208   1.190   1.891
 4230SOL    HW213590   0.261   1.306   1.790
 4231SOL     OW13591   0.683   0.429   6.279
 4231SOL    HW113592   0.592   0.423   6.320
 4231SOL    HW213593   0.686   0.373   6.196
 4232SOL     OW13594   1.576   5.012   4.092
 4232SOL    HW113595   1.675   5.008   4.076
 4232SOL    HW213596   1.528   4.987   4.008
 4233SOL     OW13597   4.385   5.383   2.439
 4233SOL    HW113598   4.467   5.440   2.449
 4233SOL    HW213599   4.331   5.387   2.523
 4234SOL     OW13600   3.627   5.575   5.702
 4234SOL    HW113601   3.646   5.483   5.667
 4234SOL    HW213602   3.675   5.588   5.788
 4235SOL     OW13603   6.894   5.817   6.346
 4235SOL    HW113604   6.868   5.746   6.411
 4235SOL    HW213605   6.946   5.888   6.393
 4236SOL     OW13606   0.135   5.554   3.136
 4236SOL    HW113607   0.056   5.614   3.131
 4236SOL    HW213608   0.124   5.490   3.212
 4237SOL     OW13609   6.942   4.532   3.524
 4237SOL    HW113610   6.851   4.491   3.517
 4237SOL    HW213611   6.968   4.539   3.620
 4238SOL     OW13612   3.110   5.653   2.507
 4238SOL    HW113613   3.062   5.640   2.594
 4238SOL    HW213614   3.179   5.725   2.517
 4239SOL     OW13615   4.329   1.316   3.689
 4239SOL    HW113616   4.398   1.267   3.743
 4239SOL    HW213617   4.312   1.266   3.604
 4240SOL     OW13618   5.800   6.819   1.686
 4240SOL    HW113619   5.722   6.813   1.749
 4240SOL    HW213620   5.776   6.876   1.608
 4241SOL     OW13621   6.591   4.591   0.406
 4241SOL    HW113622   6.677   4.642   0.414
 4241SOL    HW213623   6.532   4.613   0.484
 4242SOL     OW13624   3.477   2.157   3.553
 4242SOL    HW113625   3.558   2.187   3.603
 4242SOL    HW213626   3.489   2.176   3.456
 4243SOL     OW13627   4.124   1.887   2.816
 4243SOL    HW113628   4.149   1.982   2.795
 4243SOL    HW213629   4.058   1.855   2.748
 4244SOL     OW13630   3.245   2.975   4.621
 4244SOL    HW113631   3.209   3.040   4.554
 4244SOL    HW213632   3.194   2.985   4.707
 4245SOL     OW13633   6.007   0.314   6.787
 4245SOL    HW113634   5.951   0.263   6.721
 4245SOL    HW213635   6.096   0.333   6.746
 4246SOL     OW13636   6.791   4.319   6.564
 4246SOL    HW113637   6.821   4.376   6.639
 4246SOL    HW213638   6.786   4.373   6.480
 4247SOL     OW13639   0.135   5.997   5.071
 4247SOL    HW113640   0.153   6.059   4.995
 4247SOL    HW213641   0.214   5.995   5.132
 4248SOL     OW13642   2.498   3.924   6.561
 4248SOL    HW113643   2.483   3.832   6.597
 4248SOL    HW213644   2.579   3.964   6.605
 4249SOL     OW13645   5.308   4.015   5.747
 4249SOL    HW113646   5.278   4.007   5.652
 4249SOL    HW213647   5.331   3.925   5.783
 4250SOL     OW13648   1.180   4.275   3.213
 4250SOL    HW113649   1.233   4.318   3.140
 4250SOL    HW213650   1.240   4.219   3.270
 4251SOL     OW13651   5.585   5.192   0.125
 4251SOL    HW113652   5.544   5.106   0.155
 4251SOL    HW213653   5.544   5.221   0.039
 4252SOL     OW13654   6.692   5.499   4.923
 4252SOL    HW113655   6.763   5.512   4.853
 4252SOL    HW213656   6.661   5.589   4.955
 4253SOL     OW13657   3.905   5.703   2.807
 4253SOL    HW113658   3.839   5.629   2.793
 4253SOL    HW213659   3.861   5.791   2.786
 4254SOL     OW13660   2.961   3.603   1.497
 4254SOL    HW113661   2.863   3.620   1.503
 4254SOL    HW213662   2.998   3.647   1.416
 4255SOL     OW13663   0.271   1.956   4.614
 4255SOL    HW113664   0.176   1.979   4.590
 4255SOL    HW213665   0.333   2.015   4.562
 4256SOL     OW13666   2.286   0.876   2.102
 4256SOL    HW113667   2.210   0.879   2.037
 4256SOL    HW213668   2.290   0.962   2.152
 4257SOL     OW13669   4.422   2.229   5.196
 4257SOL    HW113670   4.360   2.150   5.191
 4257SOL    HW213671   4.438   2.264   5.104
 4258SOL     OW13672   4.923   6.143   3.050
 4258SOL    HW113673   4.889   6.169   3.141
 4258SOL    HW213674   4.848   6.147   2.985
 4259SOL     OW13675   1.604   3.297   1.177
 4259SOL    HW113676   1.533   3.276   1.244
 4259SOL    HW213677   1.644   3.212   1.142
 4260SOL     OW13678   3.993   5.690   4.274
 4260SOL    HW113679   3.979   5.667   4.177
 4260SOL    HW213680   3.916   5.744   4.307
 4261SOL     OW13681   1.440   1.501   3.011
 4261SOL    HW113682   1.382   1.440   2.957
 4261SOL    HW213683   1.414   1.496   3.108
 4262SOL     OW13684   0.163   6.365   6.337
 4262SOL    HW113685   0.241   6.318   6.296
 4262SOL    HW213686   0.174   6.464   6.328
 4263SOL     OW13687   4.464   5.086   6.388
 4263SOL    HW113688   4.377   5.042   6.409
 4263SOL    HW213689   4.519   5.093   6.471
 4264SOL     OW13690   0.313   0.371   1.371
 4264SOL    HW113691   0.262   0.387   1.456
 4264SOL    HW213692   0.350   0.278   1.372
 4265SOL     OW13693   1.572   1.774   0.165
 4265SOL    HW113694   1.609   1.866   0.152
 4265SOL    HW213695   1.494   1.778   0.227
 4266SOL     OW13696   3.235   4.781   1.217
 4266SOL    HW113697   3.261   4.786   1.121
 4266SOL    HW213698   3.197   4.691   1.236
 4267SOL     OW13699   1.739   4.345   5.854
 4267SOL    HW113700   1.682   4.426   5.866
 4267SOL    HW213701   1.791   4.352   5.769
 4268SOL     OW13702   2.097   0.683   0.710
 4268SOL    HW113703   2.148   0.701   0.626
 4268SOL    HW213704   2.129   0.597   0.750
 4269SOL     OW13705   2.401   4.342   0.990
 4269SOL    HW113706   2.305   4.335   0.961
 4269SOL    HW213707   2.415   4.427   1.041
 4270SOL     OW13708   3.675   2.880   6.472
 4270SOL    HW113709   3.676   2.910   6.377
 4270SOL    HW213710   3.763   2.838   6.495
 4271SOL     OW13711   1.527   0.255   0.506
 4271SOL    HW113712   1.446   0.303   0.472
 4271SOL    HW213713   1.501   0.195   0.582
 4272SOL     OW13714   7.006   3.704   3.653
 4272SOL    HW113715   6.963   3.621   3.618
 4272SOL    HW213716   0.052   3.736   3.589
 4273SOL     OW13717   6.000   6.581   3.976
 4273SOL    HW113718   5.955   6.615   3.894
 4273SOL    HW213719   6.098   6.568   3.958
 4274SOL     OW13720   2.065   0.579   3.957
 4274SOL    HW113721   1.976   0.611   3.992
 4274SOL    HW213722   2.136   0.602   4.023
 4275SOL     OW13723   0.828   6.887   6.176
 4275SOL    HW113724   0.923   6.917   6.179
 4275SOL    HW213725   0.771   6.953   6.225
 4276SOL     OW13726   2.017   4.462   2.544
 4276SOL    HW113727   2.058   4.506   2.624
 4276SOL    HW213728   2.042   4.512   2.461
 4277SOL     OW13729   0.889   5.231   5.053
 4277SOL    HW113730   0.823   5.212   4.980
 4277SOL    HW213731   0.901   5.148   5.108
 4278SOL     OW13732   1.448   6.802   6.193
 4278SOL    HW113733   1.517   6.751   6.142
 4278SOL    HW213734   1.480   6.818   6.286
 4279SOL     OW13735   3.271   6.020   4.267
 4279SOL    HW113736   3.241   5.929   4.297
 4279SOL    HW213737   3.320   6.065   4.342
 4280SOL     OW13738   4.888   2.670   3.650
 4280SOL    HW113739   4.916   2.729   3.725
 4280SOL    HW213740   4.793   2.641   3.665
 4281SOL     OW13741   2.545   4.141   5.387
 4281SOL    HW113742   2.520   4.234   5.362
 4281SOL    HW213743   2.495   4.077   5.328
 4282SOL     OW13744   0.380   2.949   0.585
 4282SOL    HW113745   0.412   2.981   0.674
 4282SOL    HW213746   0.310   2.879   0.598
 4283SOL     OW13747   2.687   0.620   4.875
 4283SOL    HW113748   2.665   0.716   4.896
 4283SOL    HW213749   2.754   0.617   4.801
 4284SOL     OW13750   0.154   1.808   3.040
 4284SOL    HW113751   0.243   1.774   3.008
 4284SOL    HW213752   0.132   1.765   3.128
 4285SOL     OW13753   0.849   5.826   4.829
 4285SOL    HW113754   0.929   5.841   4.771
 4285SOL    HW213755   0.773   5.791   4.774
 4286SOL     OW13756   4.863   5.975   6.841
 4286SOL    HW113757   4.943   5.998   6.785
 4286SOL    HW213758   4.820   6.059   6.873
 4287SOL     OW13759   3.732   6.461   5.764
 4287SOL    HW113760   3.706   6.543   5.714
 4287SOL    HW213761   3.694   6.381   5.718
 4288SOL     OW13762   1.074   6.515   3.328
 4288SOL    HW113763   0.978   6.486   3.329
 4288SOL    HW213764   1.129   6.446   3.282
 4289SOL     OW13765   6.781   3.802   0.198
 4289SOL    HW113766   6.697   3.847   0.230
 4289SOL    HW213767   6.813   3.738   0.268
 4290SOL     OW13768   2.364   1.834   3.400
 4290SOL    HW113769   2.301   1.886   3.458
 4290SOL    HW213770   2.340   1.849   3.304
 4291SOL     OW13771   6.693   4.369   1.249
 4291SOL    HW113772   6.661   4.359   1.155
 4291SOL    HW213773   6.776   4.315   1.262
 4292SOL     OW13774   5.709   5.338   5.983
 4292SOL    HW113775   5.629   5.313   6.039
 4292SOL    HW213776   5.726   5.266   5.916
 4293SOL     OW13777   0.052   2.401   6.383
 4293SOL    HW113778   0.112   2.356   6.449
 4293SOL    HW213779   0.044   2.498   6.406
 4294SOL     OW13780   5.023   2.233   5.846
 4294SOL    HW113781   5.092   2.261   5.913
 4294SOL    HW213782   4.936   2.214   5.892
 4295SOL     OW13783   3.627   6.016   5.663
 4295SOL    HW113784   3.590   6.020   5.755
 4295SOL    HW213785   3.586   5.940   5.613
 4296SOL     OW13786   2.601   1.448   2.995
 4296SOL    HW113787   2.671   1.459   2.924
 4296SOL    HW213788   2.632   1.380   3.062
 4297SOL     OW13789   5.678   0.900   0.445
 4297SOL    HW113790   5.630   0.903   0.357
 4297SOL    HW213791   5.633   0.961   0.510
 4298SOL     OW13792   2.431   5.493   1.455
 4298SOL    HW113793   2.433   5.592   1.465
 4298SOL    HW213794   2.339   5.459   1.475
 4299SOL     OW13795   0.839   4.420   5.570
 4299SOL    HW113796   0.786   4.505   5.564
 4299SOL    HW213797   0.870   4.394   5.478
 4300SOL     OW13798   5.932   6.702   5.650
 4300SOL    HW113799   5.832   6.699   5.658
 4300SOL    HW213800   5.958   6.732   5.559
 4301SOL     OW13801   2.623   1.078   0.217
 4301SOL    HW113802   2.545   1.111   0.164
 4301SOL    HW213803   2.628   0.979   0.210
 4302SOL     OW13804   1.010   6.916   6.468
 4302SOL    HW113805   1.100   6.873   6.472
 4302SOL    HW213806   0.970   6.918   6.560
 4303SOL     OW13807   6.862   4.037   1.449
 4303SOL    HW113808   6.808   3.995   1.522
 4303SOL    HW213809   6.839   3.994   1.362
 4304SOL     OW13810   3.126   3.036   4.843
 4304SOL    HW113811   3.143   3.111   4.907
 4304SOL    HW213812   3.054   2.977   4.880
 4305SOL     OW13813   6.422   1.233   4.937
 4305SOL    HW113814   6.496   1.287   4.977
 4305SOL    HW213815   6.454   1.190   4.852
 4306SOL     OW13816   5.997   5.792   6.491
 4306SOL    HW113817   5.963   5.753   6.577
 4306SOL    HW213818   6.097   5.799   6.495
 4307SOL     OW13819   5.222   3.381   0.477
 4307SOL    HW113820   5.197   3.342   0.389
 4307SOL    HW213821   5.186   3.323   0.550
 4308SOL     OW13822   3.832   6.959   5.559
 4308SOL    HW113823   3.785   7.012   5.630
 4308SOL    HW213824   3.925   6.994   5.547
 4309SOL     OW13825   1.951   0.915   1.424
 4309SOL    HW113826   1.895   0.972   1.483
 4309SOL    HW213827   1.959   0.959   1.334
 4310SOL     OW13828   1.638   0.698   2.558
 4310SOL    HW113829   1.703   0.756   2.510
 4310SOL    HW213830   1.661   0.602   2.541
 4311SOL     OW13831   1.493   6.017   4.272
 4311SOL    HW113832   1.527   5.943   4.330
 4311SOL    HW213833   1.445   6.084   4.328
 4312SOL     OW13834   1.578   5.830   1.394
 4312SOL    HW113835   1.603   5.819   1.297
 4312SOL    HW213836   1.660   5.849   1.447
 4313SOL     OW13837   5.272   0.449   1.661
 4313SOL    HW113838   5.202   0.515   1.635
 4313SOL    HW213839   5.287   0.453   1.760
 4314SOL     OW13840   5.273   3.522   2.217
 4314SOL    HW113841   5.173   3.530   2.214
 4314SOL    HW213842   5.300   3.428   2.197
 4315SOL     OW13843   2.509   1.255   2.557
 4315SOL    HW113844   2.444   1.305   2.499
 4315SOL    HW213845   2.458   1.190   2.613
 4316SOL     OW13846   0.452   0.668   2.418
 4316SOL    HW113847   0.399   0.752   2.427
 4316SOL    HW213848   0.526   0.682   2.352
 4317SOL     OW13849   4.226   0.400   3.626
 4317SOL    HW113850   4.139   0.439   3.658
 4317SOL    HW213851   4.212   0.306   3.596
 4318SOL     OW13852   6.213   2.662   3.972
 4318SOL    HW113853   6.239   2.701   3.883
 4318SOL    HW213854   6.254   2.572   3.982
 4319SOL     OW13855   2.957   2.927   5.775
 4319SOL    HW113856   3.029   2.874   5.819
 4319SOL    HW213857   2.876   2.869   5.763
 4320SOL     OW13858   0.662   5.777   3.328
 4320SOL    HW113859   0.672   5.835   3.409
 4320SOL    HW213860   0.572   5.791   3.287
 4321SOL     OW13861   0.471   0.453   5.056
 4321SOL    HW113862   0.458   0.382   4.987
 4321SOL    HW213863   0.407   0.440   5.131
 4322SOL     OW13864   5.583   1.555   0.971
 4322SOL    HW113865   5.561   1.612   1.051
 4322SOL    HW213866   5.611   1.464   1.002
 4323SOL     OW13867   6.891   1.956   3.892
 4323SOL    HW113868   6.920   1.955   3.988
 4323SOL    HW213869   6.919   1.871   3.848
 4324SOL     OW13870   5.726   2.661   6.175
 4324SOL    HW113871   5.694   2.686   6.266
 4324SOL    HW213872   5.753   2.565   6.174
 4325SOL     OW13873   1.885   2.358   5.900
 4325SOL    HW113874   1.894   2.448   5.858
 4325SOL    HW213875   1.972   2.309   5.893
 4326SOL     OW13876   6.464   2.564   5.380
 4326SOL    HW113877   6.470   2.519   5.292
 4326SOL    HW213878   6.447   2.662   5.367
 4327SOL     OW13879   5.682   0.632   3.077
 4327SOL    HW113880   5.730   0.626   3.164
 4327SOL    HW213881   5.584   0.643   3.094
 4328SOL     OW13882   5.790   5.017   0.400
 4328SOL    HW113883   5.804   5.093   0.335
 4328SOL    HW213884   5.808   5.049   0.493
 4329SOL     OW13885   4.747   1.197   6.572
 4329SOL    HW113886   4.713   1.278   6.619
 4329SOL    HW213887   4.811   1.224   6.500
 4330SOL     OW13888   0.956   0.814   6.537
 4330SOL    HW113889   0.874   0.769   6.502
 4330SOL    HW213890   0.930   0.902   6.578
 4331SOL     OW13891   5.392   2.407   6.610
 4331SOL    HW113892   5.307   2.394   6.660
 4331SOL    HW213893   5.459   2.338   6.640
 4332SOL     OW13894   5.226   3.270   2.015
 4332SOL    HW113895   5.174   3.331   1.956
 4332SOL    HW213896   5.163   3.208   2.062
 4333SOL     OW13897   6.282   1.418   5.656
 4333SOL    HW113898   6.200   1.472   5.671
 4333SOL    HW213899   6.258   1.332   5.610
 4334SOL     OW13900   4.600   7.001   1.165
 4334SOL    HW113901   4.505   0.007   1.175
 4334SOL    HW213902   4.661   0.056   1.176
 4335SOL     OW13903   3.991   4.438   5.550
 4335SOL    HW113904   3.936   4.355   5.535
 4335SOL    HW213905   4.078   4.413   5.592
 4336SOL     OW13906   1.093   6.316   5.377
 4336SOL    HW113907   1.165   6.304   5.309
 4336SOL    HW213908   1.118   6.267   5.461
 4337SOL     OW13909   0.377   5.361   0.139
 4337SOL    HW113910   0.344   5.450   0.168
 4337SOL    HW213911   0.333   5.290   0.194
 4338SOL     OW13912   5.893   5.790   3.588
 4338SOL    HW113913   5.940   5.832   3.510
 4338SOL    HW213914   5.889   5.856   3.663
 4339SOL     OW13915   6.723   1.386   6.477
 4339SOL    HW113916   6.685   1.361   6.388
 4339SOL    HW213917   6.822   1.384   6.474
 4340SOL     OW13918   4.738   3.490   1.744
 4340SOL    HW113919   4.778   3.399   1.756
 4340SOL    HW213920   4.812   3.557   1.733
 4341SOL     OW13921   0.712   3.814   7.015
 4341SOL    HW113922   0.683   3.725   6.980
 4341SOL    HW213923   0.808   3.830   6.989
 4342SOL     OW13924   6.913   1.861   2.935
 4342SOL    HW113925   7.003   1.845   2.976
 4342SOL    HW213926   6.923   1.913   2.851
 4343SOL     OW13927   2.494   1.751   1.637
 4343SOL    HW113928   2.447   1.784   1.556
 4343SOL    HW213929   2.427   1.712   1.701
 4344SOL     OW13930   2.081   3.805   2.288
 4344SOL    HW113931   2.092   3.752   2.372
 4344SOL    HW213932   1.992   3.785   2.248
 4345SOL     OW13933   2.232   1.626   6.098
 4345SOL    HW113934   2.241   1.705   6.038
 4345SOL    HW213935   2.220   1.543   6.044
 4346SOL     OW13936   6.774   3.551   0.948
 4346SOL    HW113937   6.678   3.529   0.964
 4346SOL    HW213938   6.831   3.503   1.016
 4347SOL     OW13939   5.555   5.818   2.582
 4347SOL    HW113940   5.568   5.886   2.510
 4347SOL    HW213941   5.467   5.772   2.570
 4348SOL     OW13942   1.141   4.079   6.989
 4348SOL    HW113943   1.089   3.995   6.979
 4348SOL    HW213944   1.118   4.123   0.052
 4349SOL     OW13945   6.738   0.866   1.989
 4349SOL    HW113946   6.679   0.852   2.069
 4349SOL    HW213947   6.789   0.782   1.971
 4350SOL     OW13948   4.653   0.278   3.489
 4350SOL    HW113949   4.576   0.266   3.427
 4350SOL    HW213950   4.620   0.312   3.577
 4351SOL     OW13951   2.604   6.767   0.329
 4351SOL    HW113952   2.630   6.690   0.387
 4351SOL    HW213953   2.586   6.847   0.385
 4352SOL     OW13954   6.090   1.406   2.749
 4352SOL    HW113955   6.084   1.309   2.726
 4352SOL    HW213956   6.023   1.458   2.696
 4353SOL     OW13957   3.101   5.573   1.702
 4353SOL    HW113958   3.115   5.623   1.617
 4353SOL    HW213959   3.011   5.530   1.701
 4354SOL     OW13960   2.312   1.173   1.512
 4354SOL    HW113961   2.251   1.238   1.468
 4354SOL    HW213962   2.374   1.134   1.443
 4355SOL     OW13963   4.731   0.397   0.551
 4355SOL    HW113964   4.723   0.297   0.558
 4355SOL    HW213965   4.752   0.422   0.457
 4356SOL     OW13966   3.375   3.963   0.223
 4356SOL    HW113967   3.293   4.014   0.196
 4356SOL    HW213968   3.353   3.905   0.301
 4357SOL     OW13969   6.428   0.837   6.687
 4357SOL    HW113970   6.413   0.817   6.784
 4357SOL    HW213971   6.352   0.891   6.652
 4358SOL     OW13972   6.499   1.055   0.819
 4358SOL    HW113973   6.460   1.010   0.900
 4358SOL    HW213974   6.438   1.042   0.741
 4359SOL     OW13975   5.785   3.011   4.386
 4359SOL    HW113976   5.809   2.931   4.331
 4359SOL    HW213977   5.860   3.030   4.450
 4360SOL     OW13978   2.170   3.384   0.964
 4360SOL    HW113979   2.249   3.444   0.947
 4360SOL    HW213980   2.132   3.405   1.054
 4361SOL     OW13981   5.743   1.589   2.257
 4361SOL    HW113982   5.705   1.567   2.167
 4361SOL    HW213983   5.838   1.559   2.261
 4362SOL     OW13984   5.245   4.193   3.097
 4362SOL    HW113985   5.270   4.206   3.001
 4362SOL    HW213986   5.292   4.260   3.153
 4363SOL     OW13987   5.571   0.732   6.250
 4363SOL    HW113988   5.516   0.668   6.197
 4363SOL    HW213989   5.609   0.802   6.189
 4364SOL     OW13990   3.452   3.836   4.668
 4364SOL    HW113991   3.384   3.909   4.676
 4364SOL    HW213992   3.475   3.821   4.572
 4365SOL     OW13993   3.970   1.512   0.609
 4365SOL    HW113994   3.915   1.584   0.652
 4365SOL    HW213995   3.914   1.430   0.598
 4366SOL     OW13996   5.312   4.954   0.951
 4366SOL    HW113997   5.242   4.946   1.022
 4366SOL    HW213998   5.273   4.998   0.870
 4367SOL     OW13999   6.823   6.734   0.710
 4367SOL    HW114000   6.864   6.767   0.795
 4367SOL    HW214001   6.849   6.794   0.635
 4368SOL     OW14002   4.712   4.432   1.850
 4368SOL    HW114003   4.692   4.490   1.771
 4368SOL    HW214004   4.628   4.389   1.883
 4369SOL     OW14005   3.174   5.737   1.491
 4369SOL    HW114006   3.137   5.773   1.405
 4369SOL    HW214007   3.273   5.727   1.483
 4370SOL     OW14008   5.902   4.022   2.341
 4370SOL    HW114009   5.966   3.967   2.287
 4370SOL    HW214010   5.810   4.013   2.303
 4371SOL     OW14011   0.452   2.162   2.481
 4371SOL    HW114012   0.493   2.253   2.475
 4371SOL    HW214013   0.478   2.119   2.568
 4372SOL     OW14014   4.868   0.108   3.418
 4372SOL    HW114015   4.887   0.137   3.325
 4372SOL    HW214016   4.796   0.166   3.457
 4373SOL     OW14017   6.480   1.795   6.315
 4373SOL    HW114018   6.509   1.699   6.311
 4373SOL    HW214019   6.384   1.802   6.290
 4374SOL     OW14020   3.670   1.439   1.385
 4374SOL    HW114021   3.636   1.495   1.460
 4374SOL    HW214022   3.765   1.414   1.403
 4375SOL     OW14023   3.643   6.033   4.261
 4375SOL    HW114024   3.613   6.062   4.170
 4375SOL    HW214025   3.687   6.109   4.308
 4376SOL     OW14026   6.729   1.825   4.284
 4376SOL    HW114027   6.725   1.925   4.278
 4376SOL    HW214028   6.782   1.798   4.364
 4377SOL     OW14029   6.883   4.867   6.057
 4377SOL    HW114030   6.898   4.769   6.039
 4377SOL    HW214031   6.943   4.921   5.997
 4378SOL     OW14032   3.177   1.536   3.973
 4378SOL    HW114033   3.231   1.618   3.952
 4378SOL    HW214034   3.233   1.471   4.024
 4379SOL     OW14035   3.519   1.920   5.802
 4379SOL    HW114036   3.492   1.980   5.727
 4379SOL    HW214037   3.588   1.967   5.858
 4380SOL     OW14038   0.446   2.082   2.965
 4380SOL    HW114039   0.483   2.173   2.951
 4380SOL    HW214040   0.361   2.088   3.017
 4381SOL     OW14041   1.389   6.018   6.911
 4381SOL    HW114042   1.308   5.961   6.919
 4381SOL    HW214043   1.362   6.113   6.894
 4382SOL     OW14044   0.683   4.913   4.422
 4382SOL    HW114045   0.638   4.868   4.345
 4382SOL    HW214046   0.775   4.877   4.433
 4383SOL     OW14047   6.395   3.825   0.532
 4383SOL    HW114048   6.481   3.780   0.555
 4383SOL    HW214049   6.322   3.788   0.589
 4384SOL     OW14050   5.637   6.976   3.897
 4384SOL    HW114051   5.698   6.950   3.822
 4384SOL    HW214052   5.599   6.895   3.940
 4385SOL     OW14053   4.846   1.675   5.891
 4385SOL    HW114054   4.894   1.710   5.810
 4385SOL    HW214055   4.766   1.623   5.863
 4386SOL     OW14056   1.846   3.665   4.792
 4386SOL    HW114057   1.866   3.754   4.835
 4386SOL    HW214058   1.900   3.594   4.836
 4387SOL     OW14059   5.362   1.984   0.803
 4387SOL    HW114060   5.374   2.081   0.823
 4387SOL    HW214061   5.277   1.951   0.845
 4388SOL     OW14062   4.898   3.780   0.260
 4388SOL    HW114063   4.929   3.687   0.282
 4388SOL    HW214064   4.908   3.796   0.162
 4389SOL     OW14065   1.669   2.075   0.089
 4389SOL    HW114066   1.731   2.122   0.026
 4389SOL    HW214067   1.712   2.070   0.179
 4390SOL     OW14068   0.118   1.615   0.709
 4390SOL    HW114069   0.152   1.692   0.763
 4390SOL    HW214070   0.182   1.538   0.717
 4391SOL     OW14071   1.071   5.882   0.802
 4391SOL    HW114072   1.071   5.788   0.771
 4391SOL    HW214073   1.010   5.936   0.745
 4392SOL     OW14074   0.843   3.267   5.919
 4392SOL    HW114075   0.867   3.184   5.868
 4392SOL    HW214076   0.782   3.323   5.864
 4393SOL     OW14077   5.496   0.276   1.940
 4393SOL    HW114078   5.536   0.274   2.032
 4393SOL    HW214079   5.541   0.207   1.883
 4394SOL     OW14080   0.580   0.454   2.694
 4394SOL    HW114081   0.659   0.397   2.668
 4394SOL    HW214082   0.497   0.416   2.653
 4395SOL     OW14083   1.856   4.699   1.917
 4395SOL    HW114084   1.847   4.777   1.855
 4395SOL    HW214085   1.938   4.711   1.974
 4396SOL     OW14086   3.093   0.987   2.790
 4396SOL    HW114087   3.188   1.003   2.764
 4396SOL    HW214088   3.085   0.987   2.890
 4397SOL     OW14089   3.022   1.494   4.797
 4397SOL    HW114090   3.114   1.466   4.771
 4397SOL    HW214091   2.957   1.422   4.772
 4398SOL     OW14092   1.507   3.216   5.502
 4398SOL    HW114093   1.417   3.195   5.464
 4398SOL    HW214094   1.496   3.264   5.590
 4399SOL     OW14095   2.745   6.421   1.986
 4399SOL    HW114096   2.842   6.441   1.971
 4399SOL    HW214097   2.698   6.417   1.897
 4400SOL     OW14098   1.846   5.956   4.361
 4400SOL    HW114099   1.830   5.960   4.263
 4400SOL    HW214100   1.892   5.870   4.384
 4401SOL     OW14101   3.032   6.696   6.583
 4401SOL    HW114102   2.980   6.638   6.520
 4401SOL    HW214103   2.988   6.695   6.673
 4402SOL     OW14104   2.501   0.675   2.779
 4402SOL    HW114105   2.495   0.581   2.812
 4402SOL    HW214106   2.412   0.703   2.744
 4403SOL     OW14107   0.658   5.129   1.597
 4403SOL    HW114108   0.672   5.212   1.651
 4403SOL    HW214109   0.577   5.141   1.539
 4404SOL     OW14110   0.251   6.624   6.433
 4404SOL    HW114111   0.248   6.693   6.505
 4404SOL    HW214112   0.310   6.549   6.461
 4405SOL     OW14113   1.756   5.463   2.306
 4405SOL    HW114114   1.798   5.488   2.218
 4405SOL    HW214115   1.666   5.422   2.290
 4406SOL     OW14116   6.213   3.912   2.202
 4406SOL    HW114117   6.271   3.899   2.282
 4406SOL    HW214118   6.142   3.842   2.200
 4407SOL     OW14119   6.053   6.302   1.055
 4407SOL    HW114120   6.028   6.395   1.079
 4407SOL    HW214121   6.053   6.292   0.955
 4408SOL     OW14122   4.009   0.695   0.391
 4408SOL    HW114123   3.981   0.626   0.324
 4408SOL    HW214124   4.047   0.650   0.472
 4409SOL     OW14125   2.938   0.791   3.503
 4409SOL    HW114126   2.866   0.798   3.434
 4409SOL    HW214127   2.955   0.881   3.544
 4410SOL     OW14128   0.449   0.449   0.866
 4410SOL    HW114129   0.535   0.400   0.882
 4410SOL    HW214130   0.382   0.420   0.934
 4411SOL     OW14131   4.563   4.693   5.208
 4411SOL    HW114132   4.564   4.755   5.286
 4411SOL    HW214133   4.571   4.746   5.124
 4412SOL     OW14134   4.547   6.322   1.807
 4412SOL    HW114135   4.476   6.278   1.862
 4412SOL    HW214136   4.577   6.259   1.735
 4413SOL     OW14137   4.503   5.655   3.967
 4413SOL    HW114138   4.549   5.650   3.878
 4413SOL    HW214139   4.518   5.569   4.016
 4414SOL     OW14140   5.249   3.696   1.474
 4414SOL    HW114141   5.325   3.704   1.410
 4414SOL    HW214142   5.210   3.786   1.492
 4415SOL     OW14143   1.482   3.838   1.075
 4415SOL    HW114144   1.570   3.852   1.029
 4415SOL    HW214145   1.477   3.897   1.156
 4416SOL     OW14146   5.173   2.815   3.876
 4416SOL    HW114147   5.171   2.914   3.858
 4416SOL    HW214148   5.151   2.798   3.972
 4417SOL     OW14149   0.147   4.077   1.497
 4417SOL    HW114150   0.169   4.107   1.404
 4417SOL    HW214151   0.063   4.022   1.494
 4418SOL     OW14152   6.616   0.741   5.911
 4418SOL    HW114153   6.684   0.722   5.981
 4418SOL    HW214154   6.570   0.656   5.885
 4419SOL     OW14155   6.473   5.454   6.586
 4419SOL    HW114156   6.425   5.466   6.499
 4419SOL    HW214157   6.408   5.425   6.657
 4420SOL     OW14158   3.986   1.610   1.052
 4420SOL    HW114159   3.898   1.565   1.035
 4420SOL    HW214160   3.976   1.677   1.125
 4421SOL     OW14161   1.968   3.136   0.422
 4421SOL    HW114162   2.006   3.213   0.370
 4421SOL    HW214163   1.995   3.050   0.378
 4422SOL     OW14164   6.752   2.998   5.899
 4422SOL    HW114165   6.729   3.091   5.929
 4422SOL    HW214166   6.695   2.932   5.948
 4423SOL     OW14167   6.256   4.556   4.521
 4423SOL    HW114168   6.312   4.479   4.550
 4423SOL    HW214169   6.281   4.583   4.428
 4424SOL     OW14170   4.721   5.934   2.714
 4424SOL    HW114171   4.680   5.983   2.790
 4424SOL    HW214172   4.663   5.858   2.688
 4425SOL     OW14173   0.821   5.866   1.132
 4425SOL    HW114174   0.803   5.799   1.204
 4425SOL    HW214175   0.756   5.852   1.057
 4426SOL     OW14176   0.374   0.886   4.423
 4426SOL    HW114177   0.432   0.847   4.351
 4426SOL    HW214178   0.414   0.867   4.513
 4427SOL     OW14179   2.260   5.815   2.839
 4427SOL    HW114180   2.244   5.914   2.841
 4427SOL    HW214181   2.294   5.785   2.928
 4428SOL     OW14182   6.772   5.477   3.075
 4428SOL    HW114183   6.685   5.462   3.122
 4428SOL    HW214184   6.775   5.420   2.993
 4429SOL     OW14185   2.864   6.684   3.122
 4429SOL    HW114186   2.921   6.650   3.197
 4429SOL    HW214187   2.916   6.751   3.069
 4430SOL     OW14188   5.878   3.502   5.499
 4430SOL    HW114189   5.806   3.566   5.473
 4430SOL    HW214190   5.861   3.413   5.456
 4431SOL     OW14191   3.797   6.849   4.648
 4431SOL    HW114192   3.718   6.791   4.668
 4431SOL    HW214193   3.857   6.852   4.728
 4432SOL     OW14194   0.733   3.486   5.765
 4432SOL    HW114195   0.636   3.501   5.783
 4432SOL    HW214196   0.754   3.511   5.670
 4433SOL     OW14197   0.798   0.855   4.185
 4433SOL    HW114198   0.875   0.866   4.248
 4433SOL    HW214199   0.797   0.930   4.120
 4434SOL     OW14200   6.859   0.673   1.816
 4434SOL    HW114201   6.915   0.596   1.784
 4434SOL    HW214202   6.883   0.755   1.764
 4435SOL     OW14203   2.129   3.972   0.811
 4435SOL    HW114204   2.151   3.905   0.740
 4435SOL    HW214205   2.194   4.048   0.805
 4436SOL     OW14206   4.195   2.216   1.931
 4436SOL    HW114207   4.210   2.271   2.013
 4436SOL    HW214208   4.109   2.166   1.939
 4437SOL     OW14209   6.292   4.482   6.956
 4437SOL    HW114210   6.370   4.520   6.906
 4437SOL    HW214211   6.317   4.469   0.028
 4438SOL     OW14212   4.172   1.339   4.948
 4438SOL    HW114213   4.243   1.296   4.892
 4438SOL    HW214214   4.107   1.269   4.979
 4439SOL     OW14215   2.408   5.718   3.088
 4439SOL    HW114216   2.442   5.627   3.063
 4439SOL    HW214217   2.449   5.746   3.175
 4440SOL     OW14218   1.243   4.613   5.685
 4440SOL    HW114219   1.148   4.631   5.710
 4440SOL    HW214220   1.297   4.697   5.696
 4441SOL     OW14221   6.668   2.343   0.782
 4441SOL    HW114222   6.714   2.432   0.777
 4441SOL    HW214223   6.570   2.355   0.763
 4442SOL     OW14224   1.832   4.822   1.088
 4442SOL    HW114225   1.748   4.780   1.122
 4442SOL    HW214226   1.810   4.895   1.023
 4443SOL     OW14227   0.523   5.624   6.060
 4443SOL    HW114228   0.601   5.665   6.015
 4443SOL    HW214229   0.456   5.695   6.083
 4444SOL     OW14230   5.900   5.200   0.608
 4444SOL    HW114231   5.918   5.218   0.704
 4444SOL    HW214232   5.969   5.246   0.552
 4445SOL     OW14233   1.902   4.157   0.222
 4445SOL    HW114234   1.855   4.158   0.134
 4445SOL    HW214235   1.836   4.140   0.295
 4446SOL     OW14236   4.581   1.688   2.090
 4446SOL    HW114237   4.490   1.663   2.125
 4446SOL    HW214238   4.574   1.773   2.038
 4447SOL     OW14239   4.033   5.509   5.577
 4447SOL    HW114240   3.998   5.518   5.484
 4447SOL    HW214241   3.963   5.468   5.636
 4448SOL     OW14242   3.411   6.437   2.120
 4448SOL    HW114243   3.389   6.447   2.217
 4448SOL    HW214244   3.461   6.351   2.106
 4449SOL     OW14245   3.892   1.786   5.763
 4449SOL    HW114246   3.992   1.793   5.757
 4449SOL    HW214247   3.858   1.729   5.688
 4450SOL     OW14248   2.272   6.434   0.321
 4450SOL    HW114249   2.267   6.397   0.414
 4450SOL    HW214250   2.181   6.460   0.291
 4451SOL     OW14251   4.658   5.456   3.373
 4451SOL    HW114252   4.633   5.519   3.299
 4451SOL    HW214253   4.755   5.432   3.364
 4452SOL     OW14254   5.024   5.106   3.800
 4452SOL    HW114255   4.996   5.174   3.868
 4452SOL    HW214256   4.948   5.044   3.782
 4453SOL     OW14257   0.117   4.507   0.963
 4453SOL    HW114258   0.106   4.549   0.873
 4453SOL    HW214259   0.085   4.413   0.960
 4454SOL     OW14260   1.381   1.964   0.478
 4454SOL    HW114261   1.311   2.035   0.470
 4454SOL    HW214262   1.426   1.972   0.567
 4455SOL     OW14263   1.755   0.298   4.346
 4455SOL    HW114264   1.656   0.297   4.334
 4455SOL    HW214265   1.790   0.390   4.326
 4456SOL     OW14266   2.028   6.145   4.075
 4456SOL    HW114267   2.060   6.099   3.993
 4456SOL    HW214268   1.931   6.167   4.065
 4457SOL     OW14269   0.857   1.794   4.098
 4457SOL    HW114270   0.815   1.873   4.143
 4457SOL    HW214271   0.789   1.721   4.090
 4458SOL     OW14272   1.327   3.180   6.366
 4458SOL    HW114273   1.245   3.126   6.349
 4458SOL    HW214274   1.300   3.269   6.403
 4459SOL     OW14275   0.918   3.610   2.963
 4459SOL    HW114276   1.010   3.623   3.000
 4459SOL    HW214277   0.921   3.542   2.890
 4460SOL     OW14278   0.056   2.703   4.774
 4460SOL    HW114279   7.003   2.741   4.825
 4460SOL    HW214280   0.138   2.756   4.794
 4461SOL     OW14281   2.513   1.037   1.085
 4461SOL    HW114282   2.453   1.105   1.044
 4461SOL    HW214283   2.480   0.945   1.062
 4462SOL     OW14284   6.435   4.209   2.378
 4462SOL    HW114285   6.444   4.272   2.455
 4462SOL    HW214286   6.415   4.117   2.412
 4463SOL     OW14287   5.491   1.593   0.091
 4463SOL    HW114288   5.475   1.688   0.119
 4463SOL    HW214289   5.587   1.569   0.105
 4464SOL     OW14290   0.422   3.436   1.478
 4464SOL    HW114291   0.459   3.516   1.525
 4464SOL    HW214292   0.486   3.407   1.408
 4465SOL     OW14293   4.020   5.374   2.160
 4465SOL    HW114294   3.945   5.371   2.094
 4465SOL    HW214295   4.008   5.452   2.221
 4466SOL     OW14296   0.676   3.037   2.224
 4466SOL    HW114297   0.641   3.018   2.132
 4466SOL    HW214298   0.599   3.056   2.285
 4467SOL     OW14299   5.470   4.868   2.129
 4467SOL    HW114300   5.441   4.798   2.064
 4467SOL    HW214301   5.542   4.924   2.089
 4468SOL     OW14302   1.704   2.778   1.245
 4468SOL    HW114303   1.669   2.855   1.297
 4468SOL    HW214304   1.669   2.693   1.284
 4469SOL     OW14305   2.182   5.807   1.450
 4469SOL    HW114306   2.133   5.881   1.403
 4469SOL    HW214307   2.206   5.736   1.383
 4470SOL     OW14308   0.665   0.093   2.691
 4470SOL    HW114309   0.700   0.160   2.626
 4470SOL    HW214310   0.741   0.056   2.745
 4471SOL     OW14311   0.766   0.599   6.497
 4471SOL    HW114312   0.756   0.537   6.419
 4471SOL    HW214313   0.802   0.549   6.576
 4472SOL     OW14314   1.659   2.769   0.971
 4472SOL    HW114315   1.700   2.779   1.062
 4472SOL    HW214316   1.732   2.772   0.902
 4473SOL     OW14317   0.285   2.868   4.809
 4473SOL    HW114318   0.359   2.814   4.849
 4473SOL    HW214319   0.303   2.965   4.823
 4474SOL     OW14320   2.092   6.147   0.772
 4474SOL    HW114321   2.094   6.088   0.852
 4474SOL    HW214322   2.151   6.110   0.700
 4475SOL     OW14323   0.668   3.524   0.190
 4475SOL    HW114324   0.760   3.556   0.214
 4475SOL    HW214325   0.602   3.562   0.254
 4476SOL     OW14326   5.200   1.444   3.548
 4476SOL    HW114327   5.176   1.427   3.643
 4476SOL    HW214328   5.136   1.509   3.508
 4477SOL     OW14329   0.121   1.041   4.369
 4477SOL    HW114330   0.177   0.966   4.405
 4477SOL    HW214331   0.071   1.009   4.289
 4478SOL     OW14332   1.785   0.744   1.969
 4478SOL    HW114333   1.879   0.721   1.941
 4478SOL    HW214334   1.788   0.816   2.038
 4479SOL     OW14335   2.166   2.635   6.586
 4479SOL    HW114336   2.068   2.620   6.598
 4479SOL    HW214337   2.184   2.733   6.574
 4480SOL     OW14338   0.197   6.697   3.686
 4480SOL    HW114339   0.198   6.793   3.661
 4480SOL    HW214340   0.121   6.651   3.638
 4481SOL     OW14341   1.935   3.554   5.985
 4481SOL    HW114342   1.950   3.494   5.906
 4481SOL    HW214343   1.864   3.622   5.962
 4482SOL     OW14344   2.259   0.549   1.408
 4482SOL    HW114345   2.241   0.628   1.349
 4482SOL    HW214346   2.331   0.573   1.474
 4483SOL     OW14347   1.301   3.803   0.549
 4483SOL    HW114348   1.374   3.748   0.588
 4483SOL    HW214349   1.262   3.862   0.620
 4484SOL     OW14350   3.071   0.657   6.866
 4484SOL    HW114351   3.152   0.603   6.890
 4484SOL    HW214352   3.021   0.681   6.949
 4485SOL     OW14353   0.157   3.528   4.889
 4485SOL    HW114354   0.251   3.560   4.895
 4485SOL    HW214355   0.099   3.586   4.947
 4486SOL     OW14356   5.092   4.468   3.858
 4486SOL    HW114357   5.051   4.516   3.935
 4486SOL    HW214358   5.099   4.370   3.879
 4487SOL     OW14359   0.263   3.219   6.482
 4487SOL    HW114360   0.166   3.197   6.499
 4487SOL    HW214361   0.306   3.141   6.437
 4488SOL     OW14362   0.017   3.869   3.255
 4488SOL    HW114363   0.018   3.783   3.306
 4488SOL    HW214364   6.947   3.893   3.232
 4489SOL     OW14365   3.336   5.774   6.412
 4489SOL    HW114366   3.366   5.869   6.401
 4489SOL    HW214367   3.303   5.760   6.505
 4490SOL     OW14368   5.899   1.680   1.929
 4490SOL    HW114369   5.895   1.603   1.993
 4490SOL    HW214370   5.814   1.682   1.875
 4491SOL     OW14371   0.972   4.131   2.891
 4491SOL    HW114372   1.000   4.041   2.925
 4491SOL    HW214373   0.973   4.197   2.967
 4492SOL     OW14374   6.537   1.388   2.550
 4492SOL    HW114375   6.520   1.418   2.456
 4492SOL    HW214376   6.585   1.461   2.600
 4493SOL     OW14377   5.278   1.932   5.623
 4493SOL    HW114378   5.233   1.843   5.626
 4493SOL    HW214379   5.376   1.920   5.639
 4494SOL     OW14380   1.675   0.891   2.272
 4494SOL    HW114381   1.747   0.917   2.336
 4494SOL    HW214382   1.589   0.933   2.299
 4495SOL     OW14383   4.317   6.403   0.823
 4495SOL    HW114384   4.282   6.472   0.887
 4495SOL    HW214385   4.256   6.397   0.744
 4496SOL     OW14386   2.400   6.276   6.334
 4496SOL    HW114387   2.418   6.202   6.398
 4496SOL    HW214388   2.413   6.242   6.240
 4497SOL     OW14389   4.260   0.361   5.710
 4497SOL    HW114390   4.196   0.427   5.750
 4497SOL    HW214391   4.349   0.370   5.755
 4498SOL     OW14392   0.938   5.202   4.498
 4498SOL    HW114393   0.867   5.251   4.548
 4498SOL    HW214394   0.985   5.138   4.560
 4499SOL     OW14395   6.301   0.719   2.285
 4499SOL    HW114396   6.231   0.663   2.329
 4499SOL    HW214397   6.365   0.661   2.236
 4500SOL     OW14398   3.314   6.699   0.106
 4500SOL    HW114399   3.386   6.768   0.104
 4500SOL    HW214400   3.315   6.647   0.021
 4501SOL     OW14401   6.259   0.221   2.347
 4501SOL    HW114402   6.327   0.291   2.325
 4501SOL    HW214403   6.299   0.130   2.335
 4502SOL     OW14404   1.413   4.357   6.779
 4502SOL    HW114405   1.424   4.292   6.854
 4502SOL    HW214406   1.502   4.373   6.736
 4503SOL     OW14407   3.962   1.705   2.617
 4503SOL    HW114408   3.988   1.621   2.665
 4503SOL    HW214409   3.920   1.680   2.529
 4504SOL     OW14410   1.423   2.376   3.908
 4504SOL    HW114411   1.360   2.399   3.982
 4504SOL    HW214412   1.399   2.286   3.872
 4505SOL     OW14413   6.256   3.086   3.396
 4505SOL    HW114414   6.200   3.003   3.387
 4505SOL    HW214415   6.233   3.131   3.482
 4506SOL     OW14416   3.955   3.686   0.202
 4506SOL    HW114417   3.972   3.607   0.144
 4506SOL    HW214418   4.034   3.748   0.198
 4507SOL     OW14419   5.976   2.272   3.046
 4507SOL    HW114420   5.927   2.296   3.130
 4507SOL    HW214421   5.936   2.322   2.969
 4508SOL     OW14422   6.337   5.072   0.887
 4508SOL    HW114423   6.269   5.040   0.822
 4508SOL    HW214424   6.292   5.104   0.970
 4509SOL     OW14425   5.541   1.852   2.040
 4509SOL    HW114426   5.592   1.774   2.005
 4509SOL    HW214427   5.447   1.824   2.060
 4510SOL     OW14428   5.068   1.491   4.590
 4510SOL    HW114429   5.121   1.406   4.598
 4510SOL    HW214430   4.972   1.469   4.575
 4511SOL     OW14431   6.904   4.507   6.714
 4511SOL    HW114432   6.848   4.572   6.765
 4511SOL    HW214433   6.939   4.551   6.630
 4512SOL     OW14434   3.031   3.316   5.598
 4512SOL    HW114435   3.052   3.223   5.630
 4512SOL    HW214436   3.063   3.383   5.664
 4513SOL     OW14437   0.046   0.371   0.698
 4513SOL    HW114438   0.048   0.378   0.798
 4513SOL    HW214439   0.124   0.421   0.660
 4514SOL     OW14440   4.834   4.774   6.728
 4514SOL    HW114441   4.828   4.724   6.642
 4514SOL    HW214442   4.921   4.822   6.734
 4515SOL     OW14443   4.237   0.395   6.154
 4515SOL    HW114444   4.225   0.303   6.118
 4515SOL    HW214445   4.300   0.446   6.095
 4516SOL     OW14446   3.484   2.174   5.670
 4516SOL    HW114447   3.574   2.185   5.626
 4516SOL    HW214448   3.413   2.192   5.603
 4517SOL     OW14449   3.960   0.474   4.646
 4517SOL    HW114450   3.991   0.387   4.685
 4517SOL    HW214451   3.872   0.499   4.688
 4518SOL     OW14452   0.203   6.917   0.596
 4518SOL    HW114453   0.186   6.915   0.694
 4518SOL    HW214454   0.117   6.919   0.546
 4519SOL     OW14455   4.921   6.938   6.726
 4519SOL    HW114456   5.021   6.939   6.725
 4519SOL    HW214457   4.890   6.860   6.781
 4520SOL     OW14458   4.676   4.886   5.630
 4520SOL    HW114459   4.707   4.943   5.554
 4520SOL    HW214460   4.605   4.934   5.681
 4521SOL     OW14461   4.585   2.354   4.286
 4521SOL    HW114462   4.605   2.275   4.228
 4521SOL    HW214463   4.651   2.427   4.266
 4522SOL     OW14464   6.156   3.443   3.482
 4522SOL    HW114465   6.097   3.411   3.408
 4522SOL    HW214466   6.159   3.543   3.481
 4523SOL     OW14467   6.885   3.599   6.561
 4523SOL    HW114468   6.969   3.584   6.614
 4523SOL    HW214469   6.843   3.685   6.588
 4524SOL     OW14470   1.802   3.668   2.004
 4524SOL    HW114471   1.901   3.679   2.012
 4524SOL    HW214472   1.760   3.684   2.093
 4525SOL     OW14473   3.765   1.987   5.903
 4525SOL    HW114474   3.794   1.904   5.855
 4525SOL    HW214475   3.840   2.054   5.901
 4526SOL     OW14476   1.748   0.068   5.298
 4526SOL    HW114477   1.827   0.097   5.244
 4526SOL    HW214478   1.712   0.147   5.348
 4527SOL     OW14479   0.270   1.884   2.723
 4527SOL    HW114480   0.240   1.822   2.796
 4527SOL    HW214481   0.277   1.833   2.637
 4528SOL     OW14482   5.060   0.751   4.610
 4528SOL    HW114483   5.043   0.789   4.519
 4528SOL    HW214484   5.121   0.812   4.661
 4529SOL     OW14485   2.157   2.097   4.226
 4529SOL    HW114486   2.115   2.016   4.184
 4529SOL    HW214487   2.197   2.154   4.155
 4530SOL     OW14488   3.788   5.078   6.662
 4530SOL    HW114489   3.812   5.132   6.581
 4530SOL    HW214490   3.774   4.983   6.636
 4531SOL     OW14491   2.148   6.774   5.265
 4531SOL    HW114492   2.050   6.786   5.249
 4531SOL    HW214493   2.198   6.854   5.232
 4532SOL     OW14494   6.377   1.239   2.182
 4532SOL    HW114495   6.454   1.303   2.188
 4532SOL    HW214496   6.382   1.175   2.258
 4533SOL     OW14497   2.958   6.432   1.454
 4533SOL    HW114498   3.011   6.474   1.381
 4533SOL    HW214499   2.863   6.462   1.448
 4534SOL     OW14500   6.068   1.420   4.392
 4534SOL    HW114501   6.078   1.512   4.430
 4534SOL    HW214502   6.157   1.374   4.391
 4535SOL     OW14503   1.427   0.644   6.933
 4535SOL    HW114504   1.517   0.663   6.972
 4535SOL    HW214505   1.396   0.554   6.963
 4536SOL     OW14506   3.713   1.267   5.632
 4536SOL    HW114507   3.644   1.304   5.570
 4536SOL    HW214508   3.720   1.326   5.712
 4537SOL     OW14509   3.380   3.498   3.013
 4537SOL    HW114510   3.359   3.441   2.933
 4537SOL    HW214511   3.312   3.571   3.021
 4538SOL     OW14512   1.036   2.281   0.334
 4538SOL    HW114513   1.082   2.209   0.282
 4538SOL    HW214514   0.940   2.287   0.307
 4539SOL     OW14515   1.022   5.440   4.713
 4539SOL    HW114516   1.092   5.385   4.667
 4539SOL    HW214517   1.053   5.462   4.806
 4540SOL     OW14518   1.575   1.602   0.515
 4540SOL    HW114519   1.517   1.619   0.596
 4540SOL    HW214520   1.620   1.514   0.525
 4541SOL     OW14521   4.057   3.495   0.053
 4541SOL    HW114522   4.157   3.491   0.054
 4541SOL    HW214523   4.019   3.403   0.044
 4542SOL     OW14524   0.527   1.703   6.798
 4542SOL    HW114525   0.486   1.782   6.753
 4542SOL    HW214526   0.550   1.634   6.729
 4543SOL     OW14527   4.695   1.509   0.754
 4543SOL    HW114528   4.795   1.512   0.751
 4543SOL    HW214529   4.660   1.478   0.666
 4544SOL     OW14530   4.328   6.224   0.608
 4544SOL    HW114531   4.295   6.310   0.571
 4544SOL    HW214532   4.417   6.239   0.651
 4545SOL     OW14533   2.681   2.891   5.719
 4545SOL    HW114534   2.636   2.970   5.678
 4545SOL    HW214535   2.649   2.879   5.813
 4546SOL     OW14536   4.212   6.976   6.302
 4546SOL    HW114537   4.161   0.000   6.373
 4546SOL    HW214538   4.172   6.885   6.288
 4547SOL     OW14539   0.375   0.652   0.320
 4547SOL    HW114540   0.318   0.587   0.270
 4547SOL    HW214541   0.425   0.604   0.392
 4548SOL     OW14542   3.810   1.053   2.198
 4548SOL    HW114543   3.715   1.060   2.227
 4548SOL    HW214544   3.824   0.965   2.151
 4549SOL     OW14545   6.460   3.645   4.259
 4549SOL    HW114546   6.394   3.571   4.249
 4549SOL    HW214547   6.456   3.704   4.179
 4550SOL     OW14548   2.260   5.770   5.725
 4550SOL    HW114549   2.329   5.816   5.780
 4550SOL    HW214550   2.180   5.830   5.716
 4551SOL     OW14551   3.122   2.439   6.053
 4551SOL    HW114552   3.165   2.408   6.138
 4551SOL    HW214553   3.153   2.381   5.977
 4552SOL     OW14554   5.022   0.737   0.031
 4552SOL    HW114555   4.935   0.751   0.078
 4552SOL    HW214556   5.070   0.824   0.023
 4553SOL     OW14557   7.017   6.351   0.421
 4553SOL    HW114558   6.951   6.384   0.488
 4553SOL    HW214559   0.086   6.374   0.452
 4554SOL     OW14560   5.985   6.638   3.488
 4554SOL    HW114561   5.887   6.623   3.473
 4554SOL    HW214562   6.028   6.667   3.402
 4555SOL     OW14563   0.700   0.472   1.982
 4555SOL    HW114564   0.664   0.468   1.888
 4555SOL    HW214565   0.724   0.380   2.012
 4556SOL     OW14566   5.533   4.523   4.305
 4556SOL    HW114567   5.589   4.514   4.387
 4556SOL    HW214568   5.438   4.498   4.326
 4557SOL     OW14569   6.467   4.828   4.323
 4557SOL    HW114570   6.396   4.757   4.321
 4557SOL    HW214571   6.498   4.841   4.417
 4558SOL     OW14572   1.003   4.229   4.566
 4558SOL    HW114573   0.938   4.157   4.591
 4558SOL    HW214574   1.092   4.188   4.546
 4559SOL     OW14575   0.149   2.474   4.142
 4559SOL    HW114576   0.134   2.571   4.163
 4559SOL    HW214577   0.068   2.438   4.096
 4560SOL     OW14578   6.212   4.467   3.280
 4560SOL    HW114579   6.303   4.425   3.284
 4560SOL    HW214580   6.206   4.526   3.199
 4561SOL     OW14581   4.511   2.539   4.457
 4561SOL    HW114582   4.528   2.450   4.415
 4561SOL    HW214583   4.590   2.598   4.443
 4562SOL     OW14584   4.087   1.160   0.642
 4562SOL    HW114585   4.103   1.062   0.652
 4562SOL    HW214586   4.140   1.210   0.711
 4563SOL     OW14587   1.025   4.216   1.641
 4563SOL    HW114588   1.007   4.313   1.631
 4563SOL    HW214589   1.087   4.201   1.718
 4564SOL     OW14590   1.897   4.308   2.802
 4564SOL    HW114591   1.946   4.263   2.877
 4564SOL    HW214592   1.936   4.398   2.786
 4565SOL     OW14593   2.011   0.398   5.485
 4565SOL    HW114594   2.007   0.300   5.467
 4565SOL    HW214595   2.086   0.439   5.433
 4566SOL     OW14596   0.308   4.471   2.896
 4566SOL    HW114597   0.345   4.563   2.897
 4566SOL    HW214598   0.219   4.470   2.943
 4567SOL     OW14599   6.973   0.027   6.943
 4567SOL    HW114600   6.912   0.090   6.895
 4567SOL    HW214601   6.984   0.058   0.014
 4568SOL     OW14602   1.037   4.933   3.673
 4568SOL    HW114603   1.032   5.020   3.623
 4568SOL    HW214604   0.951   4.919   3.723
 4569SOL     OW14605   1.491   2.050   3.127
 4569SOL    HW114606   1.418   2.111   3.098
 4569SOL    HW214607   1.486   2.036   3.226
 4570SOL     OW14608   4.993   5.302   1.091
 4570SOL    HW114609   5.030   5.388   1.127
 4570SOL    HW214610   4.997   5.232   1.162
 4571SOL     OW14611   1.886   4.351   5.576
 4571SOL    HW114612   1.981   4.356   5.546
 4571SOL    HW214613   1.853   4.257   5.564
 4572SOL     OW14614   4.326   3.161   1.753
 4572SOL    HW114615   4.280   3.107   1.683
 4572SOL    HW214616   4.405   3.111   1.787
 4573SOL     OW14617   2.182   4.949   0.724
 4573SOL    HW114618   2.187   4.959   0.624
 4573SOL    HW214619   2.087   4.951   0.754
 4574SOL     OW14620   4.964   0.532   1.887
 4574SOL    HW114621   4.960   0.630   1.864
 4574SOL    HW214622   5.054   0.496   1.862
 4575SOL     OW14623   6.480   1.138   5.354
 4575SOL    HW114624   6.432   1.125   5.440
 4575SOL    HW214625   6.418   1.124   5.278
 4576SOL     OW14626   3.544   3.846   6.849
 4576SOL    HW114627   3.541   3.909   6.927
 4576SOL    HW214628   3.456   3.801   6.840
 4577SOL     OW14629   0.840   1.908   2.056
 4577SOL    HW114630   0.785   1.847   1.999
 4577SOL    HW214631   0.788   1.991   2.076
 4578SOL     OW14632   1.952   0.859   3.343
 4578SOL    HW114633   1.995   0.782   3.296
 4578SOL    HW214634   1.898   0.912   3.277
 4579SOL     OW14635   4.591   1.083   3.581
 4579SOL    HW114636   4.610   1.129   3.495
 4579SOL    HW214637   4.667   1.097   3.644
 4580SOL     OW14638   1.199   1.221   1.440
 4580SOL    HW114639   1.239   1.256   1.524
 4580SOL    HW214640   1.159   1.130   1.456
 4581SOL     OW14641   2.774   0.435   0.945
 4581SOL    HW114642   2.703   0.368   0.925
 4581SOL    HW214643   2.776   0.503   0.872
 4582SOL     OW14644   6.722   0.988   3.423
 4582SOL    HW114645   6.815   0.979   3.387
 4582SOL    HW214646   6.681   1.072   3.387
 4583SOL     OW14647   1.733   6.906   6.911
 4583SOL    HW114648   1.706   7.000   6.934
 4583SOL    HW214649   1.831   6.903   6.892
 4584SOL     OW14650   0.252   1.795   3.914
 4584SOL    HW114651   0.199   1.726   3.964
 4584SOL    HW214652   0.342   1.804   3.955
 4585SOL     OW14653   1.592   2.830   2.885
 4585SOL    HW114654   1.642   2.744   2.883
 4585SOL    HW214655   1.652   2.903   2.917
 4586SOL     OW14656   6.622   5.117   5.453
 4586SOL    HW114657   6.587   5.210   5.447
 4586SOL    HW214658   6.546   5.053   5.465
 4587SOL     OW14659   4.526   4.176   6.064
 4587SOL    HW114660   4.505   4.100   6.126
 4587SOL    HW214661   4.610   4.156   6.014
 4588SOL     OW14662   3.137   4.088   6.428
 4588SOL    HW114663   3.041   4.084   6.454
 4588SOL    HW214664   3.194   4.060   6.505
 4589SOL     OW14665   5.533   6.405   2.431
 4589SOL    HW114666   5.467   6.331   2.418
 4589SOL    HW214667   5.486   6.493   2.421
 4590SOL     OW14668   2.681   5.540   1.047
 4590SOL    HW114669   2.614   5.593   0.995
 4590SOL    HW214670   2.674   5.564   1.144
 4591SOL     OW14671   2.319   0.788   4.899
 4591SOL    HW114672   2.304   0.815   4.804
 4591SOL    HW214673   2.342   0.691   4.903
 4592SOL     OW14674   2.957   1.949   3.960
 4592SOL    HW114675   2.983   1.880   4.028
 4592SOL    HW214676   3.022   2.025   3.963
 4593SOL     OW14677   1.283   5.859   4.192
 4593SOL    HW114678   1.279   5.776   4.248
 4593SOL    HW214679   1.362   5.914   4.218
 4594SOL     OW14680   2.061   6.407   4.158
 4594SOL    HW114681   2.124   6.405   4.236
 4594SOL    HW214682   2.055   6.315   4.118
 4595SOL     OW14683   5.711   2.028   6.441
 4595SOL    HW114684   5.802   2.007   6.406
 4595SOL    HW214685   5.696   1.977   6.526
 4596SOL     OW14686   1.375   1.576   2.219
 4596SOL    HW114687   1.452   1.513   2.229
 4596SOL    HW214688   1.289   1.528   2.236
 4597SOL     OW14689   2.266   6.065   0.565
 4597SOL    HW114690   2.209   6.022   0.496
 4597SOL    HW214691   2.363   6.050   0.543
 4598SOL     OW14692   0.731   3.273   0.131
 4598SOL    HW114693   0.721   3.245   0.035
 4598SOL    HW214694   0.703   3.369   0.140
 4599SOL     OW14695   3.320   6.534   2.740
 4599SOL    HW114696   3.297   6.437   2.732
 4599SOL    HW214697   3.395   6.546   2.805
 4600SOL     OW14698   6.951   6.242   6.424
 4600SOL    HW114699   0.007   6.281   6.379
 4600SOL    HW214700   6.979   6.167   6.483
 4601SOL     OW14701   1.650   0.645   5.759
 4601SOL    HW114702   1.584   0.688   5.821
 4601SOL    HW214703   1.602   0.583   5.697
 4602SOL     OW14704   3.945   1.446   6.580
 4602SOL    HW114705   4.008   1.511   6.624
 4602SOL    HW214706   3.905   1.488   6.498
 4603SOL     OW14707   4.206   6.778   1.187
 4603SOL    HW114708   4.117   6.766   1.232
 4603SOL    HW214709   4.211   6.870   1.148
 4604SOL     OW14710   0.782   0.389   3.792
 4604SOL    HW114711   0.780   0.489   3.792
 4604SOL    HW214712   0.712   0.354   3.855
 4605SOL     OW14713   4.452   0.965   1.496
 4605SOL    HW114714   4.524   1.034   1.504
 4605SOL    HW214715   4.489   0.876   1.519
 4606SOL     OW14716   6.750   6.744   4.996
 4606SOL    HW114717   6.838   6.753   5.043
 4606SOL    HW214718   6.678   6.785   5.051
 4607SOL     OW14719   2.748   1.865   1.096
 4607SOL    HW114720   2.717   1.941   1.154
 4607SOL    HW214721   2.689   1.859   1.015
 4608SOL     OW14722   6.968   2.776   5.015
 4608SOL    HW114723   6.983   2.838   5.092
 4608SOL    HW214724   6.998   2.684   5.040
 4609SOL     OW14725   5.514   5.112   6.439
 4609SOL    HW114726   5.528   5.102   6.537
 4609SOL    HW214727   5.507   5.209   6.416
 4610SOL     OW14728   5.290   5.009   6.961
 4610SOL    HW114729   5.303   5.107   6.947
 4610SOL    HW214730   5.323   4.983   0.028
 4611SOL     OW14731   6.985   1.217   6.859
 4611SOL    HW114732   0.001   1.161   6.786
 4611SOL    HW214733   6.957   1.305   6.821
 4612SOL     OW14734   2.668   0.846   3.140
 4612SOL    HW114735   2.751   0.850   3.084
 4612SOL    HW214736   2.632   0.753   3.141
 4613SOL     OW14737   1.544   5.738   2.070
 4613SOL    HW114738   1.598   5.699   1.995
 4613SOL    HW214739   1.584   5.825   2.098
 4614SOL     OW14740   0.308   4.728   3.007
 4614SOL    HW114741   0.218   4.759   2.976
 4614SOL    HW214742   0.315   4.739   3.106
 4615SOL     OW14743   1.654   4.404   6.654
 4615SOL    HW114744   1.717   4.392   6.577
 4615SOL    HW214745   1.703   4.440   6.733
 4616SOL     OW14746   1.217   4.201   6.513
 4616SOL    HW114747   1.218   4.112   6.560
 4616SOL    HW214748   1.221   4.274   6.581
 4617SOL     OW14749   0.037   3.371   3.532
 4617SOL    HW114750   0.023   3.276   3.562
 4617SOL    HW214751   6.975   3.421   3.543
 4618SOL     OW14752   2.164   4.071   5.552
 4618SOL    HW114753   2.160   3.993   5.489
 4618SOL    HW214754   2.228   4.051   5.626
 4619SOL     OW14755   4.596   5.988   6.298
 4619SOL    HW114756   4.498   5.988   6.281
 4619SOL    HW214757   4.645   5.959   6.216
 4620SOL     OW14758   1.132   4.611   1.529
 4620SOL    HW114759   1.172   4.529   1.488
 4620SOL    HW214760   1.183   4.692   1.498
 4621SOL     OW14761   3.291   0.094   2.849
 4621SOL    HW114762   3.275   0.024   2.780
 4621SOL    HW214763   3.358   0.061   2.916
 4622SOL     OW14764   5.168   0.004   0.667
 4622SOL    HW114765   5.235   6.964   0.630
 4622SOL    HW214766   5.183   0.095   0.627
 4623SOL     OW14767   3.093   4.854   2.813
 4623SOL    HW114768   3.171   4.814   2.861
 4623SOL    HW214769   3.022   4.877   2.879
 4624SOL     OW14770   5.042   1.771   1.408
 4624SOL    HW114771   5.076   1.864   1.401
 4624SOL    HW214772   5.031   1.747   1.505
 4625SOL     OW14773   1.448   6.453   1.555
 4625SOL    HW114774   1.424   6.516   1.481
 4625SOL    HW214775   1.410   6.486   1.641
 4626SOL     OW14776   4.105   3.213   1.955
 4626SOL    HW114777   4.063   3.127   1.924
 4626SOL    HW214778   4.164   3.249   1.883
 4627SOL     OW14779   6.004   0.230   5.195
 4627SOL    HW114780   6.100   0.204   5.201
 4627SOL    HW214781   5.992   0.322   5.233
 4628SOL     OW14782   6.439   4.885   2.842
 4628SOL    HW114783   6.500   4.831   2.901
 4628SOL    HW214784   6.352   4.899   2.888
 4629SOL     OW14785   1.670   5.620   0.726
 4629SOL    HW114786   1.663   5.573   0.814
 4629SOL    HW214787   1.612   5.575   0.659
 4630SOL     OW14788   1.835   3.755   1.506
 4630SOL    HW114789   1.777   3.677   1.481
 4630SOL    HW214790   1.864   3.803   1.423
 4631SOL     OW14791   6.421   1.129   2.629
 4631SOL    HW114792   6.394   1.130   2.725
 4631SOL    HW214793   6.443   1.223   2.600
 4632SOL     OW14794   2.748   4.706   3.620
 4632SOL    HW114795   2.658   4.705   3.664
 4632SOL    HW214796   2.817   4.731   3.687
 4633SOL     OW14797   5.330   2.598   4.017
 4633SOL    HW114798   5.424   2.566   4.026
 4633SOL    HW214799   5.315   2.636   3.926
 4634SOL     OW14800   3.780   3.021   4.517
 4634SOL    HW114801   3.786   3.120   4.506
 4634SOL    HW214802   3.706   2.986   4.458
 4635SOL     OW14803   4.434   6.386   2.433
 4635SOL    HW114804   4.380   6.325   2.374
 4635SOL    HW214805   4.500   6.332   2.485
 4636SOL     OW14806   1.443   6.354   6.237
 4636SOL    HW114807   1.405   6.262   6.225
 4636SOL    HW214808   1.369   6.421   6.236
 4637SOL     OW14809   2.023   2.314   3.108
 4637SOL    HW114810   2.029   2.312   3.008
 4637SOL    HW214811   2.062   2.399   3.142
 4638SOL     OW14812   3.863   4.867   0.615
 4638SOL    HW114813   3.939   4.817   0.573
 4638SOL    HW214814   3.791   4.804   0.643
 4639SOL     OW14815   3.844   2.146   2.225
 4639SOL    HW114816   3.781   2.192   2.161
 4639SOL    HW214817   3.791   2.096   2.293
 4640SOL     OW14818   6.361   2.807   1.096
 4640SOL    HW114819   6.294   2.750   1.143
 4640SOL    HW214820   6.313   2.870   1.034
 4641SOL     OW14821   1.440   5.881   4.496
 4641SOL    HW114822   1.400   5.794   4.525
 4641SOL    HW214823   1.454   5.939   4.576
 4642SOL     OW14824   5.902   1.231   5.720
 4642SOL    HW114825   5.866   1.318   5.686
 4642SOL    HW214826   6.002   1.229   5.709
 4643SOL     OW14827   0.746   1.633   0.448
 4643SOL    HW114828   0.772   1.670   0.359
 4643SOL    HW214829   0.663   1.579   0.439
 4644SOL     OW14830   1.108   0.726   0.822
 4644SOL    HW114831   1.012   0.725   0.850
 4644SOL    HW214832   1.153   0.805   0.862
 4645SOL     OW14833   6.179   2.333   4.756
 4645SOL    HW114834   6.194   2.344   4.854
 4645SOL    HW214835   6.159   2.237   4.736
 4646SOL     OW14836   1.827   3.775   2.470
 4646SOL    HW114837   1.821   3.871   2.439
 4646SOL    HW214838   1.779   3.716   2.405
 4647SOL     OW14839   2.071   6.867   1.899
 4647SOL    HW114840   2.043   6.786   1.949
 4647SOL    HW214841   2.161   6.897   1.929
 4648SOL     OW14842   2.997   1.092   4.508
 4648SOL    HW114843   3.060   1.025   4.548
 4648SOL    HW214844   3.033   1.125   4.421
 4649SOL     OW14845   5.583   1.892   0.649
 4649SOL    HW114846   5.519   1.929   0.716
 4649SOL    HW214847   5.648   1.831   0.696
 4650SOL     OW14848   4.288   5.464   0.931
 4650SOL    HW114849   4.249   5.379   0.894
 4650SOL    HW214850   4.346   5.443   1.010
 4651SOL     OW14851   0.712   4.058   6.632
 4651SOL    HW114852   0.743   4.082   6.540
 4651SOL    HW214853   0.615   4.080   6.641
 4652SOL     OW14854   6.848   0.125   5.207
 4652SOL    HW114855   6.824   0.075   5.290
 4652SOL    HW214856   6.937   0.093   5.173
 4653SOL     OW14857   6.834   5.858   0.759
 4653SOL    HW114858   6.876   5.934   0.710
 4653SOL    HW214859   6.757   5.891   0.813
 4654SOL     OW14860   0.792   1.071   5.756
 4654SOL    HW114861   0.828   1.003   5.821
 4654SOL    HW214862   0.840   1.157   5.769
 4655SOL     OW14863   4.909   3.697   2.698
 4655SOL    HW114864   4.861   3.730   2.617
 4655SOL    HW214865   4.937   3.602   2.684
 4656SOL     OW14866   5.755   1.038   1.789
 4656SOL    HW114867   5.832   1.100   1.774
 4656SOL    HW214868   5.686   1.053   1.718
 4657SOL     OW14869   3.607   1.285   2.757
 4657SOL    HW114870   3.674   1.218   2.790
 4657SOL    HW214871   3.654   1.355   2.704
 4658SOL     OW14872   1.110   2.057   6.294
 4658SOL    HW114873   1.053   2.139   6.296
 4658SOL    HW214874   1.171   2.058   6.373
 4659SOL     OW14875   2.219   4.251   0.749
 4659SOL    HW114876   2.186   4.200   0.670
 4659SOL    HW214877   2.165   4.334   0.760
 4660SOL     OW14878   0.125   4.904   4.209
 4660SOL    HW114879   0.068   4.866   4.136
 4660SOL    HW214880   0.095   4.867   4.297
 4661SOL     OW14881   0.724   1.567   5.613
 4661SOL    HW114882   0.701   1.520   5.528
 4661SOL    HW214883   0.823   1.577   5.619
 4662SOL     OW14884   2.781   0.453   5.763
 4662SOL    HW114885   2.751   0.365   5.726
 4662SOL    HW214886   2.877   0.446   5.790
 4663SOL     OW14887   0.741   0.151   0.330
 4663SOL    HW114888   0.725   0.054   0.348
 4663SOL    HW214889   0.703   0.205   0.405
 4664SOL     OW14890   6.119   6.374   6.210
 4664SOL    HW114891   6.082   6.431   6.283
 4664SOL    HW214892   6.208   6.337   6.238
 4665SOL     OW14893   7.015   0.418   2.967
 4665SOL    HW114894   0.086   0.406   2.997
 4665SOL    HW214895   6.967   0.479   3.030
 4666SOL     OW14896   1.611   2.841   5.916
 4666SOL    HW114897   1.579   2.780   5.844
 4666SOL    HW214898   1.572   2.812   6.004
 4667SOL     OW14899   6.277   2.958   0.891
 4667SOL    HW114900   6.212   3.030   0.918
 4667SOL    HW214901   6.326   2.987   0.809
 4668SOL     OW14902   4.670   1.747   4.942
 4668SOL    HW114903   4.638   1.842   4.939
 4668SOL    HW214904   4.770   1.746   4.938
 4669SOL     OW14905   5.258   7.013   6.186
 4669SOL    HW114906   5.221   6.952   6.115
 4669SOL    HW214907   5.349   0.020   6.159
 4670SOL     OW14908   0.227   3.653   6.420
 4670SOL    HW114909   0.212   3.687   6.513
 4670SOL    HW214910   0.146   3.673   6.364
 4671SOL     OW14911   6.961   2.787   2.149
 4671SOL    HW114912   6.976   2.790   2.050
 4671SOL    HW214913   0.020   2.757   2.195
 4672SOL     OW14914   2.697   3.684   6.792
 4672SOL    HW114915   2.600   3.676   6.768
 4672SOL    HW214916   2.706   3.709   6.888
 4673SOL     OW14917   5.737   0.773   1.028
 4673SOL    HW114918   5.706   0.737   0.940
 4673SOL    HW214919   5.778   0.863   1.014
 4674SOL     OW14920   0.841   2.905   0.675
 4674SOL    HW114921   0.880   2.857   0.754
 4674SOL    HW214922   0.810   2.839   0.608
 4675SOL     OW14923   1.755   6.071   6.376
 4675SOL    HW114924   1.673   6.068   6.318
 4675SOL    HW214925   1.830   6.112   6.324
 4676SOL     OW14926   0.644   5.764   4.608
 4676SOL    HW114927   0.719   5.727   4.555
 4676SOL    HW214928   0.557   5.737   4.566
 4677SOL     OW14929   3.874   6.735   0.095
 4677SOL    HW114930   3.831   6.823   0.114
 4677SOL    HW214931   3.933   6.710   0.171
 4678SOL     OW14932   2.490   4.592   6.978
 4678SOL    HW114933   2.496   4.492   6.982
 4678SOL    HW214934   2.445   4.626   0.037
 4679SOL     OW14935   2.510   6.504   5.204
 4679SOL    HW114936   2.508   6.602   5.225
 4679SOL    HW214937   2.537   6.453   5.287
 4680SOL     OW14938   0.622   4.951   0.405
 4680SOL    HW114939   0.659   5.002   0.327
 4680SOL    HW214940   0.687   4.954   0.481
 4681SOL     OW14941   6.543   5.876   4.741
 4681SOL    HW114942   6.637   5.903   4.763
 4681SOL    HW214943   6.530   5.780   4.763
 4682SOL     OW14944   2.589   7.014   0.471
 4682SOL    HW114945   2.684   7.020   0.501
 4682SOL    HW214946   2.535   6.963   0.538
 4683SOL     OW14947   0.687   4.888   3.296
 4683SOL    HW114948   0.683   4.966   3.358
 4683SOL    HW214949   0.683   4.803   3.348
 4684SOL     OW14950   1.475   1.157   4.982
 4684SOL    HW114951   1.557   1.102   4.966
 4684SOL    HW214952   1.398   1.097   5.000
 4685SOL     OW14953   5.135   4.676   4.817
 4685SOL    HW114954   5.065   4.675   4.888
 4685SOL    HW214955   5.185   4.763   4.821
 4686SOL     OW14956   4.616   5.939   0.119
 4686SOL    HW114957   4.572   5.979   0.038
 4686SOL    HW214958   4.663   6.010   0.170
 4687SOL     OW14959   4.935   6.629   4.508
 4687SOL    HW114960   4.897   6.674   4.589
 4687SOL    HW214961   4.932   6.693   4.431
 4688SOL     OW14962   0.151   1.946   0.462
 4688SOL    HW114963   0.217   1.880   0.429
 4688SOL    HW214964   0.135   2.016   0.392
 4689SOL     OW14965   1.585   5.083   4.709
 4689SOL    HW114966   1.525   5.159   4.733
 4689SOL    HW214967   1.542   5.028   4.637
 4690SOL     OW14968   1.953   1.614   0.842
 4690SOL    HW114969   1.957   1.590   0.745
 4690SOL    HW214970   1.876   1.567   0.884
 4691SOL     OW14971   3.537   4.440   0.260
 4691SOL    HW114972   3.510   4.424   0.355
 4691SOL    HW214973   3.636   4.453   0.256
 4692SOL     OW14974   0.691   5.946   3.526
 4692SOL    HW114975   0.663   5.903   3.611
 4692SOL    HW214976   0.698   6.045   3.539
 4693SOL     OW14977   0.724   0.671   2.523
 4693SOL    HW114978   0.651   0.603   2.532
 4693SOL    HW214979   0.783   0.667   2.603
 4694SOL     OW14980   1.087   0.760   5.681
 4694SOL    HW114981   1.058   0.674   5.638
 4694SOL    HW214982   1.111   0.743   5.777
 4695SOL     OW14983   3.049   3.099   2.508
 4695SOL    HW114984   3.004   3.183   2.477
 4695SOL    HW214985   3.017   3.076   2.600
 4696SOL     OW14986   6.223   3.349   0.632
 4696SOL    HW114987   6.239   3.414   0.707
 4696SOL    HW214988   6.134   3.305   0.644
 4697SOL     OW14989   0.901   5.863   6.682
 4697SOL    HW114990   0.964   5.786   6.685
 4697SOL    HW214991   0.951   5.947   6.661
 4698SOL     OW14992   6.152   3.026   2.341
 4698SOL    HW114993   6.173   3.080   2.422
 4698SOL    HW214994   6.063   2.982   2.352
 4699SOL     OW14995   7.018   6.345   3.147
 4699SOL    HW114996   6.949   6.289   3.192
 4699SOL    HW214997   0.004   6.432   3.195
 4700SOL     OW14998   5.152   6.690   7.003
 4700SOL    HW114999   5.214   6.762   0.013
 4700SOL    HW215000   5.140   6.620   0.049
 4701SOL     OW15001   0.876   0.563   6.955
 4701SOL    HW115002   0.947   0.603   6.897
 4701SOL    HW215003   0.790   0.613   6.943
 4702SOL     OW15004   2.447   3.615   0.247
 4702SOL    HW115005   2.419   3.521   0.265
 4702SOL    HW215006   2.486   3.654   0.330
 4703SOL     OW15007   0.643   0.678   2.167
 4703SOL    HW115008   0.706   0.756   2.163
 4703SOL    HW215009   0.688   0.597   2.129
 4704SOL     OW15010   4.682   0.073   6.901
 4704SOL    HW115011   4.753   0.025   6.953
 4704SOL    HW215012   4.683   0.170   6.925
 4705SOL     OW15013   3.915   4.052   4.548
 4705SOL    HW115014   3.822   4.087   4.552
 4705SOL    HW215015   3.966   4.081   4.629
 4706SOL     OW15016   5.173   4.644   0.226
 4706SOL    HW115017   5.128   4.556   0.238
 4706SOL    HW215018   5.166   4.673   0.131
 4707SOL     OW15019   3.018   5.295   1.126
 4707SOL    HW115020   3.074   5.311   1.045
 4707SOL    HW215021   2.921   5.304   1.103
 4708SOL     OW15022   1.799   3.179   2.560
 4708SOL    HW115023   1.815   3.088   2.520
 4708SOL    HW215024   1.812   3.249   2.490
 4709SOL     OW15025   2.409   4.519   0.642
 4709SOL    HW115026   2.429   4.424   0.665
 4709SOL    HW215027   2.422   4.576   0.723
 4710SOL     OW15028   5.344   3.161   1.405
 4710SOL    HW115029   5.294   3.190   1.324
 4710SOL    HW215030   5.317   3.217   1.483
 4711SOL     OW15031   2.992   6.926   3.327
 4711SOL    HW115032   3.045   6.975   3.258
 4711SOL    HW215033   2.940   6.992   3.381
 4712SOL     OW15034   1.978   4.329   6.779
 4712SOL    HW115035   1.931   4.259   6.832
 4712SOL    HW215036   2.020   4.288   6.698
 4713SOL     OW15037   1.938   5.710   0.671
 4713SOL    HW115038   1.954   5.808   0.676
 4713SOL    HW215039   1.840   5.692   0.681
 4714SOL     OW15040   3.837   2.411   1.204
 4714SOL    HW115041   3.759   2.361   1.167
 4714SOL    HW215042   3.810   2.458   1.288
 4715SOL     OW15043   4.913   3.738   4.794
 4715SOL    HW115044   4.943   3.829   4.823
 4715SOL    HW215045   4.870   3.691   4.871
 4716SOL     OW15046   2.702   5.205   0.174
 4716SOL    HW115047   2.787   5.170   0.132
 4716SOL    HW215048   2.659   5.270   0.112
 4717SOL     OW15049   2.401   5.163   4.138
 4717SOL    HW115050   2.358   5.191   4.224
 4717SOL    HW215051   2.345   5.092   4.095
 4718SOL     OW15052   5.460   0.854   6.935
 4718SOL    HW115053   5.385   0.795   6.906
 4718SOL    HW215054   5.471   0.930   6.871
 4719SOL     OW15055   4.607   2.787   1.515
 4719SOL    HW115056   4.597   2.692   1.485
 4719SOL    HW215057   4.535   2.843   1.472
 4720SOL     OW15058   3.013   1.079   3.554
 4720SOL    HW115059   3.101   1.040   3.525
 4720SOL    HW215060   3.024   1.178   3.567
 4721SOL     OW15061   1.588   1.605   1.246
 4721SOL    HW115062   1.647   1.685   1.263
 4721SOL    HW215063   1.498   1.636   1.216
 4722SOL     OW15064   3.405   0.514   2.762
 4722SOL    HW115065   3.478   0.520   2.694
 4722SOL    HW215066   3.432   0.450   2.834
 4723SOL     OW15067   3.152   0.179   5.177
 4723SOL    HW115068   3.102   0.149   5.258
 4723SOL    HW215069   3.220   0.110   5.152
 4724SOL     OW15070   4.818   4.739   1.452
 4724SOL    HW115071   4.860   4.703   1.535
 4724SOL    HW215072   4.790   4.663   1.393
 4725SOL     OW15073   6.088   5.472   2.563
 4725SOL    HW115074   5.997   5.456   2.524
 4725SOL    HW215075   6.124   5.559   2.529
 4726SOL     OW15076   6.939   6.553   4.862
 4726SOL    HW115077   6.931   6.576   4.765
 4726SOL    HW215078   6.872   6.606   4.915
 4727SOL     OW15079   6.377   6.420   0.938
 4727SOL    HW115080   6.470   6.408   0.904
 4727SOL    HW215081   6.329   6.487   0.880
 4728SOL     OW15082   6.689   0.817   6.916
 4728SOL    HW115083   6.590   0.830   6.917
 4728SOL    HW215084   6.724   0.816   7.010
 4729SOL     OW15085   2.872   0.951   0.605
 4729SOL    HW115086   2.852   0.977   0.511
 4729SOL    HW215087   2.815   1.004   0.667
 4730SOL     OW15088   1.859   0.492   5.704
 4730SOL    HW115089   1.799   0.571   5.716
 4730SOL    HW215090   1.885   0.485   5.607
 4731SOL     OW15091   4.830   1.947   6.803
 4731SOL    HW115092   4.882   1.871   6.841
 4731SOL    HW215093   4.732   1.927   6.808
 4732SOL     OW15094   0.397   1.145   0.005
 4732SOL    HW115095   0.386   1.186   0.095
 4732SOL    HW215096   0.396   1.217   6.959
 4733SOL     OW15097   6.830   3.494   3.599
 4733SOL    HW115098   6.740   3.492   3.557
 4733SOL    HW215099   6.831   3.434   3.679
 4734SOL     OW15100   5.539   4.496   5.721
 4734SOL    HW115101   5.473   4.429   5.754
 4734SOL    HW215102   5.587   4.536   5.799
 4735SOL     OW15103   0.421   4.066   3.940
 4735SOL    HW115104   0.338   4.073   3.885
 4735SOL    HW215105   0.483   3.999   3.900
 4736SOL     OW15106   2.050   0.313   1.421
 4736SOL    HW115107   1.979   0.383   1.419
 4736SOL    HW215108   2.137   0.353   1.391
 4737SOL     OW15109   3.386   5.097   1.819
 4737SOL    HW115110   3.311   5.121   1.880
 4737SOL    HW215111   3.364   5.125   1.726
 4738SOL     OW15112   0.297   6.265   2.549
 4738SOL    HW115113   0.216   6.218   2.516
 4738SOL    HW215114   0.379   6.219   2.514
 4739SOL     OW15115   4.376   6.922   1.507
 4739SOL    HW115116   4.429   6.887   1.584
 4739SOL    HW215117   4.316   6.849   1.473
 4740SOL     OW15118   0.297   2.202   3.965
 4740SOL    HW115119   0.210   2.205   3.917
 4740SOL    HW215120   0.362   2.264   3.920
 4741SOL     OW15121   3.766   3.664   1.808
 4741SOL    HW115122   3.765   3.593   1.879
 4741SOL    HW215123   3.849   3.655   1.752
 4742SOL     OW15124   4.390   0.902   0.844
 4742SOL    HW115125   4.470   0.937   0.795
 4742SOL    HW215126   4.317   0.884   0.779
 4743SOL     OW15127   1.549   6.210   1.138
 4743SOL    HW115128   1.474   6.147   1.155
 4743SOL    HW215129   1.636   6.162   1.151
 4744SOL     OW15130   1.835   5.891   1.506
 4744SOL    HW115131   1.773   5.945   1.563
 4744SOL    HW215132   1.929   5.900   1.541
 4745SOL     OW15133   1.750   3.493   0.296
 4745SOL    HW115134   1.767   3.403   0.257
 4745SOL    HW215135   1.686   3.485   0.372
 4746SOL     OW15136   5.053   5.596   4.173
 4746SOL    HW115137   5.106   5.568   4.093
 4746SOL    HW215138   5.019   5.690   4.160
 4747SOL     OW15139   3.312   0.520   6.906
 4747SOL    HW115140   3.277   0.427   6.904
 4747SOL    HW215141   3.406   0.520   6.942
 4748SOL     OW15142   1.972   0.345   2.278
 4748SOL    HW115143   2.000   0.415   2.344
 4748SOL    HW215144   1.924   0.271   2.325
 4749SOL     OW15145   2.079   1.505   1.082
 4749SOL    HW115146   2.026   1.519   0.998
 4749SOL    HW215147   2.176   1.513   1.061
 4750SOL     OW15148   4.321   3.302   6.150
 4750SOL    HW115149   4.227   3.307   6.116
 4750SOL    HW215150   4.380   3.261   6.081
 4751SOL     OW15151   4.343   1.148   2.536
 4751SOL    HW115152   4.307   1.111   2.451
 4751SOL    HW215153   4.415   1.087   2.571
 4752SOL     OW15154   5.901   1.620   7.005
 4752SOL    HW115155   5.824   1.681   0.000
 4752SOL    HW215156   5.900   1.543   0.046
 4753SOL     OW15157   2.286   6.233   5.355
 4753SOL    HW115158   2.320   6.231   5.261
 4753SOL    HW215159   2.284   6.140   5.391
 4754SOL     OW15160   5.210   4.339   0.045
 4754SOL    HW115161   5.284   4.385   7.020
 4754SOL    HW215162   5.142   4.407   0.074
 4755SOL     OW15163   0.831   1.403   1.123
 4755SOL    HW115164   0.805   1.481   1.181
 4755SOL    HW215165   0.906   1.353   1.167
 4756SOL     OW15166   0.012   3.972   5.547
 4756SOL    HW115167   0.030   3.919   5.629
 4756SOL    HW215168   0.095   4.020   5.518
 4757SOL     OW15169   2.070   3.323   0.233
 4757SOL    HW115170   2.047   3.409   0.187
 4757SOL    HW215171   2.166   3.323   0.258
 4758SOL     OW15172   2.557   4.889   2.988
 4758SOL    HW115173   2.508   4.961   2.939
 4758SOL    HW215174   2.588   4.925   3.077
 4759SOL     OW15175   0.748   6.258   2.454
 4759SOL    HW115176   0.693   6.341   2.466
 4759SOL    HW215177   0.830   6.264   2.510
 4760SOL     OW15178   1.691   6.443   1.173
 4760SOL    HW115179   1.647   6.513   1.229
 4760SOL    HW215180   1.627   6.367   1.158
 4761SOL     OW15181   5.085   6.437   1.578
 4761SOL    HW115182   4.986   6.439   1.568
 4761SOL    HW215183   5.126   6.402   1.494
 4762SOL     OW15184   1.563   0.567   2.913
 4762SOL    HW115185   1.530   0.661   2.911
 4762SOL    HW215186   1.563   0.529   2.820
 4763SOL     OW15187   5.467   5.457   2.037
 4763SOL    HW115188   5.559   5.418   2.041
 4763SOL    HW215189   5.469   5.550   2.074
 4764SOL     OW15190   4.705   2.953   0.008
 4764SOL    HW115191   4.739   2.865   0.040
 4764SOL    HW215192   4.723   3.023   0.076
 4765SOL     OW15193   4.115   1.963   6.067
 4765SOL    HW115194   4.193   1.999   6.016
 4765SOL    HW215195   4.039   2.027   6.062
 4766SOL     OW15196   1.030   0.792   4.664
 4766SOL    HW115197   1.008   0.727   4.592
 4766SOL    HW215198   1.017   0.885   4.630
 4767SOL     OW15199   1.969   4.535   3.650
 4767SOL    HW115200   1.920   4.513   3.733
 4767SOL    HW215201   2.001   4.630   3.654
 4768SOL     OW15202   4.741   2.324   6.167
 4768SOL    HW115203   4.776   2.308   6.259
 4768SOL    HW215204   4.744   2.421   6.146
 4769SOL     OW15205   1.822   3.110   0.679
 4769SOL    HW115206   1.880   3.103   0.598
 4769SOL    HW215207   1.732   3.071   0.659
 4770SOL     OW15208   6.852   1.604   3.230
 4770SOL    HW115209   6.824   1.699   3.220
 4770SOL    HW215210   6.879   1.568   3.140
 4771SOL     OW15211   2.154   0.353   4.103
 4771SOL    HW115212   2.127   0.351   4.199
 4771SOL    HW215213   2.109   0.430   4.058
 4772SOL     OW15214   2.615   4.614   2.999
 4772SOL    HW115215   2.614   4.714   2.997
 4772SOL    HW215216   2.664   4.583   3.081
 4773SOL     OW15217   3.017   5.207   4.925
 4773SOL    HW115218   2.964   5.122   4.917
 4773SOL    HW215219   3.005   5.261   4.841
 4774SOL     OW15220   0.944   3.995   0.867
 4774SOL    HW115221   0.897   3.924   0.919
 4774SOL    HW215222   0.877   4.063   0.835
 4775SOL     OW15223   5.743   5.105   4.816
 4775SOL    HW115224   5.737   5.162   4.734
 4775SOL    HW215225   5.773   5.162   4.893
 4776SOL     OW15226   0.169   1.659   5.301
 4776SOL    HW115227   0.203   1.572   5.337
 4776SOL    HW215228   0.152   1.722   5.378
 4777SOL     OW15229   1.747   6.741   2.993
 4777SOL    HW115230   1.760   6.761   3.090
 4777SOL    HW215231   1.651   6.719   2.976
 4778SOL     OW15232   1.971   0.320   6.921
 4778SOL    HW115233   1.951   0.411   6.957
 4778SOL    HW215234   1.996   0.327   6.824
 4779SOL     OW15235   4.876   1.211   4.834
 4779SOL    HW115236   4.842   1.290   4.783
 4779SOL    HW215237   4.834   1.127   4.799
 4780SOL     OW15238   4.868   3.142   4.846
 4780SOL    HW115239   4.824   3.186   4.924
 4780SOL    HW215240   4.877   3.208   4.771
 4781SOL     OW15241   1.702   5.417   1.891
 4781SOL    HW115242   1.674   5.505   1.853
 4781SOL    HW215243   1.768   5.374   1.829
 4782SOL     OW15244   0.981   6.036   3.365
 4782SOL    HW115245   0.977   5.959   3.301
 4782SOL    HW215246   0.913   6.105   3.339
 4783SOL     OW15247   0.625   3.347   6.399
 4783SOL    HW115248   0.525   3.348   6.399
 4783SOL    HW215249   0.658   3.327   6.307
 4784SOL     OW15250   5.271   2.892   6.953
 4784SOL    HW115251   5.280   2.924   6.859
 4784SOL    HW215252   5.209   2.951   7.004
 4785SOL     OW15253   0.662   0.156   4.076
 4785SOL    HW115254   0.649   0.118   3.984
 4785SOL    HW215255   0.745   0.117   4.116
 4786SOL     OW15256   1.268   5.481   0.132
 4786SOL    HW115257   1.232   5.556   0.077
 4786SOL    HW215258   1.312   5.518   0.215
 4787SOL     OW15259   5.313   1.101   4.967
 4787SOL    HW115260   5.278   1.153   4.889
 4787SOL    HW215261   5.413   1.108   4.970
 4788SOL     OW15262   6.512   5.777   1.244
 4788SOL    HW115263   6.435   5.727   1.283
 4788SOL    HW215264   6.563   5.716   1.183
 4789SOL     OW15265   6.192   0.535   2.846
 4789SOL    HW115266   6.158   0.457   2.899
 4789SOL    HW215267   6.180   0.619   2.900
 4790SOL     OW15268   6.693   1.940   4.556
 4790SOL    HW115269   6.789   1.926   4.581
 4790SOL    HW215270   6.682   2.030   4.514
 4791SOL     OW15271   0.667   0.376   6.909
 4791SOL    HW115272   0.752   0.429   6.915
 4791SOL    HW215273   0.688   0.283   6.878
 4792SOL     OW15274   1.042   3.905   1.872
 4792SOL    HW115275   1.064   3.869   1.963
 4792SOL    HW215276   1.027   4.004   1.878
 4793SOL     OW15277   0.805   4.025   5.462
 4793SOL    HW115278   0.864   3.999   5.386
 4793SOL    HW215279   0.716   4.055   5.426
 4794SOL     OW15280   5.183   1.676   5.746
 4794SOL    HW115281   5.091   1.715   5.746
 4794SOL    HW215282   5.234   1.712   5.824
 4795SOL     OW15283   0.017   1.075   6.622
 4795SOL    HW115284   6.951   1.036   6.644
 4795SOL    HW215285   0.013   1.117   6.531
 4796SOL     OW15286   4.827   1.311   5.712
 4796SOL    HW115287   4.863   1.375   5.644
 4796SOL    HW215288   4.780   1.236   5.665
 4797SOL     OW15289   2.480   5.373   5.694
 4797SOL    HW115290   2.572   5.340   5.673
 4797SOL    HW215291   2.417   5.296   5.695
 4798SOL     OW15292   3.197   6.171   0.492
 4798SOL    HW115293   3.100   6.189   0.508
 4798SOL    HW215294   3.209   6.137   0.398
 4799SOL     OW15295   3.195   3.080   0.296
 4799SOL    HW115296   3.272   3.020   0.318
 4799SOL    HW215297   3.230   3.170   0.270
 4800SOL     OW15298   0.999   4.904   0.349
 4800SOL    HW115299   1.049   4.818   0.349
 4800SOL    HW215300   1.017   4.953   0.263
 4801SOL     OW15301   4.729   2.272   3.087
 4801SOL    HW115302   4.742   2.300   2.992
 4801SOL    HW215303   4.807   2.216   3.116
 4802SOL     OW15304   6.941   0.603   4.857
 4802SOL    HW115305   0.001   0.614   4.804
 4802SOL    HW215306   6.873   0.553   4.802
 4803SOL     OW15307   5.031   3.906   5.671
 4803SOL    HW115308   4.960   3.877   5.607
 4803SOL    HW215309   5.112   3.934   5.620
 4804SOL     OW15310   5.074   2.336   0.749
 4804SOL    HW115311   5.054   2.279   0.669
 4804SOL    HW215312   5.173   2.347   0.759
 4805SOL     OW15313   5.536   1.451   6.485
 4805SOL    HW115314   5.622   1.429   6.530
 4805SOL    HW215315   5.554   1.502   6.401
 4806SOL     OW15316   1.124   2.350   3.057
 4806SOL    HW115317   1.091   2.440   3.085
 4806SOL    HW215318   1.213   2.333   3.099
 4807SOL     OW15319   0.101   4.336   6.784
 4807SOL    HW115320   0.060   4.256   6.827
 4807SOL    HW215321   0.032   4.383   6.729
 4808SOL     OW15322   3.857   5.933   2.557
 4808SOL    HW115323   3.890   5.981   2.476
 4808SOL    HW215324   3.925   5.939   2.630
 4809SOL     OW15325   3.097   3.679   1.263
 4809SOL    HW115326   3.009   3.716   1.232
 4809SOL    HW215327   3.116   3.594   1.214
 4810SOL     OW15328   1.756   5.505   4.338
 4810SOL    HW115329   1.779   5.434   4.405
 4810SOL    HW215330   1.794   5.479   4.249
 4811SOL     OW15331   3.607   3.332   4.258
 4811SOL    HW115332   3.656   3.384   4.327
 4811SOL    HW215333   3.520   3.300   4.295
 4812SOL     OW15334   2.410   6.382   2.229
 4812SOL    HW115335   2.335   6.443   2.205
 4812SOL    HW215336   2.394   6.345   2.321
 4813SOL     OW15337   0.714   2.687   4.732
 4813SOL    HW115338   0.711   2.647   4.641
 4813SOL    HW215339   0.789   2.646   4.784
 4814SOL     OW15340   6.624   2.805   0.987
 4814SOL    HW115341   6.553   2.785   1.055
 4814SOL    HW215342   6.712   2.814   1.033
 4815SOL     OW15343   6.322   4.184   2.102
 4815SOL    HW115344   6.367   4.219   2.184
 4815SOL    HW215345   6.278   4.097   2.123
 4816SOL     OW15346   2.870   0.418   2.516
 4816SOL    HW115347   2.771   0.412   2.531
 4816SOL    HW215348   2.890   0.394   2.420
 4817SOL     OW15349   4.248   2.518   0.549
 4817SOL    HW115350   4.288   2.591   0.494
 4817SOL    HW215351   4.268   2.534   0.646
 4818SOL     OW15352   4.422   6.542   4.471
 4818SOL    HW115353   4.417   6.629   4.520
 4818SOL    HW215354   4.494   6.485   4.510
 4819SOL     OW15355   2.990   0.982   0.011
 4819SOL    HW115356   2.943   1.059   6.993
 4819SOL    HW215357   2.932   0.900   0.005
 4820SOL     OW15358   6.708   4.165   1.778
 4820SOL    HW115359   6.632   4.114   1.819
 4820SOL    HW215360   6.795   4.129   1.810
 4821SOL     OW15361   6.998   5.690   1.507
 4821SOL    HW115362   0.063   5.689   1.461
 4821SOL    HW215363   7.008   5.735   1.596
 4822SOL     OW15364   0.616   3.411   1.284
 4822SOL    HW115365   0.665   3.475   1.225
 4822SOL    HW215366   0.682   3.354   1.333
 4823SOL     OW15367   0.376   1.444   3.167
 4823SOL    HW115368   0.417   1.353   3.166
 4823SOL    HW215369   0.352   1.468   3.261
 4824SOL     OW15370   5.711   1.787   2.426
 4824SOL    HW115371   5.664   1.743   2.502
 4824SOL    HW215372   5.737   1.717   2.359
 4825SOL     OW15373   1.059   3.438   4.186
 4825SOL    HW115374   0.979   3.478   4.141
 4825SOL    HW215375   1.031   3.358   4.239
 4826SOL     OW15376   6.611   0.049   0.177
 4826SOL    HW115377   6.638   0.063   0.272
 4826SOL    HW215378   6.672   0.100   0.116
 4827SOL     OW15379   5.000   1.712   6.931
 4827SOL    HW115380   5.032   1.623   6.965
 4827SOL    HW215381   4.911   1.701   6.889
 4828SOL     OW15382   5.066   3.244   6.631
 4828SOL    HW115383   4.993   3.306   6.660
 4828SOL    HW215384   5.155   3.283   6.653
 4829SOL     OW15385   3.431   0.301   5.116
 4829SOL    HW115386   3.436   0.360   5.196
 4829SOL    HW215387   3.400   0.210   5.143
 4830SOL     OW15388   4.543   5.610   4.791
 4830SOL    HW115389   4.574   5.525   4.747
 4830SOL    HW215390   4.621   5.656   4.833
 4831SOL     OW15391   5.844   2.316   6.760
 4831SOL    HW115392   5.818   2.351   6.670
 4831SOL    HW215393   5.942   2.327   6.773
 4832SOL     OW15394   1.640   2.803   6.368
 4832SOL    HW115395   1.643   2.838   6.461
 4832SOL    HW215396   1.715   2.844   6.315
 4833SOL     OW15397   6.570   1.723   3.438
 4833SOL    HW115398   6.480   1.679   3.439
 4833SOL    HW215399   6.634   1.669   3.492
 4834SOL     OW15400   6.081   0.651   3.218
 4834SOL    HW115401   6.178   0.637   3.235
 4834SOL    HW215402   6.068   0.701   3.132
 4835SOL     OW15403   1.645   1.728   6.099
 4835SOL    HW115404   1.605   1.722   6.191
 4835SOL    HW215405   1.728   1.672   6.095
 4836SOL     OW15406   5.897   3.256   2.258
 4836SOL    HW115407   5.941   3.237   2.170
 4836SOL    HW215408   5.849   3.343   2.254
 4837SOL     OW15409   0.568   4.692   0.956
 4837SOL    HW115410   0.503   4.668   0.884
 4837SOL    HW215411   0.660   4.699   0.918
 4838SOL     OW15412   2.260   6.106   2.838
 4838SOL    HW115413   2.337   6.151   2.883
 4838SOL    HW215414   2.174   6.137   2.879
 4839SOL     OW15415   0.871   0.130   6.454
 4839SOL    HW115416   0.787   0.119   6.401
 4839SOL    HW215417   0.928   0.049   6.444
 4840SOL     OW15418   6.400   5.875   5.898
 4840SOL    HW115419   6.406   5.830   5.809
 4840SOL    HW215420   6.485   5.859   5.949
 4841SOL     OW15421   2.163   6.018   1.264
 4841SOL    HW115422   2.262   6.004   1.261
 4841SOL    HW215423   2.141   6.083   1.338
 4842SOL     OW15424   3.524   6.840   1.426
 4842SOL    HW115425   3.548   6.932   1.457
 4842SOL    HW215426   3.608   6.787   1.411
 4843SOL     OW15427   1.432   3.703   0.029
 4843SOL    HW115428   1.375   3.728   0.107
 4843SOL    HW215429   1.454   3.786   7.000
 4844SOL     OW15430   0.990   1.704   4.984
 4844SOL    HW115431   1.043   1.650   4.919
 4844SOL    HW215432   0.918   1.753   4.935
 4845SOL     OW15433   5.928   5.624   3.948
 4845SOL    HW115434   5.881   5.575   4.021
 4845SOL    HW215435   5.875   5.705   3.922
 4846SOL     OW15436   0.374   4.993   6.514
 4846SOL    HW115437   0.296   4.959   6.462
 4846SOL    HW215438   0.374   4.952   6.605
 4847SOL     OW15439   4.642   2.747   4.695
 4847SOL    HW115440   4.595   2.695   4.766
 4847SOL    HW215441   4.578   2.764   4.619
 4848SOL     OW15442   2.647   2.716   1.645
 4848SOL    HW115443   2.677   2.714   1.549
 4848SOL    HW215444   2.592   2.798   1.661
 4849SOL     OW15445   1.975   6.661   5.874
 4849SOL    HW115446   1.883   6.622   5.863
 4849SOL    HW215447   2.012   6.683   5.784
 4850SOL     OW15448   3.559   6.656   3.340
 4850SOL    HW115449   3.622   6.615   3.274
 4850SOL    HW215450   3.595   6.644   3.432
 4851SOL     OW15451   4.916   1.481   5.480
 4851SOL    HW115452   4.847   1.449   5.416
 4851SOL    HW215453   4.923   1.581   5.476
 4852SOL     OW15454   2.026   2.000   2.010
 4852SOL    HW115455   2.015   1.943   1.928
 4852SOL    HW215456   2.124   2.014   2.027
 4853SOL     OW15457   3.951   1.798   2.222
 4853SOL    HW115458   3.877   1.863   2.208
 4853SOL    HW215459   4.028   1.822   2.164
 4854SOL     OW15460   3.850   0.132   6.991
 4854SOL    HW115461   3.923   0.200   6.982
 4854SOL    HW215462   3.872   0.070   0.042
 4855SOL     OW15463   6.905   2.590   2.850
 4855SOL    HW115464   6.892   2.492   2.835
 4855SOL    HW215465   6.998   2.607   2.883
 4856SOL     OW15466   0.915   4.154   1.923
 4856SOL    HW115467   0.822   4.172   1.893
 4856SOL    HW215468   0.925   4.177   2.019
 4857SOL     OW15469   0.394   0.861   5.559
 4857SOL    HW115470   0.363   0.835   5.651
 4857SOL    HW215471   0.348   0.945   5.531
 4858SOL     OW15472   1.599   0.544   3.999
 4858SOL    HW115473   1.536   0.477   3.960
 4858SOL    HW215474   1.593   0.629   3.948
 4859SOL     OW15475   3.654   5.684   6.156
 4859SOL    HW115476   3.576   5.741   6.128
 4859SOL    HW215477   3.738   5.737   6.151
 4860SOL     OW15478   3.200   4.429   0.531
 4860SOL    HW115479   3.291   4.426   0.491
 4860SOL    HW215480   3.200   4.490   0.611
 4861SOL     OW15481   4.400   4.224   6.610
 4861SOL    HW115482   4.458   4.143   6.611
 4861SOL    HW215483   4.330   4.215   6.539
 4862SOL     OW15484   0.483   6.992   0.549
 4862SOL    HW115485   0.400   6.955   0.591
 4862SOL    HW215486   0.459   0.042   0.487
 4863SOL     OW15487   4.966   4.279   6.550
 4863SOL    HW115488   5.016   4.318   6.628
 4863SOL    HW215489   5.030   4.233   6.489
 4864SOL     OW15490   3.382   1.236   4.339
 4864SOL    HW115491   3.480   1.239   4.323
 4864SOL    HW215492   3.364   1.218   4.436
 4865SOL     OW15493   1.406   6.692   5.088
 4865SOL    HW115494   1.455   6.683   5.001
 4865SOL    HW215495   1.332   6.625   5.091
 4866SOL     OW15496   6.560   4.384   6.293
 4866SOL    HW115497   6.500   4.408   6.369
 4866SOL    HW215498   6.517   4.313   6.238
 4867SOL     OW15499   4.639   1.038   2.914
 4867SOL    HW115500   4.713   1.095   2.879
 4867SOL    HW215501   4.577   1.093   2.970
 4868SOL     OW15502   6.812   4.765   0.460
 4868SOL    HW115503   6.741   4.833   0.441
 4868SOL    HW215504   6.888   4.778   0.398
 4869SOL     OW15505   0.832   1.784   1.065
 4869SOL    HW115506   0.898   1.788   0.991
 4869SOL    HW215507   0.754   1.727   1.037
 4870SOL     OW15508   0.316   6.787   1.009
 4870SOL    HW115509   0.307   6.792   1.109
 4870SOL    HW215510   0.336   6.693   0.982
 4871SOL     OW15511   1.276   1.839   3.198
 4871SOL    HW115512   1.226   1.910   3.148
 4871SOL    HW215513   1.212   1.787   3.254
 4872SOL     OW15514   5.931   0.171   3.236
 4872SOL    HW115515   5.980   0.184   3.150
 4872SOL    HW215516   5.958   0.084   3.277
 4873SOL     OW15517   6.889   5.340   4.490
 4873SOL    HW115518   6.868   5.242   4.495
 4873SOL    HW215519   6.915   5.363   4.396
 4874SOL     OW15520   4.894   3.411   3.034
 4874SOL    HW115521   4.852   3.499   3.057
 4874SOL    HW215522   4.971   3.426   2.971
 4875SOL     OW15523   5.851   5.996   5.146
 4875SOL    HW115524   5.792   6.033   5.218
 4875SOL    HW215525   5.896   6.071   5.098
 4876SOL     OW15526   0.042   0.851   2.183
 4876SOL    HW115527   0.027   0.761   2.141
 4876SOL    HW215528   6.999   0.916   2.146
 4877SOL     OW15529   6.870   1.444   6.760
 4877SOL    HW115530   6.774   1.444   6.732
 4877SOL    HW215531   6.904   1.539   6.761
 4878SOL     OW15532   6.686   3.446   2.976
 4878SOL    HW115533   6.768   3.451   2.920
 4878SOL    HW215534   6.625   3.522   2.954
 4879SOL     OW15535   5.416   0.690   3.055
 4879SOL    HW115536   5.373   0.751   3.122
 4879SOL    HW215537   5.395   0.595   3.078
 4880SOL     OW15538   7.002   3.008   6.319
 4880SOL    HW115539   0.002   3.091   6.269
 4880SOL    HW215540   0.011   2.928   6.269
 4881SOL     OW15541   1.059   3.296   1.759
 4881SOL    HW115542   1.061   3.378   1.817
 4881SOL    HW215543   1.036   3.217   1.815
 4882SOL     OW15544   5.208   2.112   4.548
 4882SOL    HW115545   5.167   2.202   4.536
 4882SOL    HW215546   5.293   2.119   4.599
 4883SOL     OW15547   5.904   4.334   0.441
 4883SOL    HW115548   5.945   4.363   0.528
 4883SOL    HW215549   5.906   4.234   0.436
 4884SOL     OW15550   2.032   1.139   1.844
 4884SOL    HW115551   2.070   1.204   1.909
 4884SOL    HW215552   2.106   1.095   1.792
 4885SOL     OW15553   1.276   5.138   0.357
 4885SOL    HW115554   1.312   5.077   0.286
 4885SOL    HW215555   1.302   5.104   0.447
 4886SOL     OW15556   3.192   0.529   2.326
 4886SOL    HW115557   3.141   0.523   2.240
 4886SOL    HW215558   3.268   0.593   2.315
 4887SOL     OW15559   4.429   5.581   0.562
 4887SOL    HW115560   4.353   5.519   0.539
 4887SOL    HW215561   4.445   5.643   0.485
 4888SOL     OW15562   4.628   0.170   3.071
 4888SOL    HW115563   4.561   0.206   3.137
 4888SOL    HW215564   4.719   0.201   3.096
 4889SOL     OW15565   6.178   3.081   4.043
 4889SOL    HW115566   6.145   3.167   4.005
 4889SOL    HW215567   6.145   3.005   3.987
 4890SOL     OW15568   6.378   1.832   5.128
 4890SOL    HW115569   6.344   1.926   5.138
 4890SOL    HW215570   6.400   1.815   5.032
 4891SOL     OW15571   2.629   5.959   0.213
 4891SOL    HW115572   2.687   5.895   0.264
 4891SOL    HW215573   2.564   6.003   0.275
 4892SOL     OW15574   5.557   5.086   2.733
 4892SOL    HW115575   5.458   5.073   2.723
 4892SOL    HW215576   5.601   5.077   2.643
 4893SOL     OW15577   1.384   3.021   1.178
 4893SOL    HW115578   1.426   2.959   1.112
 4893SOL    HW215579   1.307   3.067   1.135
 4894SOL     OW15580   4.696   5.767   0.879
 4894SOL    HW115581   4.654   5.678   0.898
 4894SOL    HW215582   4.789   5.753   0.846
 4895SOL     OW15583   6.933   3.763   5.414
 4895SOL    HW115584   6.903   3.753   5.318
 4895SOL    HW215585   6.943   3.859   5.436
 4896SOL     OW15586   2.638   5.102   4.915
 4896SOL    HW115587   2.593   5.162   4.982
 4896SOL    HW215588   2.568   5.051   4.865
 4897SOL     OW15589   2.239   1.095   5.168
 4897SOL    HW115590   2.190   1.128   5.087
 4897SOL    HW215591   2.214   1.150   5.247
 4898SOL     OW15592   4.936   2.333   4.317
 4898SOL    HW115593   4.862   2.394   4.290
 4898SOL    HW215594   4.912   2.286   4.401
 4899SOL     OW15595   6.219   6.181   1.921
 4899SOL    HW115596   6.309   6.153   1.891
 4899SOL    HW215597   6.197   6.271   1.883
 4900SOL     OW15598   3.851   5.897   6.118
 4900SOL    HW115599   3.881   5.836   6.044
 4900SOL    HW215600   3.927   5.912   6.182
 4901SOL     OW15601   1.711   0.695   6.707
 4901SOL    HW115602   1.704   0.727   6.801
 4901SOL    HW215603   1.619   0.675   6.672
 4902SOL     OW15604   3.047   0.217   5.449
 4902SOL    HW115605   3.116   0.175   5.508
 4902SOL    HW215606   3.026   0.309   5.483
 4903SOL     OW15607   5.243   3.846   2.888
 4903SOL    HW115608   5.253   3.857   2.789
 4903SOL    HW215609   5.147   3.862   2.913
 4904SOL     OW15610   1.763   0.536   1.796
 4904SOL    HW115611   1.758   0.588   1.881
 4904SOL    HW215612   1.833   0.577   1.737
 4905SOL     OW15613   2.571   0.497   2.531
 4905SOL    HW115614   2.509   0.564   2.571
 4905SOL    HW215615   2.591   0.523   2.436
 4906SOL     OW15616   5.426   3.651   4.732
 4906SOL    HW115617   5.441   3.680   4.638
 4906SOL    HW215618   5.341   3.599   4.738
 4907SOL     OW15619   3.556   2.302   0.054
 4907SOL    HW115620   3.536   2.376   7.014
 4907SOL    HW215621   3.471   2.275   0.100
 4908SOL     OW15622   3.375   6.913   6.397
 4908SOL    HW115623   3.285   6.894   6.436
 4908SOL    HW215624   3.426   6.972   6.459
 4909SOL     OW15625   4.963   5.344   4.319
 4909SOL    HW115626   4.864   5.347   4.333
 4909SOL    HW215627   4.995   5.433   4.285
 4910SOL     OW15628   4.018   1.901   6.823
 4910SOL    HW115629   3.978   1.928   6.911
 4910SOL    HW215630   3.948   1.902   6.752
 4911SOL     OW15631   6.585   4.724   3.040
 4911SOL    HW115632   6.684   4.724   3.028
 4911SOL    HW215633   6.547   4.637   3.011
 4912SOL     OW15634   5.969   2.599   4.271
 4912SOL    HW115635   6.042   2.636   4.328
 4912SOL    HW215636   5.895   2.666   4.264
 4913SOL     OW15637   1.073   4.179   5.129
 4913SOL    HW115638   1.042   4.206   5.038
 4913SOL    HW215639   1.159   4.225   5.151
 4914SOL     OW15640   3.959   6.752   3.831
 4914SOL    HW115641   3.914   6.665   3.811
 4914SOL    HW215642   4.026   6.739   3.904
 4915SOL     OW15643   4.030   5.996   5.350
 4915SOL    HW115644   4.009   6.074   5.291
 4915SOL    HW215645   3.969   5.996   5.429
 4916SOL     OW15646   5.332   2.180   3.717
 4916SOL    HW115647   5.297   2.150   3.805
 4916SOL    HW215648   5.271   2.147   3.644
 4917SOL     OW15649   4.380   6.177   6.361
 4917SOL    HW115650   4.312   6.199   6.432
 4917SOL    HW215651   4.471   6.199   6.395
 4918SOL     OW15652   5.651   5.424   3.711
 4918SOL    HW115653   5.556   5.404   3.731
 4918SOL    HW215654   5.667   5.417   3.612
 4919SOL     OW15655   3.811   3.723   2.099
 4919SOL    HW115656   3.865   3.807   2.091
 4919SOL    HW215657   3.839   3.673   2.181
 4920SOL     OW15658   6.017   1.227   6.178
 4920SOL    HW115659   5.997   1.146   6.233
 4920SOL    HW215660   6.072   1.201   6.099
 4921SOL     OW15661   6.964   6.586   1.442
 4921SOL    HW115662   6.989   6.682   1.434
 4921SOL    HW215663   6.958   6.546   1.350
 4922SOL     OW15664   4.436   1.835   5.846
 4922SOL    HW115665   4.400   1.901   5.911
 4922SOL    HW215666   4.456   1.881   5.759
 4923SOL     OW15667   4.033   1.673   1.795
 4923SOL    HW115668   4.046   1.596   1.858
 4923SOL    HW215669   3.956   1.653   1.734
 4924SOL     OW15670   2.465   1.111   5.011
 4924SOL    HW115671   2.378   1.106   5.061
 4924SOL    HW215672   2.503   1.203   5.021
 4925SOL     OW15673   4.995   5.725   3.524
 4925SOL    HW115674   5.004   5.706   3.426
 4925SOL    HW215675   5.081   5.762   3.559
 4926SOL     OW15676   5.944   3.007   1.708
 4926SOL    HW115677   5.870   2.952   1.670
 4926SOL    HW215678   5.932   3.014   1.807
 4927SOL     OW15679   2.464   1.706   0.030
 4927SOL    HW115680   2.508   1.791   0.002
 4927SOL    HW215681   2.459   1.702   0.130
 4928SOL     OW15682   6.857   1.604   0.806
 4928SOL    HW115683   6.811   1.640   0.724
 4928SOL    HW215684   6.956   1.604   0.791
 4929SOL     OW15685   6.816   0.140   4.816
 4929SOL    HW115686   6.901   0.101   4.853
 4929SOL    HW215687   6.769   0.191   4.889
 4930SOL     OW15688   4.550   5.728   2.779
 4930SOL    HW115689   4.622   5.720   2.848
 4930SOL    HW215690   4.496   5.644   2.778
 4931SOL     OW15691   5.975   7.015   1.089
 4931SOL    HW115692   6.030   6.935   1.110
 4931SOL    HW215693   5.996   0.024   0.997
 4932SOL     OW15694   3.518   3.628   2.703
 4932SOL    HW115695   3.422   3.612   2.678
 4932SOL    HW215696   3.575   3.557   2.662
 4933SOL     OW15697   1.431   0.463   5.145
 4933SOL    HW115698   1.502   0.411   5.097
 4933SOL    HW215699   1.459   0.559   5.154
 4934SOL     OW15700   3.086   6.680   2.765
 4934SOL    HW115701   3.079   6.732   2.850
 4934SOL    HW215702   3.177   6.638   2.760
 4935SOL     OW15703   0.094   0.613   5.072
 4935SOL    HW115704   0.034   0.586   4.996
 4935SOL    HW215705   0.056   0.694   5.117
 4936SOL     OW15706   4.717   2.460   0.913
 4936SOL    HW115707   4.645   2.508   0.863
 4936SOL    HW215708   4.712   2.362   0.892
 4937SOL     OW15709   4.344   2.638   5.412
 4937SOL    HW115710   4.284   2.712   5.382
 4937SOL    HW215711   4.436   2.653   5.376
 4938SOL     OW15712   3.838   4.214   6.833
 4938SOL    HW115713   3.780   4.141   6.797
 4938SOL    HW215714   3.914   4.230   6.770
 4939SOL     OW15715   4.260   3.904   6.448
 4939SOL    HW115716   4.251   3.858   6.359
 4939SOL    HW215717   4.241   4.002   6.436
 4940SOL     OW15718   2.307   5.658   3.639
 4940SOL    HW115719   2.233   5.605   3.680
 4940SOL    HW215720   2.300   5.754   3.668
 4941SOL     OW15721   5.762   0.526   1.094
 4941SOL    HW115722   5.855   0.515   1.128
 4941SOL    HW215723   5.742   0.623   1.082
 4942SOL     OW15724   4.811   2.596   6.300
 4942SOL    HW115725   4.771   2.597   6.209
 4942SOL    HW215726   4.750   2.643   6.364
 4943SOL     OW15727   5.545   2.810   1.009
 4943SOL    HW115728   5.448   2.831   0.994
 4943SOL    HW215729   5.593   2.893   1.038
 4944SOL     OW15730   2.082   3.710   2.028
 4944SOL    HW115731   2.133   3.626   2.012
 4944SOL    HW215732   2.123   3.761   2.104
 4945SOL     OW15733   0.104   5.926   4.164
 4945SOL    HW115734   0.155   5.887   4.241
 4945SOL    HW215735   0.133   5.881   4.079
 4946SOL     OW15736   0.014   3.824   2.036
 4946SOL    HW115737   0.000   3.729   2.061
 4946SOL    HW215738   0.007   3.834   1.937
 4947SOL     OW15739   6.167   0.820   0.812
 4947SOL    HW115740   6.138   0.724   0.809
 4947SOL    HW215741   6.261   0.827   0.778
 4948SOL     OW15742   2.355   1.537   2.851
 4948SOL    HW115743   2.432   1.497   2.901
 4948SOL    HW215744   2.385   1.621   2.805
 4949SOL     OW15745   5.502   2.275   4.685
 4949SOL    HW115746   5.465   2.294   4.776
 4949SOL    HW215747   5.442   2.314   4.616
 4950SOL     OW15748   3.293   5.388   4.732
 4950SOL    HW115749   3.198   5.370   4.708
 4950SOL    HW215750   3.299   5.414   4.829
 4951SOL     OW15751   4.512   1.586   4.430
 4951SOL    HW115752   4.413   1.599   4.438
 4951SOL    HW215753   4.556   1.614   4.515
 4952SOL     OW15754   6.613   4.660   4.158
 4952SOL    HW115755   6.649   4.732   4.098
 4952SOL    HW215756   6.537   4.697   4.211
 4953SOL     OW15757   1.204   4.773   1.958
 4953SOL    HW115758   1.149   4.809   1.883
 4953SOL    HW215759   1.157   4.694   1.998
 4954SOL     OW15760   6.440   6.335   6.732
 4954SOL    HW115761   6.438   6.376   6.640
 4954SOL    HW215762   6.519   6.369   6.782
 4955SOL     OW15763   2.005   0.560   1.628
 4955SOL    HW115764   2.059   0.641   1.607
 4955SOL    HW215765   2.062   0.478   1.618
 4956SOL     OW15766   6.179   6.459   3.584
 4956SOL    HW115767   6.137   6.396   3.650
 4956SOL    HW215768   6.110   6.525   3.554
 4957SOL     OW15769   1.802   5.702   3.881
 4957SOL    HW115770   1.839   5.780   3.832
 4957SOL    HW215771   1.766   5.635   3.816
 4958SOL     OW15772   6.869   6.841   0.079
 4958SOL    HW115773   6.903   6.747   0.075
 4958SOL    HW215774   6.904   6.893   0.002
 4959SOL     OW15775   0.467   2.017   6.933
 4959SOL    HW115776   0.423   1.982   6.850
 4959SOL    HW215777   0.562   1.986   6.936
 4960SOL     OW15778   4.144   6.966   5.822
 4960SOL    HW115779   4.214   7.016   5.772
 4960SOL    HW215780   4.175   6.872   5.838
 4961SOL     OW15781   5.252   0.564   5.513
 4961SOL    HW115782   5.174   0.516   5.553
 4961SOL    HW215783   5.312   0.598   5.586
 4962SOL     OW15784   6.938   2.535   2.567
 4962SOL    HW115785   6.969   2.440   2.565
 4962SOL    HW215786   6.958   2.574   2.657
 4963SOL     OW15787   6.849   4.587   1.069
 4963SOL    HW115788   6.778   4.524   1.039
 4963SOL    HW215789   6.939   4.546   1.054
 4964SOL     OW15790   3.368   6.218   3.038
 4964SOL    HW115791   3.467   6.209   3.031
 4964SOL    HW215792   3.343   6.237   3.133
 4965SOL     OW15793   0.108   6.159   4.484
 4965SOL    HW115794   0.042   6.199   4.420
 4965SOL    HW215795   0.136   6.069   4.451
 4966SOL     OW15796   4.395   5.481   5.022
 4966SOL    HW115797   4.464   5.456   5.090
 4966SOL    HW215798   4.438   5.535   4.949
 4967SOL     OW15799   5.711   1.863   6.658
 4967SOL    HW115800   5.772   1.784   6.666
 4967SOL    HW215801   5.742   1.935   6.721
 4968SOL     OW15802   4.985   4.087   6.931
 4968SOL    HW115803   4.993   4.165   6.869
 4968SOL    HW215804   5.003   4.117   0.001
 4969SOL     OW15805   1.809   1.774   1.305
 4969SOL    HW115806   1.890   1.730   1.267
 4969SOL    HW215807   1.807   1.761   1.404
 4970SOL     OW15808   1.818   2.613   5.836
 4970SOL    HW115809   1.843   2.710   5.842
 4970SOL    HW215810   1.730   2.605   5.788
 4971SOL     OW15811   6.563   5.455   3.768
 4971SOL    HW115812   6.478   5.427   3.813
 4971SOL    HW215813   6.598   5.379   3.713
 4972SOL     OW15814   1.618   2.265   5.104
 4972SOL    HW115815   1.694   2.231   5.048
 4972SOL    HW215816   1.543   2.294   5.044
 4973SOL     OW15817   5.060   5.466   2.731
 4973SOL    HW115818   5.137   5.412   2.695
 4973SOL    HW215819   5.030   5.532   2.662
 4974SOL     OW15820   3.964   6.605   6.873
 4974SOL    HW115821   4.026   6.674   6.836
 4974SOL    HW215822   3.948   6.623   6.970
 4975SOL     OW15823   3.673   6.695   0.376
 4975SOL    HW115824   3.625   6.782   0.363
 4975SOL    HW215825   3.771   6.709   0.361
 4976SOL     OW15826   2.694   0.753   4.409
 4976SOL    HW115827   2.722   0.793   4.322
 4976SOL    HW215828   2.704   0.821   4.482
 4977SOL     OW15829   3.367   2.883   0.501
 4977SOL    HW115830   3.382   2.842   0.410
 4977SOL    HW215831   3.312   2.821   0.557
 4978SOL     OW15832   6.078   4.141   6.192
 4978SOL    HW115833   6.052   4.218   6.134
 4978SOL    HW215834   6.097   4.061   6.135
 4979SOL     OW15835   2.057   2.335   4.007
 4979SOL    HW115836   2.147   2.291   4.005
 4979SOL    HW215837   2.066   2.426   4.046
 4980SOL     OW15838   1.949   4.792   2.978
 4980SOL    HW115839   1.918   4.795   2.883
 4980SOL    HW215840   1.913   4.871   3.028
 4981SOL     OW15841   5.411   6.143   5.333
 4981SOL    HW115842   5.326   6.159   5.284
 4981SOL    HW215843   5.436   6.046   5.324
 4982SOL     OW15844   2.630   2.175   6.706
 4982SOL    HW115845   2.629   2.108   6.632
 4982SOL    HW215846   2.594   2.133   6.789
 4983SOL     OW15847   6.631   2.704   4.632
 4983SOL    HW115848   6.564   2.769   4.668
 4983SOL    HW215849   6.669   2.651   4.708
 4984SOL     OW15850   5.059   4.327   3.257
 4984SOL    HW115851   5.102   4.266   3.191
 4984SOL    HW215852   4.959   4.324   3.245
 4985SOL     OW15853   5.933   3.798   2.174
 4985SOL    HW115854   5.924   3.780   2.076
 4985SOL    HW215855   5.983   3.723   2.217
 4986SOL     OW15856   4.332   4.684   3.117
 4986SOL    HW115857   4.283   4.728   3.193
 4986SOL    HW215858   4.267   4.650   3.050
 4987SOL     OW15859   0.681   3.343   0.426
 4987SOL    HW115860   0.706   3.291   0.344
 4987SOL    HW215861   0.684   3.282   0.506
 4988SOL     OW15862   1.963   2.157   5.239
 4988SOL    HW115863   1.883   2.187   5.291
 4988SOL    HW215864   2.041   2.216   5.261
 4989SOL     OW15865   0.107   1.384   1.112
 4989SOL    HW115866   0.067   1.474   1.130
 4989SOL    HW215867   0.203   1.395   1.085
 4990SOL     OW15868   1.330   2.220   6.411
 4990SOL    HW115869   1.350   2.310   6.373
 4990SOL    HW215870   1.336   2.223   6.511
 4991SOL     OW15871   2.618   2.038   5.646
 4991SOL    HW115872   2.637   1.943   5.671
 4991SOL    HW215873   2.689   2.071   5.583
 4992SOL     OW15874   4.400   6.438   4.835
 4992SOL    HW115875   4.406   6.362   4.900
 4992SOL    HW215876   4.368   6.403   4.746
 4993SOL     OW15877   1.664   6.369   4.291
 4993SOL    HW115878   1.569   6.391   4.269
 4993SOL    HW215879   1.667   6.285   4.345
 4994SOL     OW15880   0.476   6.709   3.082
 4994SOL    HW115881   0.524   6.795   3.063
 4994SOL    HW215882   0.463   6.659   2.997
 4995SOL     OW15883   5.767   2.743   5.486
 4995SOL    HW115884   5.763   2.732   5.585
 4995SOL    HW215885   5.727   2.663   5.441
 4996SOL     OW15886   0.735   1.537   3.344
 4996SOL    HW115887   0.808   1.477   3.309
 4996SOL    HW215888   0.710   1.603   3.274
 4997SOL     OW15889   0.035   2.562   3.863
 4997SOL    HW115890   0.076   2.535   3.776
 4997SOL    HW215891   7.013   2.484   3.904
 4998SOL     OW15892   0.769   5.652   5.545
 4998SOL    HW115893   0.705   5.578   5.566
 4998SOL    HW215894   0.858   5.631   5.587
 4999SOL     OW15895   6.090   4.514   0.903
 4999SOL    HW115896   6.050   4.597   0.943
 4999SOL    HW215897   6.099   4.444   0.975
 5000SOL     OW15898   6.387   4.974   4.078
 5000SOL    HW115899   6.436   5.000   3.995
 5000SOL    HW215900   6.443   4.909   4.131
 5001SOL     OW15901   5.133   4.154   5.336
 5001SOL    HW115902   5.042   4.115   5.352
 5001SOL    HW215903   5.162   4.205   5.417
 5002SOL     OW15904   1.753   2.506   1.666
 5002SOL    HW115905   1.671   2.467   1.707
 5002SOL    HW215906   1.769   2.597   1.703
 5003SOL     OW15907   6.535   5.018   3.811
 5003SOL    HW115908   6.440   5.006   3.783
 5003SOL    HW215909   6.584   5.070   3.741
 5004SOL     OW15910   2.427   4.778   6.075
 5004SOL    HW115911   2.344   4.833   6.083
 5004SOL    HW215912   2.479   4.807   5.995
 5005SOL     OW15913   4.795   1.916   0.373
 5005SOL    HW115914   4.881   1.930   0.324
 5005SOL    HW215915   4.763   2.003   0.411
 5006SOL     OW15916   5.310   4.631   2.586
 5006SOL    HW115917   5.369   4.676   2.519
 5006SOL    HW215918   5.338   4.536   2.598
 5007SOL     OW15919   4.690   0.977   5.251
 5007SOL    HW115920   4.675   0.887   5.209
 5007SOL    HW215921   4.601   1.017   5.274
 5008SOL     OW15922   6.404   0.939   3.507
 5008SOL    HW115923   6.441   1.025   3.542
 5008SOL    HW215924   6.398   0.944   3.407
 5009SOL     OW15925   2.477   6.158   2.123
 5009SOL    HW115926   2.423   6.122   2.047
 5009SOL    HW215927   2.449   6.252   2.143
 5010SOL     OW15928   3.519   3.477   5.871
 5010SOL    HW115929   3.454   3.401   5.862
 5010SOL    HW215930   3.501   3.526   5.956
 5011SOL     OW15931   1.582   1.972   3.735
 5011SOL    HW115932   1.637   1.910   3.680
 5011SOL    HW215933   1.638   2.049   3.764
 5012SOL     OW15934   5.772   3.319   7.021
 5012SOL    HW115935   5.732   3.411   7.019
 5012SOL    HW215936   5.767   3.282   0.090
 5013SOL     OW15937   4.916   2.091   5.623
 5013SOL    HW115938   4.952   2.139   5.703
 5013SOL    HW215939   4.912   2.154   5.545
 5014SOL     OW15940   0.302   5.616   6.712
 5014SOL    HW115941   0.316   5.590   6.617
 5014SOL    HW215942   0.236   5.553   6.754
 5015SOL     OW15943   5.216   1.837   3.619
 5015SOL    HW115944   5.216   1.829   3.719
 5015SOL    HW215945   5.194   1.931   3.593
 5016SOL     OW15946   2.884   6.159   2.197
 5016SOL    HW115947   2.939   6.138   2.116
 5016SOL    HW215948   2.805   6.099   2.199
 5017SOL     OW15949   1.048   2.074   1.654
 5017SOL    HW115950   1.115   2.032   1.714
 5017SOL    HW215951   1.089   2.154   1.610
 5018SOL     OW15952   7.005   4.746   3.369
 5018SOL    HW115953   6.983   4.818   3.436
 5018SOL    HW215954   6.986   4.657   3.410
 5019SOL     OW15955   2.187   5.477   5.296
 5019SOL    HW115956   2.094   5.481   5.331
 5019SOL    HW215957   2.187   5.499   5.198
 5020SOL     OW15958   4.079   5.055   6.699
 5020SOL    HW115959   4.128   5.074   6.614
 5020SOL    HW215960   3.981   5.054   6.682
 5021SOL     OW15961   2.138   4.533   5.830
 5021SOL    HW115962   2.148   4.439   5.796
 5021SOL    HW215963   2.217   4.587   5.800
 5022SOL     OW15964   2.214   3.874   0.580
 5022SOL    HW115965   2.125   3.839   0.549
 5022SOL    HW215966   2.279   3.798   0.584
 5023SOL     OW15967   0.612   3.167   4.703
 5023SOL    HW115968   0.517   3.171   4.671
 5023SOL    HW215969   0.647   3.074   4.693
 5024SOL     OW15970   4.719   3.821   5.439
 5024SOL    HW115971   4.634   3.807   5.390
 5024SOL    HW215972   4.706   3.801   5.536
 5025SOL     OW15973   6.167   0.691   4.222
 5025SOL    HW115974   6.247   0.751   4.231
 5025SOL    HW215975   6.084   0.746   4.229
 5026SOL     OW15976   1.051   5.371   2.603
 5026SOL    HW115977   1.033   5.440   2.673
 5026SOL    HW215978   1.148   5.345   2.605
 5027SOL     OW15979   1.250   6.111   3.468
 5027SOL    HW115980   1.173   6.050   3.448
 5027SOL    HW215981   1.261   6.177   3.395
 5028SOL     OW15982   0.829   6.988   2.913
 5028SOL    HW115983   0.916   6.943   2.936
 5028SOL    HW215984   0.827   0.055   2.955
 5029SOL     OW15985   6.756   1.013   3.734
 5029SOL    HW115986   6.735   1.092   3.676
 5029SOL    HW215987   6.749   0.930   3.679
 5030SOL     OW15988   1.227   6.269   6.980
 5030SOL    HW115989   1.161   6.218   0.011
 5030SOL    HW215990   1.292   6.315   0.016
 5031SOL     OW15991   5.850   0.813   6.919
 5031SOL    HW115992   5.773   0.762   6.881
 5031SOL    HW215993   5.857   0.794   7.017
 5032SOL     OW15994   1.505   5.327   2.478
 5032SOL    HW115995   1.477   5.234   2.498
 5032SOL    HW215996   1.428   5.377   2.436
 5033SOL     OW15997   0.536   4.341   4.604
 5033SOL    HW115998   0.629   4.319   4.631
 5033SOL    HW215999   0.501   4.272   4.541
 5034SOL     OW16000   6.905   3.509   6.303
 5034SOL    HW116001   6.957   3.569   6.242
 5034SOL    HW216002   6.882   3.558   6.387
 5035SOL     OW16003   6.828   3.909   1.212
 5035SOL    HW116004   6.732   3.917   1.240
 5035SOL    HW216005   6.833   3.875   1.119
 5036SOL     OW16006   1.447   1.020   2.367
 5036SOL    HW116007   1.401   1.106   2.345
 5036SOL    HW216008   1.457   1.011   2.466
 5037SOL     OW16009   4.875   3.263   2.662
 5037SOL    HW116010   4.786   3.308   2.668
 5037SOL    HW216011   4.945   3.331   2.639
 5038SOL     OW16012   3.412   5.715   5.321
 5038SOL    HW116013   3.476   5.690   5.394
 5038SOL    HW216014   3.433   5.807   5.289
 5039SOL     OW16015   1.748   2.383   3.138
 5039SOL    HW116016   1.700   2.398   3.224
 5039SOL    HW216017   1.836   2.340   3.155
 5040SOL     OW16018   3.043   3.291   5.885
 5040SOL    HW116019   2.985   3.349   5.942
 5040SOL    HW216020   2.998   3.202   5.872
 5041SOL     OW16021   6.992   5.638   0.878
 5041SOL    HW116022   6.932   5.712   0.847
 5041SOL    HW216023   6.998   5.568   0.807
 5042SOL     OW16024   5.830   1.471   5.607
 5042SOL    HW116025   5.813   1.511   5.698
 5042SOL    HW216026   5.827   1.544   5.538
 5043SOL     OW16027   5.204   6.215   4.193
 5043SOL    HW116028   5.203   6.291   4.258
 5043SOL    HW216029   5.245   6.135   4.237
 5044SOL     OW16030   5.860   4.397   1.845
 5044SOL    HW116031   5.946   4.389   1.894
 5044SOL    HW216032   5.865   4.471   1.779
 5045SOL     OW16033   6.151   3.062   5.429
 5045SOL    HW116034   6.141   3.131   5.356
 5045SOL    HW216035   6.096   3.090   5.508
 5046SOL     OW16036   4.034   3.453   5.950
 5046SOL    HW116037   4.008   3.422   6.041
 5046SOL    HW216038   3.958   3.436   5.886
 5047SOL     OW16039   0.545   1.538   2.126
 5047SOL    HW116040   0.518   1.473   2.056
 5047SOL    HW216041   0.468   1.555   2.188
 5048SOL     OW16042   5.831   3.479   0.978
 5048SOL    HW116043   5.782   3.503   1.062
 5048SOL    HW216044   5.838   3.560   0.920
 5049SOL     OW16045   1.480   1.726   1.576
 5049SOL    HW116046   1.482   1.757   1.481
 5049SOL    HW216047   1.422   1.787   1.630
 5050SOL     OW16048   1.892   4.629   0.061
 5050SOL    HW116049   1.991   4.634   0.049
 5050SOL    HW216050   1.868   4.542   0.104
 5051SOL     OW16051   2.839   3.769   6.357
 5051SOL    HW116052   2.902   3.719   6.416
 5051SOL    HW216053   2.753   3.718   6.350
 5052SOL     OW16054   5.718   2.888   0.508
 5052SOL    HW116055   5.712   2.833   0.591
 5052SOL    HW216056   5.774   2.841   0.440
 5053SOL     OW16057   1.414   4.084   1.290
 5053SOL    HW116058   1.338   4.142   1.322
 5053SOL    HW216059   1.414   3.998   1.341
 5054SOL     OW16060   3.756   6.242   5.535
 5054SOL    HW116061   3.721   6.171   5.597
 5054SOL    HW216062   3.685   6.267   5.470
 5055SOL     OW16063   1.270   0.857   4.299
 5055SOL    HW116064   1.347   0.795   4.287
 5055SOL    HW216065   1.283   0.939   4.242
 5056SOL     OW16066   3.463   2.273   5.905
 5056SOL    HW116067   3.450   2.372   5.911
 5056SOL    HW216068   3.471   2.246   5.809
 5057SOL     OW16069   0.372   4.220   3.075
 5057SOL    HW116070   0.392   4.303   3.023
 5057SOL    HW216071   0.428   4.145   3.041
 5058SOL     OW16072   3.424   1.917   0.802
 5058SOL    HW116073   3.331   1.921   0.838
 5058SOL    HW216074   3.423   1.871   0.714
 5059SOL     OW16075   5.259   1.904   2.367
 5059SOL    HW116076   5.242   1.987   2.313
 5059SOL    HW216077   5.269   1.826   2.305
 5060SOL     OW16078   6.823   3.325   5.426
 5060SOL    HW116079   6.735   3.279   5.430
 5060SOL    HW216080   6.859   3.319   5.333
 5061SOL     OW16081   3.654   2.888   5.882
 5061SOL    HW116082   3.579   2.892   5.816
 5061SOL    HW216083   3.720   2.820   5.853
 5062SOL     OW16084   5.366   1.287   3.012
 5062SOL    HW116085   5.370   1.211   2.948
 5062SOL    HW216086   5.375   1.373   2.962
 5063SOL     OW16087   0.415   1.929   1.355
 5063SOL    HW116088   0.418   1.970   1.264
 5063SOL    HW216089   0.349   1.978   1.412
 5064SOL     OW16090   5.622   4.863   1.785
 5064SOL    HW116091   5.694   4.890   1.720
 5064SOL    HW216092   5.545   4.824   1.735
 5065SOL     OW16093   2.539   1.634   2.486
 5065SOL    HW116094   2.478   1.666   2.558
 5065SOL    HW216095   2.541   1.700   2.411
 5066SOL     OW16096   1.552   5.314   2.876
 5066SOL    HW116097   1.604   5.386   2.922
 5066SOL    HW216098   1.614   5.255   2.825
 5067SOL     OW16099   5.646   2.503   1.276
 5067SOL    HW116100   5.646   2.601   1.294
 5067SOL    HW216101   5.606   2.454   1.353
 5068SOL     OW16102   1.028   6.236   1.247
 5068SOL    HW116103   0.999   6.170   1.177
 5068SOL    HW216104   1.046   6.324   1.205
 5069SOL     OW16105   4.522   5.032   5.824
 5069SOL    HW116106   4.571   5.031   5.911
 5069SOL    HW216107   4.460   5.110   5.821
 5070SOL     OW16108   6.464   3.543   6.546
 5070SOL    HW116109   6.498   3.592   6.626
 5070SOL    HW216110   6.519   3.568   6.466
 5071SOL     OW16111   2.921   6.102   3.085
 5071SOL    HW116112   2.957   6.185   3.129
 5071SOL    HW216113   2.923   6.113   2.986
 5072SOL     OW16114   0.934   1.410   2.026
 5072SOL    HW116115   1.000   1.386   1.955
 5072SOL    HW216116   0.881   1.329   2.051
 5073SOL     OW16117   1.734   1.291   3.614
 5073SOL    HW116118   1.785   1.355   3.557
 5073SOL    HW216119   1.798   1.234   3.666
 5074SOL     OW16120   3.726   2.119   1.429
 5074SOL    HW116121   3.756   2.061   1.504
 5074SOL    HW216122   3.695   2.207   1.465
 5075SOL     OW16123   6.051   2.576   0.500
 5075SOL    HW116124   6.111   2.497   0.485
 5075SOL    HW216125   6.075   2.621   0.586
 5076SOL     OW16126   0.102   0.951   5.847
 5076SOL    HW116127   0.178   0.997   5.802
 5076SOL    HW216128   0.137   0.890   5.918
 5077SOL     OW16129   0.370   4.472   3.817
 5077SOL    HW116130   0.393   4.378   3.793
 5077SOL    HW216131   0.320   4.473   3.903
 5078SOL     OW16132   6.313   2.232   3.266
 5078SOL    HW116133   6.251   2.263   3.337
 5078SOL    HW216134   6.282   2.143   3.231
 5079SOL     OW16135   1.883   4.155   4.737
 5079SOL    HW116136   1.955   4.092   4.763
 5079SOL    HW216137   1.823   4.171   4.816
 5080SOL     OW16138   6.422   5.815   6.960
 5080SOL    HW116139   6.385   5.901   6.924
 5080SOL    HW216140   6.516   5.829   6.989
 5081SOL     OW16141   2.415   4.873   5.340
 5081SOL    HW116142   2.465   4.801   5.388
 5081SOL    HW216143   2.329   4.892   5.387
 5082SOL     OW16144   5.856   6.713   2.112
 5082SOL    HW116145   5.796   6.697   2.034
 5082SOL    HW216146   5.839   6.643   2.181
 5083SOL     OW16147   1.236   7.014   3.362
 5083SOL    HW116148   1.183   6.942   3.317
 5083SOL    HW216149   1.180   0.073   3.367
 5084SOL     OW16150   3.733   5.006   5.759
 5084SOL    HW116151   3.766   5.068   5.687
 5084SOL    HW216152   3.636   4.988   5.745
 5085SOL     OW16153   0.264   4.439   5.651
 5085SOL    HW116154   0.208   4.437   5.568
 5085SOL    HW216155   0.297   4.532   5.667
 5086SOL     OW16156   0.611   4.666   2.267
 5086SOL    HW116157   0.700   4.708   2.286
 5086SOL    HW216158   0.539   4.718   2.312
 5087SOL     OW16159   0.360   5.122   1.776
 5087SOL    HW116160   0.420   5.202   1.774
 5087SOL    HW216161   0.266   5.151   1.793
 5088SOL     OW16162   4.528   4.757   2.327
 5088SOL    HW116163   4.584   4.809   2.391
 5088SOL    HW216164   4.582   4.733   2.246
 5089SOL     OW16165   5.634   6.612   6.001
 5089SOL    HW116166   5.690   6.564   6.068
 5089SOL    HW216167   5.681   6.696   5.972
 5090SOL     OW16168   2.339   6.318   4.549
 5090SOL    HW116169   2.414   6.349   4.608
 5090SOL    HW216170   2.339   6.218   4.545
 5091SOL     OW16171   6.289   5.984   6.148
 5091SOL    HW116172   6.220   6.052   6.122
 5091SOL    HW216173   6.310   5.927   6.069
 5092SOL     OW16174   4.080   3.388   4.132
 5092SOL    HW116175   4.069   3.293   4.159
 5092SOL    HW216176   4.112   3.442   4.210
 5093SOL     OW16177   3.279   2.109   3.738
 5093SOL    HW116178   3.342   2.140   3.667
 5093SOL    HW216179   3.202   2.062   3.696
 5094SOL     OW16180   2.113   5.971   5.280
 5094SOL    HW116181   2.070   5.882   5.264
 5094SOL    HW216182   2.211   5.957   5.297
 5095SOL     OW16183   0.006   1.308   3.195
 5095SOL    HW116184   6.959   1.269   3.253
 5095SOL    HW216185   7.003   1.400   3.167
 5096SOL     OW16186   6.445   3.214   6.278
 5096SOL    HW116187   6.530   3.263   6.258
 5096SOL    HW216188   6.466   3.132   6.332
 5097SOL     OW16189   0.996   1.226   5.614
 5097SOL    HW116190   1.093   1.243   5.593
 5097SOL    HW216191   0.976   1.129   5.599
 5098SOL     OW16192   2.808   2.195   0.550
 5098SOL    HW116193   2.878   2.124   0.538
 5098SOL    HW216194   2.839   2.279   0.505
 5099SOL     OW16195   2.365   5.718   2.594
 5099SOL    HW116196   2.334   5.764   2.677
 5099SOL    HW216197   2.426   5.643   2.618
 5100SOL     OW16198   5.478   3.800   1.873
 5100SOL    HW116199   5.543   3.859   1.825
 5100SOL    HW216200   5.527   3.720   1.908
 5101SOL     OW16201   2.956   1.652   5.199
 5101SOL    HW116202   2.920   1.707   5.274
 5101SOL    HW216203   3.025   1.588   5.234
 5102SOL     OW16204   5.736   4.647   4.831
 5102SOL    HW116205   5.789   4.731   4.817
 5102SOL    HW216206   5.638   4.667   4.826
 5103SOL     OW16207   0.556   0.540   5.908
 5103SOL    HW116208   0.504   0.467   5.952
 5103SOL    HW216209   0.552   0.622   5.966
 5104SOL     OW16210   4.123   3.400   3.427
 5104SOL    HW116211   4.133   3.409   3.526
 5104SOL    HW216212   4.078   3.313   3.407
 5105SOL     OW16213   4.115   3.071   6.870
 5105SOL    HW116214   4.030   3.115   6.898
 5105SOL    HW216215   4.109   2.973   6.889
 5106SOL     OW16216   3.808   1.211   1.623
 5106SOL    HW116217   3.773   1.148   1.554
 5106SOL    HW216218   3.841   1.294   1.579
 5107SOL     OW16219   6.256   5.171   0.184
 5107SOL    HW116220   6.328   5.228   0.223
 5107SOL    HW216221   6.197   5.137   0.256
 5108SOL     OW16222   4.027   4.581   1.414
 5108SOL    HW116223   4.011   4.521   1.335
 5108SOL    HW216224   4.039   4.675   1.383
 5109SOL     OW16225   1.319   2.499   2.468
 5109SOL    HW116226   1.404   2.449   2.455
 5109SOL    HW216227   1.303   2.512   2.566
 5110SOL     OW16228   4.138   6.504   4.792
 5110SOL    HW116229   4.088   6.571   4.846
 5110SOL    HW216230   4.237   6.520   4.802
 5111SOL     OW16231   1.790   5.731   5.702
 5111SOL    HW116232   1.883   5.768   5.702
 5111SOL    HW216233   1.731   5.790   5.646
 5112SOL     OW16234   1.362   4.820   2.658
 5112SOL    HW116235   1.462   4.825   2.651
 5112SOL    HW216236   1.337   4.757   2.732
 5113SOL     OW16237   1.854   4.145   0.809
 5113SOL    HW116238   1.858   4.243   0.792
 5113SOL    HW216239   1.937   4.101   0.773
 5114SOL     OW16240   4.286   4.667   1.324
 5114SOL    HW116241   4.214   4.617   1.372
 5114SOL    HW216242   4.304   4.624   1.235
 5115SOL     OW16243   1.615   4.576   0.472
 5115SOL    HW116244   1.540   4.619   0.523
 5115SOL    HW216245   1.606   4.477   0.477
 5116SOL     OW16246   6.999   6.304   4.989
 5116SOL    HW116247   0.062   6.262   4.963
 5116SOL    HW216248   6.993   6.396   4.949
 5117SOL     OW16249   0.207   2.919   3.201
 5117SOL    HW116250   0.113   2.917   3.167
 5117SOL    HW216251   0.264   2.857   3.148
 5118SOL     OW16252   4.134   5.511   6.826
 5118SOL    HW116253   4.189   5.577   6.876
 5118SOL    HW216254   4.089   5.449   6.890
 5119SOL     OW16255   6.125   1.727   0.353
 5119SOL    HW116256   6.203   1.720   0.415
 5119SOL    HW216257   6.140   1.669   0.274
 5120SOL     OW16258   5.802   6.479   6.160
 5120SOL    HW116259   5.846   6.446   6.077
 5120SOL    HW216260   5.863   6.463   6.238
 5121SOL     OW16261   1.404   3.175   0.130
 5121SOL    HW116262   1.393   3.207   0.225
 5121SOL    HW216263   1.466   3.235   0.081
 5122SOL     OW16264   4.179   4.793   3.314
 5122SOL    HW116265   4.121   4.776   3.394
 5122SOL    HW216266   4.195   4.892   3.306
 5123SOL     OW16267   4.788   2.278   1.608
 5123SOL    HW116268   4.769   2.224   1.526
 5123SOL    HW216269   4.803   2.217   1.685
 5124SOL     OW16270   0.574   6.034   4.645
 5124SOL    HW116271   0.661   6.083   4.655
 5124SOL    HW216272   0.592   5.939   4.622
 5125SOL     OW16273   6.346   2.405   3.928
 5125SOL    HW116274   6.366   2.379   3.833
 5125SOL    HW216275   6.261   2.362   3.956
 5126SOL     OW16276   2.444   1.001   1.894
 5126SOL    HW116277   2.439   0.917   1.948
 5126SOL    HW216278   2.538   1.032   1.889
 5127SOL     OW16279   2.136   6.598   6.941
 5127SOL    HW116280   2.157   6.600   0.015
 5127SOL    HW216281   2.074   6.521   6.922
 5128SOL     OW16282   4.685   6.831   1.397
 5128SOL    HW116283   4.782   6.808   1.384
 5128SOL    HW216284   4.649   6.873   1.314
 5129SOL     OW16285   6.175   6.158   0.518
 5129SOL    HW116286   6.266   6.158   0.561
 5129SOL    HW216287   6.180   6.203   0.429
 5130SOL     OW16288   5.876   4.597   2.726
 5130SOL    HW116289   5.789   4.630   2.763
 5130SOL    HW216290   5.880   4.497   2.735
 5131SOL     OW16291   2.334   2.760   2.624
 5131SOL    HW116292   2.348   2.730   2.719
 5131SOL    HW216293   2.296   2.853   2.624
 5132SOL     OW16294   2.641   5.755   5.539
 5132SOL    HW116295   2.639   5.854   5.523
 5132SOL    HW216296   2.563   5.712   5.493
 5133SOL     OW16297   3.661   6.351   5.193
 5133SOL    HW116298   3.595   6.335   5.267
 5133SOL    HW216299   3.659   6.448   5.168
 5134SOL     OW16300   6.194   3.979   6.429
 5134SOL    HW116301   6.217   3.887   6.460
 5134SOL    HW216302   6.144   4.026   6.502
 5135SOL     OW16303   6.591   1.818   4.023
 5135SOL    HW116304   6.578   1.898   3.965
 5135SOL    HW216305   6.638   1.844   4.107
 5136SOL     OW16306   3.449   2.157   6.347
 5136SOL    HW116307   3.481   2.234   6.293
 5136SOL    HW216308   3.368   2.117   6.304
 5137SOL     OW16309   3.433   3.381   0.229
 5137SOL    HW116310   3.475   3.347   0.313
 5137SOL    HW216311   3.497   3.371   0.153
 5138SOL     OW16312   2.098   3.696   5.763
 5138SOL    HW116313   2.048   3.682   5.848
 5138SOL    HW216314   2.091   3.614   5.707
 5139SOL     OW16315   0.757   0.127   3.349
 5139SOL    HW116316   0.752   0.204   3.413
 5139SOL    HW216317   0.677   0.128   3.290
 5140SOL     OW16318   2.906   2.878   1.719
 5140SOL    HW116319   2.823   2.835   1.685
 5140SOL    HW216320   2.898   2.977   1.709
 5141SOL     OW16321   0.925   4.264   5.920
 5141SOL    HW116322   0.950   4.230   6.010
 5141SOL    HW216323   0.827   4.283   5.918
 5142SOL     OW16324   5.779   3.522   2.238
 5142SOL    HW116325   5.836   3.598   2.271
 5142SOL    HW216326   5.750   3.540   2.144
 5143SOL     OW16327   6.998   5.364   5.253
 5143SOL    HW116328   0.050   5.310   5.218
 5143SOL    HW216329   7.014   5.461   5.235
 5144SOL     OW16330   1.846   1.934   4.866
 5144SOL    HW116331   1.904   1.991   4.808
 5144SOL    HW216332   1.894   1.911   4.950
 5145SOL     OW16333   3.379   5.593   5.836
 5145SOL    HW116334   3.465   5.596   5.785
 5145SOL    HW216335   3.321   5.670   5.807
 5146SOL     OW16336   2.464   4.719   0.462
 5146SOL    HW116337   2.444   4.651   0.533
 5146SOL    HW216338   2.546   4.692   0.412
 5147SOL     OW16339   7.023   5.177   6.593
 5147SOL    HW116340   6.950   5.122   6.633
 5147SOL    HW216341   7.016   5.271   6.626
 5148SOL     OW16342   0.289   0.891   0.701
 5148SOL    HW116343   0.204   0.855   0.663
 5148SOL    HW216344   0.335   0.819   0.754
 5149SOL     OW16345   6.911   0.326   5.624
 5149SOL    HW116346   6.913   0.266   5.704
 5149SOL    HW216347   6.987   0.304   5.564
 5150SOL     OW16348   1.683   5.366   5.089
 5150SOL    HW116349   1.597   5.397   5.131
 5150SOL    HW216350   1.755   5.432   5.108
 5151SOL     OW16351   4.149   1.077   5.570
 5151SOL    HW116352   4.100   1.078   5.657
 5151SOL    HW216353   4.097   1.023   5.504
 5152SOL     OW16354   0.427   4.753   0.501
 5152SOL    HW116355   0.447   4.695   0.423
 5152SOL    HW216356   0.489   4.831   0.502
 5153SOL     OW16357   1.972   2.375   1.334
 5153SOL    HW116358   1.948   2.419   1.247
 5153SOL    HW216359   1.888   2.343   1.379
 5154SOL     OW16360   1.698   4.576   4.922
 5154SOL    HW116361   1.607   4.605   4.891
 5154SOL    HW216362   1.744   4.527   4.848
 5155SOL     OW16363   3.747   0.545   2.914
 5155SOL    HW116364   3.666   0.494   2.943
 5155SOL    HW216365   3.829   0.502   2.952
 5156SOL     OW16366   5.441   3.177   5.846
 5156SOL    HW116367   5.495   3.094   5.834
 5156SOL    HW216368   5.399   3.176   5.937
 5157SOL     OW16369   5.951   2.362   4.144
 5157SOL    HW116370   5.929   2.306   4.224
 5157SOL    HW216371   5.957   2.458   4.172
 5158SOL     OW16372   3.411   0.839   0.828
 5158SOL    HW116373   3.485   0.787   0.871
 5158SOL    HW216374   3.374   0.904   0.893
 5159SOL     OW16375   2.130   3.311   4.896
 5159SOL    HW116376   2.053   3.327   4.959
 5159SOL    HW216377   2.185   3.234   4.930
 5160SOL     OW16378   2.713   2.399   3.868
 5160SOL    HW116379   2.737   2.307   3.898
 5160SOL    HW216380   2.667   2.448   3.943
 5161SOL     OW16381   1.930   3.144   6.258
 5161SOL    HW116382   2.025   3.120   6.236
 5161SOL    HW216383   1.886   3.181   6.176
 5162SOL     OW16384   6.407   5.145   4.437
 5162SOL    HW116385   6.490   5.155   4.382
 5162SOL    HW216386   6.370   5.236   4.458
 5163SOL     OW16387   5.368   4.149   1.131
 5163SOL    HW116388   5.407   4.236   1.100
 5163SOL    HW216389   5.276   4.138   1.093
 5164SOL     OW16390   6.450   6.119   4.893
 5164SOL    HW116391   6.500   6.094   4.976
 5164SOL    HW216392   6.372   6.177   4.917
 5165SOL     OW16393   5.322   3.339   4.829
 5165SOL    HW116394   5.384   3.348   4.751
 5165SOL    HW216395   5.234   3.379   4.807
 5166SOL     OW16396   1.735   0.371   2.136
 5166SOL    HW116397   1.701   0.465   2.133
 5166SOL    HW216398   1.828   0.371   2.173
 5167SOL     OW16399   2.221   0.288   6.020
 5167SOL    HW116400   2.306   0.273   6.070
 5167SOL    HW216401   2.225   0.241   5.932
 5168SOL     OW16402   3.477   2.017   2.787
 5168SOL    HW116403   3.573   2.000   2.811
 5168SOL    HW216404   3.469   2.032   2.689
 5169SOL     OW16405   4.034   4.170   6.645
 5169SOL    HW116406   3.991   4.129   6.565
 5169SOL    HW216407   4.036   4.104   6.720
 5170SOL     OW16408   4.334   5.328   4.186
 5170SOL    HW116409   4.275   5.368   4.256
 5170SOL    HW216410   4.298   5.238   4.159
 5171SOL     OW16411   2.346   4.807   5.063
 5171SOL    HW116412   2.387   4.797   5.154
 5171SOL    HW216413   2.276   4.878   5.065
 5172SOL     OW16414   1.570   4.683   6.459
 5172SOL    HW116415   1.581   4.764   6.516
 5172SOL    HW216416   1.544   4.605   6.516
 5173SOL     OW16417   0.149   2.421   5.381
 5173SOL    HW116418   0.164   2.500   5.322
 5173SOL    HW216419   0.051   2.408   5.396
 5174SOL     OW16420   2.335   5.030   5.849
 5174SOL    HW116421   2.254   4.992   5.894
 5174SOL    HW216422   2.308   5.107   5.791
 5175SOL     OW16423   0.265   5.773   6.096
 5175SOL    HW116424   0.287   5.848   6.159
 5175SOL    HW216425   0.212   5.703   6.144
 5176SOL     OW16426   5.399   3.976   6.310
 5176SOL    HW116427   5.369   3.974   6.405
 5176SOL    HW216428   5.481   3.919   6.300
 5177SOL     OW16429   5.494   5.705   6.277
 5177SOL    HW116430   5.423   5.774   6.289
 5177SOL    HW216431   5.470   5.645   6.200
 5178SOL     OW16432   2.994   3.503   0.952
 5178SOL    HW116433   2.894   3.505   0.957
 5178SOL    HW216434   3.032   3.481   1.041
 5179SOL     OW16435   3.374   6.465   5.177
 5179SOL    HW116436   3.438   6.538   5.202
 5179SOL    HW216437   3.316   6.444   5.255
 5180SOL     OW16438   3.752   1.870   0.343
 5180SOL    HW116439   3.701   1.805   0.286
 5180SOL    HW216440   3.754   1.960   0.298
 5181SOL     OW16441   2.931   5.938   2.693
 5181SOL    HW116442   2.920   6.024   2.743
 5181SOL    HW216443   2.908   5.953   2.597
 5182SOL     OW16444   4.602   4.001   1.348
 5182SOL    HW116445   4.644   3.937   1.283
 5182SOL    HW216446   4.511   4.025   1.316
 5183SOL     OW16447   3.907   0.836   3.762
 5183SOL    HW116448   3.966   0.884   3.827
 5183SOL    HW216449   3.832   0.896   3.734
 5184SOL     OW16450   1.409   2.336   3.120
 5184SOL    HW116451   1.467   2.391   3.060
 5184SOL    HW216452   1.445   2.337   3.213
 5185SOL     OW16453   3.882   0.121   0.976
 5185SOL    HW116454   3.870   0.038   0.922
 5185SOL    HW216455   3.823   0.117   1.057
 5186SOL     OW16456   4.976   4.372   0.370
 5186SOL    HW116457   5.038   4.334   0.302
 5186SOL    HW216458   4.893   4.316   0.374
 5187SOL     OW16459   4.776   2.524   4.155
 5187SOL    HW116460   4.872   2.509   4.132
 5187SOL    HW216461   4.718   2.495   4.079
 5188SOL     OW16462   0.997   1.527   3.842
 5188SOL    HW116463   1.039   1.510   3.931
 5188SOL    HW216464   1.007   1.446   3.784
 5189SOL     OW16465   4.272   6.242   6.644
 5189SOL    HW116466   4.178   6.246   6.677
 5189SOL    HW216467   4.318   6.163   6.685
 5190SOL     OW16468   2.421   2.611   2.120
 5190SOL    HW116469   2.517   2.588   2.106
 5190SOL    HW216470   2.364   2.551   2.062
 5191SOL     OW16471   4.974   6.895   2.413
 5191SOL    HW116472   5.002   6.800   2.428
 5191SOL    HW216473   5.054   6.950   2.389
 5192SOL     OW16474   6.114   3.794   1.546
 5192SOL    HW116475   6.159   3.817   1.631
 5192SOL    HW216476   6.030   3.848   1.536
 5193SOL     OW16477   3.987   4.890   2.236
 5193SOL    HW116478   4.023   4.976   2.202
 5193SOL    HW216479   4.059   4.820   2.234
 5194SOL     OW16480   5.362   0.988   0.446
 5194SOL    HW116481   5.282   1.048   0.439
 5194SOL    HW216482   5.391   0.982   0.542
 5195SOL     OW16483   0.015   6.847   5.065
 5195SOL    HW116484   0.105   6.818   5.032
 5195SOL    HW216485   0.016   6.851   5.165
 5196SOL     OW16486   6.743   3.745   2.989
 5196SOL    HW116487   6.760   3.672   3.055
 5196SOL    HW216488   6.656   3.789   3.010
 5197SOL     OW16489   3.822   5.765   5.321
 5197SOL    HW116490   3.827   5.825   5.401
 5197SOL    HW216491   3.751   5.799   5.259
 5198SOL     OW16492   3.914   1.851   5.231
 5198SOL    HW116493   3.954   1.932   5.188
 5198SOL    HW216494   3.870   1.794   5.161
 5199SOL     OW16495   6.800   5.581   1.344
 5199SOL    HW116496   6.813   5.625   1.255
 5199SOL    HW216497   6.852   5.631   1.414
 5200SOL     OW16498   6.927   0.355   4.615
 5200SOL    HW116499   6.909   0.290   4.689
 5200SOL    HW216500   6.842   0.376   4.568
 5201SOL     OW16501   6.097   4.754   5.695
 5201SOL    HW116502   6.192   4.760   5.724
 5201SOL    HW216503   6.088   4.688   5.621
 5202SOL     OW16504   3.491   2.661   6.160
 5202SOL    HW116505   3.445   2.730   6.218
 5202SOL    HW216506   3.590   2.679   6.160
 5203SOL     OW16507   1.142   0.926   6.357
 5203SOL    HW116508   1.078   0.910   6.433
 5203SOL    HW216509   1.234   0.940   6.394
 5204SOL     OW16510   2.016   0.770   1.842
 5204SOL    HW116511   2.014   0.809   1.749
 5204SOL    HW216512   2.080   0.694   1.844
 5205SOL     OW16513   0.055   0.169   1.424
 5205SOL    HW116514   0.084   0.126   1.338
 5205SOL    HW216515   7.004   0.232   1.406
 5206SOL     OW16516   0.649   4.836   4.138
 5206SOL    HW116517   0.582   4.832   4.064
 5206SOL    HW216518   0.731   4.786   4.111
 5207SOL     OW16519   5.150   0.120   5.134
 5207SOL    HW116520   5.219   0.055   5.105
 5207SOL    HW216521   5.122   0.177   5.057
 5208SOL     OW16522   0.018   2.073   0.093
 5208SOL    HW116523   6.951   2.107   0.065
 5208SOL    HW216524   0.052   2.129   0.168
 5209SOL     OW16525   5.036   6.434   3.513
 5209SOL    HW116526   5.123   6.386   3.514
 5209SOL    HW216527   4.961   6.368   3.509
 5210SOL     OW16528   5.617   4.312   1.268
 5210SOL    HW116529   5.544   4.266   1.320
 5210SOL    HW216530   5.577   4.360   1.190
 5211SOL     OW16531   5.549   3.284   5.614
 5211SOL    HW116532   5.511   3.205   5.565
 5211SOL    HW216533   5.544   3.267   5.712
 5212SOL     OW16534   6.802   4.220   0.062
 5212SOL    HW116535   6.808   4.152   0.134
 5212SOL    HW216536   6.739   4.293   0.089
 5213SOL     OW16537   3.447   2.931   3.167
 5213SOL    HW116538   3.390   2.902   3.090
 5213SOL    HW216539   3.543   2.909   3.147
 5214SOL     OW16540   5.516   3.563   6.263
 5214SOL    HW116541   5.602   3.512   6.256
 5214SOL    HW216542   5.457   3.540   6.186
 5215SOL     OW16543   0.298   5.624   5.085
 5215SOL    HW116544   0.227   5.625   5.156
 5215SOL    HW216545   0.388   5.627   5.129
 5216SOL     OW16546   6.268   3.937   1.176
 5216SOL    HW116547   6.314   4.007   1.122
 5216SOL    HW216548   6.174   3.927   1.144
 5217SOL     OW16549   4.494   6.934   3.016
 5217SOL    HW116550   4.481   6.922   2.918
 5217SOL    HW216551   4.511   0.007   3.035
 5218SOL     OW16552   5.917   6.643   0.558
 5218SOL    HW116553   5.920   6.694   0.644
 5218SOL    HW216554   5.854   6.687   0.495
 5219SOL     OW16555   3.429   1.523   5.166
 5219SOL    HW116556   3.383   1.495   5.082
 5219SOL    HW216557   3.528   1.523   5.152
 5220SOL     OW16558   2.019   4.963   4.628
 5220SOL    HW116559   2.043   4.867   4.609
 5220SOL    HW216560   1.994   4.972   4.724
 5221SOL     OW16561   5.054   5.769   1.274
 5221SOL    HW116562   5.096   5.782   1.364
 5221SOL    HW216563   5.085   5.841   1.212
 5222SOL     OW16564   6.847   3.939   2.464
 5222SOL    HW116565   6.878   3.958   2.557
 5222SOL    HW216566   6.907   3.871   2.422
 5223SOL     OW16567   6.881   2.938   0.713
 5223SOL    HW116568   6.829   2.951   0.629
 5223SOL    HW216569   6.832   2.873   0.772
 5224SOL     OW16570   1.206   1.336   4.461
 5224SOL    HW116571   1.176   1.361   4.554
 5224SOL    HW216572   1.151   1.386   4.394
 5225SOL     OW16573   6.911   2.308   5.414
 5225SOL    HW116574   6.970   2.228   5.422
 5225SOL    HW216575   6.867   2.326   5.502
 5226SOL     OW16576   0.250   6.544   4.345
 5226SOL    HW116577   0.159   6.560   4.383
 5226SOL    HW216578   0.247   6.556   4.245
 5227SOL     OW16579   0.974   3.074   5.770
 5227SOL    HW116580   0.968   3.132   5.689
 5227SOL    HW216581   1.069   3.047   5.785
 5228SOL     OW16582   1.502   1.991   5.041
 5228SOL    HW116583   1.554   2.056   5.097
 5228SOL    HW216584   1.480   1.910   5.096
 5229SOL     OW16585   3.793   1.906   6.662
 5229SOL    HW116586   3.764   1.932   6.754
 5229SOL    HW216587   3.715   1.910   6.600
 5230SOL     OW16588   6.501   7.002   1.699
 5230SOL    HW116589   6.407   0.013   1.700
 5230SOL    HW216590   6.528   6.980   1.606
 5231SOL     OW16591   6.222   3.550   2.055
 5231SOL    HW116592   6.314   3.580   2.030
 5231SOL    HW216593   6.212   3.453   2.032
 5232SOL     OW16594   1.612   1.940   5.739
 5232SOL    HW116595   1.593   1.984   5.827
 5232SOL    HW216596   1.526   1.922   5.692
 5233SOL     OW16597   3.257   6.889   3.506
 5233SOL    HW116598   3.236   6.884   3.408
 5233SOL    HW216599   3.250   6.984   3.536
 5234SOL     OW16600   2.831   2.559   6.411
 5234SOL    HW116601   2.828   2.493   6.486
 5234SOL    HW216602   2.776   2.525   6.335
 5235SOL     OW16603   2.550   2.247   1.499
 5235SOL    HW116604   2.629   2.194   1.528
 5235SOL    HW216605   2.579   2.340   1.474
 5236SOL     OW16606   3.195   5.031   2.290
 5236SOL    HW116607   3.282   5.063   2.254
 5236SOL    HW216608   3.131   5.108   2.295
 5237SOL     OW16609   2.013   1.417   2.604
 5237SOL    HW116610   2.052   1.475   2.533
 5237SOL    HW216611   1.913   1.412   2.592
 5238SOL     OW16612   6.761   0.346   2.645
 5238SOL    HW116613   6.700   0.425   2.655
 5238SOL    HW216614   6.767   0.298   2.732
 5239SOL     OW16615   2.670   4.021   0.839
 5239SOL    HW116616   2.686   4.083   0.916
 5239SOL    HW216617   2.744   4.031   0.773
 5240SOL     OW16618   2.382   4.176   6.010
 5240SOL    HW116619   2.440   4.184   5.929
 5240SOL    HW216620   2.399   4.252   6.072
 5241SOL     OW16621   1.920   6.695   3.481
 5241SOL    HW116622   1.824   6.676   3.499
 5241SOL    HW216623   1.977   6.620   3.515
 5242SOL     OW16624   4.264   6.558   5.744
 5242SOL    HW116625   4.254   6.481   5.681
 5242SOL    HW216626   4.301   6.525   5.831
 5243SOL     OW16627   2.981   5.442   3.871
 5243SOL    HW116628   2.994   5.374   3.942
 5243SOL    HW216629   3.066   5.454   3.820
 5244SOL     OW16630   4.480   1.073   6.489
 5244SOL    HW116631   4.569   1.114   6.511
 5244SOL    HW216632   4.467   0.990   6.544
 5245SOL     OW16633   3.050   3.942   2.245
 5245SOL    HW116634   3.085   3.970   2.335
 5245SOL    HW216635   2.975   3.877   2.257
 5246SOL     OW16636   6.210   3.485   6.463
 5246SOL    HW116637   6.308   3.489   6.481
 5246SOL    HW216638   6.167   3.424   6.529
 5247SOL     OW16639   4.661   1.392   5.905
 5247SOL    HW116640   4.630   1.475   5.858
 5247SOL    HW216641   4.733   1.347   5.850
 5248SOL     OW16642   4.776   1.096   3.778
 5248SOL    HW116643   4.867   1.130   3.753
 5248SOL    HW216644   4.784   1.027   3.849
 5249SOL     OW16645   6.711   5.367   0.993
 5249SOL    HW116646   6.681   5.302   0.924
 5249SOL    HW216647   6.681   5.337   1.084
 5250SOL     OW16648   2.108   5.211   0.990
 5250SOL    HW116649   2.180   5.142   0.999
 5250SOL    HW216650   2.141   5.298   1.027
 5251SOL     OW16651   0.788   4.563   6.681
 5251SOL    HW116652   0.797   4.538   6.584
 5251SOL    HW216653   0.878   4.589   6.717
 5252SOL     OW16654   3.795   5.462   3.036
 5252SOL    HW116655   3.871   5.509   3.080
 5252SOL    HW216656   3.831   5.392   2.974
 5253SOL     OW16657   0.280   6.327   4.642
 5253SOL    HW116658   0.368   6.330   4.594
 5253SOL    HW216659   0.214   6.276   4.587
 5254SOL     OW16660   4.388   6.358   2.775
 5254SOL    HW116661   4.354   6.443   2.734
 5254SOL    HW216662   4.467   6.325   2.724
 5255SOL     OW16663   0.053   1.212   6.123
 5255SOL    HW116664   0.026   1.303   6.092
 5255SOL    HW216665   0.002   1.143   6.071
 5256SOL     OW16666   4.646   1.741   2.822
 5256SOL    HW116667   4.709   1.691   2.763
 5256SOL    HW216668   4.552   1.729   2.789
 5257SOL     OW16669   4.766   1.641   6.789
 5257SOL    HW116670   4.776   1.555   6.739
 5257SOL    HW216671   4.691   1.633   6.855
 5258SOL     OW16672   5.322   1.687   5.437
 5258SOL    HW116673   5.309   1.599   5.482
 5258SOL    HW216674   5.344   1.672   5.341
 5259SOL     OW16675   5.359   5.750   4.110
 5259SOL    HW116676   5.307   5.738   4.025
 5259SOL    HW216677   5.314   5.819   4.167
 5260SOL     OW16678   2.063   6.104   1.518
 5260SOL    HW116679   2.002   6.161   1.462
 5260SOL    HW216680   2.031   6.104   1.613
 5261SOL     OW16681   6.149   4.900   6.916
 5261SOL    HW116682   6.162   4.874   6.821
 5261SOL    HW216683   6.236   4.931   6.954
 5262SOL     OW16684   1.869   2.173   1.858
 5262SOL    HW116685   1.809   2.250   1.876
 5262SOL    HW216686   1.909   2.140   1.944
 5263SOL     OW16687   1.643   6.137   3.156
 5263SOL    HW116688   1.603   6.222   3.190
 5263SOL    HW216689   1.593   6.106   3.075
 5264SOL     OW16690   0.120   2.671   2.357
 5264SOL    HW116691   0.191   2.738   2.334
 5264SOL    HW216692   0.033   2.719   2.374
 5265SOL     OW16693   7.003   5.980   5.806
 5265SOL    HW116694   7.010   5.989   5.905
 5265SOL    HW216695   6.952   6.058   5.769
 5266SOL     OW16696   1.588   0.066   5.838
 5266SOL    HW116697   1.667   0.041   5.894
 5266SOL    HW216698   1.549   7.007   5.797
 5267SOL     OW16699   5.810   1.711   4.470
 5267SOL    HW116700   5.774   1.693   4.378
 5267SOL    HW216701   5.793   1.632   4.528
 5268SOL     OW16702   5.483   0.434   6.087
 5268SOL    HW116703   5.412   0.373   6.124
 5268SOL    HW216704   5.572   0.407   6.122
 5269SOL     OW16705   1.422   0.330   4.324
 5269SOL    HW116706   1.408   0.393   4.400
 5269SOL    HW216707   1.393   0.238   4.350
 5270SOL     OW16708   0.775   2.031   6.298
 5270SOL    HW116709   0.831   2.113   6.299
 5270SOL    HW216710   0.822   1.959   6.246
 5271SOL     OW16711   1.274   5.837   4.945
 5271SOL    HW116712   1.271   5.750   4.995
 5271SOL    HW216713   1.364   5.879   4.959
 5272SOL     OW16714   4.440   0.679   6.451
 5272SOL    HW116715   4.360   0.680   6.390
 5272SOL    HW216716   4.517   0.636   6.404
 5273SOL     OW16717   2.372   0.947   3.100
 5273SOL    HW116718   2.353   1.006   3.178
 5273SOL    HW216719   2.471   0.939   3.088
 5274SOL     OW16720   5.563   4.628   1.445
 5274SOL    HW116721   5.502   4.647   1.522
 5274SOL    HW216722   5.612   4.542   1.463
 5275SOL     OW16723   4.966   1.550   6.105
 5275SOL    HW116724   5.066   1.547   6.104
 5275SOL    HW216725   4.933   1.587   6.018
 5276SOL     OW16726   3.779   6.400   1.713
 5276SOL    HW116727   3.783   6.390   1.613
 5276SOL    HW216728   3.822   6.321   1.756
 5277SOL     OW16729   2.113   3.341   1.731
 5277SOL    HW116730   2.162   3.366   1.815
 5277SOL    HW216731   2.041   3.275   1.752
 5278SOL     OW16732   3.688   3.442   2.225
 5278SOL    HW116733   3.763   3.444   2.291
 5278SOL    HW216734   3.683   3.352   2.182
 5279SOL     OW16735   1.608   5.985   2.790
 5279SOL    HW116736   1.573   5.926   2.716
 5279SOL    HW216737   1.706   5.970   2.801
 5280SOL     OW16738   3.786   1.057   4.440
 5280SOL    HW116739   3.824   0.972   4.403
 5280SOL    HW216740   3.788   1.128   4.368
 5281SOL     OW16741   6.923   2.359   4.000
 5281SOL    HW116742   6.831   2.349   3.962
 5281SOL    HW216743   6.937   2.291   4.072
 5282SOL     OW16744   4.847   2.326   1.315
 5282SOL    HW116745   4.928   2.374   1.283
 5282SOL    HW216746   4.828   2.248   1.255
 5283SOL     OW16747   4.759   4.593   6.161
 5283SOL    HW116748   4.851   4.577   6.125
 5283SOL    HW216749   4.736   4.522   6.227
 5284SOL     OW16750   5.037   2.958   4.321
 5284SOL    HW116751   5.059   3.043   4.368
 5284SOL    HW216752   5.121   2.917   4.285
 5285SOL     OW16753   4.109   6.652   2.592
 5285SOL    HW116754   4.169   6.625   2.668
 5285SOL    HW216755   4.024   6.689   2.628
 5286SOL     OW16756   2.106   5.051   2.076
 5286SOL    HW116757   2.095   5.069   2.174
 5286SOL    HW216758   2.052   5.117   2.024
 5287SOL     OW16759   1.168   1.142   2.567
 5287SOL    HW116760   1.130   1.208   2.632
 5287SOL    HW216761   1.249   1.099   2.606
 5288SOL     OW16762   4.213   0.030   0.803
 5288SOL    HW116763   4.303   7.012   0.812
 5288SOL    HW216764   4.171   7.023   0.717
 5289SOL     OW16765   1.287   6.277   1.344
 5289SOL    HW116766   1.201   6.257   1.296
 5289SOL    HW216767   1.351   6.202   1.328
 5290SOL     OW16768   5.610   6.103   6.952
 5290SOL    HW116769   5.558   6.084   0.012
 5290SOL    HW216770   5.561   6.066   6.873
 5291SOL     OW16771   0.957   5.787   7.014
 5291SOL    HW116772   0.871   5.838   7.002
 5291SOL    HW216773   0.936   5.689   7.019
 5292SOL     OW16774   5.154   1.938   0.969
 5292SOL    HW116775   5.116   2.016   1.018
 5292SOL    HW216776   5.134   1.854   1.019
 5293SOL     OW16777   2.181   1.533   4.369
 5293SOL    HW116778   2.205   1.630   4.364
 5293SOL    HW216779   2.086   1.521   4.342
 5294SOL     OW16780   3.942   2.514   6.381
 5294SOL    HW116781   4.004   2.439   6.403
 5294SOL    HW216782   3.860   2.508   6.437
 5295SOL     OW16783   6.663   1.546   2.782
 5295SOL    HW116784   6.577   1.596   2.777
 5295SOL    HW216785   6.651   1.462   2.835
 5296SOL     OW16786   0.252   2.811   6.489
 5296SOL    HW116787   0.258   2.712   6.505
 5296SOL    HW216788   0.200   2.853   6.563
 5297SOL     OW16789   0.847   2.457   1.891
 5297SOL    HW116790   0.867   2.359   1.900
 5297SOL    HW216791   0.922   2.510   1.929
 5298SOL     OW16792   1.398   4.583   1.799
 5298SOL    HW116793   1.467   4.615   1.864
 5298SOL    HW216794   1.310   4.624   1.820
 5299SOL     OW16795   3.353   0.325   0.153
 5299SOL    HW116796   3.386   0.336   0.060
 5299SOL    HW216797   3.395   0.394   0.212
 5300SOL     OW16798   7.011   4.994   3.614
 5300SOL    HW116799   6.923   4.990   3.566
 5300SOL    HW216800   7.004   5.060   3.689
 5301SOL     OW16801   5.974   0.553   6.605
 5301SOL    HW116802   6.006   0.530   6.514
 5301SOL    HW216803   5.878   0.581   6.601
 5302SOL     OW16804   6.993   3.929   3.835
 5302SOL    HW116805   6.964   3.867   3.762
 5302SOL    HW216806   6.979   3.885   3.924
 5303SOL     OW16807   1.669   4.609   3.472
 5303SOL    HW116808   1.710   4.686   3.423
 5303SOL    HW216809   1.637   4.640   3.562
 5304SOL     OW16810   4.355   2.530   5.769
 5304SOL    HW116811   4.436   2.588   5.760
 5304SOL    HW216812   4.276   2.587   5.790
 5305SOL     OW16813   3.185   1.822   5.028
 5305SOL    HW116814   3.132   1.808   5.112
 5305SOL    HW216815   3.283   1.819   5.050
 5306SOL     OW16816   2.539   6.782   3.815
 5306SOL    HW116817   2.497   6.860   3.770
 5306SOL    HW216818   2.638   6.798   3.824
 5307SOL     OW16819   5.331   6.810   0.167
 5307SOL    HW116820   5.240   6.788   0.204
 5307SOL    HW216821   5.364   6.894   0.209
 5308SOL     OW16822   6.666   1.568   1.846
 5308SOL    HW116823   6.669   1.632   1.923
 5308SOL    HW216824   6.602   1.494   1.867
 5309SOL     OW16825   4.002   3.515   5.254
 5309SOL    HW116826   3.980   3.418   5.251
 5309SOL    HW216827   3.961   3.556   5.336
 5310SOL     OW16828   5.250   2.733   0.274
 5310SOL    HW116829   5.165   2.685   0.251
 5310SOL    HW216830   5.328   2.677   0.248
 5311SOL     OW16831   6.793   6.386   0.262
 5311SOL    HW116832   6.878   6.365   0.309
 5311SOL    HW216833   6.734   6.440   0.322
 5312SOL     OW16834   0.426   3.184   1.252
 5312SOL    HW116835   0.490   3.261   1.246
 5312SOL    HW216836   0.472   3.106   1.295
 5313SOL     OW16837   0.171   6.495   0.600
 5313SOL    HW116838   0.245   6.561   0.584
 5313SOL    HW216839   0.162   6.477   0.698
 5314SOL     OW16840   3.570   5.185   1.147
 5314SOL    HW116841   3.627   5.146   1.075
 5314SOL    HW216842   3.482   5.137   1.149
 5315SOL     OW16843   5.792   1.287   1.957
 5315SOL    HW116844   5.819   1.303   1.862
 5315SOL    HW216845   5.874   1.269   2.012
 5316SOL     OW16846   5.232   5.689   4.420
 5316SOL    HW116847   5.300   5.620   4.443
 5316SOL    HW216848   5.152   5.644   4.379
 5317SOL     OW16849   6.771   5.133   1.889
 5317SOL    HW116850   6.677   5.104   1.909
 5317SOL    HW216851   6.771   5.193   1.809
 5318SOL     OW16852   6.842   2.430   3.449
 5318SOL    HW116853   6.777   2.426   3.525
 5318SOL    HW216854   6.791   2.439   3.363
 5319SOL     OW16855   3.310   5.986   3.196
 5319SOL    HW116856   3.279   5.992   3.101
 5319SOL    HW216857   3.305   6.076   3.239
 5320SOL     OW16858   6.652   2.870   6.731
 5320SOL    HW116859   6.618   2.962   6.714
 5320SOL    HW216860   6.667   2.856   6.829
 5321SOL     OW16861   2.848   4.329   6.606
 5321SOL    HW116862   2.925   4.369   6.656
 5321SOL    HW216863   2.867   4.233   6.588
 5322SOL     OW16864   2.322   6.026   0.183
 5322SOL    HW116865   2.382   5.947   0.168
 5322SOL    HW216866   2.261   6.008   0.260
 5323SOL     OW16867   5.724   3.163   0.461
 5323SOL    HW116868   5.671   3.194   0.541
 5323SOL    HW216869   5.712   3.065   0.450
 5324SOL     OW16870   4.493   3.008   1.389
 5324SOL    HW116871   4.510   2.971   1.298
 5324SOL    HW216872   4.412   3.067   1.386
 5325SOL     OW16873   3.494   6.366   5.469
 5325SOL    HW116874   3.471   6.340   5.562
 5325SOL    HW216875   3.446   6.451   5.445
 5326SOL     OW16876   0.029   0.518   2.705
 5326SOL    HW116877   0.063   0.506   2.798
 5326SOL    HW216878   6.973   0.459   2.691
 5327SOL     OW16879   6.334   0.355   4.216
 5327SOL    HW116880   6.335   0.390   4.310
 5327SOL    HW216881   6.266   0.404   4.163
 5328SOL     OW16882   3.329   4.932   6.862
 5328SOL    HW116883   3.389   4.935   6.781
 5328SOL    HW216884   3.300   4.838   6.878
 5329SOL     OW16885   0.414   5.972   6.737
 5329SOL    HW116886   0.414   5.934   6.645
 5329SOL    HW216887   0.505   5.959   6.778
 5330SOL     OW16888   4.122   5.005   0.353
 5330SOL    HW116889   4.059   4.929   0.362
 5330SOL    HW216890   4.216   4.972   0.363
 5331SOL     OW16891   5.784   1.352   6.540
 5331SOL    HW116892   5.765   1.264   6.583
 5331SOL    HW216893   5.865   1.344   6.482
 5332SOL     OW16894   6.105   2.606   6.652
 5332SOL    HW116895   6.131   2.608   6.748
 5332SOL    HW216896   6.183   2.576   6.597
 5333SOL     OW16897   0.982   0.243   3.580
 5333SOL    HW116898   1.045   0.182   3.627
 5333SOL    HW216899   0.909   0.271   3.642
 5334SOL     OW16900   3.015   6.076   1.363
 5334SOL    HW116901   3.047   5.986   1.334
 5334SOL    HW216902   2.966   6.067   1.450
 5335SOL     OW16903   0.094   5.174   1.787
 5335SOL    HW116904   0.034   5.195   1.864
 5335SOL    HW216905   0.076   5.239   1.713
 5336SOL     OW16906   1.571   3.379   5.309
 5336SOL    HW116907   1.655   3.434   5.314
 5336SOL    HW216908   1.562   3.325   5.392
 5337SOL     OW16909   6.502   2.609   0.831
 5337SOL    HW116910   6.517   2.698   0.873
 5337SOL    HW216911   6.511   2.617   0.731
 5338SOL     OW16912   0.093   3.574   0.568
 5338SOL    HW116913   0.145   3.540   0.645
 5338SOL    HW216914   0.004   3.608   0.600
 5339SOL     OW16915   5.468   2.996   3.061
 5339SOL    HW116916   5.543   3.057   3.035
 5339SOL    HW216917   5.468   2.984   3.160
 5340SOL     OW16918   4.807   3.151   1.290
 5340SOL    HW116919   4.737   3.167   1.221
 5340SOL    HW216920   4.830   3.053   1.291
 5341SOL     OW16921   4.890   4.738   3.445
 5341SOL    HW116922   4.879   4.696   3.534
 5341SOL    HW216923   4.811   4.796   3.425
 5342SOL     OW16924   6.367   5.898   5.087
 5342SOL    HW116925   6.330   5.979   5.044
 5342SOL    HW216926   6.306   5.820   5.072
 5343SOL     OW16927   3.521   3.292   6.711
 5343SOL    HW116928   3.584   3.366   6.687
 5343SOL    HW216929   3.547   3.210   6.660
 5344SOL     OW16930   6.508   2.260   6.799
 5344SOL    HW116931   6.445   2.188   6.770
 5344SOL    HW216932   6.524   2.252   6.898
 5345SOL     OW16933   3.104   1.639   0.374
 5345SOL    HW116934   3.061   1.567   0.319
 5345SOL    HW216935   3.069   1.634   0.468
 5346SOL     OW16936   2.283   6.359   3.137
 5346SOL    HW116937   2.198   6.407   3.159
 5346SOL    HW216938   2.275   6.263   3.165
 5347SOL     OW16939   5.944   1.504   5.195
 5347SOL    HW116940   5.936   1.404   5.198
 5347SOL    HW216941   6.041   1.528   5.185
 5348SOL     OW16942   4.687   2.953   5.868
 5348SOL    HW116943   4.631   2.873   5.891
 5348SOL    HW216944   4.748   2.973   5.945
 5349SOL     OW16945   0.704   4.363   0.559
 5349SOL    HW116946   0.773   4.295   0.581
 5349SOL    HW216947   0.619   4.341   0.606
 5350SOL     OW16948   1.275   6.824   6.403
 5350SOL    HW116949   1.353   6.827   6.466
 5350SOL    HW216950   1.308   6.806   6.311
 5351SOL     OW16951   0.368   5.998   3.807
 5351SOL    HW116952   0.369   6.024   3.710
 5351SOL    HW216953   0.366   6.081   3.863
 5352SOL     OW16954   0.777   2.661   6.079
 5352SOL    HW116955   0.727   2.618   6.004
 5352SOL    HW216956   0.729   2.643   6.165
 5353SOL     OW16957   2.977   6.329   3.539
 5353SOL    HW116958   3.073   6.315   3.561
 5353SOL    HW216959   2.969   6.396   3.465
 5354SOL     OW16960   3.586   5.860   1.956
 5354SOL    HW116961   3.525   5.834   1.880
 5354SOL    HW216962   3.626   5.778   1.996
 5355SOL     OW16963   5.444   5.280   5.347
 5355SOL    HW116964   5.524   5.339   5.347
 5355SOL    HW216965   5.458   5.204   5.410
 5356SOL     OW16966   0.841   0.037   1.406
 5356SOL    HW116967   0.894   6.999   1.464
 5356SOL    HW216968   0.811   0.116   1.459
 5357SOL     OW16969   6.429   3.479   2.683
 5357SOL    HW116970   6.432   3.522   2.774
 5357SOL    HW216971   6.436   3.380   2.693
 5358SOL     OW16972   6.018   1.354   6.412
 5358SOL    HW116973   6.012   1.320   6.318
 5358SOL    HW216974   6.112   1.382   6.431
 5359SOL     OW16975   2.813   2.359   6.626
 5359SOL    HW116976   2.737   2.296   6.641
 5359SOL    HW216977   2.874   2.357   6.705
 5360SOL     OW16978   5.743   5.369   2.993
 5360SOL    HW116979   5.683   5.406   3.064
 5360SOL    HW216980   5.735   5.425   2.911
 5361SOL     OW16981   1.537   3.724   2.827
 5361SOL    HW116982   1.497   3.763   2.744
 5361SOL    HW216983   1.620   3.674   2.804
 5362SOL     OW16984   6.112   1.239   3.700
 5362SOL    HW116985   6.053   1.279   3.771
 5362SOL    HW216986   6.085   1.144   3.685
 5363SOL     OW16987   6.095   5.162   4.723
 5363SOL    HW116988   6.081   5.105   4.804
 5363SOL    HW216989   6.127   5.106   4.647
 5364SOL     OW16990   4.368   2.465   1.519
 5364SOL    HW116991   4.395   2.394   1.454
 5364SOL    HW216992   4.446   2.491   1.575
 5365SOL     OW16993   3.232   3.503   5.644
 5365SOL    HW116994   3.160   3.553   5.595
 5365SOL    HW216995   3.302   3.567   5.674
 5366SOL     OW16996   0.669   5.086   3.488
 5366SOL    HW116997   0.718   5.123   3.567
 5366SOL    HW216998   0.581   5.132   3.478
 5367SOL     OW16999   6.286   6.006   1.307
 5367SOL    HW117000   6.292   6.065   1.227
 5367SOL    HW217001   6.346   6.041   1.379
 5368SOL     OW17002   0.325   5.877   4.833
 5368SOL    HW117003   0.256   5.869   4.906
 5368SOL    HW217004   0.415   5.857   4.871
 5369SOL     OW17005   4.243   6.977   2.843
 5369SOL    HW117006   4.206   0.041   2.873
 5369SOL    HW217007   4.177   6.931   2.783
 5370SOL     OW17008   2.692   3.011   0.811
 5370SOL    HW117009   2.617   2.976   0.756
 5370SOL    HW217010   2.779   2.977   0.775
 5371SOL     OW17011   6.313   5.399   3.545
 5371SOL    HW117012   6.319   5.499   3.555
 5371SOL    HW217013   6.228   5.375   3.498
 5372SOL     OW17014   1.117   0.085   4.049
 5372SOL    HW117015   1.181   0.026   4.000
 5372SOL    HW217016   1.112   0.174   4.004
 5373SOL     OW17017   3.832   6.987   0.200
 5373SOL    HW117018   3.900   0.017   0.250
 5373SOL    HW217019   3.745   6.989   0.249
 5374SOL     OW17020   1.210   4.224   1.423
 5374SOL    HW117021   1.287   4.263   1.473
 5374SOL    HW217022   1.136   4.203   1.487
 5375SOL     OW17023   2.780   4.786   5.217
 5375SOL    HW117024   2.700   4.776   5.277
 5375SOL    HW217025   2.778   4.715   5.147
 5376SOL     OW17026   0.962   0.768   1.737
 5376SOL    HW117027   1.034   0.836   1.752
 5376SOL    HW217028   1.004   0.680   1.712
 5377SOL     OW17029   1.038   2.626   1.977
 5377SOL    HW117030   1.062   2.658   2.069
 5377SOL    HW217031   1.122   2.611   1.925
 5378SOL     OW17032   5.762   6.723   3.303
 5378SOL    HW117033   5.788   6.713   3.207
 5378SOL    HW217034   5.679   6.778   3.309
 5379SOL     OW17035   2.591   2.356   4.446
 5379SOL    HW117036   2.544   2.288   4.389
 5379SOL    HW217037   2.690   2.345   4.435
 5380SOL     OW17038   5.265   6.572   1.755
 5380SOL    HW117039   5.195   6.535   1.694
 5380SOL    HW217040   5.331   6.500   1.778
 5381SOL     OW17041   3.128   2.134   2.759
 5381SOL    HW117042   3.162   2.041   2.775
 5381SOL    HW217043   3.127   2.184   2.846
 5382SOL     OW17044   5.204   0.547   2.638
 5382SOL    HW117045   5.293   0.556   2.682
 5382SOL    HW217046   5.209   0.583   2.545
 5383SOL     OW17047   2.704   3.935   5.244
 5383SOL    HW117048   2.616   3.971   5.213
 5383SOL    HW217049   2.767   4.011   5.260
 5384SOL     OW17050   4.959   6.568   5.834
 5384SOL    HW117051   4.953   6.482   5.783
 5384SOL    HW217052   5.019   6.555   5.913
 5385SOL     OW17053   3.544   3.685   0.567
 5385SOL    HW117054   3.575   3.646   0.480
 5385SOL    HW217055   3.613   3.748   0.602
 5386SOL     OW17056   4.558   4.433   3.494
 5386SOL    HW117057   4.517   4.478   3.574
 5386SOL    HW217058   4.597   4.345   3.521
 5387SOL     OW17059   0.983   2.305   3.912
 5387SOL    HW117060   0.916   2.238   3.881
 5387SOL    HW217061   0.976   2.317   4.011
 5388SOL     OW17062   6.642   6.159   3.595
 5388SOL    HW117063   6.623   6.149   3.497
 5388SOL    HW217064   6.688   6.077   3.628
 5389SOL     OW17065   5.441   1.647   4.443
 5389SOL    HW117066   5.357   1.612   4.401
 5389SOL    HW217067   5.520   1.599   4.404
 5390SOL     OW17068   5.952   2.970   3.544
 5390SOL    HW117069   5.953   2.885   3.597
 5390SOL    HW217070   5.983   2.951   3.451
 5391SOL     OW17071   4.248   2.949   0.659
 5391SOL    HW117072   4.275   3.031   0.610
 5391SOL    HW217073   4.149   2.949   0.673
 5392SOL     OW17074   5.309   0.758   4.327
 5392SOL    HW117075   5.230   0.810   4.360
 5392SOL    HW217076   5.328   0.683   4.390
 5393SOL     OW17077   3.716   1.936   2.836
 5393SOL    HW117078   3.765   1.945   2.749
 5393SOL    HW217079   3.780   1.905   2.907
 5394SOL     OW17080   0.146   2.704   2.984
 5394SOL    HW117081   0.102   2.792   2.968
 5394SOL    HW217082   0.094   2.653   3.053
 5395SOL     OW17083   0.235   1.140   1.290
 5395SOL    HW117084   0.154   1.097   1.330
 5395SOL    HW217085   0.209   1.228   1.249
 5396SOL     OW17086   4.321   2.523   0.070
 5396SOL    HW117087   4.244   2.563   0.119
 5396SOL    HW217088   4.377   2.596   0.031
 5397SOL     OW17089   0.446   6.995   2.237
 5397SOL    HW117090   0.382   0.048   2.237
 5397SOL    HW217091   0.533   7.023   2.278
 5398SOL     OW17092   5.854   2.023   3.265
 5398SOL    HW117093   5.835   2.053   3.171
 5398SOL    HW217094   5.776   2.045   3.324
 5399SOL     OW17095   2.632   2.981   0.106
 5399SOL    HW117096   2.665   3.072   0.084
 5399SOL    HW217097   2.564   2.953   0.038
 5400SOL     OW17098   5.573   2.508   0.964
 5400SOL    HW117099   5.546   2.597   0.929
 5400SOL    HW217100   5.613   2.518   1.055
 5401SOL     OW17101   4.757   3.665   1.359
 5401SOL    HW117102   4.717   3.576   1.339
 5401SOL    HW217103   4.754   3.722   1.277
 5402SOL     OW17104   1.617   6.177   1.817
 5402SOL    HW117105   1.661   6.091   1.794
 5402SOL    HW217106   1.549   6.162   1.889
 5403SOL     OW17107   6.154   2.058   5.906
 5403SOL    HW117108   6.121   2.149   5.928
 5403SOL    HW217109   6.249   2.063   5.874
 5404SOL     OW17110   4.594   6.300   0.665
 5404SOL    HW117111   4.643   6.230   0.717
 5404SOL    HW217112   4.634   6.390   0.685
 5405SOL     OW17113   6.883   4.979   6.338
 5405SOL    HW117114   6.829   5.062   6.332
 5405SOL    HW217115   6.876   4.928   6.252
 5406SOL     OW17116   2.155   1.248   5.371
 5406SOL    HW117117   2.194   1.214   5.457
 5406SOL    HW217118   2.062   1.212   5.360
 5407SOL     OW17119   2.432   0.801   2.481
 5407SOL    HW117120   2.465   0.757   2.398
 5407SOL    HW217121   2.503   0.861   2.517
 5408SOL     OW17122   1.647   2.053   4.341
 5408SOL    HW117123   1.584   2.063   4.418
 5408SOL    HW217124   1.715   1.983   4.364
 5409SOL     OW17125   0.554   3.711   2.803
 5409SOL    HW117126   0.640   3.749   2.839
 5409SOL    HW217127   0.516   3.647   2.869
 5410SOL     OW17128   6.431   1.750   0.332
 5410SOL    HW117129   6.447   1.652   0.323
 5410SOL    HW217130   6.387   1.785   0.249
 5411SOL     OW17131   3.483   5.339   1.604
 5411SOL    HW117132   3.431   5.286   1.536
 5411SOL    HW217133   3.430   5.344   1.689
 5412SOL     OW17134   1.485   2.545   5.937
 5412SOL    HW117135   1.535   2.487   5.871
 5412SOL    HW217136   1.518   2.525   6.029
 5413SOL     OW17137   6.653   5.380   5.695
 5413SOL    HW117138   6.623   5.325   5.772
 5413SOL    HW217139   6.733   5.338   5.652
 5414SOL     OW17140   5.621   5.514   6.422
 5414SOL    HW117141   5.635   5.535   6.519
 5414SOL    HW217142   5.584   5.594   6.376
 5415SOL     OW17143   1.780   1.426   6.809
 5415SOL    HW117144   1.717   1.465   6.876
 5415SOL    HW217145   1.782   1.484   6.727
 5416SOL     OW17146   3.932   5.649   5.959
 5416SOL    HW117147   4.010   5.639   6.021
 5416SOL    HW217148   3.882   5.563   5.953
 5417SOL     OW17149   5.427   6.741   2.092
 5417SOL    HW117150   5.384   6.690   2.166
 5417SOL    HW217151   5.358   6.793   2.042
 5418SOL     OW17152   0.702   3.362   5.408
 5418SOL    HW117153   0.609   3.362   5.445
 5418SOL    HW217154   0.757   3.432   5.453
 5419SOL     OW17155   3.916   1.533   6.071
 5419SOL    HW117156   3.940   1.447   6.117
 5419SOL    HW217157   3.975   1.545   5.992
 5420SOL     OW17158   2.479   1.759   1.224
 5420SOL    HW117159   2.391   1.805   1.235
 5420SOL    HW217160   2.497   1.743   1.127
 5421SOL     OW17161   4.304   4.785   1.748
 5421SOL    HW117162   4.373   4.798   1.677
 5421SOL    HW217163   4.317   4.696   1.791
 5422SOL     OW17164   2.568   6.568   2.868
 5422SOL    HW117165   2.517   6.648   2.897
 5422SOL    HW217166   2.605   6.521   2.948
 5423SOL     OW17167   4.230   0.243   2.410
 5423SOL    HW117168   4.202   0.245   2.313
 5423SOL    HW217169   4.322   0.205   2.417
 5424SOL     OW17170   3.571   3.541   5.088
 5424SOL    HW117171   3.487   3.585   5.120
 5424SOL    HW217172   3.638   3.541   5.162
 5425SOL     OW17173   0.962   4.749   5.286
 5425SOL    HW117174   0.915   4.828   5.247
 5425SOL    HW217175   1.041   4.779   5.339
 5426SOL     OW17176   0.858   4.423   0.312
 5426SOL    HW117177   0.768   4.394   0.344
 5426SOL    HW217178   0.854   4.519   0.284
 5427SOL     OW17179   4.234   1.750   6.963
 5427SOL    HW117180   4.191   1.835   6.932
 5427SOL    HW217181   4.248   1.753   0.038
 5428SOL     OW17182   4.233   5.800   2.996
 5428SOL    HW117183   4.274   5.821   3.084
 5428SOL    HW217184   4.274   5.857   2.925
 5429SOL     OW17185   2.315   6.605   3.836
 5429SOL    HW117186   2.238   6.656   3.874
 5429SOL    HW217187   2.400   6.654   3.856
 5430SOL     OW17188   1.377   4.511   5.449
 5430SOL    HW117189   1.338   4.541   5.537
 5430SOL    HW217190   1.334   4.425   5.421
 5431SOL     OW17191   5.145   4.662   1.611
 5431SOL    HW117192   5.065   4.710   1.648
 5431SOL    HW217193   5.129   4.563   1.616
 5432SOL     OW17194   0.190   5.037   6.075
 5432SOL    HW117195   0.265   4.981   6.038
 5432SOL    HW217196   0.118   5.045   6.006
 5433SOL     OW17197   2.617   0.425   1.351
 5433SOL    HW117198   2.596   0.523   1.341
 5433SOL    HW217199   2.689   0.400   1.287
 5434SOL     OW17200   5.262   5.941   4.306
 5434SOL    HW117201   5.166   5.929   4.282
 5434SOL    HW217202   5.284   5.882   4.384
 5435SOL     OW17203   6.496   3.891   7.011
 5435SOL    HW117204   6.515   3.973   0.041
 5435SOL    HW217205   6.439   3.916   6.932
 5436SOL     OW17206   1.419   4.364   1.620
 5436SOL    HW117207   1.393   4.437   1.684
 5436SOL    HW217208   1.516   4.341   1.633
 5437SOL     OW17209   3.628   6.403   6.475
 5437SOL    HW117210   3.706   6.437   6.528
 5437SOL    HW217211   3.587   6.478   6.424
 5438SOL     OW17212   5.535   6.672   2.642
 5438SOL    HW117213   5.596   6.633   2.572
 5438SOL    HW217214   5.459   6.719   2.597
 5439SOL     OW17215   1.473   3.845   1.406
 5439SOL    HW117216   1.476   3.835   1.505
 5439SOL    HW217217   1.466   3.755   1.363
 5440SOL     OW17218   6.439   6.805   4.442
 5440SOL    HW117219   6.356   6.860   4.442
 5440SOL    HW217220   6.470   6.791   4.536
 5441SOL     OW17221   5.604   1.145   5.010
 5441SOL    HW117222   5.701   1.161   5.029
 5441SOL    HW217223   5.560   1.110   5.093
 5442SOL     OW17224   2.662   0.441   6.359
 5442SOL    HW117225   2.586   0.491   6.399
 5442SOL    HW217226   2.685   0.363   6.417
 5443SOL     OW17227   5.717   0.644   3.377
 5443SOL    HW117228   5.675   0.725   3.336
 5443SOL    HW217229   5.780   0.673   3.450
 5444SOL     OW17230   0.981   1.003   6.154
 5444SOL    HW117231   1.045   1.057   6.099
 5444SOL    HW217232   1.026   0.973   6.238
 5445SOL     OW17233   5.860   6.448   4.959
 5445SOL    HW117234   5.901   6.529   5.001
 5445SOL    HW217235   5.845   6.465   4.862
 5446SOL     OW17236   1.828   5.121   5.479
 5446SOL    HW117237   1.925   5.142   5.464
 5446SOL    HW217238   1.820   5.034   5.527
 5447SOL     OW17239   6.470   1.940   1.160
 5447SOL    HW117240   6.441   1.852   1.197
 5447SOL    HW217241   6.559   1.965   1.199
 5448SOL     OW17242   6.417   4.780   1.784
 5448SOL    HW117243   6.376   4.693   1.757
 5448SOL    HW217244   6.474   4.814   1.708
 5449SOL     OW17245   2.119   6.965   2.224
 5449SOL    HW117246   2.193   6.935   2.164
 5449SOL    HW217247   2.123   6.915   2.311
 5450SOL     OW17248   4.537   5.556   1.843
 5450SOL    HW117249   4.611   5.561   1.909
 5450SOL    HW217250   4.571   5.517   1.757
 5451SOL     OW17251   1.000   6.070   4.028
 5451SOL    HW117252   0.966   6.161   4.006
 5451SOL    HW217253   0.959   6.003   3.965
 5452SOL     OW17254   2.152   3.933   2.778
 5452SOL    HW117255   2.115   3.955   2.688
 5452SOL    HW217256   2.232   3.990   2.796
 5453SOL     OW17257   6.015   4.754   4.238
 5453SOL    HW117258   5.925   4.760   4.283
 5453SOL    HW217259   6.066   4.839   4.255
 5454SOL     OW17260   5.940   3.802   2.542
 5454SOL    HW117261   5.906   3.709   2.556
 5454SOL    HW217262   5.869   3.857   2.499
 5455SOL     OW17263   2.343   2.164   3.407
 5455SOL    HW117264   2.393   2.134   3.488
 5455SOL    HW217265   2.331   2.264   3.410
 5456SOL     OW17266   5.196   2.541   1.003
 5456SOL    HW117267   5.113   2.488   1.020
 5456SOL    HW217268   5.276   2.487   1.030
 5457SOL     OW17269   6.715   1.624   0.330
 5457SOL    HW117270   6.648   1.550   0.321
 5457SOL    HW217271   6.804   1.593   0.297
 5458SOL     OW17272   6.059   5.237   5.625
 5458SOL    HW117273   6.126   5.264   5.556
 5458SOL    HW217274   6.084   5.278   5.713
 5459SOL     OW17275   2.412   3.763   5.504
 5459SOL    HW117276   2.509   3.767   5.484
 5459SOL    HW217277   2.361   3.809   5.431
 5460SOL     OW17278   0.531   0.662   1.624
 5460SOL    HW117279   0.494   0.683   1.714
 5460SOL    HW217280   0.590   0.582   1.631
 5461SOL     OW17281   5.840   1.614   6.598
 5461SOL    HW117282   5.798   1.532   6.559
 5461SOL    HW217283   5.918   1.588   6.654
 5462SOL     OW17284   5.177   5.270   6.590
 5462SOL    HW117285   5.130   5.212   6.523
 5462SOL    HW217286   5.265   5.228   6.614
 5463SOL     OW17287   2.203   5.318   6.516
 5463SOL    HW117288   2.240   5.399   6.470
 5463SOL    HW217289   2.176   5.343   6.609
 5464SOL     OW17290   2.002   5.390   4.148
 5464SOL    HW117291   2.002   5.304   4.199
 5464SOL    HW217292   2.094   5.429   4.149
 5465SOL     OW17293   0.777   0.820   4.798
 5465SOL    HW117294   0.870   0.814   4.764
 5465SOL    HW217295   0.751   0.734   4.842
 5466SOL     OW17296   4.776   2.561   5.377
 5466SOL    HW117297   4.742   2.588   5.287
 5466SOL    HW217298   4.718   2.487   5.413
 5467SOL     OW17299   5.933   3.218   3.980
 5467SOL    HW117300   5.914   3.132   4.027
 5467SOL    HW217301   5.924   3.294   4.044
 5468SOL     OW17302   0.797   2.718   1.496
 5468SOL    HW117303   0.715   2.699   1.442
 5468SOL    HW217304   0.823   2.637   1.548
 5469SOL     OW17305   3.966   1.935   3.883
 5469SOL    HW117306   3.918   2.018   3.913
 5469SOL    HW217307   3.966   1.868   3.958
 5470SOL     OW17308   2.966   4.782   3.764
 5470SOL    HW117309   3.028   4.791   3.687
 5470SOL    HW217310   3.016   4.797   3.850
 5471SOL     OW17311   5.662   0.430   3.557
 5471SOL    HW117312   5.684   0.338   3.523
 5471SOL    HW217313   5.690   0.498   3.490
 5472SOL     OW17314   2.612   4.371   6.721
 5472SOL    HW117315   2.534   4.384   6.661
 5472SOL    HW217316   2.696   4.363   6.666
 5473SOL     OW17317   2.792   4.843   2.173
 5473SOL    HW117318   2.805   4.762   2.116
 5473SOL    HW217319   2.840   4.921   2.133
 5474SOL     OW17320   1.042   4.809   1.731
 5474SOL    HW117321   0.947   4.834   1.711
 5474SOL    HW217322   1.074   4.744   1.662
 5475SOL     OW17323   0.793   0.587   5.436
 5475SOL    HW117324   0.801   0.493   5.469
 5475SOL    HW217325   0.697   0.615   5.438
 5476SOL     OW17326   1.902   0.842   5.056
 5476SOL    HW117327   1.921   0.843   5.154
 5476SOL    HW217328   1.873   0.750   5.029
 5477SOL     OW17329   1.926   3.513   2.382
 5477SOL    HW117330   2.002   3.462   2.423
 5477SOL    HW217331   1.861   3.449   2.341
 5478SOL     OW17332   6.368   3.637   5.965
 5478SOL    HW117333   6.343   3.699   5.891
 5478SOL    HW217334   6.457   3.595   5.944
 5479SOL     OW17335   4.882   3.136   3.982
 5479SOL    HW117336   4.881   3.139   3.882
 5479SOL    HW217337   4.850   3.047   4.013
 5480SOL     OW17338   1.263   3.143   4.576
 5480SOL    HW117339   1.204   3.148   4.656
 5480SOL    HW217340   1.343   3.088   4.597
 5481SOL     OW17341   4.425   1.291   6.806
 5481SOL    HW117342   4.477   1.252   6.882
 5481SOL    HW217343   4.393   1.217   6.746
 5482SOL     OW17344   5.251   4.239   2.802
 5482SOL    HW117345   5.164   4.252   2.753
 5482SOL    HW217346   5.316   4.308   2.773
 5483SOL     OW17347   6.406   2.447   0.218
 5483SOL    HW117348   6.343   2.407   0.285
 5483SOL    HW217349   6.441   2.374   0.158
 5484SOL     OW17350   6.385   0.522   5.770
 5484SOL    HW117351   6.480   0.490   5.769
 5484SOL    HW217352   6.328   0.456   5.722
 5485SOL     OW17353   3.019   0.953   4.031
 5485SOL    HW117354   3.104   0.901   4.035
 5485SOL    HW217355   2.954   0.906   3.971
 5486SOL     OW17356   1.004   0.511   3.413
 5486SOL    HW117357   1.048   0.473   3.494
 5486SOL    HW217358   0.928   0.570   3.441
 5487SOL     OW17359   4.737   5.022   1.027
 5487SOL    HW117360   4.714   4.976   1.113
 5487SOL    HW217361   4.653   5.053   0.982
 5488SOL     OW17362   5.052   1.259   5.904
 5488SOL    HW117363   5.113   1.317   5.848
 5488SOL    HW217364   4.974   1.313   5.935
 5489SOL     OW17365   0.409   3.718   2.160
 5489SOL    HW117366   0.458   3.798   2.197
 5489SOL    HW217367   0.451   3.635   2.196
 5490SOL     OW17368   3.219   1.896   6.286
 5490SOL    HW117369   3.241   1.821   6.224
 5490SOL    HW217370   3.209   1.861   6.379
 5491SOL     OW17371   6.912   5.715   2.647
 5491SOL    HW117372   6.884   5.621   2.667
 5491SOL    HW217373   6.831   5.774   2.641
 5492SOL     OW17374   1.103   1.311   5.070
 5492SOL    HW117375   1.154   1.397   5.074
 5492SOL    HW217376   1.167   1.234   5.062
 5493SOL     OW17377   3.624   1.877   1.005
 5493SOL    HW117378   3.575   1.872   0.918
 5493SOL    HW217379   3.625   1.787   1.048
 5494SOL     OW17380   5.304   3.185   2.322
 5494SOL    HW117381   5.399   3.216   2.313
 5494SOL    HW217382   5.243   3.264   2.323
 5495SOL     OW17383   3.749   2.921   3.817
 5495SOL    HW117384   3.710   2.868   3.742
 5495SOL    HW217385   3.719   2.883   3.904
 5496SOL     OW17386   4.860   5.874   1.761
 5496SOL    HW117387   4.777   5.882   1.707
 5496SOL    HW217388   4.889   5.779   1.764
 5497SOL     OW17389   5.794   0.150   0.779
 5497SOL    HW117390   5.752   0.129   0.690
 5497SOL    HW217391   5.762   0.239   0.810
 5498SOL     OW17392   4.844   1.358   4.482
 5498SOL    HW117393   4.806   1.372   4.391
 5498SOL    HW217394   4.863   1.261   4.495
 5499SOL     OW17395   0.535   0.697   5.410
 5499SOL    HW117396   0.543   0.739   5.320
 5499SOL    HW217397   0.489   0.761   5.472
 5500SOL     OW17398   2.177   6.628   0.546
 5500SOL    HW117399   2.114   6.582   0.609
 5500SOL    HW217400   2.264   6.579   0.544
 5501SOL     OW17401   3.165   0.533   2.595
 5501SOL    HW117402   3.243   0.487   2.636
 5501SOL    HW217403   3.149   0.497   2.503
 5502SOL     OW17404   4.514   3.484   0.703
 5502SOL    HW117405   4.522   3.583   0.696
 5502SOL    HW217406   4.479   3.460   0.793
 5503SOL     OW17407   0.428   6.800   4.072
 5503SOL    HW117408   0.489   6.753   4.008
 5503SOL    HW217409   0.482   6.843   4.144
 5504SOL     OW17410   2.851   2.197   4.630
 5504SOL    HW117411   2.790   2.250   4.690
 5504SOL    HW217412   2.805   2.179   4.543
 5505SOL     OW17413   3.312   4.817   0.638
 5505SOL    HW117414   3.254   4.750   0.685
 5505SOL    HW217415   3.254   4.885   0.593
 5506SOL     OW17416   0.448   6.591   5.739
 5506SOL    HW117417   0.406   6.639   5.662
 5506SOL    HW217418   0.527   6.539   5.707
 5507SOL     OW17419   3.015   5.195   5.760
 5507SOL    HW117420   3.092   5.259   5.759
 5507SOL    HW217421   3.048   5.103   5.778
 5508SOL     OW17422   1.212   0.497   5.553
 5508SOL    HW117423   1.308   0.479   5.578
 5508SOL    HW217424   1.209   0.572   5.486
 5509SOL     OW17425   6.773   6.971   6.562
 5509SOL    HW117426   6.693   6.914   6.583
 5509SOL    HW217427   6.775   0.025   6.623
 5510SOL     OW17428   6.740   0.325   6.357
 5510SOL    HW117429   6.681   0.280   6.424
 5510SOL    HW217430   6.787   0.402   6.400
 5511SOL     OW17431   0.199   2.930   1.688
 5511SOL    HW117432   0.195   2.943   1.588
 5511SOL    HW217433   0.106   2.931   1.724
 5512SOL     OW17434   6.554   0.676   0.134
 5512SOL    HW117435   6.612   0.730   0.196
 5512SOL    HW217436   6.564   0.579   0.156
 5513SOL     OW17437   2.677   5.991   5.176
 5513SOL    HW117438   2.654   5.906   5.128
 5513SOL    HW217439   2.751   6.037   5.127
 5514SOL     OW17440   6.280   5.914   3.664
 5514SOL    HW117441   6.262   5.950   3.573
 5514SOL    HW217442   6.322   5.985   3.721
 5515SOL     OW17443   6.841   4.273   3.021
 5515SOL    HW117444   6.913   4.205   3.003
 5515SOL    HW217445   6.831   4.285   3.120
 5516SOL     OW17446   1.189   2.105   0.185
 5516SOL    HW117447   1.252   2.145   0.119
 5516SOL    HW217448   1.192   2.006   0.179
 5517SOL     OW17449   2.672   0.925   2.536
 5517SOL    HW117450   2.745   0.858   2.524
 5517SOL    HW217451   2.711   1.015   2.557
 5518SOL     OW17452   5.714   4.383   5.234
 5518SOL    HW117453   5.706   4.470   5.185
 5518SOL    HW217454   5.638   4.323   5.208
 5519SOL     OW17455   5.480   4.114   2.905
 5519SOL    HW117456   5.516   4.021   2.914
 5519SOL    HW217457   5.398   4.112   2.848
 5520SOL     OW17458   1.890   2.280   0.913
 5520SOL    HW117459   1.983   2.292   0.880
 5520SOL    HW217460   1.872   2.345   0.988
 5521SOL     OW17461   5.334   5.299   6.951
 5521SOL    HW117462   5.313   5.304   0.025
 5521SOL    HW217463   5.276   5.363   6.901
 5522SOL     OW17464   2.200   2.328   2.123
 5522SOL    HW117465   2.216   2.337   2.025
 5522SOL    HW217466   2.288   2.329   2.171
 5523SOL     OW17467   3.555   0.057   1.611
 5523SOL    HW117468   3.564   0.033   1.708
 5523SOL    HW217469   3.527   0.153   1.604
 5524SOL     OW17470   6.068   5.933   5.936
 5524SOL    HW117471   6.130   5.974   5.869
 5524SOL    HW217472   6.056   5.996   6.013
 5525SOL     OW17473   6.408   5.680   3.441
 5525SOL    HW117474   6.494   5.706   3.486
 5525SOL    HW217475   6.332   5.692   3.505
 5526SOL     OW17476   4.873   2.857   4.869
 5526SOL    HW117477   4.880   2.956   4.858
 5526SOL    HW217478   4.794   2.823   4.818
 5527SOL     OW17479   1.882   3.687   6.914
 5527SOL    HW117480   1.837   3.754   6.856
 5527SOL    HW217481   1.817   3.652   6.981
 5528SOL     OW17482   6.659   3.217   3.138
 5528SOL    HW117483   6.578   3.221   3.196
 5528SOL    HW217484   6.661   3.298   3.079
 5529SOL     OW17485   1.363   0.926   3.873
 5529SOL    HW117486   1.327   0.968   3.957
 5529SOL    HW217487   1.288   0.909   3.809
 5530SOL     OW17488   6.299   2.880   0.003
 5530SOL    HW117489   6.324   2.867   0.099
 5530SOL    HW217490   6.237   2.959   7.019
 5531SOL     OW17491   1.830   3.165   0.132
 5531SOL    HW117492   1.815   3.066   0.144
 5531SOL    HW217493   1.863   3.204   0.217
 5532SOL     OW17494   2.321   2.128   1.130
 5532SOL    HW117495   2.395   2.146   1.066
 5532SOL    HW217496   2.317   2.203   1.197
 5533SOL     OW17497   3.490   0.376   0.563
 5533SOL    HW117498   3.425   0.445   0.595
 5533SOL    HW217499   3.502   0.306   0.634
 5534SOL     OW17500   0.421   4.159   5.259
 5534SOL    HW117501   0.440   4.110   5.174
 5534SOL    HW217502   0.507   4.179   5.306
 5535SOL     OW17503   5.745   3.858   3.624
 5535SOL    HW117504   5.737   3.924   3.551
 5535SOL    HW217505   5.720   3.900   3.711
 5536SOL     OW17506   2.928   0.633   4.185
 5536SOL    HW117507   2.871   0.716   4.182
 5536SOL    HW217508   2.952   0.606   4.092
 5537SOL     OW17509   4.201   0.942   4.976
 5537SOL    HW117510   4.161   0.856   5.007
 5537SOL    HW217511   4.152   1.019   5.019
 5538SOL     OW17512   5.654   2.038   2.548
 5538SOL    HW117513   5.557   2.060   2.551
 5538SOL    HW217514   5.667   1.950   2.502
 5539SOL     OW17515   2.514   0.252   6.803
 5539SOL    HW117516   2.443   0.320   6.825
 5539SOL    HW217517   2.479   0.161   6.820
 5540SOL     OW17518   5.745   6.815   5.450
 5540SOL    HW117519   5.681   6.740   5.467
 5540SOL    HW217520   5.709   6.899   5.491
 5541SOL     OW17521   4.386   2.922   0.177
 5541SOL    HW117522   4.370   2.990   0.106
 5541SOL    HW217523   4.324   2.940   0.254
 5542SOL     OW17524   4.693   4.531   0.215
 5542SOL    HW117525   4.731   4.463   0.152
 5542SOL    HW217526   4.594   4.520   0.220
 5543SOL     OW17527   1.045   0.353   6.380
 5543SOL    HW117528   1.060   0.399   6.467
 5543SOL    HW217529   0.981   0.277   6.393
 5544SOL     OW17530   3.841   4.881   0.278
 5544SOL    HW117531   3.832   4.963   0.335
 5544SOL    HW217532   3.790   4.806   0.320
 5545SOL     OW17533   5.017   0.919   3.176
 5545SOL    HW117534   5.114   0.895   3.182
 5545SOL    HW217535   4.986   0.912   3.081
 5546SOL     OW17536   0.213   5.157   4.115
 5546SOL    HW117537   0.270   5.216   4.172
 5546SOL    HW217538   0.209   5.065   4.154
 5547SOL     OW17539   5.092   2.219   4.819
 5547SOL    HW117540   5.020   2.185   4.758
 5547SOL    HW217541   5.161   2.147   4.831
 5548SOL     OW17542   0.633   4.398   4.953
 5548SOL    HW117543   0.672   4.441   4.872
 5548SOL    HW217544   0.566   4.329   4.925
 5549SOL     OW17545   3.618   3.311   0.485
 5549SOL    HW117546   3.690   3.330   0.419
 5549SOL    HW217547   3.655   3.258   0.561
 5550SOL     OW17548   2.398   4.342   1.875
 5550SOL    HW117549   2.455   4.423   1.890
 5550SOL    HW217550   2.362   4.310   1.963
 5551SOL     OW17551   1.956   5.036   2.766
 5551SOL    HW117552   1.941   4.955   2.710
 5551SOL    HW217553   1.868   5.080   2.786
 5552SOL     OW17554   0.990   0.298   7.019
 5552SOL    HW117555   0.964   0.391   6.991
 5552SOL    HW217556   0.912   0.253   0.037
 5553SOL     OW17557   5.424   0.507   6.781
 5553SOL    HW117558   5.410   0.476   6.687
 5553SOL    HW217559   5.347   0.566   6.808
 5554SOL     OW17560   6.709   2.312   1.531
 5554SOL    HW117561   6.711   2.300   1.431
 5554SOL    HW217562   6.709   2.410   1.552
 5555SOL     OW17563   1.311   5.012   1.960
 5555SOL    HW117564   1.385   5.012   1.893
 5555SOL    HW217565   1.276   4.919   1.971
 5556SOL     OW17566   6.877   1.062   4.523
 5556SOL    HW117567   6.878   1.090   4.619
 5556SOL    HW217568   6.935   1.124   4.469
 5557SOL     OW17569   3.976   6.117   3.181
 5557SOL    HW117570   3.994   6.186   3.111
 5557SOL    HW217571   3.970   6.027   3.139
 5558SOL     OW17572   4.607   4.178   0.101
 5558SOL    HW117573   4.648   4.235   0.029
 5558SOL    HW217574   4.513   4.156   0.077
 5559SOL     OW17575   3.787   0.916   2.536
 5559SOL    HW117576   3.785   0.872   2.625
 5559SOL    HW217577   3.809   1.013   2.547
 5560SOL     OW17578   0.248   5.257   3.749
 5560SOL    HW117579   0.182   5.214   3.810
 5560SOL    HW217580   0.300   5.327   3.799
 5561SOL     OW17581   3.923   6.740   3.470
 5561SOL    HW117582   3.980   6.695   3.400
 5561SOL    HW217583   3.905   6.834   3.442
 5562SOL     OW17584   3.759   3.866   0.750
 5562SOL    HW117585   3.765   3.824   0.841
 5562SOL    HW217586   3.824   3.821   0.688
 5563SOL     OW17587   2.706   4.630   2.545
 5563SOL    HW117588   2.785   4.686   2.572
 5563SOL    HW217589   2.682   4.651   2.450
 5564SOL     OW17590   4.538   0.009   6.291
 5564SOL    HW117591   4.496   6.950   6.328
 5564SOL    HW217592   4.624   7.009   6.246
 5565SOL     OW17593   3.549   1.397   5.986
 5565SOL    HW117594   3.618   1.367   6.051
 5565SOL    HW217595   3.592   1.417   5.898
 5566SOL     OW17596   1.334   4.877   6.030
 5566SOL    HW117597   1.243   4.885   6.069
 5566SOL    HW217598   1.382   4.965   6.038
 5567SOL     OW17599   0.540   4.609   0.288
 5567SOL    HW117600   0.622   4.665   0.282
 5567SOL    HW217601   0.528   4.558   0.203
 5568SOL     OW17602   4.834   4.768   1.734
 5568SOL    HW117603   4.778   4.849   1.751
 5568SOL    HW217604   4.910   4.765   1.798
 5569SOL     OW17605   2.460   2.509   2.795
 5569SOL    HW117606   2.520   2.513   2.875
 5569SOL    HW217607   2.516   2.507   2.712
 5570SOL     OW17608   6.879   3.819   1.774
 5570SOL    HW117609   6.801   3.807   1.711
 5570SOL    HW217610   6.899   3.916   1.784
 5571SOL     OW17611   6.684   4.810   1.150
 5571SOL    HW117612   6.617   4.814   1.076
 5571SOL    HW217613   6.742   4.729   1.139
 5572SOL     OW17614   1.704   4.161   4.924
 5572SOL    HW117615   1.632   4.179   4.857
 5572SOL    HW217616   1.711   4.239   4.987
 5573SOL     OW17617   3.401   4.917   3.979
 5573SOL    HW117618   3.477   4.877   3.928
 5573SOL    HW217619   3.376   5.005   3.940
 5574SOL     OW17620   0.541   2.028   4.849
 5574SOL    HW117621   0.570   2.056   4.941
 5574SOL    HW217622   0.447   1.994   4.853
 5575SOL     OW17623   0.212   0.167   1.648
 5575SOL    HW117624   0.300   0.122   1.633
 5575SOL    HW217625   0.157   0.162   1.564
 5576SOL     OW17626   1.525   5.224   3.321
 5576SOL    HW117627   1.463   5.245   3.245
 5576SOL    HW217628   1.544   5.126   3.324
 5577SOL     OW17629   1.796   2.912   6.148
 5577SOL    HW117630   1.810   3.011   6.150
 5577SOL    HW217631   1.745   2.887   6.065
 5578SOL     OW17632   3.521   4.107   3.542
 5578SOL    HW117633   3.569   4.132   3.458
 5578SOL    HW217634   3.587   4.098   3.617
 5579SOL     OW17635   6.506   2.871   2.287
 5579SOL    HW117636   6.529   2.947   2.226
 5579SOL    HW217637   6.477   2.908   2.375
 5580SOL     OW17638   6.079   2.082   5.609
 5580SOL    HW117639   6.118   2.122   5.692
 5580SOL    HW217640   6.043   1.991   5.629
 5581SOL     OW17641   1.444   2.690   6.716
 5581SOL    HW117642   1.439   2.657   6.621
 5581SOL    HW217643   1.500   2.773   6.719
 5582SOL     OW17644   2.668   2.711   6.025
 5582SOL    HW117645   2.571   2.690   6.018
 5582SOL    HW217646   2.720   2.625   6.023
 5583SOL     OW17647   5.546   0.148   1.037
 5583SOL    HW117648   5.589   0.193   0.959
 5583SOL    HW217649   5.575   0.193   1.121
 5584SOL     OW17650   1.784   3.444   4.310
 5584SOL    HW117651   1.810   3.507   4.383
 5584SOL    HW217652   1.837   3.463   4.228
 5585SOL     OW17653   5.329   5.126   1.844
 5585SOL    HW117654   5.280   5.212   1.861
 5585SOL    HW217655   5.398   5.113   1.914
 5586SOL     OW17656   0.841   4.897   0.566
 5586SOL    HW117657   0.919   4.908   0.504
 5586SOL    HW217658   0.793   4.813   0.544
 5587SOL     OW17659   6.551   0.491   6.248
 5587SOL    HW117660   6.570   0.586   6.272
 5587SOL    HW217661   6.614   0.431   6.297
 5588SOL     OW17662   3.767   6.814   1.206
 5588SOL    HW117663   3.789   6.777   1.296
 5588SOL    HW217664   3.731   6.907   1.216
 5589SOL     OW17665   6.389   4.905   5.972
 5589SOL    HW117666   6.375   4.843   6.050
 5589SOL    HW217667   6.388   5.000   6.005
 5590SOL     OW17668   6.114   5.412   3.161
 5590SOL    HW117669   6.095   5.364   3.247
 5590SOL    HW217670   6.146   5.347   3.092
 5591SOL     OW17671   5.370   1.342   1.724
 5591SOL    HW117672   5.412   1.320   1.811
 5591SOL    HW217673   5.336   1.258   1.681
 5592SOL     OW17674   0.519   4.587   3.135
 5592SOL    HW117675   0.527   4.659   3.204
 5592SOL    HW217676   0.467   4.621   3.057
 5593SOL     OW17677   0.589   3.760   0.381
 5593SOL    HW117678   0.684   3.756   0.412
 5593SOL    HW217679   0.530   3.725   0.453
 5594SOL     OW17680   6.646   2.108   6.069
 5594SOL    HW117681   6.673   2.014   6.089
 5594SOL    HW217682   6.664   2.166   6.148
 5595SOL     OW17683   0.699   2.139   0.028
 5595SOL    HW117684   0.756   2.220   0.015
 5595SOL    HW217685   0.604   2.166   0.040
 5596SOL     OW17686   3.331   5.757   3.576
 5596SOL    HW117687   3.255   5.791   3.521
 5596SOL    HW217688   3.391   5.833   3.602
 5597SOL     OW17689   5.008   3.325   2.239
 5597SOL    HW117690   5.023   3.238   2.192
 5597SOL    HW217691   4.948   3.383   2.183
 5598SOL     OW17692   5.178   1.147   5.185
 5598SOL    HW117693   5.221   1.142   5.095
 5598SOL    HW217694   5.139   1.058   5.208
 5599SOL     OW17695   1.045   0.528   3.158
 5599SOL    HW117696   1.016   0.526   3.254
 5599SOL    HW217697   1.079   0.620   3.136
 5600SOL     OW17698   1.746   2.517   5.163
 5600SOL    HW117699   1.691   2.446   5.119
 5600SOL    HW217700   1.825   2.539   5.106
 5601SOL     OW17701   2.543   0.957   6.070
 5601SOL    HW117702   2.643   0.952   6.069
 5601SOL    HW217703   2.511   1.009   5.991
 5602SOL     OW17704   1.287   0.707   0.361
 5602SOL    HW117705   1.216   0.687   0.429
 5602SOL    HW217706   1.326   0.622   0.326
 5603SOL     OW17707   6.107   4.967   5.921
 5603SOL    HW117708   6.076   4.896   5.859
 5603SOL    HW217709   6.201   4.947   5.951
 5604SOL     OW17710   5.775   1.534   5.875
 5604SOL    HW117711   5.840   1.542   5.951
 5604SOL    HW217712   5.709   1.462   5.895
 5605SOL     OW17713   1.365   2.252   6.675
 5605SOL    HW117714   1.319   2.340   6.683
 5605SOL    HW217715   1.425   2.239   6.755
 5606SOL     OW17716   6.026   0.133   2.924
 5606SOL    HW117717   6.056   0.223   2.956
 5606SOL    HW217718   5.926   0.131   2.920
 5607SOL     OW17719   6.020   0.534   1.235
 5607SOL    HW117720   6.096   0.532   1.170
 5607SOL    HW217721   6.035   0.463   1.304
 5608SOL     OW17722   3.722   6.814   5.067
 5608SOL    HW117723   3.635   6.855   5.090
 5608SOL    HW217724   3.796   6.863   5.114
 5609SOL     OW17725   1.027   5.410   5.432
 5609SOL    HW117726   0.954   5.467   5.395
 5609SOL    HW217727   0.995   5.316   5.440
 5610SOL     OW17728   4.573   0.305   6.247
 5610SOL    HW117729   4.610   0.337   6.334
 5610SOL    HW217730   4.538   0.212   6.257
 5611SOL     OW17731   1.863   4.468   3.883
 5611SOL    HW117732   1.890   4.389   3.940
 5611SOL    HW217733   1.844   4.546   3.942
 5612SOL     OW17734   2.743   7.013   4.855
 5612SOL    HW117735   2.768   0.055   4.783
 5612SOL    HW217736   2.803   6.933   4.849
 5613SOL     OW17737   3.802   5.193   1.543
 5613SOL    HW117738   3.798   5.213   1.641
 5613SOL    HW217739   3.898   5.194   1.513
 5614SOL     OW17740   4.655   2.219   3.795
 5614SOL    HW117741   4.635   2.124   3.772
 5614SOL    HW217742   4.754   2.234   3.796
 5615SOL     OW17743   1.830   1.516   1.719
 5615SOL    HW117744   1.812   1.430   1.671
 5615SOL    HW217745   1.833   1.591   1.653
 5616SOL     OW17746   1.887   0.154   4.783
 5616SOL    HW117747   1.896   0.073   4.841
 5616SOL    HW217748   1.880   0.126   4.687
 5617SOL     OW17749   0.891   0.680   5.177
 5617SOL    HW117750   0.860   0.673   5.272
 5617SOL    HW217751   0.837   0.750   5.130
 5618SOL     OW17752   0.138   4.465   3.095
 5618SOL    HW117753   0.204   4.449   3.168
 5618SOL    HW217754   0.053   4.500   3.134
 5619SOL     OW17755   2.057   3.823   5.013
 5619SOL    HW117756   2.141   3.873   4.990
 5619SOL    HW217757   2.068   3.727   4.989
 5620SOL     OW17758   4.105   1.427   6.947
 5620SOL    HW117759   4.069   1.357   7.009
 5620SOL    HW217760   4.097   1.517   6.990
 5621SOL     OW17761   2.318   2.124   6.342
 5621SOL    HW117762   2.393   2.124   6.275
 5621SOL    HW217763   2.252   2.195   6.318
 5622SOL     OW17764   5.345   0.700   5.110
 5622SOL    HW117765   5.296   0.615   5.129
 5622SOL    HW217766   5.399   0.725   5.189
 5623SOL     OW17767   0.552   6.082   0.408
 5623SOL    HW117768   0.614   6.009   0.379
 5623SOL    HW217769   0.483   6.045   0.470
 5624SOL     OW17770   0.615   3.991   2.042
 5624SOL    HW117771   0.629   3.903   1.996
 5624SOL    HW217772   0.533   4.034   2.004
 5625SOL     OW17773   6.345   2.297   5.690
 5625SOL    HW117774   6.369   2.201   5.699
 5625SOL    HW217775   6.313   2.315   5.597
 5626SOL     OW17776   4.959   6.238   4.101
 5626SOL    HW117777   5.058   6.233   4.119
 5626SOL    HW217778   4.911   6.171   4.158
 5627SOL     OW17779   1.053   6.492   1.154
 5627SOL    HW117780   1.004   6.514   1.239
 5627SOL    HW217781   1.150   6.509   1.167
 5628SOL     OW17782   1.751   1.582   4.438
 5628SOL    HW117783   1.810   1.523   4.383
 5628SOL    HW217784   1.655   1.561   4.418
 5629SOL     OW17785   3.733   2.884   3.121
 5629SOL    HW117786   3.723   2.865   3.023
 5629SOL    HW217787   3.793   2.816   3.163
 5630SOL     OW17788   6.619   4.276   1.532
 5630SOL    HW117789   6.671   4.224   1.599
 5630SOL    HW217790   6.673   4.290   1.450
 5631SOL     OW17791   5.277   1.211   6.134
 5631SOL    HW117792   5.285   1.194   6.036
 5631SOL    HW217793   5.218   1.142   6.175
 5632SOL     OW17794   2.877   2.840   6.963
 5632SOL    HW117795   2.962   2.879   6.999
 5632SOL    HW217796   2.800   2.881   7.010
 5633SOL     OW17797   0.241   3.188   5.442
 5633SOL    HW117798   0.176   3.151   5.510
 5633SOL    HW217799   0.231   3.137   5.357
 5634SOL     OW17800   5.215   5.780   4.660
 5634SOL    HW117801   5.211   5.707   4.728
 5634SOL    HW217802   5.203   5.741   4.568
 5635SOL     OW17803   3.557   1.636   5.772
 5635SOL    HW117804   3.561   1.732   5.798
 5635SOL    HW217805   3.468   1.598   5.796
 5636SOL     OW17806   3.929   6.418   4.601
 5636SOL    HW117807   4.000   6.472   4.647
 5636SOL    HW217808   3.839   6.455   4.625
 5637SOL     OW17809   6.329   0.309   3.298
 5637SOL    HW117810   6.347   0.239   3.230
 5637SOL    HW217811   6.235   0.299   3.333
 5638SOL     OW17812   6.025   3.776   7.015
 5638SOL    HW117813   5.990   3.682   7.016
 5638SOL    HW217814   6.112   3.780   0.042
 5639SOL     OW17815   3.889   0.411   0.249
 5639SOL    HW117816   3.892   0.473   0.171
 5639SOL    HW217817   3.794   0.403   0.281
 5640SOL     OW17818   1.888   0.132   2.420
 5640SOL    HW117819   1.899   0.072   2.341
 5640SOL    HW217820   1.922   0.086   2.502
 5641SOL     OW17821   6.034   5.734   4.467
 5641SOL    HW117822   6.036   5.647   4.419
 5641SOL    HW217823   6.073   5.723   4.559
 5642SOL     OW17824   2.098   1.719   0.139
 5642SOL    HW117825   2.102   1.743   0.236
 5642SOL    HW217826   2.010   1.746   0.101
 5643SOL     OW17827   5.366   1.876   6.215
 5643SOL    HW117828   5.397   1.819   6.139
 5643SOL    HW217829   5.418   1.853   6.297
 5644SOL     OW17830   2.741   0.692   6.184
 5644SOL    HW117831   2.753   0.610   6.241
 5644SOL    HW217832   2.695   0.666   6.099
 5645SOL     OW17833   5.648   3.749   4.871
 5645SOL    HW117834   5.713   3.738   4.797
 5645SOL    HW217835   5.558   3.715   4.843
 5646SOL     OW17836   1.223   4.412   2.674
 5646SOL    HW117837   1.251   4.423   2.578
 5646SOL    HW217838   1.240   4.318   2.703
 5647SOL     OW17839   5.991   6.717   2.631
 5647SOL    HW117840   5.933   6.766   2.696
 5647SOL    HW217841   6.041   6.783   2.574
 5648SOL     OW17842   4.818   5.942   3.631
 5648SOL    HW117843   4.755   5.927   3.555
 5648SOL    HW217844   4.897   5.882   3.620
 5649SOL     OW17845   1.057   6.670   4.106
 5649SOL    HW117846   0.993   6.746   4.097
 5649SOL    HW217847   1.135   6.698   4.162
 5650SOL     OW17848   6.527   4.152   6.080
 5650SOL    HW117849   6.570   4.162   5.991
 5650SOL    HW217850   6.457   4.081   6.076
 5651SOL     OW17851   2.849   1.221   0.423
 5651SOL    HW117852   2.945   1.236   0.447
 5651SOL    HW217853   2.842   1.203   0.324
 5652SOL     OW17854   0.281   5.914   2.732
 5652SOL    HW117855   0.333   5.957   2.806
 5652SOL    HW217856   0.238   5.831   2.766
 5653SOL     OW17857   0.248   0.226   1.994
 5653SOL    HW117858   0.211   0.295   1.933
 5653SOL    HW217859   0.229   0.135   1.957
 5654SOL     OW17860   2.927   5.931   5.276
 5654SOL    HW117861   2.964   5.989   5.202
 5654SOL    HW217862   2.828   5.925   5.268
 5655SOL     OW17863   5.348   2.827   5.371
 5655SOL    HW117864   5.338   2.896   5.299
 5655SOL    HW217865   5.362   2.737   5.329
 5656SOL     OW17866   6.816   3.598   0.380
 5656SOL    HW117867   6.734   3.550   0.348
 5656SOL    HW217868   6.832   3.574   0.476
 5657SOL     OW17869   5.168   5.571   4.903
 5657SOL    HW117870   5.133   5.481   4.877
 5657SOL    HW217871   5.268   5.568   4.907
 5658SOL     OW17872   2.565   3.111   5.623
 5658SOL    HW117873   2.540   3.177   5.553
 5658SOL    HW217874   2.610   3.158   5.699
 5659SOL     OW17875   2.580   4.332   7.021
 5659SOL    HW117876   2.605   4.265   0.067
 5659SOL    HW217877   2.597   4.293   6.931
 5660SOL     OW17878   4.524   0.391   5.419
 5660SOL    HW117879   4.615   0.428   5.435
 5660SOL    HW217880   4.474   0.385   5.505
 5661SOL     OW17881   0.754   5.702   5.945
 5661SOL    HW117882   0.824   5.773   5.957
 5661SOL    HW217883   0.798   5.616   5.919
 5662SOL     OW17884   3.121   6.518   1.250
 5662SOL    HW117885   3.187   6.578   1.296
 5662SOL    HW217886   3.160   6.427   1.240
 5663SOL     OW17887   1.208   3.351   5.623
 5663SOL    HW117888   1.236   3.269   5.672
 5663SOL    HW217889   1.217   3.430   5.684
 5664SOL     OW17890   4.707   4.769   4.590
 5664SOL    HW117891   4.693   4.829   4.669
 5664SOL    HW217892   4.804   4.750   4.580
 5665SOL     OW17893   1.726   1.557   0.978
 5665SOL    HW117894   1.716   1.460   0.957
 5665SOL    HW217895   1.690   1.575   1.070
 5666SOL     OW17896   6.304   2.724   4.973
 5666SOL    HW117897   6.230   2.775   4.928
 5666SOL    HW217898   6.325   2.643   4.919
 5667SOL     OW17899   2.589   4.570   4.199
 5667SOL    HW117900   2.508   4.524   4.234
 5667SOL    HW217901   2.607   4.652   4.253
 5668SOL     OW17902   4.879   3.749   3.993
 5668SOL    HW117903   4.791   3.708   3.972
 5668SOL    HW217904   4.948   3.677   4.005
 5669SOL     OW17905   5.250   4.558   5.950
 5669SOL    HW117906   5.290   4.466   5.955
 5669SOL    HW217907   5.303   4.620   6.009
 5670SOL     OW17908   1.827   2.881   3.672
 5670SOL    HW117909   1.750   2.935   3.706
 5670SOL    HW217910   1.835   2.797   3.726
 5671SOL     OW17911   6.589   5.089   3.379
 5671SOL    HW117912   6.546   5.178   3.397
 5671SOL    HW217913   6.606   5.080   3.281
 5672SOL     OW17914   5.089   3.067   5.000
 5672SOL    HW117915   5.012   3.095   4.942
 5672SOL    HW217916   5.174   3.105   4.964
 5673SOL     OW17917   1.012   1.879   0.412
 5673SOL    HW117918   0.928   1.929   0.393
 5673SOL    HW217919   1.054   1.851   0.325
 5674SOL     OW17920   2.086   5.285   4.989
 5674SOL    HW117921   2.053   5.191   4.995
 5674SOL    HW217922   2.179   5.286   4.952
 5675SOL     OW17923   2.672   2.355   1.162
 5675SOL    HW117924   2.654   2.257   1.162
 5675SOL    HW217925   2.609   2.401   1.100
 5676SOL     OW17926   3.585   1.305   1.934
 5676SOL    HW117927   3.597   1.389   1.987
 5676SOL    HW217928   3.504   1.315   1.876
 5677SOL     OW17929   0.519   1.640   6.450
 5677SOL    HW117930   0.615   1.651   6.426
 5677SOL    HW217931   0.472   1.727   6.442
 5678SOL     OW17932   3.400   2.071   2.147
 5678SOL    HW117933   3.308   2.067   2.108
 5678SOL    HW217934   3.425   2.166   2.164
 5679SOL     OW17935   0.053   4.289   5.432
 5679SOL    HW117936   7.006   4.241   5.483
 5679SOL    HW217937   0.141   4.243   5.445
 5680SOL     OW17938   0.552   5.658   5.206
 5680SOL    HW117939   0.581   5.589   5.273
 5680SOL    HW217940   0.609   5.651   5.124
 5681SOL     OW17941   1.240   3.689   3.680
 5681SOL    HW117942   1.277   3.781   3.669
 5681SOL    HW217943   1.162   3.677   3.618
 5682SOL     OW17944   1.940   4.489   1.294
 5682SOL    HW117945   1.934   4.521   1.389
 5682SOL    HW217946   1.961   4.391   1.293
 5683SOL     OW17947   6.924   0.255   6.112
 5683SOL    HW117948   6.911   0.273   6.209
 5683SOL    HW217949   6.996   0.316   6.076
 5684SOL     OW17950   2.216   3.055   4.944
 5684SOL    HW117951   2.286   3.021   5.007
 5684SOL    HW217952   2.200   2.988   4.871
 5685SOL     OW17953   2.696   1.237   2.295
 5685SOL    HW117954   2.786   1.270   2.266
 5685SOL    HW217955   2.688   1.246   2.394
 5686SOL     OW17956   5.198   5.439   5.957
 5686SOL    HW117957   5.191   5.519   5.897
 5686SOL    HW217958   5.106   5.410   5.985
 5687SOL     OW17959   2.106   6.848   6.023
 5687SOL    HW117960   2.050   6.927   6.048
 5687SOL    HW217961   2.062   6.798   5.948
 5688SOL     OW17962   1.980   2.056   3.194
 5688SOL    HW117963   2.027   1.988   3.138
 5688SOL    HW217964   1.989   2.146   3.152
 5689SOL     OW17965   0.522   2.683   1.402
 5689SOL    HW117966   0.536   2.599   1.349
 5689SOL    HW217967   0.424   2.696   1.417
 5690SOL     OW17968   2.993   5.270   6.843
 5690SOL    HW117969   2.992   5.313   6.753
 5690SOL    HW217970   2.928   5.194   6.844
 5691SOL     OW17971   4.480   2.147   3.248
 5691SOL    HW117972   4.550   2.191   3.192
 5691SOL    HW217973   4.508   2.151   3.344
 5692SOL     OW17974   6.197   4.465   1.776
 5692SOL    HW117975   6.282   4.440   1.730
 5692SOL    HW217976   6.217   4.493   1.870
 5693SOL     OW17977   4.400   0.339   1.921
 5693SOL    HW117978   4.306   0.316   1.896
 5693SOL    HW217979   4.444   0.260   1.963
 5694SOL     OW17980   0.646   0.426   1.708
 5694SOL    HW117981   0.708   0.356   1.673
 5694SOL    HW217982   0.573   0.383   1.761
 5695SOL     OW17983   2.971   1.327   1.928
 5695SOL    HW117984   2.963   1.338   2.027
 5695SOL    HW217985   2.880   1.319   1.887
 5696SOL     OW17986   0.344   0.325   4.189
 5696SOL    HW117987   0.387   0.319   4.279
 5696SOL    HW217988   0.414   0.338   4.119
 5697SOL     OW17989   6.847   2.134   6.902
 5697SOL    HW117990   6.880   2.224   6.873
 5697SOL    HW217991   6.828   2.078   6.822
 5698SOL     OW17992   3.314   2.169   4.628
 5698SOL    HW117993   3.233   2.141   4.575
 5698SOL    HW217994   3.285   2.197   4.719
 5699SOL     OW17995   2.185   2.983   2.321
 5699SOL    HW117996   2.174   2.968   2.420
 5699SOL    HW217997   2.142   3.070   2.296
 5700SOL     OW17998   6.541   0.208   2.526
 5700SOL    HW117999   6.623   0.251   2.565
 5700SOL    HW218000   6.556   0.109   2.522
 5701SOL     OW18001   1.116   1.010   0.584
 5701SOL    HW118002   1.138   0.999   0.488
 5701SOL    HW218003   1.024   0.976   0.602
 5702SOL     OW18004   1.915   6.726   4.713
 5702SOL    HW118005   1.990   6.726   4.647
 5702SOL    HW218006   1.912   6.639   4.761
 5703SOL     OW18007   0.276   2.900   6.021
 5703SOL    HW118008   0.186   2.873   6.054
 5703SOL    HW218009   0.268   2.982   5.964
 5704SOL     OW18010   3.922   5.244   4.285
 5704SOL    HW118011   3.849   5.284   4.341
 5704SOL    HW218012   3.926   5.145   4.301
 5705SOL     OW18013   6.313   0.773   5.713
 5705SOL    HW118014   6.240   0.795   5.778
 5705SOL    HW218015   6.352   0.685   5.735
 5706SOL     OW18016   5.132   1.996   1.340
 5706SOL    HW118017   5.132   2.048   1.426
 5706SOL    HW218018   5.129   2.059   1.263
 5707SOL     OW18019   6.126   5.295   1.318
 5707SOL    HW118020   6.189   5.364   1.354
 5707SOL    HW218021   6.137   5.210   1.369
 5708SOL     OW18022   5.001   6.202   2.145
 5708SOL    HW118023   5.089   6.246   2.130
 5708SOL    HW218024   5.009   6.136   2.220
 5709SOL     OW18025   0.336   2.528   2.839
 5709SOL    HW118026   0.261   2.588   2.868
 5709SOL    HW218027   0.311   2.483   2.753
 5710SOL     OW18028   4.652   1.506   0.326
 5710SOL    HW118029   4.655   1.605   0.321
 5710SOL    HW218030   4.573   1.477   0.380
 5711SOL     OW18031   4.755   1.551   2.618
 5711SOL    HW118032   4.728   1.461   2.583
 5711SOL    HW218033   4.690   1.620   2.585
 5712SOL     OW18034   5.849   6.045   0.068
 5712SOL    HW118035   5.754   6.072   0.050
 5712SOL    HW218036   5.900   6.123   0.102
 5713SOL     OW18037   1.558   0.931   0.651
 5713SOL    HW118038   1.486   1.001   0.656
 5713SOL    HW218039   1.522   0.845   0.689
 5714SOL     OW18040   6.380   0.102   0.565
 5714SOL    HW118041   6.289   0.059   0.562
 5714SOL    HW218042   6.369   0.201   0.577
 5715SOL     OW18043   0.368   6.783   1.547
 5715SOL    HW118044   0.278   6.788   1.591
 5715SOL    HW218045   0.438   6.779   1.618
 5716SOL     OW18046   0.060   4.563   5.493
 5716SOL    HW118047   0.014   4.486   5.448
 5716SOL    HW218048   0.019   4.648   5.462
 5717SOL     OW18049   0.715   5.513   3.426
 5717SOL    HW118050   0.694   5.606   3.394
 5717SOL    HW218051   0.644   5.483   3.490
 5718SOL     OW18052   1.115   3.949   6.633
 5718SOL    HW118053   1.040   3.900   6.588
 5718SOL    HW218054   1.172   3.884   6.683
 5719SOL     OW18055   2.886   3.729   0.604
 5719SOL    HW118056   2.793   3.706   0.634
 5719SOL    HW218057   2.922   3.654   0.549
 5720SOL     OW18058   3.410   5.051   6.042
 5720SOL    HW118059   3.471   5.072   6.118
 5720SOL    HW218060   3.421   4.955   6.016
 5721SOL     OW18061   1.946   2.916   0.245
 5721SOL    HW118062   1.930   2.818   0.262
 5721SOL    HW218063   2.019   2.926   0.178
 5722SOL     OW18064   1.732   0.065   6.629
 5722SOL    HW118065   1.719   0.084   6.726
 5722SOL    HW218066   1.821   0.020   6.616
 5723SOL     OW18067   4.149   3.307   0.821
 5723SOL    HW118068   4.225   3.265   0.773
 5723SOL    HW218069   4.181   3.388   0.871
 5724SOL     OW18070   5.758   2.253   5.964
 5724SOL    HW118071   5.768   2.188   5.888
 5724SOL    HW218072   5.820   2.226   6.039
 5725SOL     OW18073   6.862   4.472   5.085
 5725SOL    HW118074   6.832   4.489   5.179
 5725SOL    HW218075   6.945   4.417   5.086
 5726SOL     OW18076   5.017   4.228   2.202
 5726SOL    HW118077   5.069   4.200   2.121
 5726SOL    HW218078   5.033   4.325   2.220
 5727SOL     OW18079   1.205   2.799   4.938
 5727SOL    HW118080   1.141   2.820   4.864
 5727SOL    HW218081   1.213   2.700   4.948
 5728SOL     OW18082   3.416   6.819   5.472
 5728SOL    HW118083   3.439   6.784   5.381
 5728SOL    HW218084   3.347   6.760   5.514
 5729SOL     OW18085   2.551   2.014   4.790
 5729SOL    HW118086   2.526   2.106   4.761
 5729SOL    HW218087   2.646   2.013   4.819
 5730SOL     OW18088   6.456   4.311   4.769
 5730SOL    HW118089   6.516   4.232   4.754
 5730SOL    HW218090   6.377   4.304   4.708
 5731SOL     OW18091   0.698   6.815   2.769
 5731SOL    HW118092   0.744   6.870   2.838
 5731SOL    HW218093   0.725   6.720   2.779
 5732SOL     OW18094   6.625   0.841   3.053
 5732SOL    HW118095   6.546   0.827   3.113
 5732SOL    HW218096   6.602   0.811   2.961
 5733SOL     OW18097   2.797   0.760   5.237
 5733SOL    HW118098   2.793   0.788   5.141
 5733SOL    HW218099   2.708   0.773   5.280
 5734SOL     OW18100   1.733   6.848   3.250
 5734SOL    HW118101   1.761   6.797   3.331
 5734SOL    HW218102   1.679   6.928   3.277
 5735SOL     OW18103   2.937   0.820   1.165
 5735SOL    HW118104   2.865   0.852   1.103
 5735SOL    HW218105   3.018   0.796   1.112
 5736SOL     OW18106   1.506   5.260   0.720
 5736SOL    HW118107   1.475   5.187   0.781
 5736SOL    HW218108   1.596   5.237   0.683
 5737SOL     OW18109   5.581   3.889   0.153
 5737SOL    HW118110   5.514   3.919   0.085
 5737SOL    HW218111   5.543   3.902   0.245
 5738SOL     OW18112   0.696   4.666   4.767
 5738SOL    HW118113   0.661   4.699   4.854
 5738SOL    HW218114   0.620   4.640   4.708
 5739SOL     OW18115   0.762   2.817   1.018
 5739SOL    HW118116   0.854   2.779   1.010
 5739SOL    HW218117   0.702   2.776   0.950
 5740SOL     OW18118   3.955   4.841   6.863
 5740SOL    HW118119   4.018   4.909   6.825
 5740SOL    HW218120   3.861   4.868   6.843
 5741SOL     OW18121   0.326   3.318   1.709
 5741SOL    HW118122   0.264   3.379   1.759
 5741SOL    HW218123   0.349   3.359   1.621
 5742SOL     OW18124   0.424   5.747   3.684
 5742SOL    HW118125   0.414   5.823   3.749
 5742SOL    HW218126   0.513   5.703   3.698
 5743SOL     OW18127   1.565   6.294   5.322
 5743SOL    HW118128   1.618   6.378   5.334
 5743SOL    HW218129   1.626   6.215   5.324
 5744SOL     OW18130   6.041   0.347   1.428
 5744SOL    HW118131   5.990   0.306   1.503
 5744SOL    HW218132   6.124   0.390   1.464
 5745SOL     OW18133   1.278   3.207   3.358
 5745SOL    HW118134   1.319   3.251   3.438
 5745SOL    HW218135   1.194   3.256   3.333
 5746SOL     OW18136   6.530   4.261   6.898
 5746SOL    HW118137   6.547   4.359   6.895
 5746SOL    HW218138   6.496   4.229   6.809
 5747SOL     OW18139   0.948   6.430   3.703
 5747SOL    HW118140   1.008   6.351   3.714
 5747SOL    HW218141   0.997   6.513   3.731
 5748SOL     OW18142   1.930   0.126   3.511
 5748SOL    HW118143   1.889   0.109   3.422
 5748SOL    HW218144   1.895   0.212   3.548
 5749SOL     OW18145   1.597   1.144   3.297
 5749SOL    HW118146   1.674   1.209   3.302
 5749SOL    HW218147   1.613   1.069   3.360
 5750SOL     OW18148   6.044   6.562   2.385
 5750SOL    HW118149   6.057   6.643   2.442
 5750SOL    HW218150   6.126   6.547   2.330
 5751SOL     OW18151   0.683   2.961   6.279
 5751SOL    HW118152   0.660   2.865   6.265
 5751SOL    HW218153   0.634   3.017   6.212
 5752SOL     OW18154   1.238   1.533   6.373
 5752SOL    HW118155   1.190   1.446   6.368
 5752SOL    HW218156   1.230   1.581   6.286
 5753SOL     OW18157   4.537   1.790   0.342
 5753SOL    HW118158   4.610   1.858   0.350
 5753SOL    HW218159   4.504   1.766   0.433
 5754SOL     OW18160   5.972   5.633   0.257
 5754SOL    HW118161   6.038   5.708   0.267
 5754SOL    HW218162   6.020   5.552   0.221
 5755SOL     OW18163   3.337   3.606   1.630
 5755SOL    HW118164   3.261   3.585   1.692
 5755SOL    HW218165   3.408   3.655   1.681
 5756SOL     OW18166   6.884   6.079   4.272
 5756SOL    HW118167   6.808   6.113   4.217
 5756SOL    HW218168   6.956   6.043   4.212
 5757SOL     OW18169   6.758   6.262   2.400
 5757SOL    HW118170   6.724   6.219   2.317
 5757SOL    HW218171   6.683   6.274   2.465
 5758SOL     OW18172   2.651   1.462   5.824
 5758SOL    HW118173   2.735   1.516   5.823
 5758SOL    HW218174   2.630   1.435   5.919
 5759SOL     OW18175   0.653   1.607   5.875
 5759SOL    HW118176   0.669   1.599   5.777
 5759SOL    HW218177   0.607   1.525   5.908
 5760SOL     OW18178   6.863   6.051   1.088
 5760SOL    HW118179   6.931   6.045   1.015
 5760SOL    HW218180   6.822   5.961   1.103
 5761SOL     OW18181   4.793   0.507   4.851
 5761SOL    HW118182   4.702   0.530   4.816
 5761SOL    HW218183   4.784   0.448   4.931
 5762SOL     OW18184   5.822   6.102   1.005
 5762SOL    HW118185   5.895   6.151   1.053
 5762SOL    HW218186   5.769   6.166   0.951
 5763SOL     OW18187   2.447   1.020   0.707
 5763SOL    HW118188   2.467   1.090   0.638
 5763SOL    HW218189   2.365   1.046   0.758
 5764SOL     OW18190   4.320   2.949   6.254
 5764SOL    HW118191   4.322   2.854   6.286
 5764SOL    HW218192   4.237   2.965   6.201
 5765SOL     OW18193   6.414   5.528   6.996
 5765SOL    HW118194   6.437   5.481   0.057
 5765SOL    HW218195   6.419   5.627   7.011
 5766SOL     OW18196   2.764   1.069   3.504
 5766SOL    HW118197   2.862   1.068   3.520
 5766SOL    HW218198   2.740   1.149   3.448
 5767SOL     OW18199   5.543   6.959   0.449
 5767SOL    HW118200   5.508   0.003   0.384
 5767SOL    HW218201   5.466   6.906   0.485
 5768SOL     OW18202   6.571   0.139   2.103
 5768SOL    HW118203   6.615   0.079   2.035
 5768SOL    HW218204   6.640   0.200   2.141
 5769SOL     OW18205   1.952   5.000   3.211
 5769SOL    HW118206   2.047   4.987   3.239
 5769SOL    HW218207   1.938   5.094   3.180
 5770SOL     OW18208   5.745   2.174   1.674
 5770SOL    HW118209   5.647   2.165   1.653
 5770SOL    HW218210   5.757   2.180   1.773
 5771SOL     OW18211   1.126   1.307   1.188
 5771SOL    HW118212   1.153   1.266   1.275
 5771SOL    HW218213   1.132   1.407   1.195
 5772SOL     OW18214   6.507   5.370   5.462
 5772SOL    HW118215   6.566   5.383   5.542
 5772SOL    HW218216   6.529   5.439   5.393
 5773SOL     OW18217   5.426   5.595   4.935
 5773SOL    HW118218   5.505   5.533   4.926
 5773SOL    HW218219   5.448   5.667   5.001
 5774SOL     OW18220   2.532   4.887   2.250
 5774SOL    HW118221   2.476   4.805   2.238
 5774SOL    HW218222   2.624   4.869   2.216
 5775SOL     OW18223   0.599   0.807   0.620
 5775SOL    HW118224   0.544   0.791   0.702
 5775SOL    HW218225   0.540   0.838   0.545
 5776SOL     OW18226   4.720   1.061   5.652
 5776SOL    HW118227   4.659   1.015   5.715
 5776SOL    HW218228   4.666   1.110   5.583
 5777SOL     OW18229   5.942   7.001   5.015
 5777SOL    HW118230   5.965   0.068   5.050
 5777SOL    HW218231   5.858   7.006   4.961
 5778SOL     OW18232   2.804   6.868   3.920
 5778SOL    HW118233   2.773   6.783   3.964
 5778SOL    HW218234   2.903   6.871   3.922
 5779SOL     OW18235   4.118   0.005   1.187
 5779SOL    HW118236   4.071   6.991   1.266
 5779SOL    HW218237   4.052   0.049   1.127
 5780SOL     OW18238   6.265   4.121   0.721
 5780SOL    HW118239   6.360   4.125   0.753
 5780SOL    HW218240   6.262   4.076   0.631
 5781SOL     OW18241   3.458   4.299   5.217
 5781SOL    HW118242   3.501   4.388   5.230
 5781SOL    HW218243   3.528   4.229   5.200
 5782SOL     OW18244   4.032   1.343   3.236
 5782SOL    HW118245   4.046   1.366   3.140
 5782SOL    HW218246   3.935   1.328   3.253
 5783SOL     OW18247   3.210   5.963   2.713
 5783SOL    HW118248   3.111   5.959   2.700
 5783SOL    HW218249   3.256   5.950   2.625
 5784SOL     OW18250   1.496   6.382   0.650
 5784SOL    HW118251   1.416   6.353   0.597
 5784SOL    HW218252   1.468   6.447   0.721
 5785SOL     OW18253   2.385   2.452   6.548
 5785SOL    HW118254   2.317   2.524   6.535
 5785SOL    HW218255   2.339   2.370   6.585
 5786SOL     OW18256   0.712   2.044   5.650
 5786SOL    HW118257   0.708   1.968   5.714
 5786SOL    HW218258   0.786   2.107   5.677
 5787SOL     OW18259   0.639   2.601   4.469
 5787SOL    HW118260   0.672   2.656   4.392
 5787SOL    HW218261   0.549   2.635   4.497
 5788SOL     OW18262   0.487   2.112   1.777
 5788SOL    HW118263   0.389   2.128   1.772
 5788SOL    HW218264   0.506   2.035   1.837
 5789SOL     OW18265   2.653   6.427   0.161
 5789SOL    HW118266   2.573   6.367   0.163
 5789SOL    HW218267   2.662   6.475   0.248
 5790SOL     OW18268   0.111   6.601   2.766
 5790SOL    HW118269   0.056   6.627   2.845
 5790SOL    HW218270   0.119   6.679   2.704
 5791SOL     OW18271   4.166   0.558   1.117
 5791SOL    HW118272   4.249   0.523   1.159
 5791SOL    HW218273   4.156   0.656   1.138
 5792SOL     OW18274   5.024   2.309   2.307
 5792SOL    HW118275   4.944   2.367   2.298
 5792SOL    HW218276   5.054   2.307   2.403
 5793SOL     OW18277   4.027   1.900   0.420
 5793SOL    HW118278   3.929   1.914   0.406
 5793SOL    HW218279   4.060   1.962   0.491
 5794SOL     OW18280   3.084   5.848   0.159
 5794SOL    HW118281   3.014   5.828   0.227
 5794SOL    HW218282   3.082   5.779   0.087
 5795SOL     OW18283   1.128   0.389   0.823
 5795SOL    HW118284   1.046   0.385   0.880
 5795SOL    HW218285   1.146   0.484   0.797
 5796SOL     OW18286   4.809   0.685   6.045
 5796SOL    HW118287   4.765   0.770   6.018
 5796SOL    HW218288   4.757   0.642   6.119
 5797SOL     OW18289   6.727   2.148   0.339
 5797SOL    HW118290   6.737   2.205   0.258
 5797SOL    HW218291   6.724   2.052   0.312
 5798SOL     OW18292   1.871   2.754   4.552
 5798SOL    HW118293   1.777   2.723   4.561
 5798SOL    HW218294   1.930   2.697   4.609
 5799SOL     OW18295   2.619   0.179   3.586
 5799SOL    HW118296   2.575   0.112   3.526
 5799SOL    HW218297   2.590   0.163   3.680
 5800SOL     OW18298   1.119   6.506   2.065
 5800SOL    HW118299   1.108   6.436   2.136
 5800SOL    HW218300   1.118   6.462   1.975
 5801SOL     OW18301   1.569   1.902   2.771
 5801SOL    HW118302   1.510   1.966   2.721
 5801SOL    HW218303   1.530   1.884   2.861
 5802SOL     OW18304   6.911   6.650   2.964
 5802SOL    HW118305   6.943   6.636   3.058
 5802SOL    HW218306   6.851   6.730   2.961
 5803SOL     OW18307   0.814   6.820   4.094
 5803SOL    HW118308   0.745   6.776   4.038
 5803SOL    HW218309   0.792   6.808   4.190
 5804SOL     OW18310   6.059   1.575   3.669
 5804SOL    HW118311   6.037   1.615   3.580
 5804SOL    HW218312   5.978   1.579   3.728
 5805SOL     OW18313   0.905   2.935   1.612
 5805SOL    HW118314   0.829   2.876   1.584
 5805SOL    HW218315   0.911   2.935   1.712
 5806SOL     OW18316   6.648   3.937   2.154
 5806SOL    HW118317   6.659   4.037   2.145
 5806SOL    HW218318   6.697   3.905   2.234
 5807SOL     OW18319   1.647   1.448   1.930
 5807SOL    HW118320   1.742   1.467   1.905
 5807SOL    HW218321   1.591   1.449   1.847
 5808SOL     OW18322   6.692   0.010   5.764
 5808SOL    HW118323   6.675   0.095   5.714
 5808SOL    HW218324   6.617   7.018   5.828
 5809SOL     OW18325   0.398   3.511   4.584
 5809SOL    HW118326   0.405   3.412   4.578
 5809SOL    HW218327   0.312   3.541   4.542
 5810SOL     OW18328   1.414   6.594   5.363
 5810SOL    HW118329   1.362   6.514   5.332
 5810SOL    HW218330   1.404   6.667   5.295
 5811SOL     OW18331   3.190   4.995   0.076
 5811SOL    HW118332   3.241   5.065   0.128
 5811SOL    HW218333   3.247   4.962   0.001
 5812SOL     OW18334   6.770   3.727   6.095
 5812SOL    HW118335   6.727   3.753   6.182
 5812SOL    HW218336   6.701   3.686   6.035
 5813SOL     OW18337   6.315   4.947   1.191
 5813SOL    HW118338   6.216   4.957   1.206
 5813SOL    HW218339   6.360   5.033   1.213
 5814SOL     OW18340   5.428   1.375   2.635
 5814SOL    HW118341   5.418   1.468   2.599
 5814SOL    HW218342   5.338   1.333   2.644
 5815SOL     OW18343   5.939   3.487   4.896
 5815SOL    HW118344   5.980   3.526   4.978
 5815SOL    HW218345   5.923   3.389   4.910
 5816SOL     OW18346   6.460   4.453   1.022
 5816SOL    HW118347   6.406   4.452   0.938
 5816SOL    HW218348   6.423   4.522   1.084
 5817SOL     OW18349   6.755   2.618   4.001
 5817SOL    HW118350   6.818   2.692   4.025
 5817SOL    HW218351   6.804   2.547   3.952
 5818SOL     OW18352   2.389   6.981   4.116
 5818SOL    HW118353   2.451   6.947   4.187
 5818SOL    HW218354   2.326   6.907   4.090
 5819SOL     OW18355   4.062   4.304   0.945
 5819SOL    HW118356   4.113   4.219   0.964
 5819SOL    HW218357   3.994   4.287   0.874
 5820SOL     OW18358   0.419   6.778   2.419
 5820SOL    HW118359   0.333   6.741   2.455
 5820SOL    HW218360   0.399   6.838   2.341
 5821SOL     OW18361   6.532   6.688   2.303
 5821SOL    HW118362   6.488   6.757   2.246
 5821SOL    HW218363   6.520   6.712   2.400
 5822SOL     OW18364   0.657   4.409   2.961
 5822SOL    HW118365   0.624   4.484   3.018
 5822SOL    HW218366   0.660   4.325   3.016
 5823SOL     OW18367   2.688   6.249   4.818
 5823SOL    HW118368   2.610   6.267   4.757
 5823SOL    HW218369   2.677   6.302   4.902
 5824SOL     OW18370   2.261   5.633   2.338
 5824SOL    HW118371   2.284   5.684   2.421
 5824SOL    HW218372   2.320   5.553   2.331
 5825SOL     OW18373   4.064   2.055   5.120
 5825SOL    HW118374   4.015   2.094   5.041
 5825SOL    HW218375   4.161   2.045   5.097
 5826SOL     OW18376   1.384   6.343   4.949
 5826SOL    HW118377   1.316   6.416   4.940
 5826SOL    HW218378   1.474   6.377   4.922
 5827SOL     OW18379   2.131   3.708   2.946
 5827SOL    HW118380   2.151   3.780   2.879
 5827SOL    HW218381   2.163   3.736   3.036
 5828SOL     OW18382   4.363   6.783   5.026
 5828SOL    HW118383   4.408   6.701   5.061
 5828SOL    HW218384   4.319   6.832   5.101
 5829SOL     OW18385   2.210   0.922   2.901
 5829SOL    HW118386   2.272   0.922   2.980
 5829SOL    HW218387   2.192   0.827   2.874
 5830SOL     OW18388   4.645   5.390   4.689
 5830SOL    HW118389   4.716   5.320   4.683
 5830SOL    HW218390   4.600   5.400   4.600
 5831SOL     OW18391   2.001   1.366   4.588
 5831SOL    HW118392   1.906   1.338   4.600
 5831SOL    HW218393   2.010   1.464   4.611
 5832SOL     OW18394   2.078   4.752   3.962
 5832SOL    HW118395   2.090   4.792   3.871
 5832SOL    HW218396   1.987   4.712   3.969
 5833SOL     OW18397   3.050   4.853   0.947
 5833SOL    HW118398   2.960   4.836   0.986
 5833SOL    HW218399   3.074   4.949   0.958
 5834SOL     OW18400   5.924   2.259   6.241
 5834SOL    HW118401   5.907   2.166   6.209
 5834SOL    HW218402   5.879   2.272   6.330
 5835SOL     OW18403   4.180   1.302   3.930
 5835SOL    HW118404   4.088   1.340   3.922
 5835SOL    HW218405   4.233   1.326   3.849
 5836SOL     OW18406   5.026   4.912   1.424
 5836SOL    HW118407   4.954   4.844   1.436
 5836SOL    HW218408   5.028   4.973   1.503
 5837SOL     OW18409   2.657   4.576   0.302
 5837SOL    HW118410   2.670   4.578   0.203
 5837SOL    HW218411   2.599   4.498   0.327
 5838SOL     OW18412   2.977   2.918   0.422
 5838SOL    HW118413   3.029   2.834   0.405
 5838SOL    HW218414   3.036   2.997   0.407
 5839SOL     OW18415   2.246   1.512   1.490
 5839SOL    HW118416   2.189   1.442   1.447
 5839SOL    HW218417   2.236   1.507   1.589
 5840SOL     OW18418   6.863   3.930   2.776
 5840SOL    HW118419   6.884   3.891   2.866
 5840SOL    HW218420   6.768   3.961   2.774
 5841SOL     OW18421   5.024   2.118   0.561
 5841SOL    HW118422   4.958   2.106   0.487
 5841SOL    HW218423   4.999   2.061   0.639
 5842SOL     OW18424   3.678   2.043   2.411
 5842SOL    HW118425   3.588   2.081   2.431
 5842SOL    HW218426   3.718   2.006   2.495
 5843SOL     OW18427   3.134   3.424   1.177
 5843SOL    HW118428   3.207   3.381   1.124
 5843SOL    HW218429   3.118   3.371   1.261
 5844SOL     OW18430   7.002   5.564   4.918
 5844SOL    HW118431   6.937   5.490   4.936
 5844SOL    HW218432   0.067   5.524   4.895
 5845SOL     OW18433   2.037   6.314   2.796
 5845SOL    HW118434   1.982   6.387   2.839
 5845SOL    HW218435   2.133   6.341   2.796
 5846SOL     OW18436   0.373   4.661   5.752
 5846SOL    HW118437   0.340   4.755   5.760
 5846SOL    HW218438   0.354   4.611   5.836
 5847SOL     OW18439   1.865   4.261   6.082
 5847SOL    HW118440   1.915   4.175   6.078
 5847SOL    HW218441   1.801   4.266   6.006
 5848SOL     OW18442   2.810   6.137   1.891
 5848SOL    HW118443   2.776   6.218   1.940
 5848SOL    HW218444   2.738   6.069   1.887
 5849SOL     OW18445   2.912   5.899   6.563
 5849SOL    HW118446   2.932   5.917   6.659
 5849SOL    HW218447   2.834   5.837   6.557
 5850SOL     OW18448   5.891   2.202   1.914
 5850SOL    HW118449   5.899   2.124   1.977
 5850SOL    HW218450   5.964   2.196   1.846
 5851SOL     OW18451   1.122   3.418   5.231
 5851SOL    HW118452   1.033   3.443   5.269
 5851SOL    HW218453   1.194   3.458   5.286
 5852SOL     OW18454   4.768   4.650   2.832
 5852SOL    HW118455   4.862   4.645   2.797
 5852SOL    HW218456   4.705   4.659   2.755
 5853SOL     OW18457   4.019   5.098   0.122
 5853SOL    HW118458   4.072   5.066   0.201
 5853SOL    HW218459   4.079   5.106   0.043
 5854SOL     OW18460   2.741   4.507   5.412
 5854SOL    HW118461   2.805   4.515   5.488
 5854SOL    HW218462   2.788   4.525   5.326
 5855SOL     OW18463   1.648   2.207   4.712
 5855SOL    HW118464   1.724   2.149   4.741
 5855SOL    HW218465   1.647   2.291   4.765
 5856SOL     OW18466   0.751   0.293   2.529
 5856SOL    HW118467   0.714   0.264   2.440
 5856SOL    HW218468   0.837   0.342   2.514
 5857SOL     OW18469   5.886   5.329   6.955
 5857SOL    HW118470   5.880   5.362   6.861
 5857SOL    HW218471   5.926   5.237   6.955
 5858SOL     OW18472   2.796   1.470   2.819
 5858SOL    HW118473   2.880   1.524   2.830
 5858SOL    HW218474   2.776   1.458   2.722
 5859SOL     OW18475   5.528   5.155   2.054
 5859SOL    HW118476   5.570   5.153   1.963
 5859SOL    HW218477   5.593   5.190   2.121
 5860SOL     OW18478   1.774   3.385   2.213
 5860SOL    HW118479   1.840   3.380   2.139
 5860SOL    HW218480   1.681   3.388   2.174
 5861SOL     OW18481   5.476   0.105   5.257
 5861SOL    HW118482   5.474   0.032   5.189
 5861SOL    HW218483   5.568   0.144   5.262
 5862SOL     OW18484   6.675   4.942   2.359
 5862SOL    HW118485   6.718   4.921   2.447
 5862SOL    HW218486   6.737   4.915   2.284
 5863SOL     OW18487   3.837   0.264   5.871
 5863SOL    HW118488   3.893   0.184   5.893
 5863SOL    HW218489   3.840   0.281   5.772
 5864SOL     OW18490   3.551   3.517   3.630
 5864SOL    HW118491   3.534   3.612   3.655
 5864SOL    HW218492   3.640   3.488   3.665
 5865SOL     OW18493   5.943   6.354   1.380
 5865SOL    HW118494   5.882   6.379   1.455
 5865SOL    HW218495   5.923   6.262   1.349
 5866SOL     OW18496   3.540   3.704   3.893
 5866SOL    HW118497   3.450   3.736   3.863
 5866SOL    HW218498   3.529   3.640   3.969
 5867SOL     OW18499   4.514   1.396   0.538
 5867SOL    HW118500   4.532   1.302   0.570
 5867SOL    HW218501   4.422   1.423   0.565
 5868SOL     OW18502   1.089   1.144   0.951
 5868SOL    HW118503   0.998   1.152   0.911
 5868SOL    HW218504   1.089   1.183   1.043
 5869SOL     OW18505   2.307   5.094   3.071
 5869SOL    HW118506   2.367   5.174   3.063
 5869SOL    HW218507   2.269   5.090   3.163
 5870SOL     OW18508   4.484   6.783   4.570
 5870SOL    HW118509   4.506   6.847   4.644
 5870SOL    HW218510   4.513   6.822   4.483
 5871SOL     OW18511   3.813   3.441   3.687
 5871SOL    HW118512   3.899   3.390   3.690
 5871SOL    HW218513   3.770   3.439   3.778
 5872SOL     OW18514   3.325   5.693   1.121
 5872SOL    HW118515   3.392   5.761   1.150
 5872SOL    HW218516   3.349   5.604   1.160
 5873SOL     OW18517   4.186   6.306   1.778
 5873SOL    HW118518   4.214   6.402   1.784
 5873SOL    HW218519   4.235   6.253   1.848
 5874SOL     OW18520   6.804   3.801   5.163
 5874SOL    HW118521   6.800   3.900   5.169
 5874SOL    HW218522   6.848   3.774   5.078
 5875SOL     OW18523   4.065   2.414   1.058
 5875SOL    HW118524   3.972   2.404   1.094
 5875SOL    HW218525   4.131   2.395   1.131
 5876SOL     OW18526   3.388   2.995   2.614
 5876SOL    HW118527   3.361   3.089   2.596
 5876SOL    HW218528   3.435   2.958   2.533
 5877SOL     OW18529   5.136   4.391   1.645
 5877SOL    HW118530   5.207   4.321   1.646
 5877SOL    HW218531   5.101   4.404   1.738
 5878SOL     OW18532   1.088   3.823   2.131
 5878SOL    HW118533   1.155   3.758   2.167
 5878SOL    HW218534   0.996   3.786   2.142
 5879SOL     OW18535   2.156   4.229   4.391
 5879SOL    HW118536   2.079   4.165   4.397
 5879SOL    HW218537   2.196   4.242   4.482
 5880SOL     OW18538   2.842   5.477   6.332
 5880SOL    HW118539   2.916   5.431   6.282
 5880SOL    HW218540   2.793   5.409   6.387
 5881SOL     OW18541   1.838   6.490   3.831
 5881SOL    HW118542   1.863   6.439   3.913
 5881SOL    HW218543   1.872   6.584   3.839
 5882SOL     OW18544   4.773   0.479   2.814
 5882SOL    HW118545   4.864   0.514   2.838
 5882SOL    HW218546   4.779   0.381   2.795
 5883SOL     OW18547   1.438   2.933   4.949
 5883SOL    HW118548   1.440   3.028   4.919
 5883SOL    HW218549   1.352   2.891   4.921
 5884SOL     OW18550   0.075   1.091   2.726
 5884SOL    HW118551   0.122   1.003   2.720
 5884SOL    HW218552   0.057   1.113   2.822
 5885SOL     OW18553   5.046   6.826   0.245
 5885SOL    HW118554   5.026   6.825   0.343
 5885SOL    HW218555   5.012   6.741   0.203
 5886SOL     OW18556   5.996   1.659   6.347
 5886SOL    HW118557   5.910   1.684   6.303
 5886SOL    HW218558   5.982   1.646   6.445
 5887SOL     OW18559   3.877   6.205   2.798
 5887SOL    HW118560   3.935   6.148   2.740
 5887SOL    HW218561   3.802   6.149   2.835
 5888SOL     OW18562   6.768   6.516   2.512
 5888SOL    HW118563   6.801   6.438   2.459
 5888SOL    HW218564   6.725   6.483   2.597
 5889SOL     OW18565   2.882   0.013   6.712
 5889SOL    HW118566   2.955   0.030   6.646
 5889SOL    HW218567   2.795   0.001   6.663
 5890SOL     OW18568   4.083   4.988   6.193
 5890SOL    HW118569   4.029   5.060   6.150
 5890SOL    HW218570   4.048   4.971   6.285
 5891SOL     OW18571   1.262   3.394   6.032
 5891SOL    HW118572   1.285   3.421   5.938
 5891SOL    HW218573   1.324   3.440   6.096
 5892SOL     OW18574   1.831   6.127   2.661
 5892SOL    HW118575   1.888   6.183   2.720
 5892SOL    HW218576   1.765   6.185   2.613
 5893SOL     OW18577   1.634   2.414   2.531
 5893SOL    HW118578   1.623   2.512   2.522
 5893SOL    HW218579   1.707   2.394   2.597
 5894SOL     OW18580   1.534   3.676   4.351
 5894SOL    HW118581   1.457   3.612   4.340
 5894SOL    HW218582   1.614   3.640   4.304
 5895SOL     OW18583   5.581   4.445   3.182
 5895SOL    HW118584   5.620   4.537   3.181
 5895SOL    HW218585   5.532   4.430   3.268
 5896SOL     OW18586   5.033   3.115   5.912
 5896SOL    HW118587   5.074   3.199   5.947
 5896SOL    HW218588   5.027   3.121   5.812
 5897SOL     OW18589   4.187   5.212   0.837
 5897SOL    HW118590   4.183   5.208   0.737
 5897SOL    HW218591   4.099   5.184   0.875
 5898SOL     OW18592   2.704   6.887   3.261
 5898SOL    HW118593   2.800   6.911   3.264
 5898SOL    HW218594   2.685   6.834   3.178
 5899SOL     OW18595   5.084   0.721   3.690
 5899SOL    HW118596   5.024   0.735   3.611
 5899SOL    HW218597   5.033   0.674   3.762
 5900SOL     OW18598   3.813   5.171   2.134
 5900SOL    HW118599   3.735   5.122   2.096
 5900SOL    HW218600   3.896   5.118   2.121
 5901SOL     OW18601   2.903   5.936   4.591
 5901SOL    HW118602   2.908   6.012   4.526
 5901SOL    HW218603   2.907   5.849   4.542
 5902SOL     OW18604   5.913   2.513   0.085
 5902SOL    HW118605   5.981   2.465   0.030
 5902SOL    HW218606   5.956   2.547   0.168
 5903SOL     OW18607   0.190   2.520   6.131
 5903SOL    HW118608   0.120   2.449   6.145
 5903SOL    HW218609   0.280   2.477   6.127
 5904SOL     OW18610   1.662   2.843   2.067
 5904SOL    HW118611   1.690   2.924   2.119
 5904SOL    HW218612   1.570   2.857   2.031
 5905SOL     OW18613   0.303   4.360   2.114
 5905SOL    HW118614   0.255   4.312   2.188
 5905SOL    HW218615   0.401   4.355   2.129
 5906SOL     OW18616   0.252   0.418   2.996
 5906SOL    HW118617   0.323   0.414   3.066
 5906SOL    HW218618   0.263   0.342   2.933
 5907SOL     OW18619   2.530   0.409   2.923
 5907SOL    HW118620   2.432   0.404   2.941
 5907SOL    HW218621   2.555   0.342   2.853
 5908SOL     OW18622   0.648   2.582   5.875
 5908SOL    HW118623   0.574   2.639   5.838
 5908SOL    HW218624   0.705   2.548   5.801
 5909SOL     OW18625   6.069   4.677   7.023
 5909SOL    HW118626   6.129   4.600   7.000
 5909SOL    HW218627   6.098   4.759   6.974
 5910SOL     OW18628   1.324   1.547   3.762
 5910SOL    HW118629   1.271   1.468   3.728
 5910SOL    HW218630   1.406   1.557   3.706
 5911SOL     OW18631   6.660   5.928   6.982
 5911SOL    HW118632   6.681   6.018   6.945
 5911SOL    HW218633   6.690   5.923   0.054
 5912SOL     OW18634   0.638   0.331   3.542
 5912SOL    HW118635   0.557   0.292   3.587
 5912SOL    HW218636   0.698   0.371   3.611
 5913SOL     OW18637   6.866   2.853   1.121
 5913SOL    HW118638   6.942   2.813   1.070
 5913SOL    HW218639   6.878   2.837   1.219
 5914SOL     OW18640   0.825   6.681   1.124
 5914SOL    HW118641   0.766   6.751   1.163
 5914SOL    HW218642   0.803   6.592   1.164
 5915SOL     OW18643   4.073   0.642   5.328
 5915SOL    HW118644   4.102   0.548   5.310
 5915SOL    HW218645   3.982   0.642   5.369
 5916SOL     OW18646   1.383   0.365   2.327
 5916SOL    HW118647   1.403   0.400   2.236
 5916SOL    HW218648   1.383   0.441   2.393
 5917SOL     OW18649   3.204   2.626   0.514
 5917SOL    HW118650   3.278   2.561   0.533
 5917SOL    HW218651   3.146   2.590   0.441
 5918SOL     OW18652   3.300   6.789   3.907
 5918SOL    HW118653   3.351   6.730   3.969
 5918SOL    HW218654   3.358   6.814   3.830
 5919SOL     OW18655   3.146   3.093   4.374
 5919SOL    HW118656   3.065   3.141   4.340
 5919SOL    HW218657   3.228   3.147   4.354
 5920SOL     OW18658   0.832   0.607   5.876
 5920SOL    HW118659   0.913   0.590   5.820
 5920SOL    HW218660   0.752   0.566   5.833
 5921SOL     OW18661   2.782   4.779   0.091
 5921SOL    HW118662   2.730   4.837   0.154
 5921SOL    HW218663   2.735   4.776   0.002
 5922SOL     OW18664   5.357   2.173   2.499
 5922SOL    HW118665   5.308   2.104   2.446
 5922SOL    HW218666   5.384   2.248   2.439
 5923SOL     OW18667   6.055   0.757   2.970
 5923SOL    HW118668   6.079   0.805   2.885
 5923SOL    HW218669   5.957   0.771   2.989
 5924SOL     OW18670   6.675   6.452   3.704
 5924SOL    HW118671   6.583   6.488   3.715
 5924SOL    HW218672   6.671   6.352   3.698
 5925SOL     OW18673   4.800   0.814   0.734
 5925SOL    HW118674   4.803   0.715   0.724
 5925SOL    HW218675   4.809   0.838   0.831
 5926SOL     OW18676   5.691   3.136   2.974
 5926SOL    HW118677   5.721   3.116   2.881
 5926SOL    HW218678   5.768   3.127   3.037
 5927SOL     OW18679   0.557   6.161   1.531
 5927SOL    HW118680   0.604   6.074   1.543
 5927SOL    HW218681   0.597   6.230   1.592
 5928SOL     OW18682   2.893   0.205   0.141
 5928SOL    HW118683   2.922   0.110   0.133
 5928SOL    HW218684   2.845   0.233   0.057
 5929SOL     OW18685   1.275   0.966   0.922
 5929SOL    HW118686   1.329   0.989   0.841
 5929SOL    HW218687   1.191   1.020   0.922
 5930SOL     OW18688   1.324   4.271   2.075
 5930SOL    HW118689   1.313   4.215   1.993
 5930SOL    HW218690   1.314   4.214   2.156
 5931SOL     OW18691   4.560   6.048   3.805
 5931SOL    HW118692   4.642   6.040   3.749
 5931SOL    HW218693   4.571   6.124   3.870
 5932SOL     OW18694   3.403   6.590   0.386
 5932SOL    HW118695   3.358   6.601   0.297
 5932SOL    HW218696   3.501   6.604   0.376
 5933SOL     OW18697   6.479   5.691   4.469
 5933SOL    HW118698   6.565   5.648   4.496
 5933SOL    HW218699   6.431   5.726   4.550
 5934SOL     OW18700   2.714   3.726   0.025
 5934SOL    HW118701   2.621   3.751   0.052
 5934SOL    HW218702   2.763   3.689   0.103
 5935SOL     OW18703   0.937   0.069   5.467
 5935SOL    HW118704   0.914   0.003   5.539
 5935SOL    HW218705   1.029   0.052   5.434
 5936SOL     OW18706   3.542   2.988   2.332
 5936SOL    HW118707   3.564   2.927   2.256
 5936SOL    HW218708   3.572   3.080   2.310
 5937SOL     OW18709   0.673   3.060   0.276
 5937SOL    HW118710   0.577   3.070   0.303
 5937SOL    HW218711   0.701   3.141   0.223
 5938SOL     OW18712   0.899   3.738   4.125
 5938SOL    HW118713   0.929   3.825   4.085
 5938SOL    HW218714   0.938   3.729   4.217
 5939SOL     OW18715   4.557   1.219   5.495
 5939SOL    HW118716   4.488   1.154   5.528
 5939SOL    HW218717   4.540   1.309   5.534
 5940SOL     OW18718   4.968   5.013   1.996
 5940SOL    HW118719   5.027   5.046   2.070
 5940SOL    HW218720   4.872   5.016   2.027
 5941SOL     OW18721   0.539   1.953   3.245
 5941SOL    HW118722   0.527   1.965   3.344
 5941SOL    HW218723   0.590   1.869   3.228
 5942SOL     OW18724   4.917   2.503   6.596
 5942SOL    HW118725   4.886   2.482   6.688
 5942SOL    HW218726   4.922   2.419   6.542
 5943SOL     OW18727   1.698   4.610   1.236
 5943SOL    HW118728   1.643   4.574   1.312
 5943SOL    HW218729   1.788   4.567   1.237
 5944SOL     OW18730   6.118   4.014   5.973
 5944SOL    HW118731   6.137   4.085   5.905
 5944SOL    HW218732   6.202   3.989   6.020
 5945SOL     OW18733   6.580   6.345   4.341
 5945SOL    HW118734   6.617   6.290   4.266
 5945SOL    HW218735   6.552   6.434   4.306
 5946SOL     OW18736   2.127   3.555   6.876
 5946SOL    HW118737   2.180   3.556   6.791
 5946SOL    HW218738   2.039   3.600   6.861
 5947SOL     OW18739   3.728   3.459   4.481
 5947SOL    HW118740   3.732   3.507   4.569
 5947SOL    HW218741   3.796   3.385   4.481
 5948SOL     OW18742   4.756   3.868   1.732
 5948SOL    HW118743   4.819   3.815   1.675
 5948SOL    HW218744   4.739   3.956   1.689
 5949SOL     OW18745   0.996   4.290   3.415
 5949SOL    HW118746   1.056   4.270   3.337
 5949SOL    HW218747   0.983   4.208   3.470
 5950SOL     OW18748   2.646   6.763   4.305
 5950SOL    HW118749   2.578   6.810   4.361
 5950SOL    HW218750   2.736   6.802   4.322
 5951SOL     OW18751   6.680   3.341   6.235
 5951SOL    HW118752   6.763   3.387   6.265
 5951SOL    HW218753   6.689   3.316   6.139
 5952SOL     OW18754   3.797   3.934   1.886
 5952SOL    HW118755   3.716   3.992   1.898
 5952SOL    HW218756   3.767   3.839   1.874
 5953SOL     OW18757   6.688   3.246   5.967
 5953SOL    HW118758   6.595   3.282   5.954
 5953SOL    HW218759   6.754   3.319   5.950
 5954SOL     OW18760   2.252   5.296   3.736
 5954SOL    HW118761   2.232   5.376   3.792
 5954SOL    HW218762   2.312   5.234   3.787
 5955SOL     OW18763   3.982   2.954   0.145
 5955SOL    HW118764   3.998   2.911   0.234
 5955SOL    HW218765   4.039   2.910   0.077
 5956SOL     OW18766   4.491   2.751   6.058
 5956SOL    HW118767   4.432   2.745   6.138
 5956SOL    HW218768   4.552   2.672   6.056
 5957SOL     OW18769   6.359   2.038   3.767
 5957SOL    HW118770   6.458   2.034   3.781
 5957SOL    HW218771   6.339   2.097   3.688
 5958SOL     OW18772   2.520   6.199   2.971
 5958SOL    HW118773   2.537   6.191   3.069
 5958SOL    HW218774   2.590   6.257   2.929
 5959SOL     OW18775   5.596   3.660   3.214
 5959SOL    HW118776   5.559   3.616   3.133
 5959SOL    HW218777   5.521   3.699   3.268
 5960SOL     OW18778   5.686   0.556   6.471
 5960SOL    HW118779   5.617   0.484   6.471
 5960SOL    HW218780   5.680   0.608   6.385
 5961SOL     OW18781   3.225   2.127   3.995
 5961SOL    HW118782   3.304   2.101   4.050
 5961SOL    HW218783   3.250   2.131   3.899
 5962SOL     OW18784   4.427   4.491   0.253
 5962SOL    HW118785   4.345   4.548   0.255
 5962SOL    HW218786   4.426   4.429   0.332
 5963SOL     OW18787   1.492   4.302   0.771
 5963SOL    HW118788   1.546   4.345   0.843
 5963SOL    HW218789   1.482   4.204   0.791
 5964SOL     OW18790   1.996   0.341   2.833
 5964SOL    HW118791   1.929   0.349   2.906
 5964SOL    HW218792   1.973   0.403   2.758
 5965SOL     OW18793   2.580   0.625   1.122
 5965SOL    HW118794   2.590   0.667   1.212
 5965SOL    HW218795   2.669   0.593   1.091
 5966SOL     OW18796   2.775   1.677   5.005
 5966SOL    HW118797   2.818   1.613   4.941
 5966SOL    HW218798   2.830   1.682   5.089
 5967SOL     OW18799   4.547   2.387   5.469
 5967SOL    HW118800   4.549   2.389   5.568
 5967SOL    HW218801   4.559   2.293   5.437
 5968SOL     OW18802   6.109   2.037   2.961
 5968SOL    HW118803   6.153   2.007   3.045
 5968SOL    HW218804   6.065   2.125   2.976
 5969SOL     OW18805   5.117   0.076   1.037
 5969SOL    HW118806   5.083   0.155   0.986
 5969SOL    HW218807   5.079   7.016   0.998
 5970SOL     OW18808   6.610   2.615   0.176
 5970SOL    HW118809   6.523   2.572   0.201
 5970SOL    HW218810   6.677   2.601   0.249
 5971SOL     OW18811   6.829   5.346   3.407
 5971SOL    HW118812   6.736   5.370   3.380
 5971SOL    HW218813   6.856   5.401   3.486
 5972SOL     OW18814   6.066   4.982   1.221
 5972SOL    HW118815   6.003   5.033   1.162
 5972SOL    HW218816   6.038   4.993   1.316
 5973SOL     OW18817   3.207   1.059   2.478
 5973SOL    HW118818   3.231   0.963   2.489
 5973SOL    HW218819   3.283   1.117   2.507
 5974SOL     OW18820   6.056   1.092   4.875
 5974SOL    HW118821   5.957   1.088   4.885
 5974SOL    HW218822   6.081   1.178   4.830
 5975SOL     OW18823   4.501   5.049   1.480
 5975SOL    HW118824   4.446   5.095   1.550
 5975SOL    HW218825   4.442   5.015   1.407
 5976SOL     OW18826   1.334   4.406   5.152
 5976SOL    HW118827   1.357   4.438   5.061
 5976SOL    HW218828   1.380   4.319   5.170
 5977SOL     OW18829   6.674   5.344   1.276
 5977SOL    HW118830   6.704   5.437   1.296
 5977SOL    HW218831   6.747   5.280   1.299
 5978SOL     OW18832   3.004   3.795   6.035
 5978SOL    HW118833   3.053   3.876   6.067
 5978SOL    HW218834   3.020   3.719   6.097
 5979SOL     OW18835   6.119   6.737   1.118
 5979SOL    HW118836   6.087   6.754   1.025
 5979SOL    HW218837   6.217   6.716   1.116
 5980SOL     OW18838   3.078   2.539   0.739
 5980SOL    HW118839   3.061   2.608   0.810
 5980SOL    HW218840   3.136   2.579   0.668
 5981SOL     OW18841   3.007   2.527   1.172
 5981SOL    HW118842   3.079   2.458   1.174
 5981SOL    HW218843   2.991   2.561   1.265
 5982SOL     OW18844   5.363   2.679   1.374
 5982SOL    HW118845   5.350   2.583   1.400
 5982SOL    HW218846   5.460   2.696   1.356
 5983SOL     OW18847   6.741   1.351   3.362
 5983SOL    HW118848   6.715   1.356   3.458
 5983SOL    HW218849   6.797   1.431   3.338
 5984SOL     OW18850   6.100   6.017   2.998
 5984SOL    HW118851   6.013   5.977   2.968
 5984SOL    HW218852   6.119   6.099   2.944
 5985SOL     OW18853   0.198   4.005   2.509
 5985SOL    HW118854   0.193   3.906   2.496
 5985SOL    HW218855   0.293   4.035   2.500
 5986SOL     OW18856   3.747   3.388   3.389
 5986SOL    HW118857   3.765   3.428   3.478
 5986SOL    HW218858   3.815   3.316   3.371
 5987SOL     OW18859   6.827   5.887   4.484
 5987SOL    HW118860   6.893   5.957   4.456
 5987SOL    HW218861   6.857   5.846   4.570
 5988SOL     OW18862   1.070   2.811   0.404
 5988SOL    HW118863   1.027   2.901   0.408
 5988SOL    HW218864   1.033   2.759   0.327
 5989SOL     OW18865   1.937   6.729   5.583
 5989SOL    HW118866   1.958   6.634   5.607
 5989SOL    HW218867   1.840   6.737   5.559
 5990SOL     OW18868   2.274   4.092   1.790
 5990SOL    HW118869   2.313   4.078   1.699
 5990SOL    HW218870   2.323   4.167   1.836
 5991SOL     OW18871   5.590   1.312   0.782
 5991SOL    HW118872   5.688   1.296   0.778
 5991SOL    HW218873   5.573   1.408   0.808
 5992SOL     OW18874   2.805   4.906   3.443
 5992SOL    HW118875   2.903   4.893   3.426
 5992SOL    HW218876   2.770   4.828   3.496
 5993SOL     OW18877   5.348   2.262   0.774
 5993SOL    HW118878   5.352   2.232   0.678
 5993SOL    HW218879   5.422   2.327   0.791
 5994SOL     OW18880   0.217   3.617   7.006
 5994SOL    HW118881   0.156   3.570   6.942
 5994SOL    HW218882   0.168   3.692   0.026
 5995SOL     OW18883   5.699   3.256   1.264
 5995SOL    HW118884   5.730   3.338   1.216
 5995SOL    HW218885   5.613   3.275   1.310
 5996SOL     OW18886   2.947   0.114   2.092
 5996SOL    HW118887   2.972   0.183   2.024
 5996SOL    HW218888   2.876   0.054   2.054
 5997SOL     OW18889   6.205   0.503   4.008
 5997SOL    HW118890   6.229   0.528   3.915
 5997SOL    HW218891   6.201   0.585   4.065
 5998SOL     OW18892   6.151   6.159   6.581
 5998SOL    HW118893   6.181   6.064   6.571
 5998SOL    HW218894   6.231   6.219   6.580
 5999SOL     OW18895   5.449   3.735   1.318
 5999SOL    HW118896   5.420   3.751   1.224
 5999SOL    HW218897   5.501   3.814   1.350
 6000SOL     OW18898   0.981   4.833   1.115
 6000SOL    HW118899   0.930   4.906   1.160
 6000SOL    HW218900   0.946   4.819   1.022
 6001SOL     OW18901   6.588   5.745   5.082
 6001SOL    HW118902   6.669   5.800   5.102
 6001SOL    HW218903   6.510   5.806   5.067
 6002SOL     OW18904   5.467   4.701   4.790
 6002SOL    HW118905   5.514   4.733   4.708
 6002SOL    HW218906   5.409   4.774   4.826
 6003SOL     OW18907   2.624   2.256   5.204
 6003SOL    HW118908   2.552   2.313   5.165
 6003SOL    HW218909   2.707   2.264   5.149
 6004SOL     OW18910   5.345   3.293   5.113
 6004SOL    HW118911   5.356   3.319   5.017
 6004SOL    HW218912   5.398   3.355   5.170
 6005SOL     OW18913   3.671   3.916   0.340
 6005SOL    HW118914   3.768   3.917   0.366
 6005SOL    HW218915   3.650   3.830   0.294
 6006SOL     OW18916   3.038   6.451   6.861
 6006SOL    HW118917   3.020   6.365   6.814
 6006SOL    HW218918   3.109   6.437   6.931
 6007SOL     OW18919   2.642   6.536   4.945
 6007SOL    HW118920   2.692   6.623   4.941
 6007SOL    HW218921   2.591   6.531   5.031
 6008SOL     OW18922   2.043   4.156   6.551
 6008SOL    HW118923   2.051   4.063   6.513
 6008SOL    HW218924   1.998   4.215   6.484
 6009SOL     OW18925   3.709   5.513   2.764
 6009SOL    HW118926   3.675   5.425   2.798
 6009SOL    HW218927   3.713   5.510   2.664
 6010SOL     OW18928   0.087   4.772   5.037
 6010SOL    HW118929   0.133   4.816   4.960
 6010SOL    HW218930   7.019   4.743   5.008
 6011SOL     OW18931   5.096   1.801   3.246
 6011SOL    HW118932   5.103   1.897   3.219
 6011SOL    HW218933   5.058   1.747   3.170
 6012SOL     OW18934   6.527   1.127   6.066
 6012SOL    HW118935   6.511   1.029   6.078
 6012SOL    HW218936   6.486   1.158   5.980
 6013SOL     OW18937   5.738   1.348   2.431
 6013SOL    HW118938   5.807   1.420   2.442
 6013SOL    HW218939   5.648   1.385   2.451
 6014SOL     OW18940   3.667   3.871   4.154
 6014SOL    HW118941   3.581   3.837   4.193
 6014SOL    HW218942   3.688   3.821   4.070
 6015SOL     OW18943   6.117   6.857   4.175
 6015SOL    HW118944   6.055   6.872   4.097
 6015SOL    HW218945   6.167   6.941   4.194
 6016SOL     OW18946   4.281   2.295   4.803
 6016SOL    HW118947   4.215   2.318   4.875
 6016SOL    HW218948   4.292   2.196   4.798
 6017SOL     OW18949   1.484   1.775   5.228
 6017SOL    HW118950   1.525   1.782   5.319
 6017SOL    HW218951   1.403   1.718   5.232
 6018SOL     OW18952   2.950   1.444   3.832
 6018SOL    HW118953   3.023   1.488   3.884
 6018SOL    HW218954   2.914   1.367   3.885
 6019SOL     OW18955   6.649   4.622   6.405
 6019SOL    HW118956   6.633   4.702   6.347
 6019SOL    HW218957   6.624   4.540   6.355
 6020SOL     OW18958   0.702   5.292   5.286
 6020SOL    HW118959   0.632   5.282   5.215
 6020SOL    HW218960   0.756   5.374   5.268
 6021SOL     OW18961   5.375   0.459   3.183
 6021SOL    HW118962   5.441   0.391   3.150
 6021SOL    HW218963   5.379   0.464   3.282
 6022SOL     OW18964   6.326   2.777   1.521
 6022SOL    HW118965   6.267   2.856   1.537
 6022SOL    HW218966   6.293   2.699   1.576
 6023SOL     OW18967   4.757   6.533   2.536
 6023SOL    HW118968   4.675   6.572   2.492
 6023SOL    HW218969   4.746   6.535   2.635
 6024SOL     OW18970   0.163   5.867   6.688
 6024SOL    HW118971   0.242   5.925   6.712
 6024SOL    HW218972   0.188   5.771   6.699
 6025SOL     OW18973   3.154   0.822   5.699
 6025SOL    HW118974   3.056   0.844   5.704
 6025SOL    HW218975   3.170   0.731   5.737
 6026SOL     OW18976   5.800   5.606   3.421
 6026SOL    HW118977   5.819   5.669   3.496
 6026SOL    HW218978   5.809   5.654   3.334
 6027SOL     OW18979   5.753   4.965   6.466
 6027SOL    HW118980   5.741   4.885   6.525
 6027SOL    HW218981   5.673   5.025   6.474
 6028SOL     OW18982   6.035   6.120   6.151
 6028SOL    HW118983   6.009   6.086   6.241
 6028SOL    HW218984   6.046   6.219   6.154
 6029SOL     OW18985   3.183   1.837   2.725
 6029SOL    HW118986   3.280   1.816   2.715
 6029SOL    HW218987   3.134   1.811   2.642
 6030SOL     OW18988   6.239   3.253   4.799
 6030SOL    HW118989   6.250   3.337   4.852
 6030SOL    HW218990   6.145   3.247   4.766
 6031SOL     OW18991   7.009   6.604   4.386
 6031SOL    HW118992   6.939   6.532   4.389
 6031SOL    HW218993   7.006   6.650   4.298
 6032SOL     OW18994   3.411   6.792   2.933
 6032SOL    HW118995   3.492   6.735   2.916
 6032SOL    HW218996   3.366   6.762   3.017
 6033SOL     OW18997   0.956   1.511   2.502
 6033SOL    HW118998   0.875   1.526   2.445
 6033SOL    HW218999   1.014   1.592   2.499
 6034SOL     OW19000   0.620   0.266   0.585
 6034SOL    HW119001   0.655   0.230   0.671
 6034SOL    HW219002   0.635   0.365   0.581
 6035SOL     OW19003   2.365   0.251   2.389
 6035SOL    HW119004   2.375   0.175   2.324
 6035SOL    HW219005   2.318   0.327   2.343
 6036SOL     OW19006   6.381   3.106   0.641
 6036SOL    HW119007   6.342   3.198   0.645
 6036SOL    HW219008   6.480   3.112   0.632
 6037SOL     OW19009   4.432   1.139   5.857
 6037SOL    HW119010   4.395   1.223   5.817
 6037SOL    HW219011   4.435   1.067   5.787
 6038SOL     OW19012   1.503   1.404   6.161
 6038SOL    HW119013   1.579   1.434   6.104
 6038SOL    HW219014   1.517   1.436   6.255
 6039SOL     OW19015   3.977   3.039   3.742
 6039SOL    HW119016   4.051   2.972   3.745
 6039SOL    HW219017   3.895   3.000   3.784
 6040SOL     OW19018   0.816   2.073   0.377
 6040SOL    HW119019   0.786   2.077   0.282
 6040SOL    HW219020   0.771   2.145   0.429
 6041SOL     OW19021   0.538   3.094   4.992
 6041SOL    HW119022   0.585   3.098   5.081
 6041SOL    HW219023   0.590   3.145   4.924
 6042SOL     OW19024   2.892   5.985   3.829
 6042SOL    HW119025   2.863   6.066   3.779
 6042SOL    HW219026   2.824   5.912   3.817
 6043SOL     OW19027   2.243   6.576   2.152
 6043SOL    HW119028   2.255   6.658   2.209
 6043SOL    HW219029   2.152   6.579   2.109
 6044SOL     OW19030   0.252   3.358   0.464
 6044SOL    HW119031   0.210   3.447   0.478
 6044SOL    HW219032   0.181   3.288   0.458
 6045SOL     OW19033   5.468   1.005   3.914
 6045SOL    HW119034   5.398   0.943   3.877
 6045SOL    HW219035   5.506   0.966   3.998
 6046SOL     OW19036   3.636   3.433   2.568
 6046SOL    HW119037   3.718   3.457   2.516
 6046SOL    HW219038   3.663   3.380   2.649
 6047SOL     OW19039   0.040   1.782   6.984
 6047SOL    HW119040   0.029   1.852   0.031
 6047SOL    HW219041   6.999   1.707   7.001
 6048SOL     OW19042   5.877   5.851   2.925
 6048SOL    HW119043   5.919   5.760   2.914
 6048SOL    HW219044   5.836   5.879   2.839
 6049SOL     OW19045   5.213   4.879   6.222
 6049SOL    HW119046   5.123   4.860   6.181
 6049SOL    HW219047   5.224   4.824   6.304
 6050SOL     OW19048   2.672   5.214   2.934
 6050SOL    HW119049   2.634   5.302   2.965
 6050SOL    HW219050   2.601   5.161   2.887
 6051SOL     OW19051   0.573   1.243   2.447
 6051SOL    HW119052   0.480   1.242   2.484
 6051SOL    HW219053   0.593   1.155   2.404
 6052SOL     OW19054   5.405   5.283   0.420
 6052SOL    HW119055   5.396   5.319   0.327
 6052SOL    HW219056   5.315   5.262   0.456
 6053SOL     OW19057   4.154   2.316   6.414
 6053SOL    HW119058   4.233   2.335   6.473
 6053SOL    HW219059   4.145   2.217   6.402
 6054SOL     OW19060   4.214   3.705   0.722
 6054SOL    HW119061   4.311   3.724   0.703
 6054SOL    HW219062   4.208   3.632   0.790
 6055SOL     OW19063   3.245   4.066   1.416
 6055SOL    HW119064   3.267   3.974   1.448
 6055SOL    HW219065   3.146   4.077   1.412
 6056SOL     OW19066   5.576   5.521   3.154
 6056SOL    HW119067   5.642   5.554   3.222
 6056SOL    HW219068   5.555   5.595   3.090
 6057SOL     OW19069   5.689   1.068   3.554
 6057SOL    HW119070   5.647   0.996   3.609
 6057SOL    HW219071   5.700   1.150   3.610
 6058SOL     OW19072   0.103   2.550   5.668
 6058SOL    HW119073   0.125   2.648   5.670
 6058SOL    HW219074   0.186   2.497   5.685
 6059SOL     OW19075   3.956   2.546   6.973
 6059SOL    HW119076   4.050   2.550   6.939
 6059SOL    HW219077   3.898   2.603   6.915
 6060SOL     OW19078   2.255   2.604   0.625
 6060SOL    HW119079   2.221   2.631   0.716
 6060SOL    HW219080   2.324   2.670   0.595
 6061SOL     OW19081   3.105   4.081   0.132
 6061SOL    HW119082   3.085   3.986   0.156
 6061SOL    HW219083   3.025   4.138   0.152
 6062SOL     OW19084   2.090   2.263   6.245
 6062SOL    HW119085   2.135   2.341   6.201
 6062SOL    HW219086   1.998   2.253   6.208
 6063SOL     OW19087   4.891   3.908   6.510
 6063SOL    HW119088   4.920   3.951   6.425
 6063SOL    HW219089   4.968   3.907   6.574
 6064SOL     OW19090   5.529   6.288   0.601
 6064SOL    HW119091   5.439   6.263   0.565
 6064SOL    HW219092   5.554   6.226   0.675
 6065SOL     OW19093   2.491   6.353   1.528
 6065SOL    HW119094   2.445   6.285   1.471
 6065SOL    HW219095   2.423   6.407   1.576
 6066SOL     OW19096   5.811   5.702   2.311
 6066SOL    HW119097   5.812   5.704   2.411
 6066SOL    HW219098   5.844   5.790   2.276
 6067SOL     OW19099   0.229   5.727   5.500
 6067SOL    HW119100   0.138   5.737   5.540
 6067SOL    HW219101   0.276   5.815   5.503
 6068SOL     OW19102   4.788   2.234   4.538
 6068SOL    HW119103   4.693   2.217   4.512
 6068SOL    HW219104   4.795   2.244   4.637
 6069SOL     OW19105   0.429   4.941   5.985
 6069SOL    HW119106   0.430   5.002   5.905
 6069SOL    HW219107   0.451   4.848   5.956
 6070SOL     OW19108   2.733   1.102   0.803
 6070SOL    HW119109   2.734   1.137   0.896
 6070SOL    HW219110   2.639   1.084   0.774
 6071SOL     OW19111   5.882   0.757   6.211
 6071SOL    HW119112   5.918   0.792   6.298
 6071SOL    HW219113   5.823   0.827   6.170
 6072SOL     OW19114   6.627   3.098   0.035
 6072SOL    HW119115   6.610   3.000   0.038
 6072SOL    HW219116   6.667   3.128   0.121
 6073SOL     OW19117   4.611   3.679   0.995
 6073SOL    HW119118   4.671   3.599   0.992
 6073SOL    HW219119   4.528   3.656   1.045
 6074SOL     OW19120   0.764   6.536   2.797
 6074SOL    HW119121   0.803   6.451   2.833
 6074SOL    HW219122   0.681   6.515   2.746
 6075SOL     OW19123   5.853   0.365   7.001
 6075SOL    HW119124   5.906   0.363   6.916
 6075SOL    HW219125   5.895   0.429   0.041
 6076SOL     OW19126   0.476   6.619   3.667
 6076SOL    HW119127   0.465   6.576   3.577
 6076SOL    HW219128   0.387   6.625   3.712
 6077SOL     OW19129   5.006   5.897   2.729
 6077SOL    HW119130   4.907   5.912   2.725
 6077SOL    HW219131   5.054   5.984   2.725
 6078SOL     OW19132   4.969   4.272   0.787
 6078SOL    HW119133   4.943   4.346   0.849
 6078SOL    HW219134   5.019   4.308   0.709
 6079SOL     OW19135   3.506   2.109   0.431
 6079SOL    HW119136   3.421   2.056   0.437
 6079SOL    HW219137   3.567   2.082   0.506
 6080SOL     OW19138   0.330   3.627   5.642
 6080SOL    HW119139   0.351   3.724   5.635
 6080SOL    HW219140   0.245   3.607   5.594
 6081SOL     OW19141   1.983   3.880   3.531
 6081SOL    HW119142   1.944   3.971   3.548
 6081SOL    HW219143   2.079   3.889   3.506
 6082SOL     OW19144   5.116   1.451   1.373
 6082SOL    HW119145   5.128   1.403   1.286
 6082SOL    HW219146   5.026   1.495   1.374
 6083SOL     OW19147   4.966   6.986   6.334
 6083SOL    HW119148   4.969   6.890   6.363
 6083SOL    HW219149   5.055   7.014   6.300
 6084SOL     OW19150   6.271   5.107   3.164
 6084SOL    HW119151   6.282   5.014   3.199
 6084SOL    HW219152   6.246   5.168   3.239
 6085SOL     OW19153   0.805   6.687   0.839
 6085SOL    HW119154   0.799   6.708   0.936
 6085SOL    HW219155   0.718   6.707   0.794
 6086SOL     OW19156   3.084   3.600   0.068
 6086SOL    HW119157   3.015   3.570   0.002
 6086SOL    HW219158   3.172   3.609   0.022
 6087SOL     OW19159   4.162   6.682   0.671
 6087SOL    HW119160   4.139   6.769   0.626
 6087SOL    HW219161   4.128   6.684   0.765
 6088SOL     OW19162   4.339   6.032   2.476
 6088SOL    HW119163   4.317   6.002   2.383
 6088SOL    HW219164   4.276   6.105   2.503
 6089SOL     OW19165   6.459   4.003   2.976
 6089SOL    HW119166   6.375   4.054   2.995
 6089SOL    HW219167   6.447   3.950   2.892
 6090SOL     OW19168   3.707   6.080   5.132
 6090SOL    HW119169   3.773   6.088   5.057
 6090SOL    HW219170   3.688   6.171   5.170
 6091SOL     OW19171   0.513   1.922   2.319
 6091SOL    HW119172   0.585   1.866   2.361
 6091SOL    HW219173   0.493   2.000   2.378
 6092SOL     OW19174   2.783   6.941   1.441
 6092SOL    HW119175   2.832   6.865   1.397
 6092SOL    HW219176   2.688   6.942   1.409
 6093SOL     OW19177   2.568   2.472   1.777
 6093SOL    HW119178   2.477   2.458   1.738
 6093SOL    HW219179   2.601   2.563   1.752
 6094SOL     OW19180   0.556   6.789   5.343
 6094SOL    HW119181   0.641   6.784   5.290
 6094SOL    HW219182   0.558   6.868   5.403
 6095SOL     OW19183   5.285   5.371   2.235
 6095SOL    HW119184   5.353   5.348   2.305
 6095SOL    HW219185   5.327   5.428   2.165
 6096SOL     OW19186   5.113   5.914   3.037
 6096SOL    HW119187   5.188   5.908   2.972
 6096SOL    HW219188   5.048   5.983   3.006
 6097SOL     OW19189   2.994   5.215   2.308
 6097SOL    HW119190   3.017   5.312   2.302
 6097SOL    HW219191   2.895   5.204   2.295
 6098SOL     OW19192   6.383   0.619   5.398
 6098SOL    HW119193   6.455   0.682   5.370
 6098SOL    HW219194   6.389   0.604   5.497
 6099SOL     OW19195   4.135   0.263   5.469
 6099SOL    HW119196   4.196   0.316   5.528
 6099SOL    HW219197   4.135   0.167   5.498
 6100SOL     OW19198   0.727   5.856   5.317
 6100SOL    HW119199   0.721   5.824   5.411
 6100SOL    HW219200   0.675   5.794   5.257
 6101SOL     OW19201   0.395   2.718   1.772
 6101SOL    HW119202   0.344   2.795   1.734
 6101SOL    HW219203   0.338   2.636   1.771
 6102SOL     OW19204   3.506   0.308   2.946
 6102SOL    HW119205   3.456   0.361   3.015
 6102SOL    HW219206   3.473   0.214   2.946
 6103SOL     OW19207   6.111   1.152   2.651
 6103SOL    HW119208   6.191   1.145   2.591
 6103SOL    HW219209   6.034   1.103   2.608
 6104SOL     OW19210   6.700   1.435   4.489
 6104SOL    HW119211   6.720   1.472   4.398
 6104SOL    HW219212   6.783   1.439   4.545
 6105SOL     OW19213   4.243   4.354   5.651
 6105SOL    HW119214   4.289   4.441   5.630
 6105SOL    HW219215   4.304   4.278   5.630
 6106SOL     OW19216   6.184   4.490   5.116
 6106SOL    HW119217   6.105   4.455   5.066
 6106SOL    HW219218   6.268   4.450   5.078
 6107SOL     OW19219   5.539   5.102   5.521
 6107SOL    HW119220   5.623   5.149   5.549
 6107SOL    HW219221   5.557   5.004   5.510
 6108SOL     OW19222   2.413   1.539   6.310
 6108SOL    HW119223   2.375   1.528   6.218
 6108SOL    HW219224   2.406   1.635   6.338
 6109SOL     OW19225   0.299   6.267   3.933
 6109SOL    HW119226   0.271   6.289   3.840
 6109SOL    HW219227   0.271   6.341   3.994
 6110SOL     OW19228   1.266   1.041   4.489
 6110SOL    HW119229   1.282   0.971   4.419
 6110SOL    HW219230   1.316   1.124   4.463
 6111SOL     OW19231   2.039   3.515   0.601
 6111SOL    HW119232   2.097   3.433   0.593
 6111SOL    HW219233   2.000   3.537   0.511
 6112SOL     OW19234   4.544   6.489   3.737
 6112SOL    HW119235   4.625   6.522   3.786
 6112SOL    HW219236   4.571   6.418   3.671
 6113SOL     OW19237   2.921   5.234   0.596
 6113SOL    HW119238   2.972   5.278   0.670
 6113SOL    HW219239   2.938   5.282   0.510
 6114SOL     OW19240   4.524   2.581   0.787
 6114SOL    HW119241   4.429   2.569   0.816
 6114SOL    HW219242   4.527   2.644   0.709
 6115SOL     OW19243   0.341   0.719   4.991
 6115SOL    HW119244   0.428   0.675   5.014
 6115SOL    HW219245   0.265   0.665   5.028
 6116SOL     OW19246   5.876   3.742   0.379
 6116SOL    HW119247   5.935   3.736   0.298
 6116SOL    HW219248   5.824   3.657   0.388
 6117SOL     OW19249   2.048   2.277   1.649
 6117SOL    HW119250   2.145   2.299   1.666
 6117SOL    HW219251   2.005   2.248   1.735
 6118SOL     OW19252   5.448   0.622   1.899
 6118SOL    HW119253   5.464   0.586   1.807
 6118SOL    HW219254   5.349   0.630   1.914
 6119SOL     OW19255   0.445   1.336   6.843
 6119SOL    HW119256   0.522   1.386   6.804
 6119SOL    HW219257   0.383   1.400   6.889
 6120SOL     OW19258   3.161   0.148   4.025
 6120SOL    HW119259   3.221   0.165   4.104
 6120SOL    HW219260   3.074   0.194   4.041
 6121SOL     OW19261   2.192   1.858   5.493
 6121SOL    HW119262   2.125   1.882   5.423
 6121SOL    HW219263   2.284   1.877   5.458
 6122SOL     OW19264   4.929   4.749   5.124
 6122SOL    HW119265   4.889   4.693   5.051
 6122SOL    HW219266   4.911   4.845   5.105
 6123SOL     OW19267   6.060   1.242   5.113
 6123SOL    HW119268   5.983   1.204   5.164
 6123SOL    HW219269   6.087   1.177   5.042
 6124SOL     OW19270   2.713   5.557   3.820
 6124SOL    HW119271   2.800   5.507   3.821
 6124SOL    HW219272   2.647   5.510   3.878
 6125SOL     OW19273   3.316   1.487   5.776
 6125SOL    HW119274   3.305   1.391   5.801
 6125SOL    HW219275   3.243   1.513   5.713
 6126SOL     OW19276   6.080   3.280   6.596
 6126SOL    HW119277   5.981   3.294   6.586
 6126SOL    HW219278   6.120   3.256   6.508
 6127SOL     OW19279   5.289   1.795   2.907
 6127SOL    HW119280   5.268   1.881   2.861
 6127SOL    HW219281   5.209   1.763   2.956
 6128SOL     OW19282   5.835   6.076   6.773
 6128SOL    HW119283   5.850   6.153   6.711
 6128SOL    HW219284   5.777   6.105   6.849
 6129SOL     OW19285   3.271   5.827   2.921
 6129SOL    HW119286   3.249   5.871   2.833
 6129SOL    HW219287   3.187   5.811   2.973
 6130SOL     OW19288   5.470   3.202   6.826
 6130SOL    HW119289   5.439   3.201   6.921
 6130SOL    HW219290   5.478   3.108   6.792
 6131SOL     OW19291   6.554   2.104   3.046
 6131SOL    HW119292   6.547   2.014   3.090
 6131SOL    HW219293   6.484   2.111   2.975
 6132SOL     OW19294   4.237   6.644   6.361
 6132SOL    HW119295   4.298   6.652   6.282
 6132SOL    HW219296   4.281   6.687   6.440
 6133SOL     OW19297   0.934   2.025   2.727
 6133SOL    HW119298   0.979   2.086   2.792
 6133SOL    HW219299   0.959   2.053   2.634
 6134SOL     OW19300   0.330   6.735   5.542
 6134SOL    HW119301   0.394   6.783   5.481
 6134SOL    HW219302   0.290   6.657   5.494
 6135SOL     OW19303   6.653   0.152   0.445
 6135SOL    HW119304   6.662   0.109   0.535
 6135SOL    HW219305   6.610   0.241   0.455
 6136SOL     OW19306   1.067   2.038   3.670
 6136SOL    HW119307   0.980   2.028   3.623
 6136SOL    HW219308   1.061   1.997   3.761
 6137SOL     OW19309   0.116   4.740   1.124
 6137SOL    HW119310   0.097   4.646   1.097
 6137SOL    HW219311   0.213   4.761   1.106
 6138SOL     OW19312   5.270   0.676   2.387
 6138SOL    HW119313   5.368   0.697   2.394
 6138SOL    HW219314   5.217   0.758   2.409
 6139SOL     OW19315   1.749   1.434   4.949
 6139SOL    HW119316   1.781   1.340   4.938
 6139SOL    HW219317   1.764   1.485   4.864
 6140SOL     OW19318   2.096   7.015   2.700
 6140SOL    HW119319   2.081   6.969   2.788
 6140SOL    HW219320   2.136   0.081   2.716
 6141SOL     OW19321   0.895   1.115   6.868
 6141SOL    HW119322   0.991   1.107   6.896
 6141SOL    HW219323   0.840   1.150   6.944
 6142SOL     OW19324   6.256   0.499   1.545
 6142SOL    HW119325   6.290   0.576   1.493
 6142SOL    HW219326   6.224   0.531   1.635
 6143SOL     OW19327   0.436   3.370   5.497
 6143SOL    HW119328   0.362   3.304   5.482
 6143SOL    HW219329   0.398   3.462   5.505
 6144SOL     OW19330   3.620   5.298   2.297
 6144SOL    HW119331   3.620   5.331   2.391
 6144SOL    HW219332   3.709   5.256   2.276
 6145SOL     OW19333   4.985   3.146   3.711
 6145SOL    HW119334   5.046   3.072   3.683
 6145SOL    HW219335   5.011   3.230   3.663
 6146SOL     OW19336   5.782   0.389   5.492
 6146SOL    HW119337   5.850   0.437   5.437
 6146SOL    HW219338   5.798   0.406   5.589
 6147SOL     OW19339   1.067   2.135   5.352
 6147SOL    HW119340   1.069   2.229   5.386
 6147SOL    HW219341   1.053   2.135   5.253
 6148SOL     OW19342   3.179   5.364   0.002
 6148SOL    HW119343   3.103   5.330   6.971
 6148SOL    HW219344   3.255   5.299   7.023
 6149SOL     OW19345   3.921   1.465   1.977
 6149SOL    HW119346   3.925   1.365   1.984
 6149SOL    HW219347   3.827   1.495   1.990
 6150SOL     OW19348   0.146   4.393   4.863
 6150SOL    HW119349   0.058   4.431   4.833
 6150SOL    HW219350   0.180   4.446   4.941
 6151SOL     OW19351   4.001   5.029   2.817
 6151SOL    HW119352   4.019   4.983   2.904
 6151SOL    HW219353   3.973   4.962   2.748
 6152SOL     OW19354   1.733   4.024   3.142
 6152SOL    HW119355   1.757   4.119   3.164
 6152SOL    HW219356   1.806   3.983   3.088
 6153SOL     OW19357   4.950   5.721   0.828
 6153SOL    HW119358   5.024   5.789   0.825
 6153SOL    HW219359   4.989   5.630   0.837
 6154SOL     OW19360   5.163   3.793   2.252
 6154SOL    HW119361   5.072   3.753   2.244
 6154SOL    HW219362   5.214   3.778   2.167
 6155SOL     OW19363   1.865   1.250   4.092
 6155SOL    HW119364   1.789   1.205   4.138
 6155SOL    HW219365   1.829   1.321   4.030
 6156SOL     OW19366   5.521   4.283   2.293
 6156SOL    HW119367   5.476   4.240   2.371
 6156SOL    HW219368   5.575   4.216   2.243
 6157SOL     OW19369   0.690   3.056   1.135
 6157SOL    HW119370   0.675   3.053   1.234
 6157SOL    HW219371   0.705   2.963   1.101
 6158SOL     OW19372   2.873   1.851   5.360
 6158SOL    HW119373   2.903   1.832   5.453
 6158SOL    HW219374   2.836   1.944   5.355
 6159SOL     OW19375   5.609   2.852   0.114
 6159SOL    HW119376   5.682   2.898   0.063
 6159SOL    HW219377   5.529   2.911   0.118
 6160SOL     OW19378   0.778   0.402   1.300
 6160SOL    HW119379   0.798   0.500   1.296
 6160SOL    HW219380   0.806   0.366   1.389
 6161SOL     OW19381   4.546   3.666   0.081
 6161SOL    HW119382   4.610   3.690   0.007
 6161SOL    HW219383   4.559   3.729   0.158
 6162SOL     OW19384   6.542   5.802   2.324
 6162SOL    HW119385   6.533   5.821   2.226
 6162SOL    HW219386   6.527   5.887   2.375
 6163SOL     OW19387   6.255   6.069   2.684
 6163SOL    HW119388   6.319   6.015   2.739
 6163SOL    HW219389   6.179   6.010   2.655
 6164SOL     OW19390   2.911   3.702   4.036
 6164SOL    HW119391   2.818   3.666   4.025
 6164SOL    HW219392   2.968   3.671   3.959
 6165SOL     OW19393   3.447   1.879   0.079
 6165SOL    HW119394   3.521   1.815   0.098
 6165SOL    HW219395   3.377   1.872   0.151
 6166SOL     OW19396   3.015   2.078   6.321
 6166SOL    HW119397   3.101   2.043   6.283
 6166SOL    HW219398   3.035   2.149   6.388
 6167SOL     OW19399   1.656   3.334   3.093
 6167SOL    HW119400   1.694   3.388   3.019
 6167SOL    HW219401   1.705   3.353   3.178
 6168SOL     OW19402   0.477   3.504   3.733
 6168SOL    HW119403   0.393   3.466   3.696
 6168SOL    HW219404   0.464   3.601   3.752
 6169SOL     OW19405   2.121   0.700   6.829
 6169SOL    HW119406   2.031   0.696   6.786
 6169SOL    HW219407   2.187   0.741   6.766
 6170SOL     OW19408   2.932   4.318   0.846
 6170SOL    HW119409   3.015   4.359   0.884
 6170SOL    HW219410   2.912   4.361   0.758
 6171SOL     OW19411   2.057   3.682   1.728
 6171SOL    HW119412   2.047   3.714   1.822
 6171SOL    HW219413   1.982   3.619   1.706
 6172SOL     OW19414   2.750   5.678   2.369
 6172SOL    HW119415   2.789   5.588   2.390
 6172SOL    HW219416   2.822   5.747   2.375
 6173SOL     OW19417   1.640   5.940   2.205
 6173SOL    HW119418   1.737   5.964   2.211
 6173SOL    HW219419   1.615   5.881   2.282
 6174SOL     OW19420   5.878   4.719   2.099
 6174SOL    HW119421   5.827   4.800   2.069
 6174SOL    HW219422   5.901   4.729   2.196
 6175SOL     OW19423   5.339   0.376   3.464
 6175SOL    HW119424   5.312   0.289   3.422
 6175SOL    HW219425   5.359   0.361   3.561
 6176SOL     OW19426   5.011   3.146   6.382
 6176SOL    HW119427   5.047   3.172   6.472
 6176SOL    HW219428   4.911   3.140   6.387
 6177SOL     OW19429   7.009   2.995   2.352
 6177SOL    HW119430   7.007   3.093   2.371
 6177SOL    HW219431   0.016   2.980   2.258
 6178SOL     OW19432   5.655   3.581   1.997
 6178SOL    HW119433   5.602   3.496   1.998
 6178SOL    HW219434   5.697   3.593   1.908
 6179SOL     OW19435   0.496   1.874   5.141
 6179SOL    HW119436   0.530   1.900   5.231
 6179SOL    HW219437   0.398   1.892   5.135
 6180SOL     OW19438   3.505   6.989   6.012
 6180SOL    HW119439   3.475   6.912   5.956
 6180SOL    HW219440   3.552   0.032   5.955
 6181SOL     OW19441   4.093   5.826   6.765
 6181SOL    HW119442   4.003   5.837   6.806
 6181SOL    HW219443   4.153   5.775   6.827
 6182SOL     OW19444   5.147   6.507   6.090
 6182SOL    HW119445   5.157   6.557   6.175
 6182SOL    HW219446   5.237   6.472   6.061
 6183SOL     OW19447   3.435   0.872   2.706
 6183SOL    HW119448   3.436   0.828   2.796
 6183SOL    HW219449   3.435   0.971   2.717
 6184SOL     OW19450   5.878   0.247   6.549
 6184SOL    HW119451   5.897   0.195   6.466
 6184SOL    HW219452   5.916   0.339   6.540
 6185SOL     OW19453   1.333   3.161   5.792
 6185SOL    HW119454   1.278   3.080   5.813
 6185SOL    HW219455   1.420   3.156   5.842
 6186SOL     OW19456   5.227   6.847   4.495
 6186SOL    HW119457   5.197   6.836   4.590
 6186SOL    HW219458   5.150   6.829   4.434
 6187SOL     OW19459   2.722   4.759   4.757
 6187SOL    HW119460   2.771   4.674   4.770
 6187SOL    HW219461   2.730   4.815   4.840
 6188SOL     OW19462   2.884   0.075   1.687
 6188SOL    HW119463   2.831   0.042   1.610
 6188SOL    HW219464   2.934   7.022   1.729
 6189SOL     OW19465   5.201   4.560   3.252
 6189SOL    HW119466   5.132   4.612   3.202
 6189SOL    HW219467   5.159   4.478   3.292
 6190SOL     OW19468   5.154   2.844   5.861
 6190SOL    HW119469   5.099   2.927   5.867
 6190SOL    HW219470   5.134   2.797   5.774
 6191SOL     OW19471   6.284   2.516   6.486
 6191SOL    HW119472   6.359   2.458   6.517
 6191SOL    HW219473   6.225   2.465   6.423
 6192SOL     OW19474   3.214   2.060   0.482
 6192SOL    HW119475   3.132   2.005   0.500
 6192SOL    HW219476   3.241   2.109   0.565
 6193SOL     OW19477   5.941   6.546   1.186
 6193SOL    HW119478   6.010   6.618   1.192
 6193SOL    HW219479   5.955   6.480   1.259
 6194SOL     OW19480   1.853   0.648   0.570
 6194SOL    HW119481   1.802   0.570   0.608
 6194SOL    HW219482   1.934   0.666   0.626
 6195SOL     OW19483   2.810   6.685   5.912
 6195SOL    HW119484   2.715   6.684   5.944
 6195SOL    HW219485   2.840   6.592   5.894
 6196SOL     OW19486   0.244   1.235   5.752
 6196SOL    HW119487   0.337   1.203   5.770
 6196SOL    HW219488   0.220   1.307   5.817
 6197SOL     OW19489   2.270   3.075   0.639
 6197SOL    HW119490   2.185   3.023   0.632
 6197SOL    HW219491   2.347   3.012   0.648
 6198SOL     OW19492   3.895   5.045   2.443
 6198SOL    HW119493   3.817   4.989   2.470
 6198SOL    HW219494   3.942   5.002   2.366
 6199SOL     OW19495   1.092   0.696   6.203
 6199SOL    HW119496   0.998   0.670   6.226
 6199SOL    HW219497   1.116   0.780   6.252
 6200SOL     OW19498   3.971   0.760   6.226
 6200SOL    HW119499   3.894   0.741   6.288
 6200SOL    HW219500   3.973   0.858   6.204
 6201SOL     OW19501   2.288   4.616   3.807
 6201SOL    HW119502   2.227   4.630   3.885
 6201SOL    HW219503   2.240   4.635   3.722
 6202SOL     OW19504   2.995   2.701   1.375
 6202SOL    HW119505   2.901   2.722   1.348
 6202SOL    HW219506   2.995   2.617   1.429
 6203SOL     OW19507   5.393   2.149   5.222
 6203SOL    HW119508   5.378   2.242   5.254
 6203SOL    HW219509   5.342   2.085   5.281
 6204SOL     OW19510   1.673   6.651   6.137
 6204SOL    HW119511   1.666   6.580   6.207
 6204SOL    HW219512   1.718   6.614   6.056
 6205SOL     OW19513   5.071   6.532   0.186
 6205SOL    HW119514   5.150   6.497   0.237
 6205SOL    HW219515   5.038   6.462   0.123
 6206SOL     OW19516   5.561   6.896   3.285
 6206SOL    HW119517   5.472   6.853   3.271
 6206SOL    HW219518   5.560   6.988   3.246
 6207SOL     OW19519   1.905   4.348   4.514
 6207SOL    HW119520   1.818   4.302   4.534
 6207SOL    HW219521   1.977   4.310   4.572
 6208SOL     OW19522   5.647   5.880   6.130
 6208SOL    HW119523   5.568   5.873   6.191
 6208SOL    HW219524   5.726   5.834   6.172
 6209SOL     OW19525   3.160   5.108   0.942
 6209SOL    HW119526   3.225   5.134   0.871
 6209SOL    HW219527   3.068   5.141   0.917
 6210SOL     OW19528   6.770   4.999   2.855
 6210SOL    HW119529   6.675   5.014   2.827
 6210SOL    HW219530   6.820   4.955   2.780
 6211SOL     OW19531   2.577   0.299   4.919
 6211SOL    HW119532   2.657   0.337   4.965
 6211SOL    HW219533   2.578   0.327   4.823
 6212SOL     OW19534   6.892   0.089   3.785
 6212SOL    HW119535   6.892   0.137   3.697
 6212SOL    HW219536   6.804   0.042   3.797
 6213SOL     OW19537   6.779   0.250   0.095
 6213SOL    HW119538   6.814   0.318   0.031
 6213SOL    HW219539   6.831   0.254   0.180
 6214SOL     OW19540   6.011   5.132   2.644
 6214SOL    HW119541   6.086   5.122   2.710
 6214SOL    HW219542   5.951   5.052   2.650
 6215SOL     OW19543   2.406   5.228   1.243
 6215SOL    HW119544   2.446   5.204   1.331
 6215SOL    HW219545   2.393   5.144   1.189
 6216SOL     OW19546   6.619   2.020   2.463
 6216SOL    HW119547   6.661   2.084   2.527
 6216SOL    HW219548   6.633   1.926   2.496
 6217SOL     OW19549   5.412   2.586   1.706
 6217SOL    HW119550   5.364   2.672   1.687
 6217SOL    HW219551   5.454   2.591   1.796
 6218SOL     OW19552   3.890   4.974   4.414
 6218SOL    HW119553   3.816   4.919   4.375
 6218SOL    HW219554   3.886   4.971   4.513
 6219SOL     OW19555   0.756   1.517   4.095
 6219SOL    HW119556   0.842   1.483   4.133
 6219SOL    HW219557   0.752   1.497   3.997
 6220SOL     OW19558   1.694   3.847   5.212
 6220SOL    HW119559   1.617   3.907   5.232
 6220SOL    HW219560   1.677   3.798   5.126
 6221SOL     OW19561   4.515   5.051   4.311
 6221SOL    HW119562   4.447   5.028   4.381
 6221SOL    HW219563   4.560   5.137   4.334
 6222SOL     OW19564   0.332   1.456   1.323
 6222SOL    HW119565   0.421   1.415   1.344
 6222SOL    HW219566   0.269   1.438   1.398
 6223SOL     OW19567   5.110   4.079   4.587
 6223SOL    HW119568   5.104   4.007   4.517
 6223SOL    HW219569   5.055   4.053   4.666
 6224SOL     OW19570   2.573   0.412   4.670
 6224SOL    HW119571   2.630   0.487   4.638
 6224SOL    HW219572   2.486   0.414   4.621
 6225SOL     OW19573   4.180   2.084   6.670
 6225SOL    HW119574   4.114   2.114   6.601
 6225SOL    HW219575   4.132   2.034   6.742
 6226SOL     OW19576   6.444   6.574   4.255
 6226SOL    HW119577   6.359   6.521   4.264
 6226SOL    HW219578   6.440   6.653   4.316
 6227SOL     OW19579   2.845   4.624   6.706
 6227SOL    HW119580   2.880   4.532   6.721
 6227SOL    HW219581   2.775   4.622   6.634
 6228SOL     OW19582   6.969   1.236   2.492
 6228SOL    HW119583   7.015   1.189   2.568
 6228SOL    HW219584   0.010   1.254   2.419
 6229SOL     OW19585   1.129   2.382   2.091
 6229SOL    HW119586   1.093   2.412   2.179
 6229SOL    HW219587   1.062   2.323   2.046
 6230SOL     OW19588   1.911   2.256   3.401
 6230SOL    HW119589   1.929   2.179   3.341
 6230SOL    HW219590   1.940   2.341   3.357
 6231SOL     OW19591   6.768   5.345   1.657
 6231SOL    HW119592   6.864   5.368   1.639
 6231SOL    HW219593   6.721   5.425   1.693
 6232SOL     OW19594   1.004   1.455   6.665
 6232SOL    HW119595   0.925   1.477   6.607
 6232SOL    HW219596   1.033   1.537   6.714
 6233SOL     OW19597   4.442   1.594   6.595
 6233SOL    HW119598   4.413   1.666   6.532
 6233SOL    HW219599   4.403   1.507   6.566
 6234SOL     OW19600   1.705   2.645   3.481
 6234SOL    HW119601   1.639   2.715   3.457
 6234SOL    HW219602   1.759   2.675   3.560
 6235SOL     OW19603   2.047   5.999   3.015
 6235SOL    HW119604   1.997   6.004   3.101
 6235SOL    HW219605   1.982   5.990   2.939
 6236SOL     OW19606   6.601   4.000   0.289
 6236SOL    HW119607   6.555   4.006   0.378
 6236SOL    HW219608   6.557   4.062   0.224
 6237SOL     OW19609   3.582   6.201   6.901
 6237SOL    HW119610   3.502   6.232   6.849
 6237SOL    HW219611   3.559   6.118   6.952
 6238SOL     OW19612   4.406   3.979   0.997
 6238SOL    HW119613   4.406   4.062   0.942
 6238SOL    HW219614   4.480   3.918   0.967
 6239SOL     OW19615   2.206   0.160   3.716
 6239SOL    HW119616   2.175   0.251   3.688
 6239SOL    HW219617   2.230   0.160   3.813
 6240SOL     OW19618   1.991   3.778   0.467
 6240SOL    HW119619   1.998   3.798   0.369
 6240SOL    HW219620   1.895   3.774   0.494
 6241SOL     OW19621   4.803   0.232   1.510
 6241SOL    HW119622   4.800   0.295   1.588
 6241SOL    HW219623   4.730   0.164   1.520
 6242SOL     OW19624   3.732   2.149   3.683
 6242SOL    HW119625   3.699   2.059   3.656
 6242SOL    HW219626   3.758   2.147   3.780
 6243SOL     OW19627   5.397   5.287   3.137
 6243SOL    HW119628   5.456   5.240   3.202
 6243SOL    HW219629   5.421   5.384   3.134
 6244SOL     OW19630   1.918   1.988   2.271
 6244SOL    HW119631   1.943   1.989   2.174
 6244SOL    HW219632   1.977   2.052   2.321
 6245SOL     OW19633   2.115   3.763   1.029
 6245SOL    HW119634   2.165   3.846   1.008
 6245SOL    HW219635   2.054   3.740   0.953
 6246SOL     OW19636   4.289   0.732   7.016
 6246SOL    HW119637   4.281   0.816   0.046
 6246SOL    HW219638   4.375   0.686   0.015
 6247SOL     OW19639   6.727   5.846   2.932
 6247SOL    HW119640   6.803   5.803   2.980
 6247SOL    HW219641   6.656   5.872   2.997
 6248SOL     OW19642   0.979   5.423   1.395
 6248SOL    HW119643   0.948   5.328   1.403
 6248SOL    HW219644   0.990   5.462   1.486
 6249SOL     OW19645   5.570   4.244   6.345
 6249SOL    HW119646   5.627   4.247   6.427
 6249SOL    HW219647   5.518   4.159   6.343
 6250SOL     OW19648   6.026   5.348   5.875
 6250SOL    HW119649   5.990   5.285   5.944
 6250SOL    HW219650   6.016   5.442   5.907
 6251SOL     OW19651   4.489   1.697   0.790
 6251SOL    HW119652   4.452   1.696   0.698
 6251SOL    HW219653   4.559   1.625   0.799
 6252SOL     OW19654   1.997   6.089   5.510
 6252SOL    HW119655   2.046   6.145   5.576
 6252SOL    HW219656   2.060   6.058   5.439
 6253SOL     OW19657   2.368   4.121   1.485
 6253SOL    HW119658   2.355   4.056   1.411
 6253SOL    HW219659   2.357   4.214   1.450
 6254SOL     OW19660   5.136   0.089   0.302
 6254SOL    HW119661   5.179   0.123   0.386
 6254SOL    HW219662   5.065   0.023   0.326
 6255SOL     OW19663   0.101   2.092   2.962
 6255SOL    HW119664   0.082   2.069   2.867
 6255SOL    HW219665   0.117   2.007   3.014
 6256SOL     OW19666   3.711   5.193   4.098
 6256SOL    HW119667   3.785   5.256   4.120
 6256SOL    HW219668   3.689   5.200   4.001
 6257SOL     OW19669   4.202   3.001   0.373
 6257SOL    HW119670   4.228   3.097   0.368
 6257SOL    HW219671   4.102   2.993   0.375
 6258SOL     OW19672   4.832   2.497   2.354
 6258SOL    HW119673   4.898   2.572   2.349
 6258SOL    HW219674   4.770   2.512   2.431
 6259SOL     OW19675   3.172   2.248   1.767
 6259SOL    HW119676   3.133   2.339   1.780
 6259SOL    HW219677   3.099   2.185   1.738
 6260SOL     OW19678   3.507   3.449   0.693
 6260SOL    HW119679   3.540   3.402   0.611
 6260SOL    HW219680   3.473   3.539   0.668
 6261SOL     OW19681   4.923   0.494   6.699
 6261SOL    HW119682   4.891   0.429   6.630
 6261SOL    HW219683   4.974   0.446   6.770
 6262SOL     OW19684   0.332   5.976   5.251
 6262SOL    HW119685   0.378   5.888   5.240
 6262SOL    HW219686   0.316   5.993   5.349
 6263SOL     OW19687   6.286   1.334   0.849
 6263SOL    HW119688   6.267   1.374   0.759
 6263SOL    HW219689   6.384   1.331   0.864
 6264SOL     OW19690   2.066   1.596   6.610
 6264SOL    HW119691   1.969   1.613   6.630
 6264SOL    HW219692   2.120   1.621   6.690
 6265SOL     OW19693   4.738   3.854   1.153
 6265SOL    HW119694   4.810   3.872   1.087
 6265SOL    HW219695   4.673   3.789   1.114
 6266SOL     OW19696   2.733   6.996   2.286
 6266SOL    HW119697   2.769   6.908   2.316
 6266SOL    HW219698   2.800   0.016   2.225
 6267SOL     OW19699   2.220   0.032   6.588
 6267SOL    HW119700   2.148   7.002   6.543
 6267SOL    HW219701   2.301   6.999   6.599
 6268SOL     OW19702   2.889   5.386   3.077
 6268SOL    HW119703   2.861   5.371   3.172
 6268SOL    HW219704   2.810   5.371   3.017
 6269SOL     OW19705   5.974   4.597   0.273
 6269SOL    HW119706   6.021   4.662   0.213
 6269SOL    HW219707   5.976   4.506   0.232
 6270SOL     OW19708   0.725   1.207   4.604
 6270SOL    HW119709   0.690   1.282   4.660
 6270SOL    HW219710   0.776   1.244   4.527
 6271SOL     OW19711   6.209   1.704   1.010
 6271SOL    HW119712   6.168   1.782   0.963
 6271SOL    HW219713   6.161   1.620   0.983
 6272SOL     OW19714   1.769   2.200   3.637
 6272SOL    HW119715   1.812   2.243   3.558
 6272SOL    HW219716   1.839   2.175   3.704
 6273SOL     OW19717   4.465   0.586   2.318
 6273SOL    HW119718   4.401   0.608   2.391
 6273SOL    HW219719   4.454   0.652   2.243
 6274SOL     OW19720   2.575   6.503   6.582
 6274SOL    HW119721   2.546   6.546   6.496
 6274SOL    HW219722   2.541   6.557   6.659
 6275SOL     OW19723   2.822   0.392   4.268
 6275SOL    HW119724   2.870   0.348   4.192
 6275SOL    HW219725   2.833   0.491   4.261
 6276SOL     OW19726   1.462   5.197   3.810
 6276SOL    HW119727   1.429   5.103   3.818
 6276SOL    HW219728   1.388   5.260   3.832
 6277SOL     OW19729   5.602   3.142   4.084
 6277SOL    HW119730   5.574   3.238   4.075
 6277SOL    HW219731   5.577   3.109   4.175
 6278SOL     OW19732   4.567   0.649   4.357
 6278SOL    HW119733   4.470   0.635   4.337
 6278SOL    HW219734   4.622   0.581   4.308
 6279SOL     OW19735   4.727   1.412   0.019
 6279SOL    HW119736   4.787   1.401   0.099
 6279SOL    HW219737   4.697   1.507   0.013
 6280SOL     OW19738   0.822   5.438   5.934
 6280SOL    HW119739   0.734   5.392   5.920
 6280SOL    HW219740   0.893   5.388   5.884
 6281SOL     OW19741   2.730   6.837   5.118
 6281SOL    HW119742   2.707   6.893   5.038
 6281SOL    HW219743   2.647   6.814   5.168
 6282SOL     OW19744   1.207   0.355   3.056
 6282SOL    HW119745   1.210   0.280   3.122
 6282SOL    HW219746   1.149   0.428   3.092
 6283SOL     OW19747   0.721   3.161   5.205
 6283SOL    HW119748   0.708   3.242   5.263
 6283SOL    HW219749   0.803   3.175   5.149
 6284SOL     OW19750   2.356   4.913   6.403
 6284SOL    HW119751   2.400   4.930   6.492
 6284SOL    HW219752   2.336   5.000   6.359
 6285SOL     OW19753   2.104   4.513   2.794
 6285SOL    HW119754   2.128   4.419   2.821
 6285SOL    HW219755   2.188   4.563   2.773
 6286SOL     OW19756   6.165   6.917   5.148
 6286SOL    HW119757   6.194   7.003   5.189
 6286SOL    HW219758   6.091   6.934   5.082
 6287SOL     OW19759   3.724   4.852   2.534
 6287SOL    HW119760   3.669   4.830   2.453
 6287SOL    HW219761   3.665   4.887   2.606
 6288SOL     OW19762   5.317   3.721   1.043
 6288SOL    HW119763   5.295   3.626   1.065
 6288SOL    HW219764   5.371   3.724   0.959
 6289SOL     OW19765   1.093   6.796   2.504
 6289SOL    HW119766   1.057   6.866   2.442
 6289SOL    HW219767   1.032   6.717   2.506
 6290SOL     OW19768   6.177   3.330   3.719
 6290SOL    HW119769   6.085   3.320   3.755
 6290SOL    HW219770   6.174   3.386   3.635
 6291SOL     OW19771   4.119   3.663   3.330
 6291SOL    HW119772   4.156   3.571   3.346
 6291SOL    HW219773   4.123   3.716   3.415
 6292SOL     OW19774   0.104   1.721   1.844
 6292SOL    HW119775   0.133   1.670   1.925
 6292SOL    HW219776   0.007   1.742   1.851
 6293SOL     OW19777   5.265   5.067   0.715
 6293SOL    HW119778   5.361   5.051   0.694
 6293SOL    HW219779   5.211   4.987   0.688
 6294SOL     OW19780   3.896   5.679   2.424
 6294SOL    HW119781   3.918   5.721   2.336
 6294SOL    HW219782   3.851   5.745   2.483
 6295SOL     OW19783   6.644   6.120   5.917
 6295SOL    HW119784   6.655   6.138   5.819
 6295SOL    HW219785   6.661   6.024   5.936
 6296SOL     OW19786   0.148   0.846   2.446
 6296SOL    HW119787   0.090   0.862   2.366
 6296SOL    HW219788   0.160   0.748   2.460
 6297SOL     OW19789   5.640   0.839   5.643
 6297SOL    HW119790   5.599   0.867   5.556
 6297SOL    HW219791   5.623   0.742   5.659
 6298SOL     OW19792   0.020   1.623   4.050
 6298SOL    HW119793   0.083   1.580   4.115
 6298SOL    HW219794   6.958   1.571   4.047
 6299SOL     OW19795   6.169   2.764   0.738
 6299SOL    HW119796   6.223   2.844   0.765
 6299SOL    HW219797   6.183   2.690   0.803
 6300SOL     OW19798   4.903   1.444   3.783
 6300SOL    HW119799   4.850   1.421   3.701
 6300SOL    HW219800   4.853   1.510   3.838
 6301SOL     OW19801   3.045   0.812   0.768
 6301SOL    HW119802   3.046   0.723   0.722
 6301SOL    HW219803   2.992   0.878   0.714
 6302SOL     OW19804   6.895   0.804   2.567
 6302SOL    HW119805   6.981   0.854   2.553
 6302SOL    HW219806   6.852   0.836   2.651
 6303SOL     OW19807   1.823   5.998   4.943
 6303SOL    HW119808   1.750   6.060   4.915
 6303SOL    HW219809   1.899   6.005   4.878
 6304SOL     OW19810   4.071   1.142   5.092
 6304SOL    HW119811   4.111   1.149   5.183
 6304SOL    HW219812   3.975   1.114   5.100
 6305SOL     OW19813   5.457   1.515   2.318
 6305SOL    HW119814   5.375   1.571   2.311
 6305SOL    HW219815   5.531   1.555   2.263
 6306SOL     OW19816   5.991   2.750   4.595
 6306SOL    HW119817   6.020   2.831   4.544
 6306SOL    HW219818   6.058   2.677   4.582
 6307SOL     OW19819   2.034   4.905   0.107
 6307SOL    HW119820   2.015   4.807   0.101
 6307SOL    HW219821   2.003   4.940   0.195
 6308SOL     OW19822   3.695   2.547   5.823
 6308SOL    HW119823   3.741   2.481   5.882
 6308SOL    HW219824   3.597   2.545   5.841
 6309SOL     OW19825   5.869   2.129   5.122
 6309SOL    HW119826   5.857   2.171   5.212
 6309SOL    HW219827   5.798   2.059   5.108
 6310SOL     OW19828   0.391   5.303   4.260
 6310SOL    HW119829   0.480   5.262   4.279
 6310SOL    HW219830   0.404   5.388   4.208
 6311SOL     OW19831   5.981   6.104   4.040
 6311SOL    HW119832   6.066   6.149   4.067
 6311SOL    HW219833   5.908   6.172   4.032
 6312SOL     OW19834   5.107   4.513   5.409
 6312SOL    HW119835   5.148   4.530   5.320
 6312SOL    HW219836   5.102   4.598   5.461
 6313SOL     OW19837   2.964   5.053   3.740
 6313SOL    HW119838   2.980   4.956   3.760
 6313SOL    HW219839   2.988   5.072   3.645
 6314SOL     OW19840   1.584   0.072   3.604
 6314SOL    HW119841   1.611   0.083   3.508
 6314SOL    HW219842   1.577   6.998   3.625
 6315SOL     OW19843   2.419   3.958   0.282
 6315SOL    HW119844   2.426   3.878   0.341
 6315SOL    HW219845   2.491   4.023   0.305
 6316SOL     OW19846   4.419   1.436   5.605
 6316SOL    HW119847   4.453   1.501   5.673
 6316SOL    HW219848   4.419   1.479   5.515
 6317SOL     OW19849   6.030   5.434   4.644
 6317SOL    HW119850   6.088   5.467   4.570
 6317SOL    HW219851   6.057   5.341   4.669
 6318SOL     OW19852   2.002   2.100   4.700
 6318SOL    HW119853   1.994   2.144   4.611
 6318SOL    HW219854   2.004   2.170   4.772
 6319SOL     OW19855   1.071   1.690   2.949
 6319SOL    HW119856   1.098   1.760   2.883
 6319SOL    HW219857   1.085   1.723   3.042
 6320SOL     OW19858   0.271   1.548   3.428
 6320SOL    HW119859   0.187   1.601   3.414
 6320SOL    HW219860   0.319   1.584   3.508
 6321SOL     OW19861   2.727   3.901   5.706
 6321SOL    HW119862   2.673   3.983   5.690
 6321SOL    HW219863   2.748   3.894   5.804
 6322SOL     OW19864   1.920   0.879   6.638
 6322SOL    HW119865   1.848   0.811   6.647
 6322SOL    HW219866   1.881   0.971   6.646
 6323SOL     OW19867   4.451   1.443   1.240
 6323SOL    HW119868   4.404   1.446   1.152
 6323SOL    HW219869   4.400   1.496   1.308
 6324SOL     OW19870   3.793   2.397   6.012
 6324SOL    HW119871   3.736   2.372   6.090
 6324SOL    HW219872   3.865   2.328   6.000
 6325SOL     OW19873   1.565   2.458   2.926
 6325SOL    HW119874   1.602   2.480   2.836
 6325SOL    HW219875   1.640   2.458   2.993
 6326SOL     OW19876   4.294   6.230   1.263
 6326SOL    HW119877   4.392   6.250   1.256
 6326SOL    HW219878   4.273   6.198   1.355
 6327SOL     OW19879   3.990   5.079   5.835
 6327SOL    HW119880   4.039   5.112   5.755
 6327SOL    HW219881   3.918   5.015   5.806
 6328SOL     OW19882   3.011   4.773   6.453
 6328SOL    HW119883   3.046   4.815   6.370
 6328SOL    HW219884   3.056   4.685   6.468
 6329SOL     OW19885   1.270   1.382   2.673
 6329SOL    HW119886   1.266   1.428   2.584
 6329SOL    HW219887   1.194   1.413   2.730
 6330SOL     OW19888   3.716   0.695   0.188
 6330SOL    HW119889   3.773   0.741   0.120
 6330SOL    HW219890   3.681   0.763   0.253
 6331SOL     OW19891   5.529   2.894   2.291
 6331SOL    HW119892   5.453   2.875   2.229
 6331SOL    HW219893   5.608   2.838   2.265
 6332SOL     OW19894   5.263   6.347   2.767
 6332SOL    HW119895   5.353   6.390   2.756
 6332SOL    HW219896   5.206   6.405   2.825
 6333SOL     OW19897   1.917   5.359   3.094
 6333SOL    HW119898   1.841   5.403   3.045
 6333SOL    HW219899   1.993   5.346   3.031
 6334SOL     OW19900   2.800   1.711   2.592
 6334SOL    HW119901   2.763   1.619   2.582
 6334SOL    HW219902   2.776   1.747   2.682
 6335SOL     OW19903   0.436   1.876   0.348
 6335SOL    HW119904   0.400   1.857   0.257
 6335SOL    HW219905   0.515   1.817   0.366
 6336SOL     OW19906   1.284   3.133   5.115
 6336SOL    HW119907   1.348   3.057   5.126
 6336SOL    HW219908   1.263   3.172   5.205
 6337SOL     OW19909   6.948   4.789   4.743
 6337SOL    HW119910   0.015   4.827   4.759
 6337SOL    HW219911   6.912   4.749   4.827
 6338SOL     OW19912   3.902   0.991   4.089
 6338SOL    HW119913   3.895   1.073   4.145
 6338SOL    HW219914   3.967   1.007   4.015
 6339SOL     OW19915   0.501   2.685   4.921
 6339SOL    HW119916   0.567   2.680   4.846
 6339SOL    HW219917   0.427   2.620   4.904
 6340SOL     OW19918   2.555   5.426   4.015
 6340SOL    HW119919   2.533   5.506   4.071
 6340SOL    HW219920   2.503   5.347   4.048
 6341SOL     OW19921   6.445   5.292   2.257
 6341SOL    HW119922   6.494   5.352   2.193
 6341SOL    HW219923   6.453   5.197   2.226
 6342SOL     OW19924   1.182   3.510   0.482
 6342SOL    HW119925   1.245   3.531   0.557
 6342SOL    HW219926   1.168   3.412   0.476
 6343SOL     OW19927   4.483   1.072   0.491
 6343SOL    HW119928   4.535   1.030   0.416
 6343SOL    HW219929   4.388   1.086   0.462
 6344SOL     OW19930   6.775   4.650   4.567
 6344SOL    HW119931   6.693   4.699   4.537
 6344SOL    HW219932   6.841   4.715   4.603
 6345SOL     OW19933   2.610   2.422   2.052
 6345SOL    HW119934   2.700   2.382   2.071
 6345SOL    HW219935   2.602   2.439   1.953
 6346SOL     OW19936   0.480   5.508   4.104
 6346SOL    HW119937   0.565   5.473   4.065
 6346SOL    HW219938   0.491   5.604   4.128
 6347SOL     OW19939   2.864   0.186   0.761
 6347SOL    HW119940   2.873   0.212   0.664
 6347SOL    HW219941   2.934   0.118   0.784
 6348SOL     OW19942   0.916   2.578   4.892
 6348SOL    HW119943   0.904   2.594   4.990
 6348SOL    HW219944   0.876   2.490   4.867
 6349SOL     OW19945   1.776   0.943   0.521
 6349SOL    HW119946   1.817   0.858   0.553
 6349SOL    HW219947   1.685   0.954   0.562
 6350SOL     OW19948   0.394   5.151   3.549
 6350SOL    HW119949   0.333   5.211   3.600
 6350SOL    HW219950   0.345   5.068   3.522
 6351SOL     OW19951   6.757   1.305   2.913
 6351SOL    HW119952   6.720   1.267   2.998
 6351SOL    HW219953   6.832   1.368   2.935
 6352SOL     OW19954   0.479   5.477   2.325
 6352SOL    HW119955   0.530   5.555   2.289
 6352SOL    HW219956   0.395   5.510   2.369
 6353SOL     OW19957   0.494   6.515   1.878
 6353SOL    HW119958   0.397   6.534   1.893
 6353SOL    HW219959   0.539   6.499   1.966
 6354SOL     OW19960   6.897   6.679   4.623
 6354SOL    HW119961   6.832   6.748   4.592
 6354SOL    HW219962   6.956   6.651   4.547
 6355SOL     OW19963   1.091   2.700   2.221
 6355SOL    HW119964   1.046   2.788   2.233
 6355SOL    HW219965   1.189   2.709   2.242
 6356SOL     OW19966   3.462   2.990   0.760
 6356SOL    HW119967   3.439   3.083   0.791
 6356SOL    HW219968   3.442   2.982   0.662
 6357SOL     OW19969   4.915   1.976   0.780
 6357SOL    HW119970   4.960   1.889   0.760
 6357SOL    HW219971   4.816   1.966   0.768
 6358SOL     OW19972   0.813   3.487   4.076
 6358SOL    HW119973   0.741   3.463   4.140
 6358SOL    HW219974   0.852   3.576   4.101
 6359SOL     OW19975   0.140   1.888   6.651
 6359SOL    HW119976   0.211   1.838   6.700
 6359SOL    HW219977   0.131   1.980   6.691
 6360SOL     OW19978   3.053   5.494   4.301
 6360SOL    HW119979   2.963   5.493   4.257
 6360SOL    HW219980   3.120   5.449   4.242
 6361SOL     OW19981   3.150   6.609   6.007
 6361SOL    HW119982   3.159   6.543   6.082
 6361SOL    HW219983   3.151   6.702   6.044
 6362SOL     OW19984   6.277   5.128   6.332
 6362SOL    HW119985   6.217   5.196   6.289
 6362SOL    HW219986   6.222   5.055   6.371
 6363SOL     OW19987   0.781   5.974   4.232
 6363SOL    HW119988   0.715   6.011   4.167
 6363SOL    HW219989   0.829   6.050   4.277
 6364SOL     OW19990   1.912   2.822   6.760
 6364SOL    HW119991   1.919   2.731   6.719
 6364SOL    HW219992   1.947   2.890   6.697
 6365SOL     OW19993   4.834   5.288   2.757
 6365SOL    HW119994   4.934   5.288   2.753
 6365SOL    HW219995   4.799   5.368   2.708
 6366SOL     OW19996   0.239   4.542   5.067
 6366SOL    HW119997   0.314   4.546   5.132
 6366SOL    HW219998   0.199   4.633   5.055
 6367SOL     OW19999   6.165   6.391   2.639
 6367SOL    HW120000   6.107   6.473   2.634
 6367SOL    HW220001   6.169   6.358   2.733
 6368SOL     OW20002   3.515   0.643   3.340
 6368SOL    HW120003   3.459   0.594   3.406
 6368SOL    HW220004   3.593   0.685   3.386
 6369SOL     OW20005   2.082   5.163   5.408
 6369SOL    HW120006   2.154   5.108   5.365
 6369SOL    HW220007   2.079   5.253   5.365
 6370SOL     OW20008   5.536   2.600   1.997
 6370SOL    HW120009   5.556   2.515   2.044
 6370SOL    HW220010   5.603   2.615   1.924
 6371SOL     OW20011   4.609   1.837   4.202
 6371SOL    HW120012   4.521   1.796   4.178
 6371SOL    HW220013   4.647   1.790   4.282
 6372SOL     OW20014   3.279   6.385   2.380
 6372SOL    HW120015   3.259   6.295   2.419
 6372SOL    HW220016   3.193   6.431   2.356
 6373SOL     OW20017   3.296   5.376   0.265
 6373SOL    HW120018   3.325   5.280   0.263
 6373SOL    HW220019   3.270   5.405   0.173
 6374SOL     OW20020   2.971   3.173   2.799
 6374SOL    HW120021   2.896   3.132   2.851
 6374SOL    HW220022   3.058   3.155   2.846
 6375SOL     OW20023   1.904   5.944   1.929
 6375SOL    HW120024   1.883   5.954   2.026
 6375SOL    HW220025   1.988   5.892   1.918
 6376SOL     OW20026   0.709   2.255   4.998
 6376SOL    HW120027   0.627   2.292   5.041
 6376SOL    HW220028   0.702   2.263   4.899
 6377SOL     OW20029   0.809   2.054   3.568
 6377SOL    HW120030   0.760   1.973   3.535
 6377SOL    HW220031   0.803   2.126   3.500
 6378SOL     OW20032   4.214   5.061   3.379
 6378SOL    HW120033   4.221   5.061   3.479
 6378SOL    HW220034   4.293   5.108   3.340
 6379SOL     OW20035   2.376   4.827   1.990
 6379SOL    HW120036   2.396   4.791   2.082
 6379SOL    HW220037   2.448   4.891   1.963
 6380SOL     OW20038   1.131   0.682   5.942
 6380SOL    HW120039   1.123   0.691   6.041
 6380SOL    HW220040   1.125   0.585   5.917
 6381SOL     OW20041   2.964   3.244   2.020
 6381SOL    HW120042   2.985   3.339   2.000
 6381SOL    HW220043   2.929   3.199   1.938
 6382SOL     OW20044   0.939   4.727   4.894
 6382SOL    HW120045   0.847   4.717   4.855
 6382SOL    HW220046   0.967   4.823   4.888
 6383SOL     OW20047   3.908   1.348   3.880
 6383SOL    HW120048   3.854   1.266   3.899
 6383SOL    HW220049   3.847   1.422   3.849
 6384SOL     OW20050   0.011   4.625   2.355
 6384SOL    HW120051   0.091   4.684   2.353
 6384SOL    HW220052   7.004   4.607   2.261
 6385SOL     OW20053   0.917   5.958   5.055
 6385SOL    HW120054   0.831   5.956   5.105
 6385SOL    HW220055   0.900   5.934   4.959
 6386SOL     OW20056   2.434   5.735   1.562
 6386SOL    HW120057   2.453   5.744   1.659
 6386SOL    HW220058   2.359   5.796   1.536
 6387SOL     OW20059   6.378   1.005   5.590
 6387SOL    HW120060   6.412   0.997   5.684
 6387SOL    HW220061   6.341   0.917   5.561
 6388SOL     OW20062   2.134   5.245   2.866
 6388SOL    HW120063   2.076   5.175   2.824
 6388SOL    HW220064   2.184   5.206   2.944
 6389SOL     OW20065   0.911   5.087   1.475
 6389SOL    HW120066   0.825   5.095   1.525
 6389SOL    HW220067   0.948   4.995   1.488
 6390SOL     OW20068   0.685   2.753   4.241
 6390SOL    HW120069   0.626   2.821   4.196
 6390SOL    HW220070   0.777   2.790   4.250
 6391SOL     OW20071   3.523   1.259   6.893
 6391SOL    HW120072   3.446   1.246   6.830
 6391SOL    HW220073   3.609   1.241   6.846
 6392SOL     OW20074   1.591   6.064   4.006
 6392SOL    HW120075   1.662   6.001   4.039
 6392SOL    HW220076   1.522   6.075   4.077
 6393SOL     OW20077   5.346   1.625   0.711
 6393SOL    HW120078   5.432   1.611   0.761
 6393SOL    HW220079   5.340   1.560   0.636
 6394SOL     OW20080   3.388   4.836   1.746
 6394SOL    HW120081   3.450   4.772   1.790
 6394SOL    HW220082   3.392   4.925   1.793
 6395SOL     OW20083   6.031   2.217   0.268
 6395SOL    HW120084   5.954   2.263   0.313
 6395SOL    HW220085   6.036   2.123   0.299
 6396SOL     OW20086   6.622   3.639   5.843
 6396SOL    HW120087   6.609   3.704   5.769
 6396SOL    HW220088   6.712   3.595   5.834
 6397SOL     OW20089   6.723   1.037   0.464
 6397SOL    HW120090   6.656   1.105   0.494
 6397SOL    HW220091   6.811   1.056   0.509
 6398SOL     OW20092   4.045   1.077   1.317
 6398SOL    HW120093   4.072   1.149   1.253
 6398SOL    HW220094   4.100   1.084   1.400
 6399SOL     OW20095   2.134   6.325   6.477
 6399SOL    HW120096   2.141   6.307   6.576
 6399SOL    HW220097   2.226   6.334   6.439
 6400SOL     OW20098   2.654   4.795   4.331
 6400SOL    HW120099   2.734   4.809   4.389
 6400SOL    HW220100   2.583   4.860   4.357
 6401SOL     OW20101   1.016   4.259   4.870
 6401SOL    HW120102   1.014   4.324   4.794
 6401SOL    HW220103   1.106   4.215   4.874
 6402SOL     OW20104   1.983   2.537   3.438
 6402SOL    HW120105   1.886   2.540   3.459
 6402SOL    HW220106   2.036   2.551   3.521
 6403SOL     OW20107   1.234   6.838   1.253
 6403SOL    HW120108   1.139   6.822   1.226
 6403SOL    HW220109   1.246   6.933   1.280
 6404SOL     OW20110   4.927   0.849   2.930
 6404SOL    HW120111   4.880   0.784   2.991
 6404SOL    HW220112   4.861   0.887   2.866
 6405SOL     OW20113   3.437   0.844   1.666
 6405SOL    HW120114   3.440   0.779   1.742
 6405SOL    HW220115   3.470   0.933   1.697
 6406SOL     OW20116   2.582   2.078   3.569
 6406SOL    HW120117   2.650   2.029   3.515
 6406SOL    HW220118   2.566   2.030   3.655
 6407SOL     OW20119   5.178   5.537   6.297
 6407SOL    HW120120   5.142   5.600   6.228
 6407SOL    HW220121   5.102   5.503   6.353
 6408SOL     OW20122   5.574   2.405   0.708
 6408SOL    HW120123   5.634   2.464   0.654
 6408SOL    HW220124   5.592   2.420   0.806
 6409SOL     OW20125   0.818   5.043   1.922
 6409SOL    HW120126   0.724   5.075   1.934
 6409SOL    HW220127   0.881   5.107   1.966
 6410SOL     OW20128   1.243   1.141   2.080
 6410SOL    HW120129   1.209   1.048   2.073
 6410SOL    HW220130   1.241   1.171   2.175
 6411SOL     OW20131   1.229   1.299   3.657
 6411SOL    HW120132   1.316   1.257   3.633
 6411SOL    HW220133   1.184   1.333   3.575
 6412SOL     OW20134   6.292   2.902   4.408
 6412SOL    HW120135   6.249   2.880   4.321
 6412SOL    HW220136   6.383   2.941   4.391
 6413SOL     OW20137   0.356   4.824   1.032
 6413SOL    HW120138   0.423   4.755   1.004
 6413SOL    HW220139   0.364   4.905   0.974
 6414SOL     OW20140   6.359   6.714   2.809
 6414SOL    HW120141   6.265   6.748   2.819
 6414SOL    HW220142   6.365   6.658   2.726
 6415SOL     OW20143   1.768   1.467   2.516
 6415SOL    HW120144   1.705   1.394   2.491
 6415SOL    HW220145   1.755   1.545   2.454
 6416SOL     OW20146   2.529   6.611   6.023
 6416SOL    HW120147   2.574   6.555   6.093
 6416SOL    HW220148   2.451   6.562   5.985
 6417SOL     OW20149   0.611   6.683   3.899
 6417SOL    HW120150   0.542   6.636   3.843
 6417SOL    HW220151   0.686   6.713   3.841
 6418SOL     OW20152   0.077   5.686   2.845
 6418SOL    HW120153   0.018   5.701   2.766
 6418SOL    HW220154   0.021   5.669   2.926
 6419SOL     OW20155   2.366   3.574   0.893
 6419SOL    HW120156   2.323   3.657   0.930
 6419SOL    HW220157   2.464   3.590   0.881
 6420SOL     OW20158   1.026   3.088   6.661
 6420SOL    HW120159   0.926   3.086   6.658
 6420SOL    HW220160   1.061   2.997   6.640
 6421SOL     OW20161   5.844   2.338   0.522
 6421SOL    HW120162   5.796   2.423   0.545
 6421SOL    HW220163   5.915   2.320   0.590
 6422SOL     OW20164   5.881   2.650   2.964
 6422SOL    HW120165   5.957   2.702   3.003
 6422SOL    HW220166   5.817   2.625   3.037
 6423SOL     OW20167   4.574   4.012   0.728
 6423SOL    HW120168   4.673   4.019   0.719
 6423SOL    HW220169   4.534   4.103   0.733
 6424SOL     OW20170   6.454   4.446   5.025
 6424SOL    HW120171   6.455   4.402   4.935
 6424SOL    HW220172   6.541   4.428   5.072
 6425SOL     OW20173   0.268   5.366   1.054
 6425SOL    HW120174   0.198   5.298   1.077
 6425SOL    HW220175   0.314   5.396   1.138
 6426SOL     OW20176   0.013   3.147   3.215
 6426SOL    HW120177   0.101   3.151   3.262
 6426SOL    HW220178   6.964   3.135   3.281
 6427SOL     OW20179   0.976   2.679   5.771
 6427SOL    HW120180   0.897   2.674   5.833
 6427SOL    HW220181   1.059   2.653   5.820
 6428SOL     OW20182   6.373   3.225   4.567
 6428SOL    HW120183   6.463   3.263   4.584
 6428SOL    HW220184   6.317   3.235   4.649
 6429SOL     OW20185   0.886   1.138   5.188
 6429SOL    HW120186   0.967   1.178   5.145
 6429SOL    HW220187   0.905   1.124   5.285
 6430SOL     OW20188   6.107   3.076   0.006
 6430SOL    HW120189   6.016   3.037   7.010
 6430SOL    HW220190   6.141   3.122   6.948
 6431SOL     OW20191   5.835   1.294   2.929
 6431SOL    HW120192   5.813   1.202   2.898
 6431SOL    HW220193   5.899   1.289   3.006
 6432SOL     OW20194   6.060   3.871   0.521
 6432SOL    HW120195   6.100   3.816   0.594
 6432SOL    HW220196   5.980   3.824   0.483
 6433SOL     OW20197   2.391   3.732   1.601
 6433SOL    HW120198   2.318   3.789   1.564
 6433SOL    HW220199   2.475   3.786   1.608
 6434SOL     OW20200   1.760   4.968   0.403
 6434SOL    HW120201   1.840   5.021   0.376
 6434SOL    HW220202   1.740   4.899   0.333
 6435SOL     OW20203   4.981   3.550   0.868
 6435SOL    HW120204   4.907   3.539   0.802
 6435SOL    HW220205   4.947   3.531   0.960
 6436SOL     OW20206   1.997   2.512   2.098
 6436SOL    HW120207   2.043   2.579   2.040
 6436SOL    HW220208   2.063   2.445   2.130
 6437SOL     OW20209   0.307   0.895   0.035
 6437SOL    HW120210   0.339   0.985   0.003
 6437SOL    HW220211   0.383   0.844   0.073
 6438SOL     OW20212   1.226   3.825   4.063
 6438SOL    HW120213   1.302   3.799   4.003
 6438SOL    HW220214   1.261   3.856   4.151
 6439SOL     OW20215   0.374   6.444   2.287
 6439SOL    HW120216   0.422   6.487   2.363
 6439SOL    HW220217   0.276   6.444   2.304
 6440SOL     OW20218   0.414   0.663   1.891
 6440SOL    HW120219   0.345   0.597   1.921
 6440SOL    HW220220   0.490   0.664   1.956
 6441SOL     OW20221   4.088   1.460   2.978
 6441SOL    HW120222   4.091   1.557   3.002
 6441SOL    HW220223   4.182   1.424   2.974
 6442SOL     OW20224   3.080   0.210   3.382
 6442SOL    HW120225   3.157   0.233   3.442
 6442SOL    HW220226   3.014   0.154   3.433
 6443SOL     OW20227   2.310   1.042   0.215
 6443SOL    HW120228   2.334   1.104   0.140
 6443SOL    HW220229   2.349   0.952   0.198
 6444SOL     OW20230   0.498   1.228   2.824
 6444SOL    HW120231   0.441   1.173   2.885
 6444SOL    HW220232   0.529   1.310   2.871
 6445SOL     OW20233   3.559   4.100   5.702
 6445SOL    HW120234   3.510   4.023   5.742
 6445SOL    HW220235   3.641   4.119   5.756
 6446SOL     OW20236   6.985   2.331   0.758
 6446SOL    HW120237   6.933   2.415   0.774
 6446SOL    HW220238   6.937   2.254   0.801
 6447SOL     OW20239   1.723   0.128   3.015
 6447SOL    HW120240   1.745   0.225   3.027
 6447SOL    HW220241   1.627   0.118   2.988
 6448SOL     OW20242   6.976   2.304   2.807
 6448SOL    HW120243   6.954   2.296   2.710
 6448SOL    HW220244   0.021   2.235   2.832
 6449SOL     OW20245   4.101   2.666   0.971
 6449SOL    HW120246   4.083   2.578   1.014
 6449SOL    HW220247   4.016   2.705   0.936
 6450SOL     OW20248   6.844   3.203   0.481
 6450SOL    HW120249   6.783   3.201   0.402
 6450SOL    HW220250   6.864   3.298   0.506
 6451SOL     OW20251   2.420   6.354   3.922
 6451SOL    HW120252   2.380   6.440   3.888
 6451SOL    HW220253   2.404   6.347   4.020
 6452SOL     OW20254   4.053   6.251   4.823
 6452SOL    HW120255   4.088   6.316   4.891
 6452SOL    HW220256   4.047   6.296   4.734
 6453SOL     OW20257   1.828   5.367   6.581
 6453SOL    HW120258   1.767   5.357   6.659
 6453SOL    HW220259   1.923   5.364   6.613
 6454SOL     OW20260   3.403   1.209   4.635
 6454SOL    HW120261   3.390   1.114   4.664
 6454SOL    HW220262   3.494   1.239   4.661
 6455SOL     OW20263   5.793   3.180   6.536
 6455SOL    HW120264   5.714   3.162   6.478
 6455SOL    HW220265   5.788   3.124   6.618
 6456SOL     OW20266   0.174   0.932   5.030
 6456SOL    HW120267   0.246   0.862   5.023
 6456SOL    HW220268   0.108   0.905   5.100
 6457SOL     OW20269   5.893   2.614   2.489
 6457SOL    HW120270   5.918   2.642   2.397
 6457SOL    HW220271   5.820   2.546   2.484
 6458SOL     OW20272   1.212   6.503   3.557
 6458SOL    HW120273   1.207   6.431   3.626
 6458SOL    HW220274   1.147   6.483   3.483
 6459SOL     OW20275   5.176   4.595   0.830
 6459SOL    HW120276   5.117   4.549   0.764
 6459SOL    HW220277   5.157   4.561   0.922
 6460SOL     OW20278   2.932   4.849   1.345
 6460SOL    HW120279   3.029   4.829   1.356
 6460SOL    HW220280   2.900   4.904   1.422
 6461SOL     OW20281   3.213   6.403   5.401
 6461SOL    HW120282   3.223   6.339   5.476
 6461SOL    HW220283   3.127   6.385   5.353
 6462SOL     OW20284   2.178   3.258   3.003
 6462SOL    HW120285   2.163   3.189   3.073
 6462SOL    HW220286   2.122   3.339   3.023
 6463SOL     OW20287   0.702   3.891   5.665
 6463SOL    HW120288   0.740   3.931   5.581
 6463SOL    HW220289   0.732   3.796   5.673
 6464SOL     OW20290   1.573   5.185   2.156
 6464SOL    HW120291   1.535   5.274   2.131
 6464SOL    HW220292   1.507   5.135   2.212
 6465SOL     OW20293   6.260   0.787   2.588
 6465SOL    HW120294   6.293   0.692   2.589
 6465SOL    HW220295   6.290   0.834   2.671
 6466SOL     OW20296   6.805   2.342   5.167
 6466SOL    HW120297   6.843   2.317   5.257
 6466SOL    HW220298   6.767   2.261   5.123
 6467SOL     OW20299   3.588   0.692   6.159
 6467SOL    HW120300   3.668   0.675   6.102
 6467SOL    HW220301   3.616   0.738   6.243
 6468SOL     OW20302   5.158   4.142   1.942
 6468SOL    HW120303   5.229   4.170   1.877
 6468SOL    HW220304   5.068   4.168   1.906
 6469SOL     OW20305   6.160   1.183   5.923
 6469SOL    HW120306   6.224   1.248   5.966
 6469SOL    HW220307   6.181   1.175   5.826
 6470SOL     OW20308   6.266   6.008   4.621
 6470SOL    HW120309   6.271   5.908   4.613
 6470SOL    HW220310   6.175   6.034   4.651
 6471SOL     OW20311   5.876   5.802   5.487
 6471SOL    HW120312   5.951   5.858   5.523
 6471SOL    HW220313   5.855   5.728   5.551
 6472SOL     OW20314   1.864   6.256   1.425
 6472SOL    HW120315   1.771   6.252   1.461
 6472SOL    HW220316   1.887   6.351   1.402
 6473SOL     OW20317   2.739   0.457   5.065
 6473SOL    HW120318   2.680   0.486   5.141
 6473SOL    HW220319   2.727   0.520   4.988
 6474SOL     OW20320   2.689   3.297   5.836
 6474SOL    HW120321   2.753   3.240   5.887
 6474SOL    HW220322   2.731   3.325   5.749
 6475SOL     OW20323   4.825   5.414   3.686
 6475SOL    HW120324   4.858   5.501   3.649
 6475SOL    HW220325   4.882   5.339   3.652
 6476SOL     OW20326   5.549   5.038   2.446
 6476SOL    HW120327   5.527   4.941   2.455
 6476SOL    HW220328   5.611   5.051   2.368
 6477SOL     OW20329   6.479   6.550   0.106
 6477SOL    HW120330   6.414   6.540   0.031
 6477SOL    HW220331   6.538   6.629   0.089
 6478SOL     OW20332   5.225   6.136   1.897
 6478SOL    HW120333   5.128   6.135   1.872
 6478SOL    HW220334   5.281   6.134   1.814
 6479SOL     OW20335   3.620   5.810   2.570
 6479SOL    HW120336   3.705   5.864   2.565
 6479SOL    HW220337   3.586   5.811   2.664
 6480SOL     OW20338   2.893   1.170   1.498
 6480SOL    HW120339   2.929   1.123   1.417
 6480SOL    HW220340   2.880   1.267   1.476
 6481SOL     OW20341   4.542   0.916   1.082
 6481SOL    HW120342   4.476   0.905   1.007
 6481SOL    HW220343   4.535   1.009   1.118
 6482SOL     OW20344   0.046   0.288   6.399
 6482SOL    HW120345   0.056   0.194   6.365
 6482SOL    HW220346   0.030   0.286   6.498
 6483SOL     OW20347   2.154   5.846   1.906
 6483SOL    HW120348   2.200   5.913   1.848
 6483SOL    HW220349   2.202   5.838   1.993
 6484SOL     OW20350   5.261   6.625   3.532
 6484SOL    HW120351   5.303   6.644   3.620
 6484SOL    HW220352   5.182   6.565   3.544
 6485SOL     OW20353   0.966   2.821   3.194
 6485SOL    HW120354   0.947   2.881   3.272
 6485SOL    HW220355   0.880   2.783   3.160
 6486SOL     OW20356   2.124   3.066   3.193
 6486SOL    HW120357   2.174   3.090   3.276
 6486SOL    HW220358   2.062   2.990   3.211
 6487SOL     OW20359   5.846   5.158   3.287
 6487SOL    HW120360   5.767   5.138   3.228
 6487SOL    HW220361   5.894   5.073   3.309
 6488SOL     OW20362   3.397   5.185   5.671
 6488SOL    HW120363   3.311   5.232   5.693
 6488SOL    HW220364   3.376   5.100   5.621
 6489SOL     OW20365   2.522   2.090   6.181
 6489SOL    HW120366   2.618   2.117   6.176
 6489SOL    HW220367   2.500   2.031   6.102
 6490SOL     OW20368   4.965   1.491   0.762
 6490SOL    HW120369   4.992   1.397   0.739
 6490SOL    HW220370   5.043   1.552   0.752
 6491SOL     OW20371   4.467   0.822   6.122
 6491SOL    HW120372   4.385   0.782   6.162
 6491SOL    HW220373   4.462   0.922   6.130
 6492SOL     OW20374   5.877   6.041   5.746
 6492SOL    HW120375   5.951   6.017   5.684
 6492SOL    HW220376   5.866   5.969   5.815
 6493SOL     OW20377   0.958   6.534   5.172
 6493SOL    HW120378   0.928   6.601   5.240
 6493SOL    HW220379   1.008   6.461   5.217
 6494SOL     OW20380   1.352   0.523   3.663
 6494SOL    HW120381   1.363   0.485   3.572
 6494SOL    HW220382   1.256   0.547   3.678
 6495SOL     OW20383   5.573   4.570   2.247
 6495SOL    HW120384   5.531   4.480   2.256
 6495SOL    HW220385   5.614   4.579   2.156
 6496SOL     OW20386   0.669   6.426   3.152
 6496SOL    HW120387   0.613   6.504   3.124
 6496SOL    HW220388   0.766   6.450   3.144
 6497SOL     OW20389   0.247   5.757   0.100
 6497SOL    HW120390   0.178   5.751   0.028
 6497SOL    HW220391   0.244   5.847   0.143
 6498SOL     OW20392   1.201   4.472   3.838
 6498SOL    HW120393   1.107   4.460   3.804
 6498SOL    HW220394   1.235   4.385   3.874
 6499SOL     OW20395   6.230   1.415   3.240
 6499SOL    HW120396   6.327   1.439   3.244
 6499SOL    HW220397   6.186   1.466   3.166
 6500SOL     OW20398   5.948   4.898   3.269
 6500SOL    HW120399   5.939   4.807   3.309
 6500SOL    HW220400   5.938   4.892   3.170
 6501SOL     OW20401   6.850   3.458   0.629
 6501SOL    HW120402   6.784   3.511   0.683
 6501SOL    HW220403   6.903   3.399   0.689
 6502SOL     OW20404   1.182   5.029   1.587
 6502SOL    HW120405   1.272   5.009   1.548
 6502SOL    HW220406   1.164   4.967   1.663
 6503SOL     OW20407   4.607   0.335   4.520
 6503SOL    HW120408   4.591   0.429   4.550
 6503SOL    HW220409   4.614   0.276   4.601
 6504SOL     OW20410   1.682   1.041   0.874
 6504SOL    HW120411   1.673   0.988   0.958
 6504SOL    HW220412   1.645   0.988   0.797
 6505SOL     OW20413   5.768   5.557   0.579
 6505SOL    HW120414   5.789   5.653   0.562
 6505SOL    HW220415   5.712   5.521   0.505
 6506SOL     OW20416   2.264   1.669   0.660
 6506SOL    HW120417   2.169   1.659   0.632
 6506SOL    HW220418   2.318   1.593   0.623
 6507SOL     OW20419   2.930   0.689   2.150
 6507SOL    HW120420   2.922   0.593   2.177
 6507SOL    HW220421   3.024   0.707   2.121
 6508SOL     OW20422   2.330   1.386   2.361
 6508SOL    HW120423   2.299   1.444   2.436
 6508SOL    HW220424   2.342   1.442   2.279
 6509SOL     OW20425   0.564   2.900   4.059
 6509SOL    HW120426   0.640   2.962   4.038
 6509SOL    HW220427   0.559   2.829   3.989
 6510SOL     OW20428   6.205   4.735   6.706
 6510SOL    HW120429   6.202   4.756   6.608
 6510SOL    HW220430   6.178   4.640   6.721
 6511SOL     OW20431   6.797   6.496   5.797
 6511SOL    HW120432   6.862   6.548   5.742
 6511SOL    HW220433   6.845   6.453   5.874
 6512SOL     OW20434   5.358   5.981   3.882
 6512SOL    HW120435   5.355   5.882   3.876
 6512SOL    HW220436   5.275   6.020   3.843
 6513SOL     OW20437   1.511   7.012   3.324
 6513SOL    HW120438   1.420   7.010   3.365
 6513SOL    HW220439   1.506   0.032   3.234
 6514SOL     OW20440   3.330   0.148   3.787
 6514SOL    HW120441   3.254   0.128   3.849
 6514SOL    HW220442   3.405   0.085   3.804
 6515SOL     OW20443   0.802   1.126   3.538
 6515SOL    HW120444   0.833   1.113   3.444
 6515SOL    HW220445   0.703   1.133   3.540
 6516SOL     OW20446   1.279   1.373   5.993
 6516SOL    HW120447   1.340   1.394   6.069
 6516SOL    HW220448   1.329   1.387   5.907
 6517SOL     OW20449   2.027   1.835   0.978
 6517SOL    HW120450   2.016   1.745   0.936
 6517SOL    HW220451   1.943   1.888   0.966
 6518SOL     OW20452   5.691   6.383   0.904
 6518SOL    HW120453   5.740   6.381   0.817
 6518SOL    HW220454   5.601   6.341   0.892
 6519SOL     OW20455   1.115   2.343   3.684
 6519SOL    HW120456   1.120   2.245   3.666
 6519SOL    HW220457   1.076   2.359   3.774
 6520SOL     OW20458   5.729   5.406   1.739
 6520SOL    HW120459   5.695   5.492   1.778
 6520SOL    HW220460   5.813   5.424   1.687
 6521SOL     OW20461   1.555   2.297   5.558
 6521SOL    HW120462   1.588   2.287   5.652
 6521SOL    HW220463   1.456   2.313   5.560
 6522SOL     OW20464   2.473   5.406   4.521
 6522SOL    HW120465   2.529   5.391   4.603
 6522SOL    HW220466   2.450   5.503   4.514
 6523SOL     OW20467   2.015   2.710   0.008
 6523SOL    HW120468   1.983   2.771   6.960
 6523SOL    HW220469   2.094   2.658   6.997
 6524SOL     OW20470   4.158   3.509   4.768
 6524SOL    HW120471   4.247   3.502   4.814
 6524SOL    HW220472   4.112   3.420   4.770
 6525SOL     OW20473   0.393   2.687   4.530
 6525SOL    HW120474   0.328   2.626   4.485
 6525SOL    HW220475   0.347   2.772   4.556
 6526SOL     OW20476   1.518   5.565   3.933
 6526SOL    HW120477   1.527   5.518   3.845
 6526SOL    HW220478   1.600   5.548   3.988
 6527SOL     OW20479   2.632   1.440   4.140
 6527SOL    HW120480   2.536   1.467   4.135
 6527SOL    HW220481   2.638   1.341   4.149
 6528SOL     OW20482   0.431   0.105   3.353
 6528SOL    HW120483   0.422   0.050   3.269
 6528SOL    HW220484   0.488   0.055   3.419
 6529SOL     OW20485   7.014   2.969   2.619
 6529SOL    HW120486   6.926   2.921   2.624
 6529SOL    HW220487   0.018   2.977   2.523
 6530SOL     OW20488   0.641   1.887   0.578
 6530SOL    HW120489   0.699   1.806   0.566
 6530SOL    HW220490   0.699   1.969   0.578
 6531SOL     OW20491   5.296   2.418   4.951
 6531SOL    HW120492   5.223   2.370   4.902
 6531SOL    HW220493   5.362   2.351   4.986
 6532SOL     OW20494   1.002   2.331   6.821
 6532SOL    HW120495   0.957   2.331   6.910
 6532SOL    HW220496   0.934   2.348   6.749
 6533SOL     OW20497   4.365   0.342   1.228
 6533SOL    HW120498   4.330   0.261   1.181
 6533SOL    HW220499   4.411   0.314   1.312
 6534SOL     OW20500   2.045   3.576   0.138
 6534SOL    HW120501   2.027   3.671   0.163
 6534SOL    HW220502   2.063   3.569   0.040
 6535SOL     OW20503   2.136   3.549   5.373
 6535SOL    HW120504   2.229   3.534   5.404
 6535SOL    HW220505   2.101   3.635   5.411
 6536SOL     OW20506   6.570   2.536   6.744
 6536SOL    HW120507   6.498   2.594   6.706
 6536SOL    HW220508   6.547   2.440   6.729
 6537SOL     OW20509   0.992   0.168   6.783
 6537SOL    HW120510   1.072   0.112   6.760
 6537SOL    HW220511   1.009   0.217   6.868
 6538SOL     OW20512   1.859   3.196   6.006
 6538SOL    HW120513   1.771   3.192   5.958
 6538SOL    HW220514   1.922   3.254   5.954
 6539SOL     OW20515   3.145   1.528   6.160
 6539SOL    HW120516   3.140   1.587   6.079
 6539SOL    HW220517   3.230   1.548   6.210
 6540SOL     OW20518   3.528   2.028   4.096
 6540SOL    HW120519   3.615   2.051   4.140
 6540SOL    HW220520   3.462   2.000   4.165
 6541SOL     OW20521   2.850   2.899   5.496
 6541SOL    HW120522   2.837   2.983   5.443
 6541SOL    HW220523   2.803   2.908   5.585
 6542SOL     OW20524   6.112   4.054   3.497
 6542SOL    HW120525   6.137   4.151   3.501
 6542SOL    HW220526   6.013   4.046   3.486
 6543SOL     OW20527   0.517   6.143   6.455
 6543SOL    HW120528   0.480   6.051   6.457
 6543SOL    HW220529   0.616   6.140   6.463
 6544SOL     OW20530   0.236   5.865   2.492
 6544SOL    HW120531   0.285   5.930   2.435
 6544SOL    HW220532   0.241   5.894   2.587
 6545SOL     OW20533   5.827   3.470   5.997
 6545SOL    HW120534   5.849   3.374   5.986
 6545SOL    HW220535   5.818   3.513   5.907
 6546SOL     OW20536   3.645   4.613   5.848
 6546SOL    HW120537   3.670   4.545   5.917
 6546SOL    HW220538   3.696   4.697   5.863
 6547SOL     OW20539   5.224   0.693   6.826
 6547SOL    HW120540   5.175   0.728   6.747
 6547SOL    HW220541   5.162   0.688   6.905
 6548SOL     OW20542   5.834   3.984   5.453
 6548SOL    HW120543   5.857   4.065   5.506
 6548SOL    HW220544   5.918   3.938   5.424
 6549SOL     OW20545   2.912   2.048   2.420
 6549SOL    HW120546   2.907   1.953   2.389
 6549SOL    HW220547   2.887   2.052   2.517
 6550SOL     OW20548   1.365   5.322   3.114
 6550SOL    HW120549   1.291   5.357   3.057
 6550SOL    HW220550   1.445   5.304   3.058
 6551SOL     OW20551   2.847   5.252   2.016
 6551SOL    HW120552   2.908   5.177   1.990
 6551SOL    HW220553   2.783   5.221   2.086
 6552SOL     OW20554   4.632   5.488   6.527
 6552SOL    HW120555   4.548   5.536   6.554
 6552SOL    HW220556   4.690   5.551   6.474
 6553SOL     OW20557   6.987   2.925   3.071
 6553SOL    HW120558   7.002   3.020   3.098
 6553SOL    HW220559   6.906   2.919   3.013
 6554SOL     OW20560   0.305   3.887   4.514
 6554SOL    HW120561   0.295   3.789   4.499
 6554SOL    HW220562   0.214   3.930   4.514
 6555SOL     OW20563   0.633   1.247   1.696
 6555SOL    HW120564   0.730   1.220   1.696
 6555SOL    HW220565   0.577   1.167   1.718
 6556SOL     OW20566   3.913   0.543   4.013
 6556SOL    HW120567   3.979   0.571   3.944
 6556SOL    HW220568   3.951   0.470   4.068
 6557SOL     OW20569   5.273   6.199   0.529
 6557SOL    HW120570   5.199   6.263   0.548
 6557SOL    HW220571   5.256   6.113   0.578
 6558SOL     OW20572   6.779   6.172   6.209
 6558SOL    HW120573   6.820   6.177   6.300
 6558SOL    HW220574   6.687   6.212   6.212
 6559SOL     OW20575   3.373   3.088   1.277
 6559SOL    HW120576   3.465   3.049   1.277
 6559SOL    HW220577   3.306   3.016   1.293
 6560SOL     OW20578   4.260   1.495   0.630
 6560SOL    HW120579   4.162   1.502   0.614
 6560SOL    HW220580   4.276   1.445   0.715
 6561SOL     OW20581   3.455   3.750   4.284
 6561SOL    HW120582   3.507   3.795   4.357
 6561SOL    HW220583   3.361   3.736   4.314
 6562SOL     OW20584   6.626   4.044   5.289
 6562SOL    HW120585   6.614   4.083   5.198
 6562SOL    HW220586   6.609   3.945   5.285
 6563SOL     OW20587   1.000   5.485   2.339
 6563SOL    HW120588   0.957   5.575   2.350
 6563SOL    HW220589   1.018   5.446   2.430
 6564SOL     OW20590   1.632   5.786   2.435
 6564SOL    HW120591   1.714   5.825   2.476
 6564SOL    HW220592   1.604   5.705   2.486
 6565SOL     OW20593   6.476   3.426   5.167
 6565SOL    HW120594   6.403   3.445   5.101
 6565SOL    HW220595   6.437   3.381   5.248
 6566SOL     OW20596   3.426   0.381   0.991
 6566SOL    HW120597   3.379   0.434   0.920
 6566SOL    HW220598   3.358   0.350   1.059
 6567SOL     OW20599   6.170   2.548   0.897
 6567SOL    HW120600   6.144   2.595   0.981
 6567SOL    HW220601   6.250   2.489   0.915
 6568SOL     OW20602   4.475   3.877   1.712
 6568SOL    HW120603   4.575   3.884   1.712
 6568SOL    HW220604   4.435   3.968   1.711
 6569SOL     OW20605   0.928   5.297   6.317
 6569SOL    HW120606   0.880   5.339   6.394
 6569SOL    HW220607   0.954   5.204   6.340
 6570SOL     OW20608   6.546   3.834   1.891
 6570SOL    HW120609   6.518   3.739   1.874
 6570SOL    HW220610   6.595   3.839   1.978
 6571SOL     OW20611   2.664   6.110   3.522
 6571SOL    HW120612   2.616   6.023   3.526
 6571SOL    HW220613   2.720   6.122   3.604
 6572SOL     OW20614   1.276   4.595   5.980
 6572SOL    HW120615   1.277   4.692   6.006
 6572SOL    HW220616   1.200   4.578   5.917
 6573SOL     OW20617   1.399   2.095   1.916
 6573SOL    HW120618   1.472   2.040   1.956
 6573SOL    HW220619   1.323   2.101   1.980
 6574SOL     OW20620   1.654   4.338   4.165
 6574SOL    HW120621   1.744   4.362   4.203
 6574SOL    HW220622   1.635   4.395   4.086
 6575SOL     OW20623   2.091   1.525   3.038
 6575SOL    HW120624   2.086   1.443   2.981
 6575SOL    HW220625   2.075   1.606   2.982
 6576SOL     OW20626   1.415   6.352   3.976
 6576SOL    HW120627   1.377   6.359   4.068
 6576SOL    HW220628   1.375   6.273   3.929
 6577SOL     OW20629   0.166   3.294   5.047
 6577SOL    HW120630   0.091   3.302   5.112
 6577SOL    HW220631   0.178   3.381   4.999
 6578SOL     OW20632   6.507   5.558   3.184
 6578SOL    HW120633   6.452   5.612   3.248
 6578SOL    HW220634   6.459   5.553   3.096
 6579SOL     OW20635   0.980   3.873   2.988
 6579SOL    HW120636   0.955   3.780   2.964
 6579SOL    HW220637   1.032   3.873   3.074
 6580SOL     OW20638   5.843   2.444   1.630
 6580SOL    HW120639   5.886   2.444   1.539
 6580SOL    HW220640   5.849   2.353   1.670
 6581SOL     OW20641   2.469   2.573   5.551
 6581SOL    HW120642   2.372   2.593   5.538
 6581SOL    HW220643   2.516   2.578   5.463
 6582SOL     OW20644   6.874   0.280   1.804
 6582SOL    HW120645   6.861   0.319   1.895
 6582SOL    HW220646   6.850   0.183   1.807
 6583SOL     OW20647   5.907   2.029   6.042
 6583SOL    HW120648   5.832   1.979   5.999
 6583SOL    HW220649   5.991   2.017   5.989
 6584SOL     OW20650   5.417   2.487   0.278
 6584SOL    HW120651   5.511   2.520   0.273
 6584SOL    HW220652   5.391   2.447   0.191
 6585SOL     OW20653   3.018   0.997   1.897
 6585SOL    HW120654   3.003   1.072   1.961
 6585SOL    HW220655   3.061   1.032   1.813
 6586SOL     OW20656   6.850   1.991   6.651
 6586SOL    HW120657   6.869   2.082   6.614
 6586SOL    HW220658   6.872   1.922   6.582
 6587SOL     OW20659   1.861   6.118   2.185
 6587SOL    HW120660   1.934   6.153   2.126
 6587SOL    HW220661   1.808   6.195   2.220
 6588SOL     OW20662   2.885   2.587   6.900
 6588SOL    HW120663   2.844   2.546   6.981
 6588SOL    HW220664   2.893   2.686   6.913
 6589SOL     OW20665   5.223   1.922   5.942
 6589SOL    HW120666   5.219   2.015   5.906
 6589SOL    HW220667   5.299   1.873   5.900
 6590SOL     OW20668   6.791   1.232   5.700
 6590SOL    HW120669   6.765   1.168   5.628
 6590SOL    HW220670   6.849   1.304   5.661
 6591SOL     OW20671   5.424   0.049   3.073
 6591SOL    HW120672   5.472   0.135   3.055
 6591SOL    HW220673   5.334   0.069   3.113
 6592SOL     OW20674   5.908   5.682   4.831
 6592SOL    HW120675   5.862   5.666   4.743
 6592SOL    HW220676   5.841   5.715   4.898
 6593SOL     OW20677   5.159   0.904   2.492
 6593SOL    HW120678   5.064   0.924   2.468
 6593SOL    HW220679   5.217   0.977   2.457
 6594SOL     OW20680   5.804   1.035   6.687
 6594SOL    HW120681   5.808   0.983   6.772
 6594SOL    HW220682   5.774   0.976   6.613
 6595SOL     OW20683   1.671   3.591   0.044
 6595SOL    HW120684   1.706   3.541   0.123
 6595SOL    HW220685   1.573   3.606   0.055
 6596SOL     OW20686   2.953   6.819   5.484
 6596SOL    HW120687   3.023   6.818   5.412
 6596SOL    HW220688   2.917   6.726   5.496
 6597SOL     OW20689   6.912   4.080   6.622
 6597SOL    HW120690   6.929   4.081   6.720
 6597SOL    HW220691   6.861   4.163   6.596
 6598SOL     OW20692   2.352   5.535   4.988
 6598SOL    HW120693   2.368   5.613   4.928
 6598SOL    HW220694   2.332   5.454   4.932
 6599SOL     OW20695   4.356   2.943   5.914
 6599SOL    HW120696   4.399   2.866   5.962
 6599SOL    HW220697   4.407   3.027   5.934
 6600SOL     OW20698   4.116   5.155   4.705
 6600SOL    HW120699   4.207   5.185   4.732
 6600SOL    HW220700   4.048   5.224   4.731
 6601SOL     OW20701   0.907   0.361   1.002
 6601SOL    HW120702   0.925   0.328   1.095
 6601SOL    HW220703   0.869   0.454   1.007
 6602SOL     OW20704   6.714   1.316   1.679
 6602SOL    HW120705   6.635   1.254   1.681
 6602SOL    HW220706   6.689   1.402   1.724
 6603SOL     OW20707   2.507   2.153   2.007
 6603SOL    HW120708   2.583   2.130   1.945
 6603SOL    HW220709   2.520   2.245   2.042
 6604SOL     OW20710   4.007   5.649   4.008
 6604SOL    HW120711   3.990   5.718   3.938
 6604SOL    HW220712   4.102   5.618   4.003
 6605SOL     OW20713   4.820   6.430   0.434
 6605SOL    HW120714   4.841   6.408   0.338
 6605SOL    HW220715   4.794   6.346   0.482
 6606SOL     OW20716   6.263   1.431   2.964
 6606SOL    HW120717   6.194   1.420   2.892
 6606SOL    HW220718   6.324   1.352   2.963
 6607SOL     OW20719   1.381   1.763   2.942
 6607SOL    HW120720   1.361   1.803   3.031
 6607SOL    HW220721   1.405   1.666   2.954
 6608SOL     OW20722   5.530   4.998   4.952
 6608SOL    HW120723   5.534   4.927   5.022
 6608SOL    HW220724   5.620   5.011   4.912
 6609SOL     OW20725   5.801   1.650   0.322
 6609SOL    HW120726   5.818   1.584   0.249
 6609SOL    HW220727   5.811   1.742   0.285
 6610SOL     OW20728   3.393   1.326   0.555
 6610SOL    HW120729   3.398   1.406   0.495
 6610SOL    HW220730   3.357   1.248   0.503
 6611SOL     OW20731   5.850   3.152   3.207
 6611SOL    HW120732   5.835   3.068   3.259
 6611SOL    HW220733   5.913   3.212   3.257
 6612SOL     OW20734   1.120   5.992   6.906
 6612SOL    HW120735   1.115   6.046   6.989
 6612SOL    HW220736   1.071   5.906   6.919
 6613SOL     OW20737   5.078   4.910   1.118
 6613SOL    HW120738   5.103   4.935   1.211
 6613SOL    HW220739   4.984   4.940   1.100
 6614SOL     OW20740   5.299   4.935   5.521
 6614SOL    HW120741   5.383   4.987   5.533
 6614SOL    HW220742   5.220   4.995   5.535
 6615SOL     OW20743   0.352   3.655   5.325
 6615SOL    HW120744   0.271   3.607   5.357
 6615SOL    HW220745   0.324   3.739   5.278
 6616SOL     OW20746   4.996   1.205   4.089
 6616SOL    HW120747   4.971   1.167   4.000
 6616SOL    HW220748   4.941   1.287   4.107
 6617SOL     OW20749   4.219   0.130   4.873
 6617SOL    HW120750   4.277   0.082   4.808
 6617SOL    HW220751   4.152   0.186   4.824
 6618SOL     OW20752   6.992   4.954   1.142
 6618SOL    HW120753   0.033   4.997   1.079
 6618SOL    HW220754   7.022   4.861   1.163
 6619SOL     OW20755   6.864   6.242   1.662
 6619SOL    HW120756   6.842   6.169   1.597
 6619SOL    HW220757   6.952   6.283   1.638
 6620SOL     OW20758   4.294   3.442   5.858
 6620SOL    HW120759   4.300   3.437   5.758
 6620SOL    HW220760   4.198   3.448   5.885
 6621SOL     OW20761   2.535   3.767   0.464
 6621SOL    HW120762   2.463   3.714   0.510
 6621SOL    HW220763   2.566   3.841   0.525
 6622SOL     OW20764   6.360   5.504   1.291
 6622SOL    HW120765   6.435   5.484   1.354
 6622SOL    HW220766   6.294   5.564   1.336
 6623SOL     OW20767   3.786   4.045   2.392
 6623SOL    HW120768   3.702   4.082   2.432
 6623SOL    HW220769   3.854   4.032   2.465
 6624SOL     OW20770   4.587   5.426   4.108
 6624SOL    HW120771   4.497   5.396   4.141
 6624SOL    HW220772   4.615   5.368   4.032
 6625SOL     OW20773   5.899   0.061   7.001
 6625SOL    HW120774   5.837   0.139   7.009
 6625SOL    HW220775   5.993   0.092   7.002
 6626SOL     OW20776   3.003   5.168   3.489
 6626SOL    HW120777   2.964   5.252   3.452
 6626SOL    HW220778   3.089   5.189   3.535
 6627SOL     OW20779   1.897   6.500   1.867
 6627SOL    HW120780   1.799   6.491   1.889
 6627SOL    HW220781   1.907   6.524   1.770
 6628SOL     OW20782   4.233   6.069   3.418
 6628SOL    HW120783   4.138   6.039   3.420
 6628SOL    HW220784   4.239   6.156   3.370
 6629SOL     OW20785   3.109   3.821   0.211
 6629SOL    HW120786   3.079   3.737   0.167
 6629SOL    HW220787   3.166   3.799   0.290
 6630SOL     OW20788   3.129   1.495   6.570
 6630SOL    HW120789   3.204   1.433   6.550
 6630SOL    HW220790   3.056   1.482   6.502
 6631SOL     OW20791   4.107   0.164   1.563
 6631SOL    HW120792   4.192   0.175   1.616
 6631SOL    HW220793   4.116   0.085   1.503
 6632SOL     OW20794   6.484   2.584   3.073
 6632SOL    HW120795   6.479   2.517   2.999
 6632SOL    HW220796   6.409   2.569   3.137
 6633SOL     OW20797   0.729   6.956   2.018
 6633SOL    HW120798   0.721   6.930   2.115
 6633SOL    HW220799   0.682   6.888   1.962
 6634SOL     OW20800   6.866   2.635   5.676
 6634SOL    HW120801   6.952   2.584   5.676
 6634SOL    HW220802   6.810   2.606   5.754
 6635SOL     OW20803   4.136   4.714   2.878
 6635SOL    HW120804   4.048   4.724   2.831
 6635SOL    HW220805   4.210   4.744   2.818
 6636SOL     OW20806   1.590   3.254   4.318
 6636SOL    HW120807   1.662   3.319   4.344
 6636SOL    HW220808   1.620   3.202   4.238
 6637SOL     OW20809   6.470   2.203   1.947
 6637SOL    HW120810   6.506   2.180   2.037
 6637SOL    HW220811   6.432   2.122   1.904
 6638SOL     OW20812   2.110   0.269   6.674
 6638SOL    HW120813   2.158   0.192   6.629
 6638SOL    HW220814   2.041   0.305   6.612
 6639SOL     OW20815   4.446   5.643   6.191
 6639SOL    HW120816   4.421   5.592   6.109
 6639SOL    HW220817   4.403   5.601   6.271
 6640SOL     OW20818   6.161   2.674   3.032
 6640SOL    HW120819   6.220   2.660   3.111
 6640SOL    HW220820   6.194   2.618   2.956
 6641SOL     OW20821   2.561   5.355   0.018
 6641SOL    HW120822   2.561   5.292   6.964
 6641SOL    HW220823   2.466   5.376   0.044
 6642SOL     OW20824   6.300   6.573   6.911
 6642SOL    HW120825   6.334   6.649   6.856
 6642SOL    HW220826   6.204   6.587   6.934
 6643SOL     OW20827   3.455   5.717   0.495
 6643SOL    HW120828   3.449   5.797   0.436
 6643SOL    HW220829   3.481   5.746   0.587
 6644SOL     OW20830   1.852   4.117   2.097
 6644SOL    HW120831   1.763   4.159   2.115
 6644SOL    HW220832   1.906   4.176   2.038
 6645SOL     OW20833   6.210   4.725   5.267
 6645SOL    HW120834   6.205   4.695   5.363
 6645SOL    HW220835   6.198   4.645   5.207
 6646SOL     OW20836   1.585   6.247   3.607
 6646SOL    HW120837   1.543   6.176   3.664
 6646SOL    HW220838   1.551   6.337   3.636
 6647SOL     OW20839   4.303   1.690   2.119
 6647SOL    HW120840   4.261   1.776   2.090
 6647SOL    HW220841   4.278   1.671   2.214
 6648SOL     OW20842   4.240   5.942   1.709
 6648SOL    HW120843   4.166   5.882   1.737
 6648SOL    HW220844   4.327   5.892   1.715
 6649SOL     OW20845   4.368   2.077   5.978
 6649SOL    HW120846   4.392   2.085   6.074
 6649SOL    HW220847   4.438   2.123   5.923
 6650SOL     OW20848   3.246   0.923   3.775
 6650SOL    HW120849   3.240   0.947   3.678
 6650SOL    HW220850   3.218   0.828   3.788
 6651SOL     OW20851   1.366   1.717   0.356
 6651SOL    HW120852   1.435   1.658   0.399
 6651SOL    HW220853   1.353   1.798   0.413
 6652SOL     OW20854   0.981   5.508   3.200
 6652SOL    HW120855   1.050   5.549   3.259
 6652SOL    HW220856   0.951   5.421   3.238
 6653SOL     OW20857   3.197   3.848   3.401
 6653SOL    HW120858   3.232   3.881   3.314
 6653SOL    HW220859   3.167   3.925   3.457
 6654SOL     OW20860   1.772   3.502   1.732
 6654SOL    HW120861   1.704   3.431   1.751
 6654SOL    HW220862   1.772   3.569   1.806
 6655SOL     OW20863   2.102   0.418   0.745
 6655SOL    HW120864   2.099   0.399   0.646
 6655SOL    HW220865   2.053   0.346   0.794
 6656SOL     OW20866   7.004   2.711   1.860
 6656SOL    HW120867   6.991   2.791   1.801
 6656SOL    HW220868   0.048   2.650   1.820
 6657SOL     OW20869   3.161   4.951   5.766
 6657SOL    HW120870   3.215   5.013   5.823
 6657SOL    HW220871   3.148   4.865   5.815
 6658SOL     OW20872   6.258   6.869   5.837
 6658SOL    HW120873   6.300   6.779   5.821
 6658SOL    HW220874   6.330   6.936   5.856
 6659SOL     OW20875   1.641   2.875   6.666
 6659SOL    HW120876   1.642   2.969   6.632
 6659SOL    HW220877   1.727   2.855   6.713
 6660SOL     OW20878   0.682   6.784   2.511
 6660SOL    HW120879   0.693   6.825   2.601
 6660SOL    HW220880   0.586   6.787   2.484
 6661SOL     OW20881   6.957   6.095   3.688
 6661SOL    HW120882   6.977   6.145   3.773
 6661SOL    HW220883   0.019   6.061   3.649
 6662SOL     OW20884   1.253   3.560   5.811
 6662SOL    HW120885   1.334   3.618   5.825
 6662SOL    HW220886   1.171   3.611   5.835
 6663SOL     OW20887   0.582   5.174   2.266
 6663SOL    HW120888   0.644   5.246   2.235
 6663SOL    HW220889   0.632   5.087   2.272
 6664SOL     OW20890   0.089   1.646   2.662
 6664SOL    HW120891   0.012   1.586   2.681
 6664SOL    HW220892   0.059   1.722   2.604
 6665SOL     OW20893   2.522   6.805   2.475
 6665SOL    HW120894   2.430   6.792   2.512
 6665SOL    HW220895   2.556   6.718   2.439
 6666SOL     OW20896   5.863   0.819   0.630
 6666SOL    HW120897   5.937   0.885   0.645
 6666SOL    HW220898   5.805   0.851   0.555
 6667SOL     OW20899   6.490   5.195   4.868
 6667SOL    HW120900   6.442   5.282   4.863
 6667SOL    HW220901   6.446   5.136   4.935
 6668SOL     OW20902   0.366   6.523   1.394
 6668SOL    HW120903   0.294   6.544   1.329
 6668SOL    HW220904   0.377   6.599   1.458
 6669SOL     OW20905   1.123   5.328   2.954
 6669SOL    HW120906   1.058   5.403   2.965
 6669SOL    HW220907   1.095   5.250   3.011
 6670SOL     OW20908   3.935   4.224   0.718
 6670SOL    HW120909   3.852   4.229   0.662
 6670SOL    HW220910   4.009   4.183   0.665
 6671SOL     OW20911   0.297   2.861   5.442
 6671SOL    HW120912   0.229   2.892   5.376
 6671SOL    HW220913   0.388   2.883   5.407
 6672SOL     OW20914   0.602   0.314   5.723
 6672SOL    HW120915   0.655   0.284   5.645
 6672SOL    HW220916   0.591   0.414   5.719
 6673SOL     OW20917   4.809   5.432   1.423
 6673SOL    HW120918   4.838   5.417   1.518
 6673SOL    HW220919   4.858   5.370   1.363
 6674SOL     OW20920   0.657   6.895   5.047
 6674SOL    HW120921   0.697   6.809   5.016
 6674SOL    HW220922   0.729   6.953   5.085
 6675SOL     OW20923   6.642   6.176   0.492
 6675SOL    HW120924   6.555   6.195   0.537
 6675SOL    HW220925   6.643   6.217   0.401
 6676SOL     OW20926   0.559   1.709   0.989
 6676SOL    HW120927   0.492   1.700   1.063
 6676SOL    HW220928   0.540   1.792   0.937
 6677SOL     OW20929   6.511   4.348   0.285
 6677SOL    HW120930   6.554   4.409   0.352
 6677SOL    HW220931   6.413   4.367   0.281
 6678SOL     OW20932   0.331   3.041   4.109
 6678SOL    HW120933   0.268   3.029   4.032
 6678SOL    HW220934   0.419   2.999   4.088
 6679SOL     OW20935   1.493   0.831   4.765
 6679SOL    HW120936   1.479   0.771   4.687
 6679SOL    HW220937   1.409   0.881   4.785
 6680SOL     OW20938   2.515   0.669   6.507
 6680SOL    HW120939   2.502   0.701   6.413
 6680SOL    HW220940   2.607   0.694   6.538
 6681SOL     OW20941   5.111   5.944   0.030
 6681SOL    HW120942   5.176   5.890   0.083
 6681SOL    HW220943   5.045   5.987   0.092
 6682SOL     OW20944   6.955   5.471   2.135
 6682SOL    HW120945   7.019   5.536   2.095
 6682SOL    HW220946   6.875   5.520   2.169
 6683SOL     OW20947   5.229   1.520   4.353
 6683SOL    HW120948   5.213   1.448   4.286
 6683SOL    HW220949   5.168   1.506   4.432
 6684SOL     OW20950   2.066   1.149   2.976
 6684SOL    HW120951   2.118   1.227   2.939
 6684SOL    HW220952   2.096   1.065   2.932
 6685SOL     OW20953   5.603   2.707   6.445
 6685SOL    HW120954   5.629   2.658   6.528
 6685SOL    HW220955   5.515   2.673   6.412
 6686SOL     OW20956   5.626   3.512   4.329
 6686SOL    HW120957   5.638   3.419   4.366
 6686SOL    HW220958   5.635   3.510   4.230
 6687SOL     OW20959   1.089   0.670   0.156
 6687SOL    HW120960   1.124   0.709   0.241
 6687SOL    HW220961   0.989   0.671   0.157
 6688SOL     OW20962   0.735   5.319   2.525
 6688SOL    HW120963   0.823   5.275   2.542
 6688SOL    HW220964   0.733   5.409   2.568
 6689SOL     OW20965   4.223   5.016   6.945
 6689SOL    HW120966   4.323   5.005   6.944
 6689SOL    HW220967   4.191   5.043   6.854
 6690SOL     OW20968   1.342   1.609   0.729
 6690SOL    HW120969   1.297   1.520   0.719
 6690SOL    HW220970   1.280   1.682   0.701
 6691SOL     OW20971   1.220   5.227   1.007
 6691SOL    HW120972   1.295   5.289   1.028
 6691SOL    HW220973   1.177   5.197   1.092
 6692SOL     OW20974   4.221   4.109   6.059
 6692SOL    HW120975   4.125   4.113   6.030
 6692SOL    HW220976   4.277   4.164   5.997
 6693SOL     OW20977   4.046   3.815   5.174
 6693SOL    HW120978   3.953   3.841   5.150
 6693SOL    HW220979   4.050   3.717   5.192
 6694SOL     OW20980   2.771   6.532   0.417
 6694SOL    HW120981   2.829   6.603   0.457
 6694SOL    HW220982   2.828   6.464   0.371
 6695SOL     OW20983   1.494   1.724   6.350
 6695SOL    HW120984   1.487   1.818   6.383
 6695SOL    HW220985   1.403   1.682   6.349
 6696SOL     OW20986   1.909   2.882   1.570
 6696SOL    HW120987   1.996   2.931   1.569
 6696SOL    HW220988   1.834   2.947   1.555
 6697SOL     OW20989   5.238   2.650   3.668
 6697SOL    HW120990   5.164   2.681   3.607
 6697SOL    HW220991   5.240   2.709   3.748
 6698SOL     OW20992   2.996   4.424   0.335
 6698SOL    HW120993   2.984   4.513   0.290
 6698SOL    HW220994   3.079   4.426   0.390
 6699SOL     OW20995   1.348   3.460   6.480
 6699SOL    HW120996   1.261   3.488   6.439
 6699SOL    HW220997   1.370   3.521   6.556
 6700SOL     OW20998   6.952   6.753   6.105
 6700SOL    HW120999   0.020   6.717   6.121
 6700SOL    HW221000   6.913   6.788   6.190
 6701SOL     OW21001   0.575   2.969   1.376
 6701SOL    HW121002   0.532   2.879   1.387
 6701SOL    HW221003   0.611   2.999   1.464
 6702SOL     OW21004   1.486   3.634   0.652
 6702SOL    HW121005   1.420   3.608   0.722
 6702SOL    HW221006   1.513   3.554   0.599
 6703SOL     OW21007   0.545   2.617   6.699
 6703SOL    HW121008   0.449   2.612   6.674
 6703SOL    HW221009   0.569   2.540   6.759
 6704SOL     OW21010   4.945   2.649   3.047
 6704SOL    HW121011   4.926   2.587   2.971
 6704SOL    HW221012   4.994   2.729   3.012
 6705SOL     OW21013   5.999   1.136   1.214
 6705SOL    HW121014   5.996   1.139   1.314
 6705SOL    HW221015   5.977   1.044   1.183
 6706SOL     OW21016   0.620   6.271   0.083
 6706SOL    HW121017   0.653   6.197   0.141
 6706SOL    HW221018   0.545   6.238   0.026
 6707SOL     OW21019   1.285   5.485   2.378
 6707SOL    HW121020   1.284   5.560   2.444
 6707SOL    HW221021   1.194   5.476   2.337
 6708SOL     OW21022   2.367   6.198   1.860
 6708SOL    HW121023   2.274   6.211   1.895
 6708SOL    HW221024   2.363   6.151   1.772
 6709SOL     OW21025   4.784   1.730   3.067
 6709SOL    HW121026   4.800   1.821   3.105
 6709SOL    HW221027   4.726   1.738   2.986
 6710SOL     OW21028   1.910   1.955   0.620
 6710SOL    HW121029   1.866   1.887   0.561
 6710SOL    HW221030   1.878   1.943   0.714
 6711SOL     OW21031   5.170   3.682   0.114
 6711SOL    HW121032   5.244   3.650   0.054
 6711SOL    HW221033   5.085   3.634   0.090
 6712SOL     OW21034   3.374   6.058   1.625
 6712SOL    HW121035   3.439   6.047   1.550
 6712SOL    HW221036   3.401   6.137   1.680
 6713SOL     OW21037   1.936   1.670   3.264
 6713SOL    HW121038   1.861   1.735   3.278
 6713SOL    HW221039   1.988   1.698   3.183
 6714SOL     OW21040   6.505   0.277   4.645
 6714SOL    HW121041   6.546   0.229   4.568
 6714SOL    HW221042   6.486   0.211   4.718
 6715SOL     OW21043   6.483   2.183   0.516
 6715SOL    HW121044   6.566   2.188   0.461
 6715SOL    HW221045   6.450   2.088   0.519
 6716SOL     OW21046   2.582   6.154   1.010
 6716SOL    HW121047   2.676   6.159   1.044
 6716SOL    HW221048   2.576   6.082   0.940
 6717SOL     OW21049   4.002   1.082   6.868
 6717SOL    HW121050   4.065   1.130   6.807
 6717SOL    HW221051   3.998   1.129   6.956
 6718SOL     OW21052   3.221   0.056   0.328
 6718SOL    HW121053   3.261   7.005   0.380
 6718SOL    HW221054   3.219   0.139   0.383
 6719SOL     OW21055   0.756   0.956   5.498
 6719SOL    HW121056   0.706   0.877   5.463
 6719SOL    HW221057   0.745   0.962   5.597
 6720SOL     OW21058   1.902   4.589   1.559
 6720SOL    HW121059   1.810   4.607   1.593
 6720SOL    HW221060   1.969   4.628   1.624
 6721SOL     OW21061   0.358   6.101   3.021
 6721SOL    HW121062   0.286   6.035   3.043
 6721SOL    HW221063   0.319   6.177   2.970
 6722SOL     OW21064   5.047   4.971   6.714
 6722SOL    HW121065   5.146   4.963   6.705
 6722SOL    HW221066   5.025   5.053   6.766
 6723SOL     OW21067   4.524   0.790   2.910
 6723SOL    HW121068   4.612   0.744   2.905
 6723SOL    HW221069   4.538   0.889   2.903
 6724SOL     OW21070   3.497   4.797   5.699
 6724SOL    HW121071   3.534   4.811   5.607
 6724SOL    HW221072   3.547   4.723   5.745
 6725SOL     OW21073   6.855   5.155   1.284
 6725SOL    HW121074   6.774   5.099   1.298
 6725SOL    HW221075   6.912   5.115   1.213
 6726SOL     OW21076   2.264   2.488   1.915
 6726SOL    HW121077   2.282   2.425   1.840
 6726SOL    HW221078   2.255   2.581   1.879
 6727SOL     OW21079   3.131   3.843   0.679
 6727SOL    HW121080   3.038   3.822   0.648
 6727SOL    HW221081   3.154   3.784   0.756
 6728SOL     OW21082   4.626   1.341   4.692
 6728SOL    HW121083   4.699   1.358   4.626
 6728SOL    HW221084   4.615   1.242   4.705
 6729SOL     OW21085   5.185   6.031   3.392
 6729SOL    HW121086   5.156   5.981   3.310
 6729SOL    HW221087   5.175   5.972   3.472
 6730SOL     OW21088   1.401   0.420   2.052
 6730SOL    HW121089   1.468   0.347   2.061
 6730SOL    HW221090   1.449   0.508   2.042
 6731SOL     OW21091   2.007   4.329   2.189
 6731SOL    HW121092   2.091   4.308   2.139
 6731SOL    HW221093   1.947   4.249   2.189
 6732SOL     OW21094   2.530   5.552   0.263
 6732SOL    HW121095   2.522   5.543   0.363
 6732SOL    HW221096   2.475   5.482   0.219
 6733SOL     OW21097   5.959   5.976   4.707
 6733SOL    HW121098   5.979   5.878   4.698
 6733SOL    HW221099   5.866   5.988   4.742
 6734SOL     OW21100   2.868   3.632   5.689
 6734SOL    HW121101   2.821   3.718   5.708
 6734SOL    HW221102   2.802   3.566   5.653
 6735SOL     OW21103   1.003   6.366   6.864
 6735SOL    HW121104   1.093   6.350   6.906
 6735SOL    HW221105   0.977   6.285   6.811
 6736SOL     OW21106   2.297   4.201   2.451
 6736SOL    HW121107   2.201   4.173   2.454
 6736SOL    HW221108   2.325   4.239   2.539
 6737SOL     OW21109   2.237   0.124   0.798
 6737SOL    HW121110   2.146   0.159   0.816
 6737SOL    HW221111   2.232   0.050   0.731
 6738SOL     OW21112   4.758   1.742   1.522
 6738SOL    HW121113   4.733   1.700   1.609
 6738SOL    HW221114   4.809   1.677   1.467
 6739SOL     OW21115   4.100   7.020   5.490
 6739SOL    HW121116   4.155   6.943   5.525
 6739SOL    HW221117   4.103   7.021   5.390
 6740SOL     OW21118   5.958   3.140   5.607
 6740SOL    HW121119   6.002   3.226   5.635
 6740SOL    HW221120   5.918   3.095   5.686
 6741SOL     OW21121   0.452   6.736   5.968
 6741SOL    HW121122   0.359   6.772   5.975
 6741SOL    HW221123   0.457   6.672   5.892
 6742SOL     OW21124   6.255   6.178   5.134
 6742SOL    HW121125   6.289   6.269   5.155
 6742SOL    HW221126   6.161   6.185   5.099
 6743SOL     OW21127   5.812   2.304   1.274
 6743SOL    HW121128   5.790   2.235   1.343
 6743SOL    HW221129   5.742   2.376   1.275
 6744SOL     OW21130   5.294   6.230   4.551
 6744SOL    HW121131   5.282   6.175   4.633
 6744SOL    HW221132   5.312   6.325   4.577
 6745SOL     OW21133   1.050   3.236   2.969
 6745SOL    HW121134   0.965   3.236   3.021
 6745SOL    HW221135   1.044   3.303   2.894
 6746SOL     OW21136   0.015   1.129   0.760
 6746SOL    HW121137   6.947   1.117   0.798
 6746SOL    HW221138   0.083   1.101   0.828
 6747SOL     OW21139   4.699   5.771   6.719
 6747SOL    HW121140   4.722   5.674   6.728
 6747SOL    HW221141   4.765   5.826   6.771
 6748SOL     OW21142   7.004   6.550   1.789
 6748SOL    HW121143   6.927   6.515   1.842
 6748SOL    HW221144   0.012   6.480   1.725
 6749SOL     OW21145   3.334   5.412   1.239
 6749SOL    HW121146   3.387   5.327   1.244
 6749SOL    HW221147   3.250   5.401   1.292
 6750SOL     OW21148   2.245   3.085   5.344
 6750SOL    HW121149   2.200   3.170   5.316
 6750SOL    HW221150   2.335   3.079   5.302
 6751SOL     OW21151   4.053   1.541   5.822
 6751SOL    HW121152   4.116   1.464   5.808
 6751SOL    HW221153   4.087   1.621   5.773
 6752SOL     OW21154   6.707   1.898   0.235
 6752SOL    HW121155   6.661   1.813   0.261
 6752SOL    HW221156   6.758   1.884   0.150
 6753SOL     OW21157   6.274   1.238   6.913
 6753SOL    HW121158   6.214   1.312   6.884
 6753SOL    HW221159   6.366   1.254   6.877
 6754SOL     OW21160   4.862   1.050   6.825
 6754SOL    HW121161   4.959   1.044   6.801
 6754SOL    HW221162   4.816   1.115   6.764
 6755SOL     OW21163   5.141   2.078   3.502
 6755SOL    HW121164   5.195   2.098   3.420
 6755SOL    HW221165   5.069   2.147   3.512
 6756SOL     OW21166   4.809   3.925   3.570
 6756SOL    HW121167   4.906   3.915   3.593
 6756SOL    HW221168   4.753   3.894   3.646
 6757SOL     OW21169   6.056   4.883   1.713
 6757SOL    HW121170   6.050   4.832   1.799
 6757SOL    HW221171   6.146   4.926   1.707
 6758SOL     OW21172   5.911   1.461   3.353
 6758SOL    HW121173   5.875   1.371   3.326
 6758SOL    HW221174   6.009   1.454   3.369
 6759SOL     OW21175   1.422   5.063   2.937
 6759SOL    HW121176   1.473   4.977   2.936
 6759SOL    HW221177   1.469   5.130   2.879
 6760SOL     OW21178   0.272   3.886   5.182
 6760SOL    HW121179   0.182   3.921   5.156
 6760SOL    HW221180   0.343   3.946   5.145
 6761SOL     OW21181   5.932   2.631   6.417
 6761SOL    HW121182   5.902   2.725   6.397
 6761SOL    HW221183   6.019   2.634   6.466
 6762SOL     OW21184   0.095   4.170   3.023
 6762SOL    HW121185   0.151   4.239   3.069
 6762SOL    HW221186   0.149   4.087   3.009
 6763SOL     OW21187   5.688   7.006   4.880
 6763SOL    HW121188   5.682   0.079   4.904
 6763SOL    HW221189   5.597   6.967   4.878
 6764SOL     OW21190   2.216   3.676   6.576
 6764SOL    HW121191   2.223   3.610   6.501
 6764SOL    HW221192   2.134   3.731   6.565
 6765SOL     OW21193   5.148   5.185   2.639
 6765SOL    HW121194   5.207   5.119   2.685
 6765SOL    HW221195   5.083   5.137   2.580
 6766SOL     OW21196   1.841   2.543   6.141
 6766SOL    HW121197   1.914   2.607   6.166
 6766SOL    HW221198   1.843   2.526   6.043
 6767SOL     OW21199   0.425   2.737   6.197
 6767SOL    HW121200   0.360   2.774   6.130
 6767SOL    HW221201   0.378   2.669   6.254
 6768SOL     OW21202   6.562   0.754   6.296
 6768SOL    HW121203   6.568   0.803   6.209
 6768SOL    HW221204   6.590   0.816   6.370
 6769SOL     OW21205   1.153   2.721   6.187
 6769SOL    HW121206   1.068   2.749   6.231
 6769SOL    HW221207   1.230   2.765   6.233
 6770SOL     OW21208   6.878   1.477   4.234
 6770SOL    HW121209   6.809   1.454   4.166
 6770SOL    HW221210   6.929   1.395   4.260
 6771SOL     OW21211   6.408   1.627   2.694
 6771SOL    HW121212   6.349   1.706   2.710
 6771SOL    HW221213   6.356   1.554   2.650
 6772SOL     OW21214   1.367   0.608   2.465
 6772SOL    HW121215   1.274   0.640   2.483
 6772SOL    HW221216   1.422   0.683   2.427
 6773SOL     OW21217   1.870   0.839   2.483
 6773SOL    HW121218   1.966   0.846   2.456
 6773SOL    HW221219   1.855   0.890   2.567
 6774SOL     OW21220   3.738   1.456   5.129
 6774SOL    HW121221   3.754   1.424   5.223
 6774SOL    HW221222   3.704   1.380   5.074
 6775SOL     OW21223   1.112   2.616   4.430
 6775SOL    HW121224   1.193   2.629   4.374
 6775SOL    HW221225   1.072   2.526   4.410
 6776SOL     OW21226   3.292   3.795   3.746
 6776SOL    HW121227   3.221   3.850   3.791
 6776SOL    HW221228   3.303   3.826   3.651
 6777SOL     OW21229   0.513   6.302   6.054
 6777SOL    HW121230   0.600   6.293   6.102
 6777SOL    HW221231   0.445   6.242   6.095
 6778SOL     OW21232   6.651   6.159   2.194
 6778SOL    HW121233   6.553   6.161   2.213
 6778SOL    HW221234   6.666   6.118   2.104
 6779SOL     OW21235   4.690   4.657   6.944
 6779SOL    HW121236   4.734   4.710   6.871
 6779SOL    HW221237   4.624   4.716   6.992
 6780SOL     OW21238   4.698   0.713   2.644
 6780SOL    HW121239   4.682   0.645   2.716
 6780SOL    HW221240   4.712   0.666   2.557
 6781SOL     OW21241   6.463   3.208   3.299
 6781SOL    HW121242   6.381   3.157   3.327
 6781SOL    HW221243   6.490   3.270   3.372
 6782SOL     OW21244   0.438   1.150   3.213
 6782SOL    HW121245   0.444   1.155   3.313
 6782SOL    HW221246   0.523   1.115   3.176
 6783SOL     OW21247   0.248   6.466   6.741
 6783SOL    HW121248   0.313   6.407   6.789
 6783SOL    HW221249   0.158   6.422   6.740
 6784SOL     OW21250   1.308   4.903   0.545
 6784SOL    HW121251   1.281   4.906   0.449
 6784SOL    HW221252   1.240   4.949   0.601
 6785SOL     OW21253   5.329   4.692   1.954
 6785SOL    HW121254   5.329   4.602   1.999
 6785SOL    HW221255   5.339   4.680   1.856
 6786SOL     OW21256   6.562   2.097   5.368
 6786SOL    HW121257   6.604   2.101   5.278
 6786SOL    HW221258   6.619   2.042   5.430
 6787SOL     OW21259   4.045   2.090   1.154
 6787SOL    HW121260   4.079   2.063   1.245
 6787SOL    HW221261   3.952   2.055   1.143
 6788SOL     OW21262   1.336   4.471   1.103
 6788SOL    HW121263   1.246   4.493   1.066
 6788SOL    HW221264   1.354   4.373   1.090
 6789SOL     OW21265   5.277   3.598   2.488
 6789SOL    HW121266   5.309   3.563   2.400
 6789SOL    HW221267   5.282   3.698   2.488
 6790SOL     OW21268   0.194   5.747   0.986
 6790SOL    HW121269   0.275   5.700   0.950
 6790SOL    HW221270   0.112   5.698   0.956
 6791SOL     OW21271   2.653   6.441   3.369
 6791SOL    HW121272   2.711   6.452   3.449
 6791SOL    HW221273   2.562   6.410   3.398
 6792SOL     OW21274   3.264   6.011   6.836
 6792SOL    HW121275   3.324   5.975   6.908
 6792SOL    HW221276   3.187   6.060   6.877
 6793SOL     OW21277   2.396   4.423   6.496
 6793SOL    HW121278   2.387   4.324   6.485
 6793SOL    HW221279   2.313   4.467   6.462
 6794SOL     OW21280   4.844   2.539   4.630
 6794SOL    HW121281   4.746   2.543   4.613
 6794SOL    HW221282   4.886   2.626   4.605
 6795SOL     OW21283   0.750   1.218   2.074
 6795SOL    HW121284   0.652   1.238   2.080
 6795SOL    HW221285   0.764   1.137   2.016
 6796SOL     OW21286   6.758   2.853   2.595
 6796SOL    HW121287   6.758   2.842   2.694
 6796SOL    HW221288   6.686   2.797   2.555
 6797SOL     OW21289   1.829   3.947   1.255
 6797SOL    HW121290   1.780   4.012   1.312
 6797SOL    HW221291   1.791   3.948   1.163
 6798SOL     OW21292   4.683   1.068   1.903
 6798SOL    HW121293   4.584   1.062   1.893
 6798SOL    HW221294   4.721   1.126   1.832
 6799SOL     OW21295   5.851   6.821   2.824
 6799SOL    HW121296   5.843   6.913   2.787
 6799SOL    HW221297   5.761   6.789   2.855
 6800SOL     OW21298   6.761   2.818   2.849
 6800SOL    HW121299   6.667   2.789   2.870
 6800SOL    HW221300   6.820   2.738   2.842
 6801SOL     OW21301   1.796   5.191   4.882
 6801SOL    HW121302   1.723   5.146   4.829
 6801SOL    HW221303   1.756   5.231   4.964
 6802SOL     OW21304   2.824   4.442   1.583
 6802SOL    HW121305   2.810   4.344   1.597
 6802SOL    HW221306   2.847   4.486   1.671
 6803SOL     OW21307   5.978   5.058   6.631
 6803SOL    HW121308   6.075   5.075   6.615
 6803SOL    HW221309   5.930   5.047   6.544
 6804SOL     OW21310   3.139   5.169   1.940
 6804SOL    HW121311   3.200   5.235   1.985
 6804SOL    HW221312   3.109   5.101   2.007
 6805SOL     OW21313   0.793   4.919   3.834
 6805SOL    HW121314   0.708   4.911   3.782
 6805SOL    HW221315   0.807   5.014   3.860
 6806SOL     OW21316   5.792   3.574   2.513
 6806SOL    HW121317   5.705   3.589   2.466
 6806SOL    HW221318   5.833   3.489   2.479
 6807SOL     OW21319   3.385   3.270   2.561
 6807SOL    HW121320   3.485   3.263   2.561
 6807SOL    HW221321   3.357   3.342   2.497
 6808SOL     OW21322   3.772   6.560   3.192
 6808SOL    HW121323   3.865   6.597   3.188
 6808SOL    HW221324   3.748   6.521   3.103
 6809SOL     OW21325   5.376   2.494   0.535
 6809SOL    HW121326   5.457   2.447   0.571
 6809SOL    HW221327   5.386   2.505   0.436
 6810SOL     OW21328   2.412   6.675   4.549
 6810SOL    HW121329   2.380   6.752   4.605
 6810SOL    HW221330   2.348   6.660   4.473
 6811SOL     OW21331   6.344   1.745   1.366
 6811SOL    HW121332   6.329   1.646   1.371
 6811SOL    HW221333   6.394   1.776   1.447
 6812SOL     OW21334   3.558   4.526   5.360
 6812SOL    HW121335   3.597   4.511   5.451
 6812SOL    HW221336   3.465   4.562   5.369
 6813SOL     OW21337   0.152   3.538   1.746
 6813SOL    HW121338   0.216   3.612   1.766
 6813SOL    HW221339   0.141   3.480   1.827
 6814SOL     OW21340   4.691   2.167   1.865
 6814SOL    HW121341   4.594   2.186   1.848
 6814SOL    HW221342   4.720   2.216   1.947
 6815SOL     OW21343   0.802   6.027   0.129
 6815SOL    HW121344   0.845   6.110   0.164
 6815SOL    HW221345   0.770   5.971   0.205
 6816SOL     OW21346   6.216   6.415   4.275
 6816SOL    HW121347   6.131   6.463   4.253
 6816SOL    HW221348   6.194   6.330   4.324
 6817SOL     OW21349   5.564   0.714   2.136
 6817SOL    HW121350   5.518   0.682   2.053
 6817SOL    HW221351   5.604   0.804   2.119
 6818SOL     OW21352   0.079   0.069   5.520
 6818SOL    HW121353   0.100   0.037   5.613
 6818SOL    HW221354   0.162   0.104   5.477
 6819SOL     OW21355   5.507   4.021   0.780
 6819SOL    HW121356   5.492   3.923   0.796
 6819SOL    HW221357   5.570   4.033   0.704
 6820SOL     OW21358   2.282   3.548   1.232
 6820SOL    HW121359   2.262   3.523   1.327
 6820SOL    HW221360   2.196   3.573   1.186
 6821SOL     OW21361   2.852   3.115   5.978
 6821SOL    HW121362   2.793   3.086   6.053
 6821SOL    HW221363   2.882   3.035   5.926
 6822SOL     OW21364   6.591   4.087   5.034
 6822SOL    HW121365   6.551   4.013   4.979
 6822SOL    HW221366   6.633   4.154   4.973
 6823SOL     OW21367   6.419   3.272   5.882
 6823SOL    HW121368   6.338   3.322   5.854
 6823SOL    HW221369   6.452   3.217   5.804
 6824SOL     OW21370   0.674   0.662   3.718
 6824SOL    HW121371   0.685   0.761   3.705
 6824SOL    HW221372   0.625   0.645   3.803
 6825SOL     OW21373   4.576   4.310   1.305
 6825SOL    HW121374   4.581   4.221   1.351
 6825SOL    HW221375   4.481   4.329   1.279
 6826SOL     OW21376   5.817   1.189   3.286
 6826SOL    HW121377   5.727   1.222   3.316
 6826SOL    HW221378   5.856   1.129   3.356
 6827SOL     OW21379   5.061   5.648   5.798
 6827SOL    HW121380   5.021   5.568   5.753
 6827SOL    HW221381   5.130   5.689   5.738
 6828SOL     OW21382   2.642   2.433   2.537
 6828SOL    HW121383   2.713   2.379   2.492
 6828SOL    HW221384   2.599   2.494   2.470
 6829SOL     OW21385   5.525   6.421   4.021
 6829SOL    HW121386   5.600   6.411   4.087
 6829SOL    HW221387   5.477   6.334   4.012
 6830SOL     OW21388   4.262   6.345   2.198
 6830SOL    HW121389   4.299   6.438   2.206
 6830SOL    HW221390   4.162   6.349   2.194
 6831SOL     OW21391   1.774   1.100   6.662
 6831SOL    HW121392   1.846   1.154   6.705
 6831SOL    HW221393   1.684   1.136   6.688
 6832SOL     OW21394   2.894   3.462   6.972
 6832SOL    HW121395   2.841   3.518   6.908
 6832SOL    HW221396   2.832   3.404   0.001
 6833SOL     OW21397   4.654   5.240   6.616
 6833SOL    HW121398   4.632   5.332   6.582
 6833SOL    HW221399   4.729   5.202   6.563
 6834SOL     OW21400   5.668   5.811   5.298
 6834SOL    HW121401   5.711   5.812   5.208
 6834SOL    HW221402   5.739   5.802   5.368
 6835SOL     OW21403   3.741   0.043   3.140
 6835SOL    HW121404   3.658   0.074   3.187
 6835SOL    HW221405   3.821   0.082   3.186
 6836SOL     OW21406   0.652   4.812   0.002
 6836SOL    HW121407   0.652   4.862   6.939
 6836SOL    HW221408   0.569   4.832   0.052
 6837SOL     OW21409   6.388   1.925   1.869
 6837SOL    HW121410   6.354   1.846   1.818
 6837SOL    HW221411   6.312   1.967   1.920
 6838SOL     OW21412   2.844   4.333   6.322
 6838SOL    HW121413   2.851   4.427   6.287
 6838SOL    HW221414   2.858   4.334   6.421
 6839SOL     OW21415   5.792   2.408   5.532
 6839SOL    HW121416   5.749   2.410   5.622
 6839SOL    HW221417   5.724   2.381   5.463
 6840SOL     OW21418   3.440   6.885   4.819
 6840SOL    HW121419   3.466   6.979   4.795
 6840SOL    HW221420   3.486   6.821   4.758
 6841SOL     OW21421   4.251   6.483   0.542
 6841SOL    HW121422   4.323   6.510   0.479
 6841SOL    HW221423   4.223   6.561   0.597
 6842SOL     OW21424   1.250   3.238   3.743
 6842SOL    HW121425   1.288   3.298   3.672
 6842SOL    HW221426   1.229   3.292   3.825
 6843SOL     OW21427   4.875   2.949   1.752
 6843SOL    HW121428   4.836   2.975   1.840
 6843SOL    HW221429   4.809   2.970   1.679
 6844SOL     OW21430   3.148   6.858   4.929
 6844SOL    HW121431   3.171   6.953   4.906
 6844SOL    HW221432   3.216   6.796   4.890
 6845SOL     OW21433   3.817   3.873   0.055
 6845SOL    HW121434   3.851   3.857   6.987
 6845SOL    HW221435   3.876   3.828   0.122
 6846SOL     OW21436   4.060   3.304   3.704
 6846SOL    HW121437   4.024   3.218   3.741
 6846SOL    HW221438   4.091   3.362   3.780
 6847SOL     OW21439   5.426   2.703   2.495
 6847SOL    HW121440   5.376   2.735   2.576
 6847SOL    HW221441   5.469   2.781   2.450
 6848SOL     OW21442   0.604   6.045   5.115
 6848SOL    HW121443   0.586   5.976   5.185
 6848SOL    HW221444   0.687   6.095   5.139
 6849SOL     OW21445   3.337   0.545   4.935
 6849SOL    HW121446   3.292   0.615   4.990
 6849SOL    HW221447   3.372   0.473   4.994
 6850SOL     OW21448   6.444   3.576   1.835
 6850SOL    HW121449   6.358   3.550   1.792
 6850SOL    HW221450   6.518   3.520   1.797
 6851SOL     OW21451   1.513   5.862   6.474
 6851SOL    HW121452   1.552   5.938   6.526
 6851SOL    HW221453   1.437   5.822   6.524
 6852SOL     OW21454   6.095   4.875   2.232
 6852SOL    HW121455   6.156   4.827   2.169
 6852SOL    HW221456   6.146   4.902   2.313
 6853SOL     OW21457   6.247   4.285   4.603
 6853SOL    HW121458   6.174   4.291   4.670
 6853SOL    HW221459   6.247   4.194   4.561
 6854SOL     OW21460   6.643   1.568   6.994
 6854SOL    HW121461   6.727   1.618   7.015
 6854SOL    HW221462   6.652   1.473   0.001
 6855SOL     OW21463   3.240   6.970   1.965
 6855SOL    HW121464   3.225   6.948   2.061
 6855SOL    HW221465   3.337   6.965   1.944
 6856SOL     OW21466   0.613   6.056   5.852
 6856SOL    HW121467   0.613   6.156   5.852
 6856SOL    HW221468   0.605   6.022   5.945
 6857SOL     OW21469   4.766   0.837   0.069
 6857SOL    HW121470   4.827   0.882   0.004
 6857SOL    HW221471   4.671   0.847   0.038
 6858SOL     OW21472   3.637   3.013   6.708
 6858SOL    HW121473   3.648   2.982   6.613
 6858SOL    HW221474   3.549   2.980   6.744
 6859SOL     OW21475   3.908   0.937   0.416
 6859SOL    HW121476   3.978   1.003   0.389
 6859SOL    HW221477   3.941   0.844   0.397
 6860SOL     OW21478   4.917   3.404   6.945
 6860SOL    HW121479   4.823   3.411   6.912
 6860SOL    HW221480   4.923   3.446   0.012
 6861SOL     OW21481   5.882   3.708   0.808
 6861SOL    HW121482   5.809   3.748   0.754
 6861SOL    HW221483   5.932   3.641   0.752
 6862SOL     OW21484   2.519   5.009   4.415
 6862SOL    HW121485   2.609   5.052   4.418
 6862SOL    HW221486   2.457   5.064   4.359
 6863SOL     OW21487   1.202   3.494   3.891
 6863SOL    HW121488   1.215   3.549   3.808
 6863SOL    HW221489   1.254   3.534   3.966
 6864SOL     OW21490   4.040   5.467   6.299
 6864SOL    HW121491   4.128   5.426   6.277
 6864SOL    HW221492   4.034   5.484   6.397
 6865SOL     OW21493   0.175   2.866   4.556
 6865SOL    HW121494   0.204   2.892   4.648
 6865SOL    HW221495   0.075   2.863   4.552
 6866SOL     OW21496   0.870   3.681   2.624
 6866SOL    HW121497   0.907   3.706   2.535
 6866SOL    HW221498   0.792   3.739   2.645
 6867SOL     OW21499   1.856   5.491   3.350
 6867SOL    HW121500   1.758   5.474   3.357
 6867SOL    HW221501   1.891   5.451   3.265
 6868SOL     OW21502   1.959   5.352   4.675
 6868SOL    HW121503   1.940   5.314   4.765
 6868SOL    HW221504   1.973   5.451   4.682
 6869SOL     OW21505   0.308   3.132   4.875
 6869SOL    HW121506   0.249   3.200   4.919
 6869SOL    HW221507   0.387   3.113   4.934
 6870SOL     OW21508   6.166   3.407   3.034
 6870SOL    HW121509   6.118   3.368   2.955
 6870SOL    HW221510   6.239   3.345   3.062
 6871SOL     OW21511   5.044   5.770   1.551
 6871SOL    HW121512   5.026   5.867   1.567
 6871SOL    HW221513   5.019   5.717   1.632
 6872SOL     OW21514   2.961   4.200   0.538
 6872SOL    HW121515   2.995   4.239   0.452
 6872SOL    HW221516   2.900   4.266   0.582
 6873SOL     OW21517   5.759   4.709   4.383
 6873SOL    HW121518   5.718   4.741   4.469
 6873SOL    HW221519   5.822   4.634   4.403
 6874SOL     OW21520   0.731   1.865   5.842
 6874SOL    HW121521   0.829   1.846   5.844
 6874SOL    HW221522   0.680   1.779   5.854
 6875SOL     OW21523   4.092   0.696   4.534
 6875SOL    HW121524   4.069   0.616   4.589
 6875SOL    HW221525   4.008   0.741   4.503
 6876SOL     OW21526   3.489   5.647   4.672
 6876SOL    HW121527   3.540   5.573   4.716
 6876SOL    HW221528   3.507   5.733   4.720
 6877SOL     OW21529   1.506   3.797   6.108
 6877SOL    HW121530   1.558   3.870   6.153
 6877SOL    HW221531   1.490   3.723   6.172
 6878SOL     OW21532   0.865   1.321   4.380
 6878SOL    HW121533   0.897   1.410   4.414
 6878SOL    HW221534   0.882   1.314   4.282
 6879SOL     OW21535   6.805   1.288   5.242
 6879SOL    HW121536   6.725   1.312   5.187
 6879SOL    HW221537   6.778   1.275   5.337
 6880SOL     OW21538   1.277   4.188   4.460
 6880SOL    HW121539   1.317   4.121   4.522
 6880SOL    HW221540   1.348   4.253   4.432
 6881SOL     OW21541   5.317   5.702   1.448
 6881SOL    HW121542   5.330   5.722   1.545
 6881SOL    HW221543   5.268   5.615   1.438
 6882SOL     OW21544   2.507   6.137   5.686
 6882SOL    HW121545   2.532   6.209   5.751
 6882SOL    HW221546   2.583   6.124   5.621
 6883SOL     OW21547   3.171   5.987   1.970
 6883SOL    HW121548   3.151   6.085   1.965
 6883SOL    HW221549   3.177   5.949   1.878
 6884SOL     OW21550   1.759   5.133   2.356
 6884SOL    HW121551   1.696   5.156   2.283
 6884SOL    HW221552   1.738   5.188   2.437
 6885SOL     OW21553   4.237   4.833   5.088
 6885SOL    HW121554   4.144   4.857   5.116
 6885SOL    HW221555   4.250   4.734   5.097
 6886SOL     OW21556   5.232   1.107   1.584
 6886SOL    HW121557   5.198   1.093   1.677
 6886SOL    HW221558   5.172   1.059   1.520
 6887SOL     OW21559   6.196   0.847   4.957
 6887SOL    HW121560   6.146   0.932   4.939
 6887SOL    HW221561   6.193   0.789   4.877
 6888SOL     OW21562   5.886   0.185   4.158
 6888SOL    HW121563   5.811   0.178   4.224
 6888SOL    HW221564   5.854   0.231   4.075
 6889SOL     OW21565   2.046   4.749   6.216
 6889SOL    HW121566   2.046   4.679   6.144
 6889SOL    HW221567   1.970   4.732   6.278
 6890SOL     OW21568   2.192   0.673   1.160
 6890SOL    HW121569   2.112   0.619   1.187
 6890SOL    HW221570   2.236   0.629   1.082
 6891SOL     OW21571   4.305   5.626   5.351
 6891SOL    HW121572   4.269   5.540   5.386
 6891SOL    HW221573   4.405   5.621   5.348
 6892SOL     OW21574   3.188   1.743   4.780
 6892SOL    HW121575   3.160   1.647   4.775
 6892SOL    HW221576   3.192   1.771   4.876
 6893SOL     OW21577   5.446   0.802   1.257
 6893SOL    HW121578   5.514   0.734   1.283
 6893SOL    HW221579   5.364   0.791   1.313
 6894SOL     OW21580   5.877   4.431   6.388
 6894SOL    HW121581   5.869   4.352   6.326
 6894SOL    HW221582   5.967   4.431   6.430
 6895SOL     OW21583   4.144   5.392   5.806
 6895SOL    HW121584   4.047   5.370   5.817
 6895SOL    HW221585   4.156   5.457   5.731
 6896SOL     OW21586   4.360   1.495   2.798
 6896SOL    HW121587   4.348   1.593   2.782
 6896SOL    HW221588   4.393   1.481   2.891
 6897SOL     OW21589   3.647   0.780   0.985
 6897SOL    HW121590   3.683   0.866   0.947
 6897SOL    HW221591   3.722   0.715   0.995
 6898SOL     OW21592   4.092   1.168   2.641
 6898SOL    HW121593   4.047   1.133   2.558
 6898SOL    HW221594   4.190   1.172   2.626
 6899SOL     OW21595   5.586   6.281   6.211
 6899SOL    HW121596   5.665   6.340   6.195
 6899SOL    HW221597   5.597   6.234   6.298
 6900SOL     OW21598   4.654   0.855   6.828
 6900SOL    HW121599   4.584   0.859   6.757
 6900SOL    HW221600   4.708   0.939   6.826
 6901SOL     OW21601   1.700   0.764   6.998
 6901SOL    HW121602   1.782   0.762   0.031
 6901SOL    HW221603   1.666   0.858   6.992
 6902SOL     OW21604   6.423   5.663   2.565
 6902SOL    HW121605   6.473   5.625   2.643
 6902SOL    HW221606   6.487   5.711   2.505
 6903SOL     OW21607   4.450   4.306   0.450
 6903SOL    HW121608   4.386   4.230   0.442
 6903SOL    HW221609   4.541   4.276   0.420
 6904SOL     OW21610   0.693   0.856   2.880
 6904SOL    HW121611   0.757   0.879   2.807
 6904SOL    HW221612   0.726   0.775   2.929
 6905SOL     OW21613   3.696   5.717   1.010
 6905SOL    HW121614   3.642   5.694   1.092
 6905SOL    HW221615   3.684   5.645   0.942
 6906SOL     OW21616   6.023   6.401   3.161
 6906SOL    HW121617   6.062   6.483   3.205
 6906SOL    HW221618   6.078   6.321   3.185
 6907SOL     OW21619   3.260   0.510   1.246
 6907SOL    HW121620   3.230   0.596   1.204
 6907SOL    HW221621   3.350   0.524   1.288
 6908SOL     OW21622   5.460   6.724   6.846
 6908SOL    HW121623   5.475   6.785   6.924
 6908SOL    HW221624   5.377   6.670   6.861
 6909SOL     OW21625   2.533   2.371   6.940
 6909SOL    HW121626   2.464   2.340   6.874
 6909SOL    HW221627   2.511   2.334   0.006
 6910SOL     OW21628   5.399   1.319   1.248
 6910SOL    HW121629   5.338   1.308   1.169
 6910SOL    HW221630   5.474   1.380   1.223
 6911SOL     OW21631   4.527   0.784   5.123
 6911SOL    HW121632   4.479   0.849   5.064
 6911SOL    HW221633   4.463   0.711   5.151
 6912SOL     OW21634   4.448   4.562   2.128
 6912SOL    HW121635   4.489   4.639   2.079
 6912SOL    HW221636   4.478   4.476   2.087
 6913SOL     OW21637   4.580   5.655   5.476
 6913SOL    HW121638   4.515   5.613   5.539
 6913SOL    HW221639   4.643   5.585   5.442
 6914SOL     OW21640   6.390   4.961   7.023
 6914SOL    HW121641   6.384   4.889   0.069
 6914SOL    HW221642   6.411   5.048   0.043
 6915SOL     OW21643   0.296   6.119   0.900
 6915SOL    HW121644   0.384   6.081   0.872
 6915SOL    HW221645   0.227   6.047   0.902
 6916SOL     OW21646   6.222   0.622   6.018
 6916SOL    HW121647   6.145   0.679   5.989
 6916SOL    HW221648   6.266   0.582   5.938
 6917SOL     OW21649   4.742   0.221   6.046
 6917SOL    HW121650   4.688   0.241   6.128
 6917SOL    HW221651   4.707   0.138   6.002
 6918SOL     OW21652   2.290   2.877   3.986
 6918SOL    HW121653   2.198   2.849   3.959
 6918SOL    HW221654   2.357   2.830   3.929
 6919SOL     OW21655   1.507   6.301   3.327
 6919SOL    HW121656   1.489   6.397   3.305
 6919SOL    HW221657   1.540   6.293   3.421
 6920SOL     OW21658   5.523   5.876   4.630
 6920SOL    HW121659   5.444   5.923   4.670
 6920SOL    HW221660   5.493   5.794   4.582
 6921SOL     OW21661   1.036   5.949   3.632
 6921SOL    HW121662   1.100   5.873   3.627
 6921SOL    HW221663   0.996   5.966   3.542
 6922SOL     OW21664   1.941   6.947   0.691
 6922SOL    HW121665   1.880   7.023   0.668
 6922SOL    HW221666   1.888   6.863   0.699
 6923SOL     OW21667   4.883   5.905   3.919
 6923SOL    HW121668   4.805   5.909   3.981
 6923SOL    HW221669   4.854   5.932   3.827
 6924SOL     OW21670   6.251   5.815   2.162
 6924SOL    HW121671   6.338   5.826   2.114
 6924SOL    HW221672   6.175   5.818   2.097
 6925SOL     OW21673   5.354   5.498   2.622
 6925SOL    HW121674   5.365   5.415   2.566
 6925SOL    HW221675   5.357   5.473   2.719
 6926SOL     OW21676   2.809   4.196   5.306
 6926SOL    HW121677   2.716   4.210   5.340
 6926SOL    HW221678   2.867   4.272   5.337
 6927SOL     OW21679   4.164   3.517   0.997
 6927SOL    HW121680   4.136   3.613   0.988
 6927SOL    HW221681   4.147   3.486   1.090
 6928SOL     OW21682   0.076   0.834   6.671
 6928SOL    HW121683   0.175   0.828   6.654
 6928SOL    HW221684   0.044   0.926   6.645
 6929SOL     OW21685   2.838   5.261   1.531
 6929SOL    HW121686   2.827   5.204   1.613
 6929SOL    HW221687   2.881   5.207   1.459
 6930SOL     OW21688   0.412   0.380   3.224
 6930SOL    HW121689   0.497   0.397   3.273
 6930SOL    HW221690   0.344   0.344   3.288
 6931SOL     OW21691   2.237   6.925   6.917
 6931SOL    HW121692   2.260   6.873   6.999
 6931SOL    HW221693   2.319   6.939   6.862
 6932SOL     OW21694   2.336   2.346   0.591
 6932SOL    HW121695   2.423   2.325   0.636
 6932SOL    HW221696   2.318   2.444   0.598
 6933SOL     OW21697   2.355   5.693   5.483
 6933SOL    HW121698   2.379   5.597   5.469
 6933SOL    HW221699   2.300   5.702   5.566
 6934SOL     OW21700   5.579   5.074   6.687
 6934SOL    HW121701   5.664   5.030   6.719
 6934SOL    HW221702   5.561   5.155   6.742
 6935SOL     OW21703   4.518   5.625   3.146
 6935SOL    HW121704   4.506   5.530   3.120
 6935SOL    HW221705   4.566   5.674   3.073
 6936SOL     OW21706   0.692   4.630   0.596
 6936SOL    HW121707   0.767   4.660   0.655
 6936SOL    HW221708   0.685   4.530   0.600
 6937SOL     OW21709   4.528   6.283   5.656
 6937SOL    HW121710   4.613   6.234   5.639
 6937SOL    HW221711   4.547   6.364   5.712
 6938SOL     OW21712   5.732   2.335   4.975
 6938SOL    HW121713   5.796   2.382   4.914
 6938SOL    HW221714   5.776   2.253   5.012
 6939SOL     OW21715   6.718   4.819   2.064
 6939SOL    HW121716   6.688   4.728   2.091
 6939SOL    HW221717   6.775   4.813   1.982
 6940SOL     OW21718   4.313   0.493   4.637
 6940SOL    HW121719   4.315   0.532   4.545
 6940SOL    HW221720   4.288   0.397   4.632
 6941SOL     OW21721   4.073   3.262   4.764
 6941SOL    HW121722   4.008   3.186   4.760
 6941SOL    HW221723   4.166   3.227   4.747
 6942SOL     OW21724   6.086   1.889   6.997
 6942SOL    HW121725   6.099   1.892   6.898
 6942SOL    HW221726   6.002   1.841   7.018
 6943SOL     OW21727   5.876   5.645   6.699
 6943SOL    HW121728   5.901   5.721   6.759
 6943SOL    HW221729   5.777   5.634   6.699
 6944SOL     OW21730   1.178   6.356   0.360
 6944SOL    HW121731   1.248   6.365   0.289
 6944SOL    HW221732   1.203   6.283   0.423
 6945SOL     OW21733   4.801   2.123   5.995
 6945SOL    HW121734   4.768   2.187   6.065
 6945SOL    HW221735   4.809   2.032   6.035
 6946SOL     OW21736   5.897   3.629   3.618
 6946SOL    HW121737   5.987   3.656   3.584
 6946SOL    HW221738   5.838   3.710   3.624
 6947SOL     OW21739   3.997   6.936   1.403
 6947SOL    HW121740   3.927   7.002   1.428
 6947SOL    HW221741   4.007   6.868   1.476
 6948SOL     OW21742   3.914   2.481   5.394
 6948SOL    HW121743   3.935   2.553   5.459
 6948SOL    HW221744   3.997   2.429   5.372
 6949SOL     OW21745   4.927   0.973   2.353
 6949SOL    HW121746   4.878   0.974   2.440
 6949SOL    HW221747   4.875   0.920   2.286
 6950SOL     OW21748   3.239   1.497   3.570
 6950SOL    HW121749   3.298   1.495   3.490
 6950SOL    HW221750   3.243   1.587   3.612
 6951SOL     OW21751   4.985   4.895   5.352
 6951SOL    HW121752   4.904   4.944   5.385
 6951SOL    HW221753   4.957   4.823   5.289
 6952SOL     OW21754   0.065   4.327   5.155
 6952SOL    HW121755   0.091   4.315   5.251
 6952SOL    HW221756   0.140   4.371   5.106
 6953SOL     OW21757   5.393   2.563   5.248
 6953SOL    HW121758   5.376   2.471   5.286
 6953SOL    HW221759   5.361   2.567   5.154
 6954SOL     OW21760   0.190   4.449   1.682
 6954SOL    HW121761   0.264   4.511   1.709
 6954SOL    HW221762   0.159   4.472   1.590
 6955SOL     OW21763   6.611   0.229   2.904
 6955SOL    HW121764   6.567   0.146   2.868
 6955SOL    HW221765   6.710   0.215   2.907
 6956SOL     OW21766   2.475   4.090   1.055
 6956SOL    HW121767   2.379   4.118   1.064
 6956SOL    HW221768   2.533   4.171   1.047
 6957SOL     OW21769   1.164   4.353   6.894
 6957SOL    HW121770   1.146   4.258   6.917
 6957SOL    HW221771   1.259   4.362   6.861
 6958SOL     OW21772   2.519   3.688   5.922
 6958SOL    HW121773   2.453   3.754   5.885
 6958SOL    HW221774   2.599   3.737   5.956
 6959SOL     OW21775   3.819   1.238   4.242
 6959SOL    HW121776   3.767   1.279   4.167
 6959SOL    HW221777   3.810   1.295   4.324
 6960SOL     OW21778   0.331   5.133   6.925
 6960SOL    HW121779   0.352   5.217   6.975
 6960SOL    HW221780   0.349   5.054   6.983
 6961SOL     OW21781   6.397   1.648   3.061
 6961SOL    HW121782   6.441   1.698   2.987
 6961SOL    HW221783   6.352   1.566   3.025
 6962SOL     OW21784   3.631   3.603   1.218
 6962SOL    HW121785   3.625   3.551   1.133
 6962SOL    HW221786   3.705   3.566   1.274
 6963SOL     OW21787   6.310   6.302   2.387
 6963SOL    HW121788   6.280   6.381   2.332
 6963SOL    HW221789   6.262   6.304   2.475
 6964SOL     OW21790   3.135   5.896   5.490
 6964SOL    HW121791   3.090   5.880   5.402
 6964SOL    HW221792   3.188   5.981   5.485
 6965SOL     OW21793   6.439   1.550   5.463
 6965SOL    HW121794   6.429   1.640   5.505
 6965SOL    HW221795   6.415   1.479   5.530
 6966SOL     OW21796   5.067   2.399   3.774
 6966SOL    HW121797   5.034   2.442   3.859
 6966SOL    HW221798   5.118   2.466   3.721
 6967SOL     OW21799   2.439   2.659   5.854
 6967SOL    HW121800   2.342   2.682   5.851
 6967SOL    HW221801   2.465   2.615   5.768
 6968SOL     OW21802   4.408   0.111   4.376
 6968SOL    HW121803   4.461   0.185   4.417
 6968SOL    HW221804   4.408   0.120   4.277
 6969SOL     OW21805   2.936   2.866   0.695
 6969SOL    HW121806   3.025   2.842   0.733
 6969SOL    HW221807   2.949   2.920   0.612
 6970SOL     OW21808   4.423   4.240   0.858
 6970SOL    HW121809   4.489   4.270   0.927
 6970SOL    HW221810   4.388   4.320   0.809
 6971SOL     OW21811   6.431   1.060   1.962
 6971SOL    HW121812   6.404   1.121   2.037
 6971SOL    HW221813   6.408   0.966   1.985
 6972SOL     OW21814   5.548   5.025   4.412
 6972SOL    HW121815   5.487   5.101   4.385
 6972SOL    HW221816   5.524   4.944   4.359
 6973SOL     OW21817   1.469   4.085   3.070
 6973SOL    HW121818   1.552   4.121   3.113
 6973SOL    HW221819   1.456   4.127   2.981
 6974SOL     OW21820   3.434   3.913   5.147
 6974SOL    HW121821   3.466   3.991   5.200
 6974SOL    HW221822   3.352   3.875   5.190
 6975SOL     OW21823   3.105   6.897   6.414
 6975SOL    HW121824   3.086   6.812   6.463
 6975SOL    HW221825   3.019   6.944   6.394
 6976SOL     OW21826   0.981   6.474   0.884
 6976SOL    HW121827   0.918   6.544   0.850
 6976SOL    HW221828   1.003   6.493   0.979
 6977SOL     OW21829   4.782   2.848   2.182
 6977SOL    HW121830   4.759   2.917   2.114
 6977SOL    HW221831   4.763   2.884   2.274
 6978SOL     OW21832   4.437   1.778   3.162
 6978SOL    HW121833   4.354   1.723   3.159
 6978SOL    HW221834   4.422   1.864   3.111
 6979SOL     OW21835   0.781   4.094   3.449
 6979SOL    HW121836   0.821   4.012   3.408
 6979SOL    HW221837   0.768   4.164   3.379
 6980SOL     OW21838   4.316   1.108   4.712
 6980SOL    HW121839   4.272   1.019   4.700
 6980SOL    HW221840   4.403   1.096   4.759
 6981SOL     OW21841   2.724   3.875   0.291
 6981SOL    HW121842   2.788   3.803   0.264
 6981SOL    HW221843   2.653   3.836   0.349
 6982SOL     OW21844   0.569   6.999   5.509
 6982SOL    HW121845   0.585   0.042   5.436
 6982SOL    HW221846   0.499   0.011   5.572
 6983SOL     OW21847   6.701   0.880   2.753
 6983SOL    HW121848   6.613   0.872   2.705
 6983SOL    HW221849   6.730   0.975   2.754
 6984SOL     OW21850   1.658   1.468   5.631
 6984SOL    HW121851   1.682   1.379   5.670
 6984SOL    HW221852   1.684   1.540   5.694
 6985SOL     OW21853   4.879   6.968   3.918
 6985SOL    HW121854   4.779   6.978   3.918
 6985SOL    HW221855   4.907   6.909   3.842
 6986SOL     OW21856   1.707   6.892   4.718
 6986SOL    HW121857   1.651   6.898   4.635
 6986SOL    HW221858   1.791   6.841   4.697
 6987SOL     OW21859   6.823   3.307   6.645
 6987SOL    HW121860   6.808   3.362   6.563
 6987SOL    HW221861   6.819   3.366   6.726
 6988SOL     OW21862   5.493   1.531   6.037
 6988SOL    HW121863   5.486   1.457   5.969
 6988SOL    HW221864   5.567   1.510   6.101
 6989SOL     OW21865   2.189   3.078   3.546
 6989SOL    HW121866   2.101   3.079   3.499
 6989SOL    HW221867   2.176   3.099   3.642
 6990SOL     OW21868   3.987   3.082   0.948
 6990SOL    HW121869   4.044   3.162   0.932
 6990SOL    HW221870   3.976   3.068   1.047
 6991SOL     OW21871   4.055   4.582   5.321
 6991SOL    HW121872   4.015   4.532   5.397
 6991SOL    HW221873   4.094   4.517   5.255
 6992SOL     OW21874   6.214   6.865   4.674
 6992SOL    HW121875   6.114   6.859   4.681
 6992SOL    HW221876   6.247   6.936   4.736
 6993SOL     OW21877   0.186   6.956   3.618
 6993SOL    HW121878   0.231   7.009   3.690
 6993SOL    HW221879   0.130   7.017   3.562
 6994SOL     OW21880   1.647   2.611   0.217
 6994SOL    HW121881   1.596   2.694   0.195
 6994SOL    HW221882   1.605   2.565   0.295
 6995SOL     OW21883   0.904   5.257   4.090
 6995SOL    HW121884   0.962   5.337   4.080
 6995SOL    HW221885   0.960   5.177   4.112
 6996SOL     OW21886   1.938   0.077   6.332
 6996SOL    HW121887   1.849   0.035   6.314
 6996SOL    HW221888   1.974   0.116   6.247
 6997SOL     OW21889   4.730   5.613   4.264
 6997SOL    HW121890   4.787   5.695   4.272
 6997SOL    HW221891   4.730   5.582   4.169
 6998SOL     OW21892   2.872   1.801   3.497
 6998SOL    HW121893   2.783   1.810   3.451
 6998SOL    HW221894   2.858   1.799   3.596
 6999SOL     OW21895   5.314   2.037   0.036
 6999SOL    HW121896   5.363   1.965   0.085
 6999SOL    HW221897   5.253   1.994   6.992
 7000SOL     OW21898   6.544   0.256   1.307
 7000SOL    HW121899   6.493   0.247   1.392
 7000SOL    HW221900   6.589   0.346   1.304
 7001SOL     OW21901   2.801   1.846   6.404
 7001SOL    HW121902   2.726   1.863   6.340
 7001SOL    HW221903   2.863   1.924   6.405
 7002SOL     OW21904   2.104   4.570   2.278
 7002SOL    HW121905   2.070   4.482   2.245
 7002SOL    HW221906   2.060   4.644   2.225
 7003SOL     OW21907   1.469   6.281   5.754
 7003SOL    HW121908   1.452   6.277   5.852
 7003SOL    HW221909   1.381   6.284   5.705
 7004SOL     OW21910   1.562   3.911   6.911
 7004SOL    HW121911   1.615   3.909   6.826
 7004SOL    HW221912   1.523   4.002   6.923
 7005SOL     OW21913   6.506   6.680   5.946
 7005SOL    HW121914   6.453   6.690   5.862
 7005SOL    HW221915   6.600   6.654   5.924
 7006SOL     OW21916   4.427   4.775   3.947
 7006SOL    HW121917   4.427   4.680   3.979
 7006SOL    HW221918   4.392   4.778   3.853
 7007SOL     OW21919   4.758   5.014   2.766
 7007SOL    HW121920   4.788   5.109   2.764
 7007SOL    HW221921   4.677   5.006   2.824
 7008SOL     OW21922   1.072   5.053   4.179
 7008SOL    HW121923   1.030   4.970   4.216
 7008SOL    HW221924   1.162   5.066   4.220
 7009SOL     OW21925   6.976   4.118   2.115
 7009SOL    HW121926   6.907   4.138   2.184
 7009SOL    HW221927   6.968   4.022   2.087
 7010SOL     OW21928   5.090   4.637   6.547
 7010SOL    HW121929   5.008   4.663   6.496
 7010SOL    HW221930   5.075   4.548   6.591
 7011SOL     OW21931   1.018   0.937   5.482
 7011SOL    HW121932   1.049   0.880   5.557
 7011SOL    HW221933   0.919   0.946   5.484
 7012SOL     OW21934   1.352   1.237   1.675
 7012SOL    HW121935   1.401   1.203   1.755
 7012SOL    HW221936   1.401   1.209   1.592
 7013SOL     OW21937   6.667   1.850   1.918
 7013SOL    HW121938   6.725   1.876   1.840
 7013SOL    HW221939   6.577   1.892   1.907
 7014SOL     OW21940   2.169   5.280   0.469
 7014SOL    HW121941   2.264   5.249   0.476
 7014SOL    HW221942   2.164   5.377   0.492
 7015SOL     OW21943   4.750   1.906   2.593
 7015SOL    HW121944   4.812   1.980   2.566
 7015SOL    HW221945   4.720   1.856   2.512
 7016SOL     OW21946   4.273   4.300   1.497
 7016SOL    HW121947   4.350   4.258   1.545
 7016SOL    HW221948   4.212   4.342   1.564
 7017SOL     OW21949   4.943   1.755   5.178
 7017SOL    HW121950   5.005   1.821   5.135
 7017SOL    HW221951   4.975   1.662   5.160
 7018SOL     OW21952   0.831   3.188   3.141
 7018SOL    HW121953   0.737   3.201   3.109
 7018SOL    HW221954   0.829   3.147   3.232
 7019SOL     OW21955   1.077   5.812   1.184
 7019SOL    HW121956   0.985   5.787   1.153
 7019SOL    HW221957   1.070   5.877   1.260
 7020SOL     OW21958   6.999   6.328   6.726
 7020SOL    HW121959   7.003   6.312   6.627
 7020SOL    HW221960   6.905   6.316   6.758
 7021SOL     OW21961   3.764   0.065   6.130
 7021SOL    HW121962   3.819   0.058   6.047
 7021SOL    HW221963   3.721   7.000   6.148
 7022SOL     OW21964   4.337   5.444   6.043
 7022SOL    HW121965   4.377   5.352   6.048
 7022SOL    HW221966   4.257   5.442   5.982
 7023SOL     OW21967   5.178   4.042   2.339
 7023SOL    HW121968   5.110   4.098   2.293
 7023SOL    HW221969   5.177   3.950   2.302
 7024SOL     OW21970   6.291   6.301   1.169
 7024SOL    HW121971   6.353   6.331   1.096
 7024SOL    HW221972   6.200   6.286   1.131
 7025SOL     OW21973   2.420   0.765   0.145
 7025SOL    HW121974   2.349   0.710   0.101
 7025SOL    HW221975   2.510   0.728   0.124
 7026SOL     OW21976   3.747   1.683   1.609
 7026SOL    HW121977   3.767   1.728   1.696
 7026SOL    HW221978   3.668   1.623   1.619
 7027SOL     OW21979   5.295   5.729   3.845
 7027SOL    HW121980   5.365   5.684   3.789
 7027SOL    HW221981   5.220   5.666   3.861
 7028SOL     OW21982   2.973   0.253   4.467
 7028SOL    HW121983   3.064   0.244   4.428
 7028SOL    HW221984   2.913   0.301   4.403
 7029SOL     OW21985   4.445   1.759   5.111
 7029SOL    HW121986   4.402   1.669   5.099
 7029SOL    HW221987   4.535   1.758   5.067
 7030SOL     OW21988   1.943   3.173   4.274
 7030SOL    HW121989   1.906   3.207   4.360
 7030SOL    HW221990   2.016   3.233   4.242
 7031SOL     OW21991   1.407   1.226   4.307
 7031SOL    HW121992   1.313   1.255   4.321
 7031SOL    HW221993   1.466   1.306   4.298
 7032SOL     OW21994   5.864   2.142   3.699
 7032SOL    HW121995   5.776   2.112   3.663
 7032SOL    HW221996   5.933   2.140   3.626
 7033SOL     OW21997   0.474   0.134   4.976
 7033SOL    HW121998   0.512   0.121   5.068
 7033SOL    HW221999   0.502   0.058   4.917
 7034SOL     OW22000   0.070   5.379   3.351
 7034SOL    HW122001   6.998   5.351   3.351
 7034SOL    HW222002   0.129   5.298   3.351
 7035SOL     OW22003   6.931   4.936   2.168
 7035SOL    HW122004   6.861   4.885   2.117
 7035SOL    HW222005   6.926   5.032   2.143
 7036SOL     OW22006   6.531   4.825   0.931
 7036SOL    HW122007   6.511   4.756   0.861
 7036SOL    HW222008   6.449   4.879   0.949
 7037SOL     OW22009   1.392   0.374   6.450
 7037SOL    HW122010   1.336   0.437   6.505
 7037SOL    HW222011   1.388   0.402   6.354
 7038SOL     OW22012   2.145   3.414   4.281
 7038SOL    HW122013   2.134   3.508   4.248
 7038SOL    HW222014   2.203   3.414   4.362
 7039SOL     OW22015   3.372   2.537   6.628
 7039SOL    HW122016   3.365   2.570   6.722
 7039SOL    HW222017   3.397   2.440   6.628
 7040SOL     OW22018   5.120   2.634   6.815
 7040SOL    HW122019   5.217   2.655   6.827
 7040SOL    HW222020   5.080   2.696   6.748
 7041SOL     OW22021   1.855   1.421   3.841
 7041SOL    HW122022   1.841   1.496   3.777
 7041SOL    HW222023   1.905   1.347   3.794
 7042SOL     OW22024   1.337   0.644   6.356
 7042SOL    HW122025   1.243   0.652   6.324
 7042SOL    HW222026   1.379   0.734   6.359
 7043SOL     OW22027   1.710   1.926   2.443
 7043SOL    HW122028   1.776   1.936   2.369
 7043SOL    HW222029   1.637   1.993   2.433
 7044SOL     OW22030   6.512   6.357   1.950
 7044SOL    HW122031   6.487   6.306   2.033
 7044SOL    HW222032   6.483   6.305   1.869
 7045SOL     OW22033   6.709   4.952   0.204
 7045SOL    HW122034   6.658   4.935   0.287
 7045SOL    HW222035   6.729   5.050   0.196
 7046SOL     OW22036   3.272   1.314   4.121
 7046SOL    HW122037   3.296   1.259   4.202
 7046SOL    HW222038   3.254   1.253   4.044
 7047SOL     OW22039   1.512   0.449   2.665
 7047SOL    HW122040   1.485   0.490   2.578
 7047SOL    HW222041   1.432   0.410   2.710
 7048SOL     OW22042   6.649   5.436   0.299
 7048SOL    HW122043   6.550   5.439   0.306
 7048SOL    HW222044   6.683   5.524   0.264
 7049SOL     OW22045   2.143   1.139   6.404
 7049SOL    HW122046   2.198   1.098   6.331
 7049SOL    HW222047   2.144   1.238   6.394
 7050SOL     OW22048   4.041   3.773   4.746
 7050SOL    HW122049   4.113   3.707   4.770
 7050SOL    HW222050   4.062   3.812   4.656
 7051SOL     OW22051   6.530   6.582   3.246
 7051SOL    HW122052   6.531   6.575   3.146
 7051SOL    HW222053   6.464   6.517   3.284
 7052SOL     OW22054   6.834   0.880   4.921
 7052SOL    HW122055   6.862   0.788   4.894
 7052SOL    HW222056   6.847   0.891   5.020
 7053SOL     OW22057   6.539   4.594   5.989
 7053SOL    HW122058   6.602   4.545   6.049
 7053SOL    HW222059   6.591   4.639   5.916
 7054SOL     OW22060   6.479   1.779   1.595
 7054SOL    HW122061   6.524   1.736   1.673
 7054SOL    HW222062   6.524   1.866   1.574
 7055SOL     OW22063   4.639   1.389   4.296
 7055SOL    HW122064   4.598   1.456   4.357
 7055SOL    HW222065   4.595   1.300   4.310
 7056SOL     OW22066   4.103   5.059   4.077
 7056SOL    HW122067   4.059   5.115   4.006
 7056SOL    HW222068   4.112   4.965   4.044
 7057SOL     OW22069   6.152   5.723   2.742
 7057SOL    HW122070   6.217   5.675   2.683
 7057SOL    HW222071   6.099   5.657   2.794
 7058SOL     OW22072   6.947   4.477   4.687
 7058SOL    HW122073   6.881   4.545   4.655
 7058SOL    HW222074   6.937   4.393   4.633
 7059SOL     OW22075   2.104   1.107   2.579
 7059SOL    HW122076   2.182   1.053   2.609
 7059SOL    HW222077   2.119   1.203   2.602
 7060SOL     OW22078   2.843   6.720   1.312
 7060SOL    HW122079   2.895   6.638   1.289
 7060SOL    HW222080   2.756   6.694   1.353
 7061SOL     OW22081   0.443   0.887   2.805
 7061SOL    HW122082   0.534   0.870   2.842
 7061SOL    HW222083   0.408   0.974   2.840
 7062SOL     OW22084   6.718   1.092   5.486
 7062SOL    HW122085   6.645   1.065   5.424
 7062SOL    HW222086   6.805   1.054   5.454
 7063SOL     OW22087   2.479   0.041   2.213
 7063SOL    HW122088   2.425   6.985   2.185
 7063SOL    HW222089   2.568   0.011   2.246
 7064SOL     OW22090   3.948   2.857   0.415
 7064SOL    HW122091   3.868   2.886   0.468
 7064SOL    HW222092   3.968   2.761   0.434
 7065SOL     OW22093   3.184   3.217   2.175
 7065SOL    HW122094   3.218   3.134   2.218
 7065SOL    HW222095   3.095   3.200   2.133
 7066SOL     OW22096   2.734   5.265   1.076
 7066SOL    HW122097   2.718   5.363   1.088
 7066SOL    HW222098   2.722   5.218   1.163
 7067SOL     OW22099   0.402   3.906   4.185
 7067SOL    HW122100   0.396   3.954   4.097
 7067SOL    HW222101   0.477   3.840   4.182
 7068SOL     OW22102   0.935   0.232   2.905
 7068SOL    HW122103   0.953   0.284   2.822
 7068SOL    HW222104   0.888   0.289   2.972
 7069SOL     OW22105   1.169   4.613   4.990
 7069SOL    HW122106   1.070   4.622   4.987
 7069SOL    HW222107   1.204   4.654   5.074
 7070SOL     OW22108   5.414   5.459   3.481
 7070SOL    HW122109   5.480   5.389   3.452
 7070SOL    HW222110   5.436   5.546   3.436
 7071SOL     OW22111   1.560   0.071   4.868
 7071SOL    HW122112   1.554   0.013   4.949
 7071SOL    HW222113   1.626   0.031   4.803
 7072SOL     OW22114   0.572   6.865   6.833
 7072SOL    HW122115   0.569   6.772   6.796
 7072SOL    HW222116   0.647   6.872   6.899
 7073SOL     OW22117   1.777   2.102   6.396
 7073SOL    HW122118   1.790   2.136   6.303
 7073SOL    HW222119   1.792   2.003   6.398
 7074SOL     OW22120   3.024   1.452   0.171
 7074SOL    HW122121   2.977   1.368   0.144
 7074SOL    HW222122   3.114   1.454   0.129
 7075SOL     OW22123   0.714   5.446   1.943
 7075SOL    HW122124   0.683   5.541   1.949
 7075SOL    HW222125   0.758   5.419   2.029
 7076SOL     OW22126   3.436   1.571   6.179
 7076SOL    HW122127   3.443   1.667   6.153
 7076SOL    HW222128   3.475   1.513   6.107
 7077SOL     OW22129   1.618   4.933   6.555
 7077SOL    HW122130   1.668   4.959   6.473
 7077SOL    HW222131   1.535   4.988   6.563
 7078SOL     OW22132   6.681   0.557   2.187
 7078SOL    HW122133   6.634   0.644   2.171
 7078SOL    HW222134   6.756   0.571   2.252
 7079SOL     OW22135   5.711   6.150   5.336
 7079SOL    HW122136   5.724   6.148   5.435
 7079SOL    HW222137   5.614   6.134   5.315
 7080SOL     OW22138   6.063   0.260   3.964
 7080SOL    HW122139   6.037   0.245   4.059
 7080SOL    HW222140   6.097   0.353   3.952
 7081SOL     OW22141   4.952   0.526   5.259
 7081SOL    HW122142   4.970   0.595   5.330
 7081SOL    HW222143   4.893   0.565   5.189
 7082SOL     OW22144   6.028   1.175   6.648
 7082SOL    HW122145   6.012   1.218   6.559
 7082SOL    HW222146   5.943   1.135   6.682
 7083SOL     OW22147   3.233   0.426   6.077
 7083SOL    HW122148   3.302   0.491   6.047
 7083SOL    HW222149   3.277   0.355   6.133
 7084SOL     OW22150   5.835   6.360   0.389
 7084SOL    HW122151   5.928   6.397   0.392
 7084SOL    HW222152   5.828   6.282   0.450
 7085SOL     OW22153   3.884   1.233   0.949
 7085SOL    HW122154   3.843   1.322   0.932
 7085SOL    HW222155   3.834   1.186   1.022
 7086SOL     OW22156   1.062   1.549   5.917
 7086SOL    HW122157   1.139   1.489   5.937
 7086SOL    HW222158   0.996   1.545   5.991
 7087SOL     OW22159   2.352   2.691   5.026
 7087SOL    HW122160   2.368   2.776   5.076
 7087SOL    HW222161   2.354   2.710   4.928
 7088SOL     OW22162   0.548   2.288   5.616
 7088SOL    HW122163   0.622   2.355   5.628
 7088SOL    HW222164   0.586   2.195   5.627
 7089SOL     OW22165   2.750   1.815   1.593
 7089SOL    HW122166   2.802   1.731   1.575
 7089SOL    HW222167   2.659   1.791   1.628
 7090SOL     OW22168   2.299   2.417   4.831
 7090SOL    HW122169   2.348   2.369   4.758
 7090SOL    HW222170   2.272   2.508   4.799
 7091SOL     OW22171   6.886   6.448   1.172
 7091SOL    HW122172   6.902   6.411   1.081
 7091SOL    HW222173   6.907   6.378   1.240
 7092SOL     OW22174   2.817   2.454   0.483
 7092SOL    HW122175   2.783   2.405   0.563
 7092SOL    HW222176   2.743   2.505   0.441
 7093SOL     OW22177   4.499   3.254   5.905
 7093SOL    HW122178   4.433   3.325   5.882
 7093SOL    HW222179   4.585   3.270   5.857
 7094SOL     OW22180   6.990   0.765   6.226
 7094SOL    HW122181   0.015   0.678   6.236
 7094SOL    HW222182   6.969   0.802   6.316
 7095SOL     OW22183   0.524   3.880   6.791
 7095SOL    HW122184   0.504   3.978   6.796
 7095SOL    HW222185   0.600   3.858   6.852
 7096SOL     OW22186   5.022   0.289   2.935
 7096SOL    HW122187   5.062   0.363   2.881
 7096SOL    HW222188   5.007   0.209   2.876
 7097SOL     OW22189   1.768   0.991   1.838
 7097SOL    HW122190   1.785   0.893   1.850
 7097SOL    HW222191   1.856   1.038   1.826
 7098SOL     OW22192   1.093   0.369   6.113
 7098SOL    HW122193   1.009   0.339   6.067
 7098SOL    HW222194   1.072   0.397   6.207
 7099SOL     OW22195   6.976   0.990   5.442
 7099SOL    HW122196   0.023   1.051   5.406
 7099SOL    HW222197   7.019   0.916   5.494
 7100SOL     OW22198   5.600   2.062   1.314
 7100SOL    HW122199   5.519   2.004   1.300
 7100SOL    HW222200   5.640   2.083   1.225
 7101SOL     OW22201   1.304   0.461   4.072
 7101SOL    HW122202   1.290   0.560   4.075
 7101SOL    HW222203   1.373   0.436   4.140
 7102SOL     OW22204   5.002   2.848   0.505
 7102SOL    HW122205   5.033   2.754   0.493
 7102SOL    HW222206   4.999   2.893   0.416
 7103SOL     OW22207   3.027   0.372   5.875
 7103SOL    HW122208   3.083   0.361   5.957
 7103SOL    HW222209   2.989   0.283   5.849
 7104SOL     OW22210   0.471   2.450   2.189
 7104SOL    HW122211   0.384   2.404   2.176
 7104SOL    HW222212   0.485   2.516   2.116
 7105SOL     OW22213   2.024   3.762   5.463
 7105SOL    HW122214   2.070   3.746   5.550
 7105SOL    HW222215   1.965   3.842   5.471
 7106SOL     OW22216   3.126   2.706   5.277
 7106SOL    HW122217   3.036   2.685   5.313
 7106SOL    HW222218   3.183   2.624   5.279
 7107SOL     OW22219   1.851   1.206   0.491
 7107SOL    HW122220   1.823   1.111   0.507
 7107SOL    HW222221   1.934   1.207   0.436
 7108SOL     OW22222   4.760   6.608   1.845
 7108SOL    HW122223   4.661   6.602   1.831
 7108SOL    HW222224   4.805   6.536   1.793
 7109SOL     OW22225   3.777   6.128   6.363
 7109SOL    HW122226   3.758   6.083   6.451
 7109SOL    HW222227   3.728   6.215   6.359
 7110SOL     OW22228   3.133   4.879   3.532
 7110SOL    HW122229   3.223   4.853   3.568
 7110SOL    HW222230   3.136   4.878   3.432
 7111SOL     OW22231   1.655   2.382   3.397
 7111SOL    HW122232   1.672   2.463   3.453
 7111SOL    HW222233   1.638   2.303   3.456
 7112SOL     OW22234   2.091   6.175   2.038
 7112SOL    HW122235   2.119   6.269   2.014
 7112SOL    HW222236   2.146   6.143   2.115
 7113SOL     OW22237   3.905   3.567   4.962
 7113SOL    HW122238   3.978   3.563   4.895
 7113SOL    HW222239   3.943   3.551   5.054
 7114SOL     OW22240   3.882   6.674   0.681
 7114SOL    HW122241   3.887   6.663   0.582
 7114SOL    HW222242   3.795   6.639   0.715
 7115SOL     OW22243   4.321   1.562   1.467
 7115SOL    HW122244   4.342   1.508   1.549
 7115SOL    HW222245   4.376   1.646   1.467
 7116SOL     OW22246   6.214   3.668   3.125
 7116SOL    HW122247   6.139   3.733   3.113
 7116SOL    HW222248   6.194   3.584   3.075
 7117SOL     OW22249   6.169   6.845   2.457
 7117SOL    HW122250   6.214   6.845   2.368
 7117SOL    HW222251   6.227   6.891   2.524
 7118SOL     OW22252   0.109   3.175   2.752
 7118SOL    HW122253   0.080   3.084   2.723
 7118SOL    HW222254   0.030   3.235   2.760
 7119SOL     OW22255   1.374   2.055   2.680
 7119SOL    HW122256   1.361   2.130   2.744
 7119SOL    HW222257   1.366   2.088   2.586
 7120SOL     OW22258   4.789   6.309   3.236
 7120SOL    HW122259   4.716   6.374   3.255
 7120SOL    HW222260   4.841   6.292   3.320
 7121SOL     OW22261   3.055   6.905   1.777
 7121SOL    HW122262   3.093   6.925   1.868
 7121SOL    HW222263   3.124   6.921   1.708
 7122SOL     OW22264   6.451   6.950   0.386
 7122SOL    HW122265   6.511   6.973   0.309
 7122SOL    HW222266   6.443   0.005   0.447
 7123SOL     OW22267   2.305   5.403   0.156
 7123SOL    HW122268   2.207   5.416   0.142
 7123SOL    HW222269   2.319   5.332   0.225
 7124SOL     OW22270   0.089   5.660   0.570
 7124SOL    HW122271   0.167   5.646   0.509
 7124SOL    HW222272   0.060   5.572   0.607
 7125SOL     OW22273   0.201   6.820   3.101
 7125SOL    HW122274   0.193   6.907   3.150
 7125SOL    HW222275   0.287   6.775   3.127
 7126SOL     OW22276   1.603   4.638   0.974
 7126SOL    HW122277   1.660   4.573   0.923
 7126SOL    HW222278   1.588   4.605   1.067
 7127SOL     OW22279   2.532   0.109   4.556
 7127SOL    HW122280   2.605   0.149   4.611
 7127SOL    HW222281   2.542   0.139   4.461
 7128SOL     OW22282   3.117   3.876   1.681
 7128SOL    HW122283   3.057   3.848   1.605
 7128SOL    HW222284   3.096   3.822   1.762
 7129SOL     OW22285   2.359   2.011   1.522
 7129SOL    HW122286   2.434   2.072   1.501
 7129SOL    HW222287   2.315   2.040   1.607
 7130SOL     OW22288   3.145   0.040   2.513
 7130SOL    HW122289   3.080   7.005   2.561
 7130SOL    HW222290   3.162   0.123   2.567
 7131SOL     OW22291   3.019   1.349   3.598
 7131SOL    HW122292   3.105   1.396   3.579
 7131SOL    HW222293   2.990   1.371   3.691
 7132SOL     OW22294   3.328   4.163   2.345
 7132SOL    HW122295   3.281   4.209   2.270
 7132SOL    HW222296   3.266   4.153   2.422
 7133SOL     OW22297   6.001   4.092   2.077
 7133SOL    HW122298   6.049   4.003   2.077
 7133SOL    HW222299   5.972   4.113   2.170
 7134SOL     OW22300   5.354   4.721   2.836
 7134SOL    HW122301   5.328   4.692   2.744
 7134SOL    HW222302   5.355   4.642   2.897
 7135SOL     OW22303   0.903   2.228   5.758
 7135SOL    HW122304   0.896   2.302   5.691
 7135SOL    HW222305   0.982   2.171   5.738
 7136SOL     OW22306   2.040   1.974   6.780
 7136SOL    HW122307   2.009   2.037   6.709
 7136SOL    HW222308   2.111   1.914   6.743
 7137SOL     OW22309   4.409   1.581   5.366
 7137SOL    HW122310   4.357   1.545   5.289
 7137SOL    HW222311   4.501   1.606   5.336
 7138SOL     OW22312   1.916   3.316   6.916
 7138SOL    HW122313   1.999   3.372   6.921
 7138SOL    HW222314   1.899   3.273   7.005
 7139SOL     OW22315   2.850   1.828   0.271
 7139SOL    HW122316   2.892   1.884   0.199
 7139SOL    HW222317   2.799   1.753   0.229
 7140SOL     OW22318   0.002   4.051   5.208
 7140SOL    HW122319   0.029   4.140   5.169
 7140SOL    HW222320   6.947   4.064   5.269
 7141SOL     OW22321   1.087   6.773   2.157
 7141SOL    HW122322   1.126   6.683   2.139
 7141SOL    HW222323   1.005   6.763   2.213
 7142SOL     OW22324   3.668   6.635   3.602
 7142SOL    HW122325   3.759   6.671   3.582
 7142SOL    HW222326   3.662   6.612   3.699
 7143SOL     OW22327   2.317   2.215   4.005
 7143SOL    HW122328   2.349   2.133   3.958
 7143SOL    HW222329   2.372   2.293   3.976
 7144SOL     OW22330   1.469   3.113   3.855
 7144SOL    HW122331   1.541   3.150   3.797
 7144SOL    HW222332   1.383   3.160   3.833
 7145SOL     OW22333   4.239   6.283   6.099
 7145SOL    HW122334   4.157   6.240   6.137
 7145SOL    HW222335   4.316   6.267   6.160
 7146SOL     OW22336   2.846   5.491   1.700
 7146SOL    HW122337   2.831   5.404   1.652
 7146SOL    HW222338   2.785   5.561   1.662
 7147SOL     OW22339   0.321   1.070   2.973
 7147SOL    HW122340   0.361   1.095   3.061
 7147SOL    HW222341   0.222   1.073   2.979
 7148SOL     OW22342   0.219   1.387   0.742
 7148SOL    HW122343   0.255   1.385   0.835
 7148SOL    HW222344   0.129   1.342   0.741
 7149SOL     OW22345   0.186   0.644   4.752
 7149SOL    HW122346   0.195   0.696   4.667
 7149SOL    HW222347   0.247   0.682   4.822
 7150SOL     OW22348   6.295   3.914   6.774
 7150SOL    HW122349   6.249   3.994   6.814
 7150SOL    HW222350   6.226   3.853   6.734
 7151SOL     OW22351   2.348   6.759   1.205
 7151SOL    HW122352   2.381   6.665   1.195
 7151SOL    HW222353   2.313   6.791   1.117
 7152SOL     OW22354   0.925   2.623   3.871
 7152SOL    HW122355   0.985   2.651   3.946
 7152SOL    HW222356   0.910   2.524   3.876
 7153SOL     OW22357   3.488   1.784   3.447
 7153SOL    HW122358   3.401   1.751   3.412
 7153SOL    HW222359   3.479   1.880   3.475
 7154SOL     OW22360   4.417   5.921   4.866
 7154SOL    HW122361   4.402   5.855   4.792
 7154SOL    HW222362   4.330   5.943   4.910
 7155SOL     OW22363   2.197   1.453   3.650
 7155SOL    HW122364   2.181   1.370   3.597
 7155SOL    HW222365   2.238   1.522   3.590
 7156SOL     OW22366   1.328   5.610   5.057
 7156SOL    HW122367   1.250   5.549   5.041
 7156SOL    HW222368   1.395   5.562   5.115
 7157SOL     OW22369   4.867   3.992   0.692
 7157SOL    HW122370   4.932   3.916   0.683
 7157SOL    HW222371   4.918   4.076   0.714
 7158SOL     OW22372   4.933   6.798   4.295
 7158SOL    HW122373   5.005   6.761   4.236
 7158SOL    HW222374   4.845   6.759   4.270
 7159SOL     OW22375   0.888   5.453   0.270
 7159SOL    HW122376   0.818   5.404   0.217
 7159SOL    HW222377   0.966   5.393   0.285
 7160SOL     OW22378   6.562   1.067   1.679
 7160SOL    HW122379   6.513   1.074   1.766
 7160SOL    HW222380   6.500   1.091   1.604
 7161SOL     OW22381   3.313   4.088   4.246
 7161SOL    HW122382   3.219   4.067   4.219
 7161SOL    HW222383   3.333   4.046   4.334
 7162SOL     OW22384   3.326   4.985   4.242
 7162SOL    HW122385   3.359   5.079   4.229
 7162SOL    HW222386   3.342   4.932   4.159
 7163SOL     OW22387   1.597   6.424   2.850
 7163SOL    HW122388   1.551   6.512   2.844
 7163SOL    HW222389   1.696   6.438   2.850
 7164SOL     OW22390   2.479   2.117   4.327
 7164SOL    HW122391   2.390   2.098   4.370
 7164SOL    HW222392   2.478   2.085   4.233
 7165SOL     OW22393   5.196   6.092   2.720
 7165SOL    HW122394   5.214   6.075   2.623
 7165SOL    HW222395   5.222   6.185   2.744
 7166SOL     OW22396   4.390   5.772   2.293
 7166SOL    HW122397   4.376   5.739   2.199
 7166SOL    HW222398   4.310   5.750   2.348
 7167SOL     OW22399   5.388   3.511   6.017
 7167SOL    HW122400   5.348   3.590   5.969
 7167SOL    HW222401   5.332   3.430   6.000
 7168SOL     OW22402   0.480   1.859   4.114
 7168SOL    HW122403   0.532   1.797   4.055
 7168SOL    HW222404   0.515   1.851   4.208
 7169SOL     OW22405   1.878   2.582   6.643
 7169SOL    HW122406   1.838   2.540   6.561
 7169SOL    HW222407   1.877   2.515   6.717
 7170SOL     OW22408   6.071   5.096   3.611
 7170SOL    HW122409   6.107   5.060   3.525
 7170SOL    HW222410   6.120   5.179   3.636
 7171SOL     OW22411   4.137   3.039   5.786
 7171SOL    HW122412   4.096   3.071   5.872
 7171SOL    HW222413   4.229   3.004   5.805
 7172SOL     OW22414   0.493   0.250   1.861
 7172SOL    HW122415   0.574   0.224   1.914
 7172SOL    HW222416   0.412   0.241   1.919
 7173SOL     OW22417   6.071   6.466   5.383
 7173SOL    HW122418   6.119   6.454   5.296
 7173SOL    HW222419   6.039   6.560   5.391
 7174SOL     OW22420   0.774   5.956   6.185
 7174SOL    HW122421   0.786   6.013   6.267
 7174SOL    HW222422   0.771   5.860   6.212
 7175SOL     OW22423   6.160   3.538   5.504
 7175SOL    HW122424   6.176   3.634   5.524
 7175SOL    HW222425   6.063   3.523   5.486
 7176SOL     OW22426   0.046   3.231   1.476
 7176SOL    HW122427   0.013   3.287   1.552
 7176SOL    HW222428   0.089   3.290   1.408
 7177SOL     OW22429   1.246   5.474   1.743
 7177SOL    HW122430   1.257   5.418   1.825
 7177SOL    HW222431   1.275   5.568   1.761
 7178SOL     OW22432   6.670   1.278   6.223
 7178SOL    HW122433   6.735   1.324   6.162
 7178SOL    HW222434   6.619   1.210   6.170
 7179SOL     OW22435   1.701   5.096   6.322
 7179SOL    HW122436   1.750   5.140   6.246
 7179SOL    HW222437   1.665   5.008   6.292
 7180SOL     OW22438   0.276   0.198   2.839
 7180SOL    HW122439   0.284   0.101   2.862
 7180SOL    HW222440   0.269   0.209   2.740
 7181SOL     OW22441   5.667   6.218   2.569
 7181SOL    HW122442   5.648   6.131   2.525
 7181SOL    HW222443   5.634   6.293   2.511
 7182SOL     OW22444   4.133   3.715   5.888
 7182SOL    HW122445   4.104   3.737   5.980
 7182SOL    HW222446   4.124   3.616   5.873
 7183SOL     OW22447   2.134   3.851   3.794
 7183SOL    HW122448   2.125   3.756   3.826
 7183SOL    HW222449   2.142   3.852   3.694
 7184SOL     OW22450   2.360   5.388   3.000
 7184SOL    HW122451   2.437   5.430   3.049
 7184SOL    HW222452   2.280   5.447   3.005
 7185SOL     OW22453   4.128   2.804   6.922
 7185SOL    HW122454   4.184   2.732   6.880
 7185SOL    HW222455   4.033   2.793   6.893
 7186SOL     OW22456   0.209   0.019   4.395
 7186SOL    HW122457   0.214   0.033   4.494
 7186SOL    HW222458   0.120   7.005   4.371
 7187SOL     OW22459   1.478   5.378   1.103
 7187SOL    HW122460   1.576   5.374   1.081
 7187SOL    HW222461   1.439   5.463   1.067
 7188SOL     OW22462   5.154   7.000   1.740
 7188SOL    HW122463   5.133   6.946   1.658
 7188SOL    HW222464   5.124   0.071   1.725
 7189SOL     OW22465   6.697   0.959   5.180
 7189SOL    HW122466   6.677   0.901   5.259
 7189SOL    HW222467   6.632   1.035   5.176
 7190SOL     OW22468   4.486   5.122   3.044
 7190SOL    HW122469   4.480   5.125   2.944
 7190SOL    HW222470   4.488   5.027   3.074
 7191SOL     OW22471   1.072   3.276   1.374
 7191SOL    HW122472   1.063   3.338   1.453
 7191SOL    HW222473   1.165   3.281   1.339
 7192SOL     OW22474   3.723   4.812   6.674
 7192SOL    HW122475   3.671   4.779   6.752
 7192SOL    HW222476   3.763   4.734   6.625
 7193SOL     OW22477   5.560   1.733   4.049
 7193SOL    HW122478   5.471   1.732   4.095
 7193SOL    HW222479   5.546   1.733   3.950
 7194SOL     OW22480   3.282   1.765   1.501
 7194SOL    HW122481   3.268   1.864   1.504
 7194SOL    HW222482   3.245   1.729   1.416
 7195SOL     OW22483   0.298   6.190   1.843
 7195SOL    HW122484   0.314   6.274   1.792
 7195SOL    HW222485   0.246   6.125   1.787
 7196SOL     OW22486   3.617   2.970   1.225
 7196SOL    HW122487   3.702   3.022   1.220
 7196SOL    HW222488   3.622   2.906   1.302
 7197SOL     OW22489   1.239   1.513   4.205
 7197SOL    HW122490   1.273   1.565   4.127
 7197SOL    HW222491   1.306   1.517   4.279
 7198SOL     OW22492   0.134   6.415   6.057
 7198SOL    HW122493   0.134   6.325   6.100
 7198SOL    HW222494   0.186   6.413   5.972
 7199SOL     OW22495   5.409   6.347   3.309
 7199SOL    HW122496   5.367   6.408   3.242
 7199SOL    HW222497   5.419   6.256   3.269
 7200SOL     OW22498   2.568   1.846   2.304
 7200SOL    HW122499   2.613   1.806   2.224
 7200SOL    HW222500   2.586   1.945   2.306
 7201SOL     OW22501   2.240   4.819   3.033
 7201SOL    HW122502   2.286   4.906   3.049
 7201SOL    HW222503   2.141   4.833   3.030
 7202SOL     OW22504   3.437   0.234   5.517
 7202SOL    HW122505   3.382   0.151   5.521
 7202SOL    HW222506   3.378   0.313   5.500
 7203SOL     OW22507   5.813   6.816   6.758
 7203SOL    HW122508   5.782   6.904   6.720
 7203SOL    HW222509   5.811   6.821   6.858
 7204SOL     OW22510   6.049   1.679   2.966
 7204SOL    HW122511   6.004   1.589   2.965
 7204SOL    HW222512   6.103   1.690   2.882
 7205SOL     OW22513   1.574   4.303   1.330
 7205SOL    HW122514   1.643   4.276   1.397
 7205SOL    HW222515   1.536   4.222   1.286
 7206SOL     OW22516   5.658   1.668   1.796
 7206SOL    HW122517   5.655   1.589   1.734
 7206SOL    HW222518   5.631   1.750   1.746
 7207SOL     OW22519   4.237   6.572   1.909
 7207SOL    HW122520   4.227   6.669   1.929
 7207SOL    HW222521   4.150   6.525   1.927
 7208SOL     OW22522   3.023   0.514   5.093
 7208SOL    HW122523   2.929   0.516   5.127
 7208SOL    HW222524   3.081   0.570   5.152
 7209SOL     OW22525   2.995   3.288   4.241
 7209SOL    HW122526   3.048   3.372   4.256
 7209SOL    HW222527   2.909   3.311   4.195
 7210SOL     OW22528   4.913   0.049   4.417
 7210SOL    HW122529   4.879   7.003   4.354
 7210SOL    HW222530   4.955   0.123   4.365
 7211SOL     OW22531   0.764   4.919   2.277
 7211SOL    HW122532   0.859   4.950   2.283
 7211SOL    HW222533   0.756   4.851   2.204
 7212SOL     OW22534   4.796   6.873   3.507
 7212SOL    HW122535   4.830   6.859   3.600
 7212SOL    HW222536   4.813   6.967   3.479
 7213SOL     OW22537   5.109   6.760   4.802
 7213SOL    HW122538   5.043   6.688   4.822
 7213SOL    HW222539   5.065   6.849   4.810
 7214SOL     OW22540   0.595   4.570   5.564
 7214SOL    HW122541   0.524   4.606   5.624
 7214SOL    HW222542   0.563   4.571   5.469
 7215SOL     OW22543   1.103   3.301   2.106
 7215SOL    HW122544   1.137   3.378   2.051
 7215SOL    HW222545   1.060   3.234   2.045
 7216SOL     OW22546   3.134   1.503   2.355
 7216SOL    HW122547   3.091   1.539   2.273
 7216SOL    HW222548   3.132   1.403   2.353
 7217SOL     OW22549   0.566   3.006   1.976
 7217SOL    HW122550   0.478   3.044   1.947
 7217SOL    HW222551   0.606   2.952   1.902
 7218SOL     OW22552   6.268   2.649   5.660
 7218SOL    HW122553   6.181   2.600   5.652
 7218SOL    HW222554   6.283   2.704   5.578
 7219SOL     OW22555   3.361   0.909   1.094
 7219SOL    HW122556   3.323   0.983   1.148
 7219SOL    HW222557   3.459   0.901   1.113
 7220SOL     OW22558   6.710   1.158   2.695
 7220SOL    HW122559   6.713   1.222   2.772
 7220SOL    HW222560   6.616   1.152   2.661
 7221SOL     OW22561   6.134   4.543   5.503
 7221SOL    HW122562   6.056   4.483   5.487
 7221SOL    HW222563   6.218   4.494   5.483
 7222SOL     OW22564   6.802   6.703   3.664
 7222SOL    HW122565   6.851   6.731   3.747
 7222SOL    HW222566   6.760   6.614   3.678
 7223SOL     OW22567   4.914   0.911   5.054
 7223SOL    HW122568   5.009   0.889   5.073
 7223SOL    HW222569   4.884   0.860   4.973
 7224SOL     OW22570   5.996   0.966   3.671
 7224SOL    HW122571   5.920   0.958   3.736
 7224SOL    HW222572   5.959   0.980   3.579
 7225SOL     OW22573   2.624   0.706   1.385
 7225SOL    HW122574   2.714   0.736   1.417
 7225SOL    HW222575   2.556   0.721   1.457
 7226SOL     OW22576   5.981   6.740   5.369
 7226SOL    HW122577   5.889   6.768   5.398
 7226SOL    HW222578   6.046   6.813   5.390
 7227SOL     OW22579   6.753   2.612   5.915
 7227SOL    HW122580   6.701   2.697   5.924
 7227SOL    HW222581   6.797   2.591   6.002
 7228SOL     OW22582   2.599   0.573   3.132
 7228SOL    HW122583   2.513   0.596   3.176
 7228SOL    HW222584   2.583   0.506   3.060
 7229SOL     OW22585   6.723   0.022   3.186
 7229SOL    HW122586   6.730   6.949   3.210
 7229SOL    HW222587   6.703   0.031   3.088
 7230SOL     OW22588   6.075   5.350   1.691
 7230SOL    HW122589   6.087   5.402   1.775
 7230SOL    HW222590   6.162   5.345   1.642
 7231SOL     OW22591   5.967   0.966   0.130
 7231SOL    HW122592   5.989   1.005   0.220
 7231SOL    HW222593   5.902   1.026   0.083
 7232SOL     OW22594   3.813   4.068   0.978
 7232SOL    HW122595   3.724   4.113   0.974
 7232SOL    HW222596   3.841   4.043   0.885
 7233SOL     OW22597   0.644   1.906   5.390
 7233SOL    HW122598   0.719   1.841   5.375
 7233SOL    HW222599   0.673   1.974   5.458
 7234SOL     OW22600   4.875   2.013   3.391
 7234SOL    HW122601   4.893   1.981   3.298
 7234SOL    HW222602   4.815   2.093   3.387
 7235SOL     OW22603   6.071   3.018   4.504
 7235SOL    HW122604   6.068   3.103   4.556
 7235SOL    HW222605   6.157   3.013   4.453
 7236SOL     OW22606   1.892   1.467   3.454
 7236SOL    HW122607   1.918   1.556   3.417
 7236SOL    HW222608   1.974   1.414   3.473
 7237SOL     OW22609   5.634   4.848   4.605
 7237SOL    HW122610   5.575   4.903   4.546
 7237SOL    HW222611   5.708   4.905   4.641
 7238SOL     OW22612   1.677   0.981   1.550
 7238SOL    HW122613   1.701   0.930   1.467
 7238SOL    HW222614   1.642   0.919   1.619
 7239SOL     OW22615   3.878   0.882   1.892
 7239SOL    HW122616   3.885   0.982   1.892
 7239SOL    HW222617   3.844   0.851   1.803
 7240SOL     OW22618   2.895   3.309   2.390
 7240SOL    HW122619   2.966   3.321   2.320
 7240SOL    HW222620   2.808   3.289   2.345
 7241SOL     OW22621   4.545   6.912   4.332
 7241SOL    HW122622   4.492   6.990   4.365
 7241SOL    HW222623   4.621   6.946   4.276
 7242SOL     OW22624   5.986   5.273   0.867
 7242SOL    HW122625   5.907   5.310   0.916
 7242SOL    HW222626   6.068   5.284   0.922
 7243SOL     OW22627   0.307   5.958   0.689
 7243SOL    HW122628   0.356   5.889   0.636
 7243SOL    HW222629   0.211   5.961   0.659
 7244SOL     OW22630   4.853   1.867   1.038
 7244SOL    HW122631   4.914   1.789   1.052
 7244SOL    HW222632   4.869   1.907   0.948
 7245SOL     OW22633   5.796   2.043   4.069
 7245SOL    HW122634   5.815   2.055   4.167
 7245SOL    HW222635   5.698   2.033   4.055
 7246SOL     OW22636   1.157   5.774   5.534
 7246SOL    HW122637   1.096   5.717   5.588
 7246SOL    HW222638   1.102   5.837   5.478
 7247SOL     OW22639   3.710   5.545   4.394
 7247SOL    HW122640   3.707   5.636   4.435
 7247SOL    HW222641   3.652   5.543   4.312
 7248SOL     OW22642   3.439   0.677   4.123
 7248SOL    HW122643   3.532   0.697   4.090
 7248SOL    HW222644   3.420   0.732   4.204
 7249SOL     OW22645   5.046   3.711   5.871
 7249SOL    HW122646   5.049   3.770   5.790
 7249SOL    HW222647   4.998   3.758   5.945
 7250SOL     OW22648   2.812   3.498   6.575
 7250SOL    HW122649   2.767   3.553   6.645
 7250SOL    HW222650   2.770   3.515   6.486
 7251SOL     OW22651   5.846   0.981   5.116
 7251SOL    HW122652   5.913   0.945   5.180
 7251SOL    HW222653   5.820   0.910   5.051
 7252SOL     OW22654   4.274   3.546   5.354
 7252SOL    HW122655   4.323   3.460   5.368
 7252SOL    HW222656   4.183   3.527   5.316
 7253SOL     OW22657   5.207   4.726   1.358
 7253SOL    HW122658   5.203   4.707   1.456
 7253SOL    HW222659   5.157   4.811   1.339
 7254SOL     OW22660   5.852   6.455   4.672
 7254SOL    HW122661   5.922   6.511   4.629
 7254SOL    HW222662   5.767   6.463   4.620
 7255SOL     OW22663   3.952   3.031   3.029
 7255SOL    HW122664   3.861   3.005   3.060
 7255SOL    HW222665   3.955   3.029   2.929
 7256SOL     OW22666   3.510   5.540   4.196
 7256SOL    HW122667   3.498   5.618   4.134
 7256SOL    HW222668   3.451   5.551   4.276
 7257SOL     OW22669   6.111   4.662   2.620
 7257SOL    HW122670   6.026   4.625   2.657
 7257SOL    HW222671   6.113   4.648   2.521
 7258SOL     OW22672   2.801   0.508   5.363
 7258SOL    HW122673   2.810   0.599   5.322
 7258SOL    HW222674   2.704   0.488   5.377
 7259SOL     OW22675   3.436   4.653   6.403
 7259SOL    HW122676   3.400   4.587   6.336
 7259SOL    HW222677   3.394   4.637   6.492
 7260SOL     OW22678   4.534   2.155   2.558
 7260SOL    HW122679   4.475   2.233   2.578
 7260SOL    HW222680   4.627   2.188   2.539
 7261SOL     OW22681   2.306   5.040   1.074
 7261SOL    HW122682   2.307   4.952   1.122
 7261SOL    HW222683   2.350   5.030   0.985
 7262SOL     OW22684   6.585   0.900   4.826
 7262SOL    HW122685   6.680   0.891   4.853
 7262SOL    HW222686   6.570   0.991   4.787
 7263SOL     OW22687   5.338   6.015   2.113
 7263SOL    HW122688   5.292   5.940   2.160
 7263SOL    HW222689   5.275   6.058   2.049
 7264SOL     OW22690   0.672   6.536   4.373
 7264SOL    HW122691   0.752   6.500   4.324
 7264SOL    HW222692   0.684   6.635   4.386
 7265SOL     OW22693   4.286   3.352   6.642
 7265SOL    HW122694   4.281   3.366   6.543
 7265SOL    HW222695   4.325   3.262   6.661
 7266SOL     OW22696   4.356   1.463   1.967
 7266SOL    HW122697   4.333   1.541   2.027
 7266SOL    HW222698   4.275   1.407   1.953
 7267SOL     OW22699   5.346   2.696   4.495
 7267SOL    HW122700   5.316   2.651   4.579
 7267SOL    HW222701   5.428   2.650   4.461
 7268SOL     OW22702   3.727   0.644   0.625
 7268SOL    HW122703   3.733   0.545   0.638
 7268SOL    HW222704   3.813   0.687   0.652
 7269SOL     OW22705   1.338   0.526   1.786
 7269SOL    HW122706   1.291   0.440   1.767
 7269SOL    HW222707   1.377   0.523   1.878
 7270SOL     OW22708   3.171   2.153   2.496
 7270SOL    HW122709   3.150   2.167   2.593
 7270SOL    HW222710   3.093   2.183   2.440
 7271SOL     OW22711   5.947   5.480   3.703
 7271SOL    HW122712   5.971   5.550   3.770
 7271SOL    HW222713   5.849   5.459   3.710
 7272SOL     OW22714   6.122   2.259   0.693
 7272SOL    HW122715   6.073   2.172   0.690
 7272SOL    HW222716   6.087   2.314   0.769
 7273SOL     OW22717   5.722   5.382   5.354
 7273SOL    HW122718   5.806   5.413   5.308
 7273SOL    HW222719   5.709   5.435   5.438
 7274SOL     OW22720   5.503   4.794   4.297
 7274SOL    HW122721   5.590   4.747   4.312
 7274SOL    HW222722   5.435   4.729   4.262
 7275SOL     OW22723   5.809   6.497   1.600
 7275SOL    HW122724   5.755   6.536   1.526
 7275SOL    HW222725   5.762   6.509   1.687
 7276SOL     OW22726   3.520   1.978   3.844
 7276SOL    HW122727   3.543   2.001   3.939
 7276SOL    HW222728   3.460   2.048   3.807
 7277SOL     OW22729   6.040   1.876   4.115
 7277SOL    HW122730   6.011   1.971   4.126
 7277SOL    HW222731   6.070   1.861   4.021
 7278SOL     OW22732   3.826   2.146   3.969
 7278SOL    HW122733   3.882   2.228   3.968
 7278SOL    HW222734   3.798   2.125   4.063
 7279SOL     OW22735   4.115   3.505   1.270
 7279SOL    HW122736   4.018   3.502   1.293
 7279SOL    HW222737   4.163   3.563   1.336
 7280SOL     OW22738   6.916   1.846   5.313
 7280SOL    HW122739   6.835   1.849   5.371
 7280SOL    HW222740   6.919   1.760   5.263
 7281SOL     OW22741   3.175   6.381   2.943
 7281SOL    HW122742   3.146   6.361   2.849
 7281SOL    HW222743   3.239   6.310   2.973
 7282SOL     OW22744   0.228   3.047   1.125
 7282SOL    HW122745   0.306   3.097   1.163
 7282SOL    HW222746   0.151   3.110   1.111
 7283SOL     OW22747   3.568   5.746   2.843
 7283SOL    HW122748   3.477   5.759   2.882
 7283SOL    HW222749   3.586   5.648   2.833
 7284SOL     OW22750   0.330   0.526   2.761
 7284SOL    HW122751   0.309   0.505   2.857
 7284SOL    HW222752   0.424   0.558   2.754
 7285SOL     OW22753   4.993   2.676   2.047
 7285SOL    HW122754   4.929   2.722   2.108
 7285SOL    HW222755   5.063   2.630   2.102
 7286SOL     OW22756   6.241   1.465   4.145
 7286SOL    HW122757   6.143   1.464   4.165
 7286SOL    HW222758   6.269   1.557   4.119
 7287SOL     OW22759   3.594   1.679   4.396
 7287SOL    HW122760   3.552   1.766   4.421
 7287SOL    HW222761   3.555   1.647   4.309
 7288SOL     OW22762   3.230   1.766   1.939
 7288SOL    HW122763   3.161   1.832   1.969
 7288SOL    HW222764   3.316   1.814   1.920
 7289SOL     OW22765   6.395   2.430   1.772
 7289SOL    HW122766   6.396   2.332   1.794
 7289SOL    HW222767   6.458   2.448   1.698
 7290SOL     OW22768   3.603   2.049   4.751
 7290SOL    HW122769   3.595   1.952   4.775
 7290SOL    HW222770   3.514   2.093   4.758
 7291SOL     OW22771   1.353   1.103   0.697
 7291SOL    HW122772   1.266   1.082   0.653
 7291SOL    HW222773   1.350   1.194   0.737
 7292SOL     OW22774   3.897   1.160   2.459
 7292SOL    HW122775   3.865   1.255   2.468
 7292SOL    HW222776   3.887   1.131   2.364
 7293SOL     OW22777   6.545   0.738   4.214
 7293SOL    HW122778   6.523   0.801   4.288
 7293SOL    HW222779   6.627   0.770   4.166
 7294SOL     OW22780   3.688   0.426   3.288
 7294SOL    HW122781   3.607   0.484   3.276
 7294SOL    HW222782   3.737   0.453   3.371
 7295SOL     OW22783   5.345   4.008   1.614
 7295SOL    HW122784   5.372   4.009   1.517
 7295SOL    HW222785   5.251   3.976   1.622
 7296SOL     OW22786   3.557   6.220   2.040
 7296SOL    HW122787   3.644   6.170   2.037
 7296SOL    HW222788   3.483   6.157   2.059
 7297SOL     OW22789   3.882   6.933   0.808
 7297SOL    HW122790   3.893   6.834   0.795
 7297SOL    HW222791   3.929   6.982   0.735
 7298SOL     OW22792   4.109   4.899   1.556
 7298SOL    HW122793   4.093   4.870   1.462
 7298SOL    HW222794   4.158   4.827   1.605
 7299SOL     OW22795   0.806   3.290   6.876
 7299SOL    HW122796   0.900   3.310   6.901
 7299SOL    HW222797   0.783   3.337   6.791
 7300SOL     OW22798   0.767   3.625   1.172
 7300SOL    HW122799   0.865   3.627   1.153
 7300SOL    HW222800   0.743   3.699   1.235
 7301SOL     OW22801   4.269   1.782   0.216
 7301SOL    HW122802   4.358   1.793   0.260
 7301SOL    HW222803   4.215   1.713   0.265
 7302SOL     OW22804   5.471   1.847   6.473
 7302SOL    HW122805   5.512   1.803   6.552
 7302SOL    HW222806   5.502   1.942   6.467
 7303SOL     OW22807   3.007   2.100   1.625
 7303SOL    HW122808   3.030   2.003   1.632
 7303SOL    HW222809   2.993   2.124   1.529
 7304SOL     OW22810   2.015   6.848   0.084
 7304SOL    HW122811   2.042   6.842   7.012
 7304SOL    HW222812   1.942   6.917   0.093
 7305SOL     OW22813   6.710   0.027   6.303
 7305SOL    HW122814   6.702   0.018   6.402
 7305SOL    HW222815   6.750   0.116   6.280
 7306SOL     OW22816   1.275   3.374   1.177
 7306SOL    HW122817   1.320   3.452   1.132
 7306SOL    HW222818   1.265   3.299   1.111
 7307SOL     OW22819   3.385   6.693   1.697
 7307SOL    HW122820   3.369   6.651   1.786
 7307SOL    HW222821   3.377   6.624   1.625
 7308SOL     OW22822   3.834   1.582   2.895
 7308SOL    HW122823   3.918   1.528   2.898
 7308SOL    HW222824   3.789   1.569   2.807
 7309SOL     OW22825   2.081   4.819   3.675
 7309SOL    HW122826   2.153   4.889   3.667
 7309SOL    HW222827   1.991   4.863   3.669
 7310SOL     OW22828   2.689   3.229   0.008
 7310SOL    HW122829   2.724   3.235   6.939
 7310SOL    HW222830   2.596   3.267   0.012
 7311SOL     OW22831   0.515   6.539   6.170
 7311SOL    HW122832   0.519   6.447   6.131
 7311SOL    HW222833   0.503   6.605   6.097
 7312SOL     OW22834   6.290   1.967   4.771
 7312SOL    HW122835   6.324   1.876   4.793
 7312SOL    HW222836   6.200   1.980   4.810
 7313SOL     OW22837   3.319   1.147   2.775
 7313SOL    HW122838   3.252   1.206   2.730
 7313SOL    HW222839   3.409   1.192   2.773
 7314SOL     OW22840   1.989   5.706   5.234
 7314SOL    HW122841   1.955   5.645   5.305
 7314SOL    HW222842   1.997   5.656   5.148
 7315SOL     OW22843   2.653   5.596   2.781
 7315SOL    HW122844   2.679   5.692   2.772
 7315SOL    HW222845   2.732   5.538   2.765
 7316SOL     OW22846   3.965   0.496   1.833
 7316SOL    HW122847   3.954   0.468   1.737
 7316SOL    HW222848   3.877   0.528   1.868
 7317SOL     OW22849   5.712   1.808   1.083
 7317SOL    HW122850   5.745   1.796   0.989
 7317SOL    HW222851   5.732   1.901   1.114
 7318SOL     OW22852   5.152   6.049   1.204
 7318SOL    HW122853   5.238   6.044   1.154
 7318SOL    HW222854   5.151   6.132   1.260
 7319SOL     OW22855   4.814   6.012   6.512
 7319SOL    HW122856   4.747   5.983   6.443
 7319SOL    HW222857   4.766   6.035   6.597
 7320SOL     OW22858   1.003   3.277   0.197
 7320SOL    HW122859   0.914   3.254   0.158
 7320SOL    HW222860   1.039   3.198   0.247
 7321SOL     OW22861   2.072   2.586   5.338
 7321SOL    HW122862   1.977   2.589   5.370
 7321SOL    HW222863   2.123   2.661   5.377
 7322SOL     OW22864   2.030   1.843   4.182
 7322SOL    HW122865   1.955   1.850   4.248
 7322SOL    HW222866   1.998   1.796   4.100
 7323SOL     OW22867   1.823   2.020   0.885
 7323SOL    HW122868   1.729   2.023   0.917
 7323SOL    HW222869   1.866   2.110   0.897
 7324SOL     OW22870   4.873   3.755   4.539
 7324SOL    HW122871   4.859   3.674   4.482
 7324SOL    HW222872   4.881   3.728   4.635
 7325SOL     OW22873   4.318   1.354   6.526
 7325SOL    HW122874   4.254   1.309   6.588
 7325SOL    HW222875   4.386   1.288   6.494
 7326SOL     OW22876   3.662   6.524   0.756
 7326SOL    HW122877   3.623   6.444   0.710
 7326SOL    HW222878   3.588   6.586   0.783
 7327SOL     OW22879   1.562   4.424   3.279
 7327SOL    HW122880   1.486   4.464   3.228
 7327SOL    HW222881   1.595   4.490   3.346
 7328SOL     OW22882   4.970   5.421   6.412
 7328SOL    HW122883   5.021   5.348   6.457
 7328SOL    HW222884   4.920   5.474   6.480
 7329SOL     OW22885   2.586   3.712   0.876
 7329SOL    HW122886   2.674   3.758   0.885
 7329SOL    HW222887   2.515   3.781   0.860
 7330SOL     OW22888   2.845   3.207   0.694
 7330SOL    HW122889   2.816   3.236   0.603
 7330SOL    HW222890   2.777   3.146   0.733
 7331SOL     OW22891   5.286   1.319   2.260
 7331SOL    HW122892   5.209   1.377   2.231
 7331SOL    HW222893   5.362   1.378   2.287
 7332SOL     OW22894   2.801   0.005   5.448
 7332SOL    HW122895   2.814   0.060   5.365
 7332SOL    HW222896   2.884   6.977   5.467
 7333SOL     OW22897   6.021   1.471   0.952
 7333SOL    HW122898   5.978   1.451   1.040
 7333SOL    HW222899   6.037   1.385   0.903
 7334SOL     OW22900   1.198   4.476   4.640
 7334SOL    HW122901   1.157   4.434   4.559
 7334SOL    HW222902   1.132   4.537   4.684
 7335SOL     OW22903   0.576   3.049   2.593
 7335SOL    HW122904   0.500   3.045   2.658
 7335SOL    HW222905   0.663   3.051   2.643
 7336SOL     OW22906   2.523   0.272   0.433
 7336SOL    HW122907   2.561   0.302   0.521
 7336SOL    HW222908   2.516   0.172   0.433
 7337SOL     OW22909   3.451   1.435   3.307
 7337SOL    HW122910   3.549   1.443   3.325
 7337SOL    HW222911   3.415   1.523   3.278
 7338SOL     OW22912   5.211   4.021   0.799
 7338SOL    HW122913   5.171   4.065   0.880
 7338SOL    HW222914   5.311   4.020   0.807
 7339SOL     OW22915   0.183   6.789   3.946
 7339SOL    HW122916   0.271   6.789   3.994
 7339SOL    HW222917   0.199   6.793   3.847
 7340SOL     OW22918   2.473   6.316   6.918
 7340SOL    HW122919   2.513   6.407   6.932
 7340SOL    HW222920   2.443   6.279   7.005
 7341SOL     OW22921   6.180   5.644   3.621
 7341SOL    HW122922   6.085   5.627   3.650
 7341SOL    HW222923   6.210   5.732   3.656
 7342SOL     OW22924   0.450   5.518   0.507
 7342SOL    HW122925   0.415   5.504   0.600
 7342SOL    HW222926   0.525   5.454   0.489
 7343SOL     OW22927   0.121   2.320   3.152
 7343SOL    HW122928   0.112   2.253   3.077
 7343SOL    HW222929   0.218   2.340   3.166
 7344SOL     OW22930   2.301   1.247   6.644
 7344SOL    HW122931   2.366   1.323   6.637
 7344SOL    HW222932   2.257   1.233   6.555
 7345SOL     OW22933   1.985   6.927   6.524
 7345SOL    HW122934   1.907   6.866   6.507
 7345SOL    HW222935   1.975   7.010   6.469
 7346SOL     OW22936   3.429   5.099   3.374
 7346SOL    HW122937   3.424   5.036   3.296
 7346SOL    HW222938   3.518   5.144   3.374
 7347SOL     OW22939   6.809   3.069   3.317
 7347SOL    HW122940   6.763   3.055   3.405
 7347SOL    HW222941   6.754   3.131   3.260
 7348SOL     OW22942   6.266   0.651   6.281
 7348SOL    HW122943   6.261   0.659   6.181
 7348SOL    HW222944   6.362   0.656   6.310
 7349SOL     OW22945   3.848   1.722   1.325
 7349SOL    HW122946   3.815   1.720   1.419
 7349SOL    HW222947   3.808   1.800   1.277
 7350SOL     OW22948   2.340   0.680   3.185
 7350SOL    HW122949   2.355   0.682   3.284
 7350SOL    HW222950   2.329   0.774   3.151
 7351SOL     OW22951   4.423   4.465   0.680
 7351SOL    HW122952   4.436   4.411   0.597
 7351SOL    HW222953   4.451   4.560   0.663
 7352SOL     OW22954   6.663   0.751   3.359
 7352SOL    HW122955   6.701   0.841   3.378
 7352SOL    HW222956   6.658   0.698   3.444
 7353SOL     OW22957   5.560   1.732   5.605
 7353SOL    HW122958   5.487   1.728   5.537
 7353SOL    HW222959   5.646   1.701   5.563
 7354SOL     OW22960   5.801   4.362   4.809
 7354SOL    HW122961   5.789   4.461   4.805
 7354SOL    HW222962   5.718   4.320   4.844
 7355SOL     OW22963   6.834   5.754   1.105
 7355SOL    HW122964   6.908   5.702   1.063
 7355SOL    HW222965   6.747   5.729   1.062
 7356SOL     OW22966   6.983   1.893   5.945
 7356SOL    HW122967   6.948   1.944   5.866
 7356SOL    HW222968   7.020   1.957   6.012
 7357SOL     OW22969   0.940   1.402   0.721
 7357SOL    HW122970   0.915   1.316   0.764
 7357SOL    HW222971   0.952   1.388   0.623
 7358SOL     OW22972   3.692   1.009   3.721
 7358SOL    HW122973   3.623   0.968   3.779
 7358SOL    HW222974   3.649   1.046   3.638
 7359SOL     OW22975   2.944   3.284   3.692
 7359SOL    HW122976   2.952   3.239   3.603
 7359SOL    HW222977   3.034   3.291   3.734
 7360SOL     OW22978   0.870   4.188   6.831
 7360SOL    HW122979   0.927   4.108   6.851
 7360SOL    HW222980   0.808   4.166   6.755
 7361SOL     OW22981   4.519   6.600   1.465
 7361SOL    HW122982   4.565   6.689   1.459
 7361SOL    HW222983   4.462   6.598   1.547
 7362SOL     OW22984   1.392   6.233   6.579
 7362SOL    HW122985   1.418   6.308   6.640
 7362SOL    HW222986   1.474   6.185   6.550
 7363SOL     OW22987   4.455   2.389   6.488
 7363SOL    HW122988   4.448   2.467   6.549
 7363SOL    HW222989   4.522   2.324   6.524
 7364SOL     OW22990   4.728   6.992   0.785
 7364SOL    HW122991   4.688   6.929   0.852
 7364SOL    HW222992   4.756   0.053   0.831
 7365SOL     OW22993   4.637   6.820   0.969
 7365SOL    HW122994   4.676   6.731   0.989
 7365SOL    HW222995   4.636   6.876   1.052
 7366SOL     OW22996   1.607   0.084   0.281
 7366SOL    HW122997   1.522   0.065   0.230
 7366SOL    HW222998   1.592   0.161   0.343
 7367SOL     OW22999   4.274   2.562   6.822
 7367SOL    HW123000   4.371   2.578   6.807
 7367SOL    HW223001   4.262   2.491   6.892
 7368SOL     OW23002   3.420   3.195   4.407
 7368SOL    HW123003   3.417   3.096   4.415
 7368SOL    HW223004   3.425   3.236   4.499
 7369SOL     OW23005   6.050   0.526   6.358
 7369SOL    HW123006   5.985   0.520   6.282
 7369SOL    HW223007   6.128   0.581   6.330
 7370SOL     OW23008   0.867   6.001   0.662
 7370SOL    HW123009   0.900   6.091   0.636
 7370SOL    HW223010   0.782   6.010   0.713
 7371SOL     OW23011   1.120   5.020   4.625
 7371SOL    HW123012   1.197   5.053   4.571
 7371SOL    HW223013   1.151   4.952   4.691
 7372SOL     OW23014   3.268   0.712   5.143
 7372SOL    HW123015   3.310   0.719   5.233
 7372SOL    HW223016   3.229   0.801   5.117
 7373SOL     OW23017   3.606   0.491   1.178
 7373SOL    HW123018   3.559   0.540   1.252
 7373SOL    HW223019   3.539   0.459   1.112
 7374SOL     OW23020   2.613   3.589   6.367
 7374SOL    HW123021   2.545   3.644   6.319
 7374SOL    HW223022   2.574   3.501   6.392
 7375SOL     OW23023   2.890   6.007   3.366
 7375SOL    HW123024   2.858   6.085   3.420
 7375SOL    HW223025   2.884   6.029   3.268
 7376SOL     OW23026   3.281   3.746   6.434
 7376SOL    HW123027   3.284   3.771   6.337
 7376SOL    HW223028   3.186   3.742   6.465
 7377SOL     OW23029   6.182   5.933   1.783
 7377SOL    HW123030   6.142   5.969   1.698
 7377SOL    HW223031   6.175   6.002   1.855
 7378SOL     OW23032   0.512   2.195   5.195
 7378SOL    HW123033   0.596   2.146   5.215
 7378SOL    HW223034   0.456   2.202   5.277
 7379SOL     OW23035   4.560   0.612   0.379
 7379SOL    HW123036   4.608   0.530   0.347
 7379SOL    HW223037   4.543   0.603   0.478
 7380SOL     OW23038   6.503   2.935   6.366
 7380SOL    HW123039   6.432   2.870   6.337
 7380SOL    HW223040   6.494   2.952   6.464
 7381SOL     OW23041   5.010   2.193   6.936
 7381SOL    HW123042   5.035   2.199   0.008
 7381SOL    HW223043   5.030   2.102   6.901
 7382SOL     OW23044   1.234   5.362   3.839
 7382SOL    HW123045   1.233   5.351   3.938
 7382SOL    HW223046   1.156   5.417   3.810
 7383SOL     OW23047   1.655   4.440   2.963
 7383SOL    HW123048   1.719   4.393   3.024
 7383SOL    HW223049   1.587   4.489   3.017
 7384SOL     OW23050   6.391   1.943   0.513
 7384SOL    HW123051   6.312   1.905   0.562
 7384SOL    HW223052   6.430   1.872   0.454
 7385SOL     OW23053   5.245   0.412   1.927
 7385SOL    HW123054   5.337   0.372   1.934
 7385SOL    HW223055   5.211   0.433   2.019
 7386SOL     OW23056   6.589   1.658   6.007
 7386SOL    HW123057   6.620   1.619   5.920
 7386SOL    HW223058   6.657   1.722   6.042
 7387SOL     OW23059   5.154   6.066   3.730
 7387SOL    HW123060   5.218   6.128   3.685
 7387SOL    HW223061   5.068   6.114   3.748
 7388SOL     OW23062   5.244   3.879   4.897
 7388SOL    HW123063   5.275   3.791   4.933
 7388SOL    HW223064   5.317   3.920   4.843
 7389SOL     OW23065   0.820   3.187   4.919
 7389SOL    HW123066   0.816   3.090   4.941
 7389SOL    HW223067   0.809   3.199   4.820
 7390SOL     OW23068   4.166   0.526   6.833
 7390SOL    HW123069   4.087   0.573   6.794
 7390SOL    HW223070   4.217   0.590   6.891
 7391SOL     OW23071   0.447   4.948   0.176
 7391SOL    HW123072   0.368   4.902   0.217
 7391SOL    HW223073   0.517   4.964   0.246
 7392SOL     OW23074   2.383   4.678   2.247
 7392SOL    HW123075   2.289   4.661   2.277
 7392SOL    HW223076   2.432   4.591   2.242
 7393SOL     OW23077   0.968   3.844   6.925
 7393SOL    HW123078   0.905   3.846   6.847
 7393SOL    HW223079   1.047   3.787   6.902
 7394SOL     OW23080   2.289   2.855   6.177
 7394SOL    HW123081   2.357   2.821   6.243
 7394SOL    HW223082   2.332   2.864   6.087
 7395SOL     OW23083   2.566   0.558   6.961
 7395SOL    HW123084   2.599   0.514   0.021
 7395SOL    HW223085   2.551   0.489   6.891
 7396SOL     OW23086   6.796   6.750   1.823
 7396SOL    HW123087   6.874   6.692   1.799
 7396SOL    HW223088   6.719   6.693   1.850
 7397SOL     OW23089   6.280   4.003   4.647
 7397SOL    HW123090   6.339   3.982   4.725
 7397SOL    HW223091   6.184   3.996   4.675
 7398SOL     OW23092   4.447   6.424   3.128
 7398SOL    HW123093   4.411   6.517   3.126
 7398SOL    HW223094   4.545   6.426   3.150
 7399SOL     OW23095   5.216   4.875   4.458
 7399SOL    HW123096   5.310   4.865   4.425
 7399SOL    HW223097   5.193   4.972   4.462
 7400SOL     OW23098   2.543   4.158   0.442
 7400SOL    HW123099   2.520   4.188   0.535
 7400SOL    HW223100   2.622   4.097   0.445
 7401SOL     OW23101   5.896   2.711   5.160
 7401SOL    HW123102   5.816   2.669   5.204
 7401SOL    HW223103   5.939   2.776   5.223
 7402SOL     OW23104   2.205   5.978   4.232
 7402SOL    HW123105   2.160   5.936   4.311
 7402SOL    HW223106   2.138   6.031   4.179
 7403SOL     OW23107   2.538   2.982   1.659
 7403SOL    HW123108   2.605   3.049   1.626
 7403SOL    HW223109   2.469   3.028   1.714
 7404SOL     OW23110   1.231   1.832   2.729
 7404SOL    HW123111   1.276   1.803   2.814
 7404SOL    HW223112   1.257   1.927   2.709
 7405SOL     OW23113   4.211   4.525   6.017
 7405SOL    HW123114   4.258   4.606   5.983
 7405SOL    HW223115   4.268   4.444   6.001
 7406SOL     OW23116   0.595   6.503   2.525
 7406SOL    HW123117   0.497   6.514   2.542
 7406SOL    HW223118   0.634   6.590   2.495
 7407SOL     OW23119   2.787   0.954   5.994
 7407SOL    HW123120   2.837   0.999   5.920
 7407SOL    HW223121   2.814   0.858   5.999
 7408SOL     OW23122   0.608   3.656   5.454
 7408SOL    HW123123   0.596   3.749   5.489
 7408SOL    HW223124   0.520   3.621   5.421
 7409SOL     OW23125   2.479   6.914   4.894
 7409SOL    HW123126   2.436   6.988   4.945
 7409SOL    HW223127   2.561   6.948   4.848
 7410SOL     OW23128   4.236   5.694   5.671
 7410SOL    HW123129   4.242   5.777   5.615
 7410SOL    HW223130   4.154   5.643   5.648
 7411SOL     OW23131   5.205   4.270   5.585
 7411SOL    HW123132   5.304   4.266   5.596
 7411SOL    HW223133   5.177   4.365   5.570
 7412SOL     OW23134   1.994   1.279   6.692
 7412SOL    HW123135   1.961   1.366   6.728
 7412SOL    HW223136   2.092   1.286   6.674
 7413SOL     OW23137   0.004   3.476   4.141
 7413SOL    HW123138   7.002   3.565   4.178
 7413SOL    HW223139   0.101   3.476   4.117
 7414SOL     OW23140   0.447   5.133   1.427
 7414SOL    HW123141   0.505   5.086   1.361
 7414SOL    HW223142   0.367   5.077   1.446
 7415SOL     OW23143   3.333   1.665   3.257
 7415SOL    HW123144   3.234   1.676   3.269
 7415SOL    HW223145   3.356   1.672   3.160
 7416SOL     OW23146   6.489   7.022   2.834
 7416SOL    HW123147   6.400   7.019   2.789
 7416SOL    HW223148   6.561   7.005   2.766
 7417SOL     OW23149   0.474   5.087   1.021
 7417SOL    HW123150   0.470   5.002   1.074
 7417SOL    HW223151   0.562   5.131   1.035
 7418SOL     OW23152   1.247   3.413   0.199
 7418SOL    HW123153   1.224   3.483   0.267
 7418SOL    HW223154   1.167   3.355   0.182
 7419SOL     OW23155   6.248   2.424   5.436
 7419SOL    HW123156   6.329   2.483   5.426
 7419SOL    HW223157   6.181   2.446   5.366
 7420SOL     OW23158   6.760   5.630   2.238
 7420SOL    HW123159   6.778   5.578   2.321
 7420SOL    HW223160   6.670   5.674   2.243
 7421SOL     OW23161   4.286   1.878   1.786
 7421SOL    HW123162   4.208   1.823   1.756
 7421SOL    HW223163   4.286   1.965   1.737
 7422SOL     OW23164   0.613   1.440   0.951
 7422SOL    HW123165   0.622   1.533   0.916
 7422SOL    HW223166   0.690   1.419   1.012
 7423SOL     OW23167   2.468   4.394   0.322
 7423SOL    HW123168   2.498   4.320   0.382
 7423SOL    HW223169   2.397   4.360   0.260
 7424SOL     OW23170   5.106   0.279   4.272
 7424SOL    HW123171   5.058   0.342   4.334
 7424SOL    HW223172   5.104   0.316   4.179
 7425SOL     OW23173   3.437   0.143   4.721
 7425SOL    HW123174   3.458   0.147   4.623
 7425SOL    HW223175   3.482   0.220   4.768
 7426SOL     OW23176   0.284   1.262   6.463
 7426SOL    HW123177   0.366   1.213   6.433
 7426SOL    HW223178   0.294   1.359   6.442
 7427SOL     OW23179   5.274   5.472   5.223
 7427SOL    HW123180   5.323   5.398   5.270
 7427SOL    HW223181   5.318   5.490   5.135
 7428SOL     OW23182   4.399   1.021   5.265
 7428SOL    HW123183   4.360   0.950   5.323
 7428SOL    HW223184   4.346   1.105   5.274
 7429SOL     OW23185   6.255   6.242   4.048
 7429SOL    HW123186   6.231   6.315   4.111
 7429SOL    HW223187   6.325   6.183   4.089
 7430SOL     OW23188   0.622   4.229   4.124
 7430SOL    HW123189   0.670   4.185   4.200
 7430SOL    HW223190   0.550   4.168   4.091
 7431SOL     OW23191   0.162   4.173   2.251
 7431SOL    HW123192   0.075   4.176   2.200
 7431SOL    HW223193   0.153   4.110   2.327
 7432SOL     OW23194   1.882   6.556   5.234
 7432SOL    HW123195   1.972   6.514   5.220
 7432SOL    HW223196   1.851   6.539   5.327
 7433SOL     OW23197   0.371   6.528   0.948
 7433SOL    HW123198   0.440   6.522   1.020
 7433SOL    HW223199   0.307   6.452   0.958
 7434SOL     OW23200   3.936   6.710   0.362
 7434SOL    HW123201   3.996   6.630   0.363
 7434SOL    HW223202   3.990   6.793   0.349
 7435SOL     OW23203   1.584   5.465   0.107
 7435SOL    HW123204   1.590   5.369   0.136
 7435SOL    HW223205   1.488   5.487   0.088
 7436SOL     OW23206   4.185   3.843   0.157
 7436SOL    HW123207   4.264   3.849   0.219
 7436SOL    HW223208   4.217   3.849   0.062
 7437SOL     OW23209   6.879   6.313   5.271
 7437SOL    HW123210   6.919   6.255   5.343
 7437SOL    HW223211   6.930   6.299   5.186
 7438SOL     OW23212   5.660   3.962   1.406
 7438SOL    HW123213   5.674   3.911   1.321
 7438SOL    HW223214   5.741   3.952   1.464
 7439SOL     OW23215   1.618   6.289   2.577
 7439SOL    HW123216   1.613   6.352   2.654
 7439SOL    HW223217   1.553   6.214   2.591
 7440SOL     OW23218   0.945   1.199   3.755
 7440SOL    HW123219   0.905   1.175   3.667
 7440SOL    HW223220   0.881   1.176   3.829
 7441SOL     OW23221   6.469   0.241   3.998
 7441SOL    HW123222   6.456   0.272   3.904
 7441SOL    HW223223   6.410   0.295   4.059
 7442SOL     OW23224   1.678   0.919   6.306
 7442SOL    HW123225   1.758   0.882   6.354
 7442SOL    HW223226   1.599   0.916   6.367
 7443SOL     OW23227   6.695   2.360   1.883
 7443SOL    HW123228   6.620   2.296   1.899
 7443SOL    HW223229   6.664   2.436   1.826
 7444SOL     OW23230   0.869   2.659   5.176
 7444SOL    HW123231   0.925   2.742   5.176
 7444SOL    HW223232   0.918   2.586   5.223
 7445SOL     OW23233   6.191   2.995   1.579
 7445SOL    HW123234   6.094   2.985   1.599
 7445SOL    HW223235   6.204   3.068   1.512
 7446SOL     OW23236   6.011   3.365   3.253
 7446SOL    HW123237   5.944   3.435   3.275
 7446SOL    HW223238   6.070   3.396   3.178
 7447SOL     OW23239   0.520   3.775   6.507
 7447SOL    HW123240   0.453   3.721   6.456
 7447SOL    HW223241   0.511   3.756   6.605
 7448SOL     OW23242   0.267   0.076   6.427
 7448SOL    HW123243   0.334   0.003   6.441
 7448SOL    HW223244   0.181   0.036   6.394
 7449SOL     OW23245   4.187   6.898   1.779
 7449SOL    HW123246   4.170   6.836   1.702
 7449SOL    HW223247   4.107   6.957   1.793
 7450SOL     OW23248   3.873   1.176   1.896
 7450SOL    HW123249   3.781   1.195   1.928
 7450SOL    HW223250   3.879   1.196   1.798
 7451SOL     OW23251   1.211   0.645   2.781
 7451SOL    HW123252   1.248   0.552   2.775
 7451SOL    HW223253   1.172   0.659   2.872
 7452SOL     OW23254   1.690   5.787   3.441
 7452SOL    HW123255   1.621   5.859   3.443
 7452SOL    HW223256   1.645   5.697   3.437
 7453SOL     OW23257   6.499   4.614   5.436
 7453SOL    HW123258   6.470   4.528   5.478
 7453SOL    HW223259   6.435   4.638   5.363
 7454SOL     OW23260   1.175   3.083   6.930
 7454SOL    HW123261   1.116   3.081   6.849
 7454SOL    HW223262   1.258   3.135   6.909
 7455SOL     OW23263   4.871   0.545   0.745
 7455SOL    HW123264   4.806   0.557   0.820
 7455SOL    HW223265   4.832   0.483   0.677
 7456SOL     OW23266   1.035   3.760   6.197
 7456SOL    HW123267   1.089   3.844   6.196
 7456SOL    HW223268   0.966   3.765   6.125
 7457SOL     OW23269   6.683   6.500   6.193
 7457SOL    HW123270   6.634   6.417   6.164
 7457SOL    HW223271   6.779   6.492   6.165
 7458SOL     OW23272   2.452   0.793   0.937
 7458SOL    HW123273   2.500   0.734   1.001
 7458SOL    HW223274   2.428   0.740   0.855
 7459SOL     OW23275   3.841   6.253   4.388
 7459SOL    HW123276   3.824   6.320   4.316
 7459SOL    HW223277   3.867   6.300   4.472
 7460SOL     OW23278   1.089   5.300   0.223
 7460SOL    HW123279   1.141   5.242   0.285
 7460SOL    HW223280   1.151   5.360   0.172
 7461SOL     OW23281   4.211   1.142   4.381
 7461SOL    HW123282   4.210   1.216   4.449
 7461SOL    HW223283   4.223   1.181   4.290
 7462SOL     OW23284   2.311   1.562   3.427
 7462SOL    HW123285   2.296   1.497   3.353
 7462SOL    HW223286   2.297   1.655   3.393
 7463SOL     OW23287   3.943   3.976   2.132
 7463SOL    HW123288   3.865   4.020   2.175
 7463SOL    HW223289   3.977   4.034   2.058
 7464SOL     OW23290   4.746   6.483   6.984
 7464SOL    HW123291   4.820   6.417   6.994
 7464SOL    HW223292   4.738   6.538   0.043
 7465SOL     OW23293   3.954   0.454   3.084
 7465SOL    HW123294   3.936   0.400   3.166
 7465SOL    HW223295   4.051   0.453   3.064
 7466SOL     OW23296   5.977   0.221   0.401
 7466SOL    HW123297   5.890   0.177   0.378
 7466SOL    HW223298   6.004   0.282   0.326
 7467SOL     OW23299   4.777   2.189   0.889
 7467SOL    HW123300   4.730   2.127   0.953
 7467SOL    HW223301   4.850   2.140   0.843
 7468SOL     OW23302   5.721   3.994   4.337
 7468SOL    HW123303   5.632   3.973   4.298
 7468SOL    HW223304   5.783   4.024   4.264
 7469SOL     OW23305   5.117   1.091   1.842
 7469SOL    HW123306   5.196   1.111   1.900
 7469SOL    HW223307   5.033   1.106   1.894
 7470SOL     OW23308   6.905   3.501   3.175
 7470SOL    HW123309   6.949   3.450   3.102
 7470SOL    HW223310   6.838   3.443   3.222
 7471SOL     OW23311   6.442   4.893   5.494
 7471SOL    HW123312   6.482   4.806   5.466
 7471SOL    HW223313   6.377   4.924   5.424
 7472SOL     OW23314   3.917   5.093   3.364
 7472SOL    HW123315   4.003   5.142   3.353
 7472SOL    HW223316   3.933   5.009   3.416
 7473SOL     OW23317   1.211   3.215   5.389
 7473SOL    HW123318   1.231   3.284   5.459
 7473SOL    HW223319   1.182   3.261   5.305
 7474SOL     OW23320   2.337   1.132   3.279
 7474SOL    HW123321   2.264   1.144   3.347
 7474SOL    HW223322   2.361   1.221   3.241
 7475SOL     OW23323   4.773   0.827   6.406
 7475SOL    HW123324   4.684   0.851   6.443
 7475SOL    HW223325   4.814   0.906   6.361
 7476SOL     OW23326   2.008   6.468   4.837
 7476SOL    HW123327   1.942   6.422   4.897
 7476SOL    HW223328   2.071   6.521   4.893
 7477SOL     OW23329   5.137   3.710   4.241
 7477SOL    HW123330   5.092   3.642   4.184
 7477SOL    HW223331   5.071   3.783   4.263
 7478SOL     OW23332   0.539   4.432   1.541
 7478SOL    HW123333   0.610   4.495   1.575
 7478SOL    HW223334   0.453   4.450   1.589
 7479SOL     OW23335   3.849   0.359   5.096
 7479SOL    HW123336   3.790   0.437   5.114
 7479SOL    HW223337   3.799   0.274   5.114
 7480SOL     OW23338   6.137   5.094   0.467
 7480SOL    HW123339   6.213   5.157   0.481
 7480SOL    HW223340   6.121   5.042   0.551
 7481SOL     OW23341   5.977   6.318   0.140
 7481SOL    HW123342   5.907   6.378   0.180
 7481SOL    HW223343   6.007   6.356   0.053
 7482SOL     OW23344   4.965   0.202   4.653
 7482SOL    HW123345   4.919   0.146   4.585
 7482SOL    HW223346   5.064   0.198   4.637
 7483SOL     OW23347   3.499   0.424   6.206
 7483SOL    HW123348   3.516   0.507   6.153
 7483SOL    HW223349   3.448   0.447   6.289
 7484SOL     OW23350   3.716   0.141   1.846
 7484SOL    HW123351   3.684   0.141   1.940
 7484SOL    HW223352   3.683   0.223   1.799
 7485SOL     OW23353   0.782   6.665   5.008
 7485SOL    HW123354   0.832   6.608   5.073
 7485SOL    HW223355   0.841   6.739   4.976
 7486SOL     OW23356   0.898   1.741   5.301
 7486SOL    HW123357   0.922   1.645   5.314
 7486SOL    HW223358   0.940   1.775   5.217
 7487SOL     OW23359   3.673   5.236   3.354
 7487SOL    HW123360   3.765   5.195   3.354
 7487SOL    HW223361   3.671   5.311   3.419
 7488SOL     OW23362   4.793   0.664   5.114
 7488SOL    HW123363   4.693   0.666   5.106
 7488SOL    HW223364   4.830   0.754   5.091
 7489SOL     OW23365   6.753   3.758   3.754
 7489SOL    HW123366   6.709   3.705   3.826
 7489SOL    HW223367   6.835   3.709   3.721
 7490SOL     OW23368   5.592   0.305   3.129
 7490SOL    HW123369   5.622   0.251   3.207
 7490SOL    HW223370   5.643   0.278   3.048
 7491SOL     OW23371   0.354   6.696   0.582
 7491SOL    HW123372   0.406   6.699   0.497
 7491SOL    HW223373   0.286   6.769   0.583
 7492SOL     OW23374   2.050   2.295   3.717
 7492SOL    HW123375   2.050   2.322   3.814
 7492SOL    HW223376   2.071   2.375   3.661
 7493SOL     OW23377   5.251   4.738   6.782
 7493SOL    HW123378   5.283   4.826   6.747
 7493SOL    HW223379   5.195   4.692   6.713
 7494SOL     OW23380   4.940   1.966   1.777
 7494SOL    HW123381   4.927   2.040   1.843
 7494SOL    HW223382   4.882   1.982   1.697
 7495SOL     OW23383   0.964   1.779   2.567
 7495SOL    HW123384   1.004   1.795   2.477
 7495SOL    HW223385   1.022   1.822   2.637
 7496SOL     OW23386   0.630   5.422   5.632
 7496SOL    HW123387   0.670   5.355   5.568
 7496SOL    HW223388   0.642   5.389   5.725
 7497SOL     OW23389   1.613   4.943   2.517
 7497SOL    HW123390   1.540   4.938   2.449
 7497SOL    HW223391   1.700   4.961   2.472
 7498SOL     OW23392   5.693   1.938   4.530
 7498SOL    HW123393   5.738   2.005   4.588
 7498SOL    HW223394   5.753   1.858   4.519
 7499SOL     OW23395   3.876   4.902   3.958
 7499SOL    HW123396   3.798   4.875   4.014
 7499SOL    HW223397   3.957   4.851   3.987
 7500SOL     OW23398   4.940   4.123   1.789
 7500SOL    HW123399   4.990   4.049   1.745
 7500SOL    HW223400   4.889   4.174   1.720
 7501SOL     OW23401   0.455   4.970   3.943
 7501SOL    HW123402   0.486   4.943   3.851
 7501SOL    HW223403   0.425   4.888   3.992
 7502SOL     OW23404   1.803   2.238   3.970
 7502SOL    HW123405   1.898   2.260   3.992
 7502SOL    HW223406   1.762   2.313   3.919
 7503SOL     OW23407   2.467   2.891   6.920
 7503SOL    HW123408   2.522   2.955   6.867
 7503SOL    HW223409   2.465   2.802   6.875
 7504SOL     OW23410   3.923   5.403   4.049
 7504SOL    HW123411   3.970   5.374   4.133
 7504SOL    HW223412   3.955   5.495   4.023
 7505SOL     OW23413   1.880   1.055   4.426
 7505SOL    HW123414   1.906   1.023   4.517
 7505SOL    HW223415   1.955   1.106   4.385
 7506SOL     OW23416   3.804   1.132   3.130
 7506SOL    HW123417   3.725   1.141   3.069
 7506SOL    HW223418   3.859   1.052   3.103
 7507SOL     OW23419   2.085   6.968   5.583
 7507SOL    HW123420   2.037   7.000   5.666
 7507SOL    HW223421   2.028   6.901   5.536
 7508SOL     OW23422   5.267   5.186   3.706
 7508SOL    HW123423   5.180   5.162   3.748
 7508SOL    HW223424   5.251   5.250   3.631
 7509SOL     OW23425   4.031   4.274   5.929
 7509SOL    HW123426   4.113   4.321   5.897
 7509SOL    HW223427   3.973   4.250   5.851
 7510SOL     OW23428   3.443   3.584   4.778
 7510SOL    HW123429   3.456   3.502   4.724
 7510SOL    HW223430   3.423   3.662   4.718
 7511SOL     OW23431   1.114   1.453   2.266
 7511SOL    HW123432   1.061   1.467   2.183
 7511SOL    HW223433   1.054   1.462   2.346
 7512SOL     OW23434   1.745   2.770   1.762
 7512SOL    HW123435   1.803   2.808   1.690
 7512SOL    HW223436   1.766   2.815   1.849
 7513SOL     OW23437   1.472   3.567   6.255
 7513SOL    HW123438   1.531   3.516   6.192
 7513SOL    HW223439   1.438   3.504   6.326
 7514SOL     OW23440   3.667   5.418   3.677
 7514SOL    HW123441   3.597   5.460   3.619
 7514SOL    HW223442   3.753   5.412   3.626
 7515SOL     OW23443   0.492   5.047   3.109
 7515SOL    HW123444   0.551   4.969   3.127
 7515SOL    HW223445   0.398   5.024   3.134
 7516SOL     OW23446   1.514   2.364   1.801
 7516SOL    HW123447   1.537   2.435   1.868
 7516SOL    HW223448   1.472   2.287   1.847
 7517SOL     OW23449   0.512   4.798   1.495
 7517SOL    HW123450   0.567   4.714   1.488
 7517SOL    HW223451   0.510   4.843   1.406
 7518SOL     OW23452   5.283   4.272   3.420
 7518SOL    HW123453   5.263   4.271   3.518
 7518SOL    HW223454   5.197   4.275   3.369
 7519SOL     OW23455   2.052   6.989   4.132
 7519SOL    HW123456   2.099   0.042   4.089
 7519SOL    HW223457   1.961   6.978   4.092
 7520SOL     OW23458   2.384   6.942   3.670
 7520SOL    HW123459   2.371   6.874   3.598
 7520SOL    HW223460   2.341   0.004   3.643
 7521SOL     OW23461   4.385   3.339   5.484
 7521SOL    HW123462   4.441   3.258   5.468
 7521SOL    HW223463   4.292   3.312   5.506
 7522SOL     OW23464   1.661   0.459   2.411
 7522SOL    HW123465   1.593   0.414   2.353
 7522SOL    HW223466   1.732   0.500   2.354
 7523SOL     OW23467   6.528   6.278   6.104
 7523SOL    HW123468   6.457   6.333   6.059
 7523SOL    HW223469   6.569   6.215   6.037
 7524SOL     OW23470   6.094   1.074   4.501
 7524SOL    HW123471   6.125   1.156   4.453
 7524SOL    HW223472   6.127   1.076   4.595
 7525SOL     OW23473   0.950   0.015   0.676
 7525SOL    HW123474   0.852   7.019   0.684
 7525SOL    HW223475   0.997   6.956   0.646
 7526SOL     OW23476   3.230   3.540   4.948
 7526SOL    HW123477   3.268   3.577   5.033
 7526SOL    HW223478   3.293   3.558   4.872
 7527SOL     OW23479   4.058   5.885   1.982
 7527SOL    HW123480   4.013   5.947   1.917
 7527SOL    HW223481   4.092   5.804   1.932
 7528SOL     OW23482   5.677   3.377   6.785
 7528SOL    HW123483   5.606   3.306   6.780
 7528SOL    HW223484   5.738   3.357   6.862
 7529SOL     OW23485   2.271   0.114   4.608
 7529SOL    HW123486   2.366   0.103   4.580
 7529SOL    HW223487   2.216   0.140   4.529
 7530SOL     OW23488   6.933   3.291   2.997
 7530SOL    HW123489   6.937   3.240   3.083
 7530SOL    HW223490   6.884   3.237   2.928
 7531SOL     OW23491   2.692   1.674   4.682
 7531SOL    HW123492   2.733   1.689   4.592
 7531SOL    HW223493   2.593   1.686   4.677
 7532SOL     OW23494   4.911   4.761   2.162
 7532SOL    HW123495   4.985   4.737   2.099
 7532SOL    HW223496   4.949   4.807   2.242
 7533SOL     OW23497   3.514   0.713   4.785
 7533SOL    HW123498   3.590   0.650   4.773
 7533SOL    HW223499   3.451   0.678   4.854
 7534SOL     OW23500   5.158   6.448   3.995
 7534SOL    HW123501   5.160   6.469   4.093
 7534SOL    HW223502   5.097   6.370   3.979
 7535SOL     OW23503   2.709   4.879   0.641
 7535SOL    HW123504   2.740   4.819   0.567
 7535SOL    HW223505   2.665   4.825   0.712
 7536SOL     OW23506   3.829   5.358   5.774
 7536SOL    HW123507   3.752   5.328   5.831
 7536SOL    HW223508   3.846   5.290   5.703
 7537SOL     OW23509   1.772   4.629   5.294
 7537SOL    HW123510   1.730   4.690   5.362
 7537SOL    HW223511   1.701   4.584   5.241
 7538SOL     OW23512   3.053   3.994   4.223
 7538SOL    HW123513   3.002   4.009   4.139
 7538SOL    HW223514   3.011   3.920   4.275
 7539SOL     OW23515   1.042   2.043   4.452
 7539SOL    HW123516   1.057   2.015   4.357
 7539SOL    HW223517   0.979   1.979   4.495
 7540SOL     OW23518   2.040   1.084   6.955
 7540SOL    HW123519   1.988   1.123   6.879
 7540SOL    HW223520   2.134   1.067   6.925
 7541SOL     OW23521   6.918   3.016   5.192
 7541SOL    HW123522   6.969   3.003   5.277
 7541SOL    HW223523   6.826   2.979   5.202
 7542SOL     OW23524   1.447   0.299   5.791
 7542SOL    HW123525   1.499   0.214   5.789
 7542SOL    HW223526   1.411   0.315   5.882
 7543SOL     OW23527   3.435   2.474   0.486
 7543SOL    HW123528   3.480   2.385   0.486
 7543SOL    HW223529   3.504   2.546   0.490
 7544SOL     OW23530   1.537   1.735   2.543
 7544SOL    HW123531   1.613   1.797   2.525
 7544SOL    HW223532   1.512   1.740   2.640
 7545SOL     OW23533   4.187   0.485   3.962
 7545SOL    HW123534   4.232   0.449   4.043
 7545SOL    HW223535   4.232   0.451   3.880
 7546SOL     OW23536   5.345   7.000   5.742
 7546SOL    HW123537   5.323   6.903   5.751
 7546SOL    HW223538   5.352   0.000   5.645
 7547SOL     OW23539   2.771   0.279   6.921
 7547SOL    HW123540   2.792   0.372   6.891
 7547SOL    HW223541   2.673   0.262   6.911
 7548SOL     OW23542   1.554   2.982   1.381
 7548SOL    HW123543   1.486   2.978   1.308
 7548SOL    HW223544   1.540   3.066   1.435
 7549SOL     OW23545   5.754   1.129   2.617
 7549SOL    HW123546   5.767   1.217   2.572
 7549SOL    HW223547   5.657   1.113   2.633
 7550SOL     OW23548   1.453   5.666   1.068
 7550SOL    HW123549   1.428   5.673   1.164
 7550SOL    HW223550   1.403   5.735   1.015
 7551SOL     OW23551   5.124   4.126   6.390
 7551SOL    HW123552   5.121   4.065   6.469
 7551SOL    HW223553   5.219   4.141   6.364
 7552SOL     OW23554   3.636   5.647   3.884
 7552SOL    HW123555   3.725   5.627   3.926
 7552SOL    HW223556   3.635   5.610   3.791
 7553SOL     OW23557   3.870   4.155   5.714
 7553SOL    HW123558   3.886   4.175   5.617
 7553SOL    HW223559   3.877   4.056   5.728
 7554SOL     OW23560   6.986   1.646   1.109
 7554SOL    HW123561   6.888   1.650   1.128
 7554SOL    HW223562   7.007   1.696   1.025
 7555SOL     OW23563   1.308   5.954   5.701
 7555SOL    HW123564   1.272   5.961   5.794
 7555SOL    HW223565   1.297   5.860   5.668
 7556SOL     OW23566   6.531   4.260   3.376
 7556SOL    HW123567   6.475   4.183   3.345
 7556SOL    HW223568   6.534   4.329   3.304
 7557SOL     OW23569   4.141   3.972   0.620
 7557SOL    HW123570   4.167   3.883   0.656
 7557SOL    HW223571   4.166   4.043   0.685
 7558SOL     OW23572   1.498   2.732   3.172
 7558SOL    HW123573   1.524   2.769   3.262
 7558SOL    HW223574   1.580   2.705   3.122
 7559SOL     OW23575   1.394   5.018   0.146
 7559SOL    HW123576   1.322   5.025   0.077
 7559SOL    HW223577   1.406   4.922   0.172
 7560SOL     OW23578   4.781   0.496   5.511
 7560SOL    HW123579   4.852   0.525   5.446
 7560SOL    HW223580   4.779   0.559   5.588
 7561SOL     OW23581   0.196   4.240   0.552
 7561SOL    HW123582   0.153   4.193   0.475
 7561SOL    HW223583   0.279   4.287   0.519
 7562SOL     OW23584   4.897   6.124   4.874
 7562SOL    HW123585   4.908   6.030   4.843
 7562SOL    HW223586   4.972   6.180   4.838
 7563SOL     OW23587   2.140   1.306   4.072
 7563SOL    HW123588   2.169   1.394   4.033
 7563SOL    HW223589   2.066   1.267   4.016
 7564SOL     OW23590   5.375   5.494   4.243
 7564SOL    HW123591   5.449   5.529   4.300
 7564SOL    HW223592   5.363   5.552   4.162
 7565SOL     OW23593   4.807   5.415   7.008
 7565SOL    HW123594   4.838   5.486   6.944
 7565SOL    HW223595   4.735   5.361   6.964
 7566SOL     OW23596   1.309   5.739   3.923
 7566SOL    HW123597   1.293   5.769   4.017
 7566SOL    HW223598   1.392   5.684   3.919
 7567SOL     OW23599   2.621   3.289   0.448
 7567SOL    HW123600   2.699   3.254   0.396
 7567SOL    HW223601   2.568   3.212   0.484
 7568SOL     OW23602   3.960   4.813   2.675
 7568SOL    HW123603   4.048   4.817   2.628
 7568SOL    HW223604   3.886   4.807   2.607
 7569SOL     OW23605   4.000   6.844   2.133
 7569SOL    HW123606   3.984   6.884   2.223
 7569SOL    HW223607   4.087   6.876   2.097
 7570SOL     OW23608   5.873   4.878   4.790
 7570SOL    HW123609   5.925   4.877   4.704
 7570SOL    HW223610   5.840   4.971   4.807
 7571SOL     OW23611   5.874   4.255   1.297
 7571SOL    HW123612   5.925   4.333   1.262
 7571SOL    HW223613   5.777   4.275   1.297
 7572SOL     OW23614   0.050   1.078   3.029
 7572SOL    HW123615   6.996   1.018   3.009
 7572SOL    HW223616   0.032   1.129   3.113
 7573SOL     OW23617   2.783   5.316   5.335
 7573SOL    HW123618   2.880   5.306   5.311
 7573SOL    HW223619   2.727   5.294   5.255
 7574SOL     OW23620   4.613   6.491   2.266
 7574SOL    HW123621   4.554   6.474   2.344
 7574SOL    HW223622   4.626   6.407   2.214
 7575SOL     OW23623   5.082   2.717   5.268
 7575SOL    HW123624   5.150   2.775   5.314
 7575SOL    HW223625   5.028   2.668   5.336
 7576SOL     OW23626   6.944   3.433   1.639
 7576SOL    HW123627   6.876   3.489   1.592
 7576SOL    HW223628   7.012   3.492   1.683
 7577SOL     OW23629   4.639   1.052   4.728
 7577SOL    HW123630   4.627   0.991   4.650
 7577SOL    HW223631   4.624   1.002   4.813
 7578SOL     OW23632   2.332   5.312   4.834
 7578SOL    HW123633   2.425   5.311   4.796
 7578SOL    HW223634   2.267   5.288   4.763
 7579SOL     OW23635   4.321   2.252   3.703
 7579SOL    HW123636   4.229   2.217   3.686
 7579SOL    HW223637   4.326   2.287   3.797
 7580SOL     OW23638   1.997   3.385   2.031
 7580SOL    HW123639   2.074   3.445   2.007
 7580SOL    HW223640   1.970   3.333   1.951
 7581SOL     OW23641   5.211   0.688   0.801
 7581SOL    HW123642   5.188   0.736   0.716
 7581SOL    HW223643   5.139   0.704   0.869
 7582SOL     OW23644   3.280   2.457   0.899
 7582SOL    HW123645   3.356   2.521   0.890
 7582SOL    HW223646   3.202   2.489   0.845
 7583SOL     OW23647   0.038   4.351   2.750
 7583SOL    HW123648   7.020   4.284   2.689
 7583SOL    HW223649   0.034   4.318   2.844
 7584SOL     OW23650   2.267   1.727   1.817
 7584SOL    HW123651   2.225   1.766   1.735
 7584SOL    HW223652   2.245   1.630   1.823
 7585SOL     OW23653   1.860   4.886   5.999
 7585SOL    HW123654   1.949   4.892   6.045
 7585SOL    HW223655   1.827   4.792   6.003
 7586SOL     OW23656   2.140   1.910   3.030
 7586SOL    HW123657   2.239   1.898   3.034
 7586SOL    HW223658   2.102   1.856   2.955
 7587SOL     OW23659   2.397   1.117   5.849
 7587SOL    HW123660   2.444   1.195   5.890
 7587SOL    HW223661   2.311   1.100   5.898
 7588SOL     OW23662   0.641   4.233   1.847
 7588SOL    HW123663   0.643   4.241   1.748
 7588SOL    HW223664   0.549   4.208   1.877
 7589SOL     OW23665   5.260   6.310   6.818
 7589SOL    HW123666   5.345   6.351   6.851
 7589SOL    HW223667   5.238   6.348   6.728
 7590SOL     OW23668   1.859   0.711   5.965
 7590SOL    HW123669   1.883   0.652   6.043
 7590SOL    HW223670   1.781   0.673   5.917
 7591SOL     OW23671   6.280   5.385   6.750
 7591SOL    HW123672   6.190   5.416   6.722
 7591SOL    HW223673   6.300   5.417   6.843
 7592SOL     OW23674   4.761   5.038   5.997
 7592SOL    HW123675   4.847   5.004   6.034
 7592SOL    HW223676   4.714   5.093   6.067
 7593SOL     OW23677   5.590   4.514   0.775
 7593SOL    HW123678   5.531   4.434   0.768
 7593SOL    HW223679   5.534   4.597   0.773
 7594SOL     OW23680   1.104   0.011   3.672
 7594SOL    HW123681   1.137   6.964   3.610
 7594SOL    HW223682   1.167   0.020   3.749
 7595SOL     OW23683   5.853   2.721   6.768
 7595SOL    HW123684   5.923   2.691   6.702
 7595SOL    HW223685   5.882   2.697   6.860
 7596SOL     OW23686   4.550   4.945   1.928
 7596SOL    HW123687   4.521   4.979   2.018
 7596SOL    HW223688   4.558   4.845   1.931
 7597SOL     OW23689   2.332   6.134   1.599
 7597SOL    HW123690   2.236   6.122   1.573
 7597SOL    HW223691   2.387   6.066   1.551
 7598SOL     OW23692   6.562   0.818   2.184
 7598SOL    HW123693   6.466   0.810   2.210
 7598SOL    HW223694   6.617   0.834   2.266
 7599SOL     OW23695   6.280   2.667   2.261
 7599SOL    HW123696   6.328   2.753   2.241
 7599SOL    HW223697   6.341   2.590   2.243
 7600SOL     OW23698   2.476   2.229   2.946
 7600SOL    HW123699   2.390   2.211   2.898
 7600SOL    HW223700   2.551   2.236   2.881
 7601SOL     OW23701   2.148   0.469   5.212
 7601SOL    HW123702   2.223   0.534   5.213
 7601SOL    HW223703   2.143   0.424   5.122
 7602SOL     OW23704   2.379   3.498   5.519
 7602SOL    HW123705   2.446   3.447   5.466
 7602SOL    HW223706   2.406   3.594   5.523
 7603SOL     OW23707   6.796   1.041   1.820
 7603SOL    HW123708   6.728   1.057   1.748
 7603SOL    HW223709   6.759   0.978   1.888
 7604SOL     OW23710   5.204   5.422   0.209
 7604SOL    HW123711   5.177   5.329   0.184
 7604SOL    HW223712   5.136   5.487   0.175
 7605SOL     OW23713   6.016   3.622   6.163
 7605SOL    HW123714   6.019   3.524   6.144
 7605SOL    HW223715   6.067   3.640   6.248
 7606SOL     OW23716   5.649   1.577   3.444
 7606SOL    HW123717   5.732   1.528   3.416
 7606SOL    HW223718   5.593   1.516   3.501
 7607SOL     OW23719   4.806   6.814   5.892
 7607SOL    HW123720   4.839   6.890   5.835
 7607SOL    HW223721   4.859   6.732   5.872
 7608SOL     OW23722   3.486   3.173   4.799
 7608SOL    HW123723   3.480   3.163   4.898
 7608SOL    HW223724   3.520   3.088   4.759
 7609SOL     OW23725   1.937   2.979   3.445
 7609SOL    HW123726   1.884   2.945   3.522
 7609SOL    HW223727   1.905   2.935   3.361
 7610SOL     OW23728   5.615   0.320   2.183
 7610SOL    HW123729   5.699   0.351   2.138
 7610SOL    HW223730   5.635   0.296   2.278
 7611SOL     OW23731   2.230   2.046   1.764
 7611SOL    HW123732   2.268   2.022   1.854
 7611SOL    HW223733   2.131   2.032   1.765
 7612SOL     OW23734   4.380   1.776   2.744
 7612SOL    HW123735   4.299   1.792   2.800
 7612SOL    HW223736   4.396   1.855   2.684
 7613SOL     OW23737   5.794   0.856   2.969
 7613SOL    HW123738   5.820   0.924   3.036
 7613SOL    HW223739   5.738   0.785   3.013
 7614SOL     OW23740   4.153   1.128   0.367
 7614SOL    HW123741   4.114   1.171   0.449
 7614SOL    HW223742   4.234   1.179   0.339
 7615SOL     OW23743   4.145   4.490   6.301
 7615SOL    HW123744   4.073   4.427   6.272
 7615SOL    HW223745   4.198   4.520   6.221
 7616SOL     OW23746   0.008   4.908   3.157
 7616SOL    HW123747   7.004   4.836   3.220
 7616SOL    HW223748   6.999   4.996   3.191
 7617SOL     OW23749   3.577   5.981   3.283
 7617SOL    HW123750   3.480   5.981   3.259
 7617SOL    HW223751   3.615   5.890   3.268
 7618SOL     OW23752   2.139   1.999   0.778
 7618SOL    HW123753   2.092   1.951   0.852
 7618SOL    HW223754   2.094   1.979   0.691
 7619SOL     OW23755   6.321   3.668   6.227
 7619SOL    HW123756   6.303   3.588   6.285
 7619SOL    HW223757   6.328   3.639   6.132
 7620SOL     OW23758   3.375   6.437   1.614
 7620SOL    HW123759   3.279   6.410   1.626
 7620SOL    HW223760   3.408   6.404   1.525
 7621SOL     OW23761   2.177   2.620   0.879
 7621SOL    HW123762   2.078   2.631   0.889
 7621SOL    HW223763   2.211   2.556   0.948
 7622SOL     OW23764   4.595   1.765   1.113
 7622SOL    HW123765   4.545   1.812   1.041
 7622SOL    HW223766   4.693   1.786   1.105
 7623SOL     OW23767   5.735   0.177   5.299
 7623SOL    HW123768   5.730   0.251   5.367
 7623SOL    HW223769   5.827   0.174   5.260
 7624SOL     OW23770   0.044   0.951   4.129
 7624SOL    HW123771   0.030   0.853   4.144
 7624SOL    HW223772   0.007   0.977   4.040
 7625SOL     OW23773   3.325   6.052   0.950
 7625SOL    HW123774   3.374   6.127   0.906
 7625SOL    HW223775   3.268   6.005   0.882
 7626SOL     OW23776   2.388   4.417   5.083
 7626SOL    HW123777   2.443   4.463   5.013
 7626SOL    HW223778   2.438   4.416   5.169
 7627SOL     OW23779   6.944   1.541   0.001
 7627SOL    HW123780   6.905   1.464   6.975
 7627SOL    HW223781   6.986   1.507   0.086
 7628SOL     OW23782   4.784   1.426   1.032
 7628SOL    HW123783   4.689   1.430   1.063
 7628SOL    HW223784   4.790   1.454   0.936
 7629SOL     OW23785   6.291   5.840   3.122
 7629SOL    HW123786   6.226   5.907   3.087
 7629SOL    HW223787   6.241   5.766   3.167
 7630SOL     OW23788   6.737   1.219   2.114
 7630SOL    HW123789   6.742   1.196   2.016
 7630SOL    HW223790   6.695   1.144   2.164
 7631SOL     OW23791   1.333   0.971   3.428
 7631SOL    HW123792   1.399   0.899   3.407
 7631SOL    HW223793   1.370   1.029   3.501
 7632SOL     OW23794   4.289   0.805   5.435
 7632SOL    HW123795   4.369   0.745   5.444
 7632SOL    HW223796   4.222   0.762   5.376
 7633SOL     OW23797   5.477   4.062   6.600
 7633SOL    HW123798   5.465   3.996   6.675
 7633SOL    HW223799   5.574   4.075   6.582
 7634SOL     OW23800   0.940   2.390   2.587
 7634SOL    HW123801   0.848   2.355   2.601
 7634SOL    HW223802   0.973   2.434   2.671
 7635SOL     OW23803   2.529   4.836   5.816
 7635SOL    HW123804   2.472   4.917   5.805
 7635SOL    HW223805   2.622   4.855   5.785
 7636SOL     OW23806   2.183   0.154   3.314
 7636SOL    HW123807   2.168   0.096   3.394
 7636SOL    HW223808   2.231   0.237   3.341
 7637SOL     OW23809   2.809   6.225   3.730
 7637SOL    HW123810   2.863   6.288   3.674
 7637SOL    HW223811   2.791   6.266   3.819
 7638SOL     OW23812   4.309   4.530   1.812
 7638SOL    HW123813   4.336   4.452   1.868
 7638SOL    HW223814   4.252   4.499   1.736
 7639SOL     OW23815   6.944   1.727   4.423
 7639SOL    HW123816   6.966   1.677   4.339
 7639SOL    HW223817   6.952   1.665   4.501
 7640SOL     OW23818   2.477   3.423   5.972
 7640SOL    HW123819   2.546   3.379   5.914
 7640SOL    HW223820   2.481   3.522   5.959
 7641SOL     OW23821   6.061   2.907   3.297
 7641SOL    HW123822   6.082   2.945   3.206
 7641SOL    HW223823   5.993   2.835   3.288
 7642SOL     OW23824   1.791   1.178   2.941
 7642SOL    HW123825   1.732   1.258   2.949
 7642SOL    HW223826   1.886   1.205   2.958
 7643SOL     OW23827   5.611   3.054   3.559
 7643SOL    HW123828   5.681   3.115   3.523
 7643SOL    HW223829   5.610   3.058   3.659
 7644SOL     OW23830   6.164   3.746   3.530
 7644SOL    HW123831   6.118   3.826   3.570
 7644SOL    HW223832   6.232   3.776   3.464
 7645SOL     OW23833   3.455   3.113   0.103
 7645SOL    HW123834   3.466   3.200   0.054
 7645SOL    HW223835   3.545   3.083   0.136
 7646SOL     OW23836   1.123   0.899   1.993
 7646SOL    HW123837   1.107   0.813   2.042
 7646SOL    HW223838   1.166   0.880   1.905
 7647SOL     OW23839   2.282   4.928   0.412
 7647SOL    HW123840   2.281   4.991   0.335
 7647SOL    HW223841   2.367   4.875   0.411
 7648SOL     OW23842   3.504   0.922   3.881
 7648SOL    HW123843   3.520   0.953   3.974
 7648SOL    HW223844   3.417   0.959   3.847
 7649SOL     OW23845   3.185   1.488   1.616
 7649SOL    HW123846   3.170   1.428   1.537
 7649SOL    HW223847   3.203   1.581   1.585
 7650SOL     OW23848   6.023   4.385   0.681
 7650SOL    HW123849   5.972   4.314   0.730
 7650SOL    HW223850   6.048   4.458   0.744
 7651SOL     OW23851   5.084   2.521   6.274
 7651SOL    HW123852   4.994   2.554   6.303
 7651SOL    HW223853   5.088   2.421   6.286
 7652SOL     OW23854   1.035   3.304   3.330
 7652SOL    HW123855   0.961   3.323   3.394
 7652SOL    HW223856   0.997   3.286   3.239
 7653SOL     OW23857   4.237   2.306   2.494
 7653SOL    HW123858   4.303   2.376   2.521
 7653SOL    HW223859   4.250   2.284   2.397
 7654SOL     OW23860   5.234   3.794   3.771
 7654SOL    HW123861   5.255   3.782   3.674
 7654SOL    HW223862   5.196   3.709   3.808
 7655SOL     OW23863   5.110   5.141   5.553
 7655SOL    HW123864   5.172   5.217   5.575
 7655SOL    HW223865   5.044   5.129   5.628
 7656SOL     OW23866   0.950   0.123   4.483
 7656SOL    HW123867   0.909   0.135   4.392
 7656SOL    HW223868   0.885   0.151   4.553
 7657SOL     OW23869   4.407   1.633   4.163
 7657SOL    HW123870   4.314   1.635   4.199
 7657SOL    HW223871   4.471   1.603   4.234
 7658SOL     OW23872   4.189   0.092   6.053
 7658SOL    HW123873   4.154   0.028   5.984
 7658SOL    HW223874   4.188   0.047   6.143
 7659SOL     OW23875   4.978   6.144   0.162
 7659SOL    HW123876   4.881   6.128   0.181
 7659SOL    HW223877   4.987   6.197   0.078
 7660SOL     OW23878   5.719   4.992   4.020
 7660SOL    HW123879   5.796   4.998   3.957
 7660SOL    HW223880   5.667   4.908   4.001
 7661SOL     OW23881   5.942   3.531   4.387
 7661SOL    HW123882   5.962   3.628   4.401
 7661SOL    HW223883   5.908   3.517   4.294
 7662SOL     OW23884   6.359   5.546   2.922
 7662SOL    HW123885   6.398   5.617   2.864
 7662SOL    HW223886   6.290   5.494   2.870
 7663SOL     OW23887   6.915   5.916   0.181
 7663SOL    HW123888   6.961   5.908   0.093
 7663SOL    HW223889   6.948   5.997   0.229
 7664SOL     OW23890   2.553   5.525   5.178
 7664SOL    HW123891   2.519   5.507   5.270
 7664SOL    HW223892   2.476   5.531   5.115
 7665SOL     OW23893   2.778   5.353   4.209
 7665SOL    HW123894   2.701   5.369   4.147
 7665SOL    HW223895   2.821   5.265   4.187
 7666SOL     OW23896   2.790   0.930   1.748
 7666SOL    HW123897   2.878   0.961   1.784
 7666SOL    HW223898   2.736   0.892   1.823
 7667SOL     OW23899   5.364   6.004   5.593
 7667SOL    HW123900   5.370   6.055   5.507
 7667SOL    HW223901   5.453   5.967   5.616
 7668SOL     OW23902   2.963   4.131   1.503
 7668SOL    HW123903   2.889   4.066   1.484
 7668SOL    HW223904   2.967   4.149   1.601
 7669SOL     OW23905   4.654   6.144   4.989
 7669SOL    HW123906   4.612   6.057   4.964
 7669SOL    HW223907   4.752   6.140   4.969
 7670SOL     OW23908   1.267   5.862   0.997
 7670SOL    HW123909   1.205   5.827   1.068
 7670SOL    HW223910   1.220   5.863   0.909
 7671SOL     OW23911   5.312   2.037   4.864
 7671SOL    HW123912   5.368   2.103   4.913
 7671SOL    HW223913   5.371   1.974   4.813
 7672SOL     OW23914   6.382   0.791   1.962
 7672SOL    HW123915   6.411   0.766   1.869
 7672SOL    HW223916   6.389   0.711   2.021
 7673SOL     OW23917   0.182   3.941   6.936
 7673SOL    HW123918   0.244   3.863   6.946
 7673SOL    HW223919   0.235   4.026   6.943
 7674SOL     OW23920   6.069   0.477   5.358
 7674SOL    HW123921   6.114   0.533   5.288
 7674SOL    HW223922   6.138   0.426   5.409
 7675SOL     OW23923   5.115   7.016   3.400
 7675SOL    HW123924   5.123   7.008   3.301
 7675SOL    HW223925   5.020   0.014   3.425
 7676SOL     OW23926   1.583   0.658   1.565
 7676SOL    HW123927   1.569   0.563   1.536
 7676SOL    HW223928   1.582   0.663   1.665
 7677SOL     OW23929   1.680   2.166   2.896
 7677SOL    HW123930   1.704   2.210   2.983
 7677SOL    HW223931   1.604   2.103   2.911
 7678SOL     OW23932   5.727   6.890   5.925
 7678SOL    HW123933   5.811   6.894   5.870
 7678SOL    HW223934   5.672   6.972   5.907
 7679SOL     OW23935   1.224   5.329   4.574
 7679SOL    HW123936   1.310   5.302   4.531
 7679SOL    HW223937   1.157   5.353   4.504
 7680SOL     OW23938   5.420   0.962   6.676
 7680SOL    HW123939   5.401   1.060   6.684
 7680SOL    HW223940   5.424   0.937   6.579
 7681SOL     OW23941   2.796   2.145   6.181
 7681SOL    HW123942   2.799   2.122   6.084
 7681SOL    HW223943   2.878   2.111   6.227
 7682SOL     OW23944   2.928   6.836   0.974
 7682SOL    HW123945   2.973   6.845   1.063
 7682SOL    HW223946   2.864   6.912   0.961
 7683SOL     OW23947   6.875   2.200   3.126
 7683SOL    HW123948   6.966   2.217   3.090
 7683SOL    HW223949   6.873   2.111   3.172
 7684SOL     OW23950   3.975   2.609   6.004
 7684SOL    HW123951   4.053   2.557   6.039
 7684SOL    HW223952   3.893   2.553   6.009
 7685SOL     OW23953   3.963   3.825   1.369
 7685SOL    HW123954   3.975   3.754   1.439
 7685SOL    HW223955   4.023   3.902   1.390
 7686SOL     OW23956   3.186   0.624   3.471
 7686SOL    HW123957   3.143   0.588   3.388
 7686SOL    HW223958   3.116   0.666   3.529
 7687SOL     OW23959   4.694   4.873   6.252
 7687SOL    HW123960   4.634   4.948   6.279
 7687SOL    HW223961   4.642   4.804   6.202
 7688SOL     OW23962   6.609   0.479   3.024
 7688SOL    HW123963   6.700   0.509   3.052
 7688SOL    HW223964   6.614   0.384   2.992
 7689SOL     OW23965   3.492   6.108   4.801
 7689SOL    HW123966   3.501   6.184   4.865
 7689SOL    HW223967   3.395   6.083   4.792
 7690SOL     OW23968   0.813   5.351   2.181
 7690SOL    HW123969   0.841   5.396   2.266
 7690SOL    HW223970   0.886   5.289   2.150
 7691SOL     OW23971   6.071   3.770   5.887
 7691SOL    HW123972   6.045   3.715   5.966
 7691SOL    HW223973   6.120   3.852   5.917
 7692SOL     OW23974   1.353   6.501   1.187
 7692SOL    HW123975   1.349   6.421   1.246
 7692SOL    HW223976   1.401   6.575   1.233
 7693SOL     OW23977   5.572   1.682   0.460
 7693SOL    HW123978   5.580   1.757   0.525
 7693SOL    HW223979   5.662   1.660   0.422
 7694SOL     OW23980   5.958   5.261   3.965
 7694SOL    HW123981   5.965   5.314   3.880
 7694SOL    HW223982   5.928   5.169   3.944
 7695SOL     OW23983   4.806   0.270   6.577
 7695SOL    HW123984   4.807   0.172   6.558
 7695SOL    HW223985   4.715   0.298   6.608
 7696SOL     OW23986   1.410   4.233   5.559
 7696SOL    HW123987   1.446   4.227   5.652
 7696SOL    HW223988   1.482   4.262   5.497
 7697SOL     OW23989   4.510   1.365   2.615
 7697SOL    HW123990   4.450   1.295   2.575
 7697SOL    HW223991   4.457   1.421   2.678
 7698SOL     OW23992   6.958   3.071   5.445
 7698SOL    HW123993   6.957   3.027   5.535
 7698SOL    HW223994   6.912   3.160   5.451
 7699SOL     OW23995   2.773   4.011   0.566
 7699SOL    HW123996   2.844   4.081   0.557
 7699SOL    HW223997   2.816   3.921   0.573
 7700SOL     OW23998   5.627   6.839   4.278
 7700SOL    HW123999   5.719   6.856   4.312
 7700SOL    HW224000   5.631   6.822   4.179
 7701SOL     OW24001   6.628   2.166   5.037
 7701SOL    HW124002   6.616   2.066   5.039
 7701SOL    HW224003   6.671   2.193   4.951
 7702SOL     OW24004   1.970   6.391   6.020
 7702SOL    HW124005   2.017   6.457   5.961
 7702SOL    HW224006   1.877   6.375   5.985
 7703SOL     OW24007   1.012   2.420   5.288
 7703SOL    HW124008   0.970   2.366   5.215
 7703SOL    HW224009   1.103   2.450   5.260
 7704SOL     OW24010   2.793   4.556   1.240
 7704SOL    HW124011   2.870   4.617   1.223
 7704SOL    HW224012   2.732   4.597   1.308
 7705SOL     OW24013   3.432   4.144   4.864
 7705SOL    HW124014   3.358   4.212   4.856
 7705SOL    HW224015   3.393   4.056   4.892
 7706SOL     OW24016   6.711   0.824   5.631
 7706SOL    HW124017   6.670   0.907   5.594
 7706SOL    HW224018   6.659   0.793   5.710
 7707SOL     OW24019   7.019   5.885   6.920
 7707SOL    HW124020   0.044   5.897   6.833
 7707SOL    HW224021   6.996   5.788   6.931
 7708SOL     OW24022   5.239   1.290   4.778
 7708SOL    HW124023   5.294   1.368   4.749
 7708SOL    HW224024   5.193   1.250   4.699
 7709SOL     OW24025   3.887   2.224   1.751
 7709SOL    HW124026   3.805   2.260   1.796
 7709SOL    HW224027   3.920   2.291   1.685
 7710SOL     OW24028   3.074   2.295   6.473
 7710SOL    HW124029   2.985   2.333   6.497
 7710SOL    HW224030   3.121   2.264   6.556
 7711SOL     OW24031   4.929   5.902   4.727
 7711SOL    HW124032   4.895   5.907   4.634
 7711SOL    HW224033   5.026   5.879   4.726
 7712SOL     OW24034   5.106   4.741   7.004
 7712SOL    HW124035   5.126   4.831   0.018
 7712SOL    HW224036   5.161   4.726   6.922
 7713SOL     OW24037   0.393   5.558   6.450
 7713SOL    HW124038   0.329   5.557   6.373
 7713SOL    HW224039   0.412   5.463   6.477
 7714SOL     OW24040   5.245   3.583   4.459
 7714SOL    HW124041   5.341   3.575   4.435
 7714SOL    HW224042   5.201   3.651   4.400
 7715SOL     OW24043   3.934   2.064   1.960
 7715SOL    HW124044   3.881   2.116   1.892
 7715SOL    HW224045   3.903   2.089   2.052
 7716SOL     OW24046   4.375   2.382   4.101
 7716SOL    HW124047   4.460   2.357   4.149
 7716SOL    HW224048   4.302   2.393   4.168
 7717SOL     OW24049   3.266   0.244   6.595
 7717SOL    HW124050   3.173   0.211   6.578
 7717SOL    HW224051   3.283   0.244   6.693
 7718SOL     OW24052   2.821   6.340   4.281
 7718SOL    HW124053   2.788   6.341   4.186
 7718SOL    HW224054   2.763   6.399   4.337
 7719SOL     OW24055   5.971   2.880   5.343
 7719SOL    HW124056   5.887   2.853   5.390
 7719SOL    HW224057   6.019   2.950   5.397
 7720SOL     OW24058   6.077   6.380   1.767
 7720SOL    HW124059   6.098   6.472   1.801
 7720SOL    HW224060   6.061   6.384   1.668
 7721SOL     OW24061   0.901   4.936   2.732
 7721SOL    HW124062   0.871   4.844   2.758
 7721SOL    HW224063   1.000   4.942   2.738
 7722SOL     OW24064   0.463   6.168   4.423
 7722SOL    HW124065   0.462   6.264   4.451
 7722SOL    HW224066   0.509   6.114   4.493
 7723SOL     OW24067   6.967   2.160   0.458
 7723SOL    HW124068   6.961   2.178   0.556
 7723SOL    HW224069   6.876   2.167   0.417
 7724SOL     OW24070   1.950   6.281   0.136
 7724SOL    HW124071   1.927   6.227   0.216
 7724SOL    HW224072   1.898   6.367   0.137
 7725SOL     OW24073   4.910   3.323   4.242
 7725SOL    HW124074   4.969   3.272   4.305
 7725SOL    HW224075   4.899   3.271   4.157
 7726SOL     OW24076   5.559   4.197   3.399
 7726SOL    HW124077   5.617   4.261   3.450
 7726SOL    HW224078   5.464   4.230   3.400
 7727SOL     OW24079   5.623   3.080   2.094
 7727SOL    HW124080   5.553   3.151   2.080
 7727SOL    HW224081   5.608   3.036   2.183
 7728SOL     OW24082   2.428   2.594   2.398
 7728SOL    HW124083   2.421   2.673   2.459
 7728SOL    HW224084   2.421   2.625   2.303
 7729SOL     OW24085   4.784   2.239   0.055
 7729SOL    HW124086   4.856   2.252   7.011
 7729SOL    HW224087   4.784   2.144   0.086
 7730SOL     OW24088   4.510   0.088   1.971
 7730SOL    HW124089   4.606   0.115   1.979
 7730SOL    HW224090   4.482   0.039   2.054
 7731SOL     OW24091   0.206   1.339   4.557
 7731SOL    HW124092   0.283   1.349   4.495
 7731SOL    HW224093   0.233   1.367   4.649
 7732SOL     OW24094   4.167   5.240   0.572
 7732SOL    HW124095   4.150   5.157   0.518
 7732SOL    HW224096   4.223   5.303   0.519
 7733SOL     OW24097   2.552   6.522   0.600
 7733SOL    HW124098   2.599   6.535   0.687
 7733SOL    HW224099   2.620   6.524   0.526
 7734SOL     OW24100   1.798   2.945   2.422
 7734SOL    HW124101   1.739   2.864   2.425
 7734SOL    HW224102   1.837   2.955   2.331
 7735SOL     OW24103   5.129   4.167   1.011
 7735SOL    HW124104   5.093   4.204   0.926
 7735SOL    HW224105   5.080   4.207   1.089
 7736SOL     OW24106   5.817   4.271   6.156
 7736SOL    HW124107   5.726   4.249   6.192
 7736SOL    HW224108   5.836   4.212   6.077
 7737SOL     OW24109   4.629   2.625   0.363
 7737SOL    HW124110   4.646   2.628   0.264
 7737SOL    HW224111   4.530   2.621   0.379
 7738SOL     OW24112   2.235   5.050   6.978
 7738SOL    HW124113   2.151   5.036   0.007
 7738SOL    HW224114   2.228   5.003   6.890
 7739SOL     OW24115   5.533   3.512   2.895
 7739SOL    HW124116   5.587   3.596   2.898
 7739SOL    HW224117   5.436   3.534   2.893
 7740SOL     OW24118   0.548   6.229   3.704
 7740SOL    HW124119   0.601   6.264   3.627
 7740SOL    HW224120   0.451   6.249   3.689
 7741SOL     OW24121   2.916   5.710   4.451
 7741SOL    HW124122   2.906   5.638   4.520
 7741SOL    HW224123   3.006   5.703   4.408
 7742SOL     OW24124   6.749   1.106   4.084
 7742SOL    HW124125   6.761   1.016   4.126
 7742SOL    HW224126   6.694   1.097   4.001
 7743SOL     OW24127   5.018   3.081   2.069
 7743SOL    HW124128   4.926   3.065   2.032
 7743SOL    HW224129   5.046   3.004   2.126
 7744SOL     OW24130   0.226   6.195   4.909
 7744SOL    HW124131   0.261   6.230   4.823
 7744SOL    HW224132   0.300   6.191   4.976
 7745SOL     OW24133   4.796   3.430   5.290
 7745SOL    HW124134   4.734   3.492   5.242
 7745SOL    HW224135   4.814   3.350   5.232
 7746SOL     OW24136   1.667   0.372   6.399
 7746SOL    HW124137   1.698   0.465   6.419
 7746SOL    HW224138   1.570   0.363   6.424
 7747SOL     OW24139   4.932   5.029   0.817
 7747SOL    HW124140   4.867   5.045   0.743
 7747SOL    HW224141   4.886   5.041   0.905
 7748SOL     OW24142   2.390   4.135   6.426
 7748SOL    HW124143   2.455   4.062   6.450
 7748SOL    HW224144   2.303   4.118   6.471
 7749SOL     OW24145   5.609   3.810   6.273
 7749SOL    HW124146   5.566   3.726   6.240
 7749SOL    HW224147   5.691   3.828   6.219
 7750SOL     OW24148   4.784   5.523   2.599
 7750SOL    HW124149   4.862   5.572   2.561
 7750SOL    HW224150   4.705   5.536   2.539
 7751SOL     OW24151   0.631   2.517   1.207
 7751SOL    HW124152   0.608   2.581   1.133
 7751SOL    HW224153   0.699   2.452   1.174
 7752SOL     OW24154   3.844   1.483   3.508
 7752SOL    HW124155   3.785   1.542   3.453
 7752SOL    HW224156   3.850   1.393   3.464
 7753SOL     OW24157   4.115   1.483   5.427
 7753SOL    HW124158   4.166   1.480   5.513
 7753SOL    HW224159   4.071   1.573   5.418
 7754SOL     OW24160   5.433   5.425   1.672
 7754SOL    HW124161   5.386   5.360   1.732
 7754SOL    HW224162   5.527   5.396   1.658
 7755SOL     OW24163   0.247   4.969   5.184
 7755SOL    HW124164   0.184   4.896   5.159
 7755SOL    HW224165   0.339   4.932   5.194
 7756SOL     OW24166   2.426   4.392   2.308
 7756SOL    HW124167   2.377   4.327   2.366
 7756SOL    HW224168   2.518   4.407   2.345
 7757SOL     OW24169   6.897   4.134   0.788
 7757SOL    HW124170   6.907   4.233   0.782
 7757SOL    HW224171   6.841   4.101   0.712
 7758SOL     OW24172   0.378   1.573   5.719
 7758SOL    HW124173   0.413   1.667   5.709
 7758SOL    HW224174   0.434   1.511   5.665
 7759SOL     OW24175   3.758   1.346   2.274
 7759SOL    HW124176   3.776   1.264   2.219
 7759SOL    HW224177   3.661   1.369   2.269
 7760SOL     OW24178   5.048   3.039   7.020
 7760SOL    HW124179   4.978   3.029   6.949
 7760SOL    HW224180   5.102   3.122   7.001
 7761SOL     OW24181   5.161   5.335   3.486
 7761SOL    HW124182   5.191   5.264   3.423
 7761SOL    HW224183   5.223   5.414   3.479
 7762SOL     OW24184   5.238   1.786   2.009
 7762SOL    HW124185   5.145   1.823   2.014
 7762SOL    HW224186   5.265   1.778   1.913
 7763SOL     OW24187   2.237   0.346   2.954
 7763SOL    HW124188   2.240   0.255   2.995
 7763SOL    HW224189   2.142   0.373   2.941
 7764SOL     OW24190   3.572   4.897   5.446
 7764SOL    HW124191   3.475   4.882   5.464
 7764SOL    HW224192   3.583   4.963   5.371
 7765SOL     OW24193   5.288   4.262   4.509
 7765SOL    HW124194   5.269   4.336   4.573
 7765SOL    HW224195   5.226   4.185   4.528
 7766SOL     OW24196   6.318   2.722   6.314
 7766SOL    HW124197   6.309   2.645   6.376
 7766SOL    HW224198   6.237   2.729   6.256
 7767SOL     OW24199   4.652   0.297   4.249
 7767SOL    HW124200   4.612   0.302   4.341
 7767SOL    HW224201   4.716   0.373   4.237
 7768SOL     OW24202   3.630   6.134   4.558
 7768SOL    HW124203   3.697   6.060   4.554
 7768SOL    HW224204   3.582   6.131   4.646
 7769SOL     OW24205   3.556   2.738   6.906
 7769SOL    HW124206   3.581   2.752   7.002
 7769SOL    HW224207   3.473   2.682   6.900
 7770SOL     OW24208   1.412   3.724   3.904
 7770SOL    HW124209   1.505   3.752   3.924
 7770SOL    HW224210   1.412   3.657   3.830
 7771SOL     OW24211   1.285   3.801   5.222
 7771SOL    HW124212   1.197   3.803   5.270
 7771SOL    HW224213   1.315   3.707   5.212
 7772SOL     OW24214   5.338   6.255   2.305
 7772SOL    HW124215   5.304   6.299   2.222
 7772SOL    HW224216   5.284   6.286   2.383
 7773SOL     OW24217   3.001   0.193   6.536
 7773SOL    HW124218   3.034   0.210   6.444
 7773SOL    HW224219   2.915   0.241   6.551
 7774SOL     OW24220   5.362   1.073   2.454
 7774SOL    HW124221   5.341   1.169   2.437
 7774SOL    HW224222   5.405   1.064   2.544
 7775SOL     OW24223   3.684   1.642   1.124
 7775SOL    HW124224   3.704   1.580   1.048
 7775SOL    HW224225   3.725   1.607   1.208
 7776SOL     OW24226   3.474   1.045   4.141
 7776SOL    HW124227   3.409   1.120   4.135
 7776SOL    HW224228   3.431   0.967   4.186
 7777SOL     OW24229   5.764   5.105   2.915
 7777SOL    HW124230   5.777   5.201   2.936
 7777SOL    HW224231   5.711   5.096   2.831
 7778SOL     OW24232   0.969   4.471   2.283
 7778SOL    HW124233   0.930   4.379   2.285
 7778SOL    HW224234   0.982   4.504   2.377
 7779SOL     OW24235   3.512   6.358   2.524
 7779SOL    HW124236   3.436   6.393   2.469
 7779SOL    HW224237   3.530   6.263   2.500
 7780SOL     OW24238   6.699   5.516   4.307
 7780SOL    HW124239   6.760   5.572   4.250
 7780SOL    HW224240   6.703   5.548   4.401
 7781SOL     OW24241   2.429   3.089   0.356
 7781SOL    HW124242   2.342   3.042   0.370
 7781SOL    HW224243   2.504   3.023   0.354
 7782SOL     OW24244   5.843   4.264   4.379
 7782SOL    HW124245   5.794   4.180   4.404
 7782SOL    HW224246   5.919   4.279   4.442
 7783SOL     OW24247   1.357   6.715   4.205
 7783SOL    HW124248   1.456   6.707   4.204
 7783SOL    HW224249   1.327   6.765   4.286
 7784SOL     OW24250   1.832   2.283   2.700
 7784SOL    HW124251   1.915   2.326   2.735
 7784SOL    HW224252   1.790   2.229   2.774
 7785SOL     OW24253   6.585   6.240   2.674
 7785SOL    HW124254   6.528   6.169   2.632
 7785SOL    HW224255   6.654   6.198   2.732
 7786SOL     OW24256   5.098   0.967   6.153
 7786SOL    HW124257   5.017   0.994   6.205
 7786SOL    HW224258   5.070   0.934   6.063
 7787SOL     OW24259   1.655   2.480   1.246
 7787SOL    HW124260   1.707   2.456   1.327
 7787SOL    HW224261   1.559   2.456   1.259
 7788SOL     OW24262   0.880   3.713   1.810
 7788SOL    HW124263   0.853   3.666   1.894
 7788SOL    HW224264   0.937   3.792   1.832
 7789SOL     OW24265   3.787   1.009   6.188
 7789SOL    HW124266   3.761   1.104   6.169
 7789SOL    HW224267   3.754   0.951   6.114
 7790SOL     OW24268   4.145   4.941   4.343
 7790SOL    HW124269   4.179   4.991   4.263
 7790SOL    HW224270   4.053   4.974   4.366
 7791SOL     OW24271   2.916   5.816   1.819
 7791SOL    HW124272   3.006   5.838   1.856
 7791SOL    HW224273   2.922   5.734   1.763
 7792SOL     OW24274   1.509   1.340   2.412
 7792SOL    HW124275   1.550   1.353   2.322
 7792SOL    HW224276   1.414   1.310   2.402
 7793SOL     OW24277   5.066   1.729   1.124
 7793SOL    HW124278   5.049   1.632   1.141
 7793SOL    HW224279   5.077   1.776   1.212
 7794SOL     OW24280   1.702   0.933   3.455
 7794SOL    HW124281   1.792   0.896   3.433
 7794SOL    HW224282   1.632   0.880   3.409
 7795SOL     OW24283   3.785   3.993   1.569
 7795SOL    HW124284   3.850   3.934   1.618
 7795SOL    HW224285   3.712   4.021   1.631
 7796SOL     OW24286   3.550   1.727   0.560
 7796SOL    HW124287   3.491   1.659   0.515
 7796SOL    HW224288   3.607   1.773   0.491
 7797SOL     OW24289   1.246   6.545   2.943
 7797SOL    HW124290   1.236   6.548   2.844
 7797SOL    HW224291   1.329   6.596   2.969
 7798SOL     OW24292   1.705   3.573   1.176
 7798SOL    HW124293   1.626   3.628   1.150
 7798SOL    HW224294   1.680   3.476   1.176
 7799SOL     OW24295   2.400   6.373   4.238
 7799SOL    HW124296   2.486   6.414   4.270
 7799SOL    HW224297   2.405   6.274   4.245
 7800SOL     OW24298   1.718   1.148   2.455
 7800SOL    HW124299   1.627   1.190   2.451
 7800SOL    HW224300   1.742   1.130   2.551
 7801SOL     OW24301   1.559   1.740   0.817
 7801SOL    HW124302   1.622   1.676   0.859
 7801SOL    HW224303   1.479   1.691   0.783
 7802SOL     OW24304   6.351   4.652   3.787
 7802SOL    HW124305   6.361   4.742   3.743
 7802SOL    HW224306   6.259   4.645   3.826
 7803SOL     OW24307   2.864   2.509   6.021
 7803SOL    HW124308   2.823   2.487   6.110
 7803SOL    HW224309   2.963   2.497   6.027
 7804SOL     OW24310   2.616   1.949   5.175
 7804SOL    HW124311   2.658   1.867   5.138
 7804SOL    HW224312   2.673   2.028   5.155
 7805SOL     OW24313   5.188   2.976   6.708
 7805SOL    HW124314   5.122   2.907   6.681
 7805SOL    HW224315   5.148   3.067   6.696
 7806SOL     OW24316   6.284   2.164   5.356
 7806SOL    HW124317   6.381   2.142   5.359
 7806SOL    HW224318   6.271   2.260   5.383
 7807SOL     OW24319   1.775   5.449   5.662
 7807SOL    HW124320   1.789   5.547   5.674
 7807SOL    HW224321   1.824   5.399   5.734
 7808SOL     OW24322   0.217   3.668   3.839
 7808SOL    HW124323   0.117   3.667   3.838
 7808SOL    HW224324   0.250   3.735   3.772
 7809SOL     OW24325   4.587   6.788   2.470
 7809SOL    HW124326   4.565   6.866   2.529
 7809SOL    HW224327   4.586   6.817   2.374
 7810SOL     OW24328   1.736   6.927   5.541
 7810SOL    HW124329   1.805   6.973   5.597
 7810SOL    HW224330   1.729   6.972   5.452
 7811SOL     OW24331   1.145   5.871   3.193
 7811SOL    HW124332   1.080   5.887   3.119
 7811SOL    HW224333   1.203   5.952   3.204
 7812SOL     OW24334   2.859   1.388   6.052
 7812SOL    HW124335   2.940   1.333   6.068
 7812SOL    HW224336   2.833   1.435   6.137
 7813SOL     OW24337   5.853   1.282   0.734
 7813SOL    HW124338   5.940   1.258   0.777
 7813SOL    HW224339   5.870   1.331   0.649
 7814SOL     OW24340   6.070   2.442   1.863
 7814SOL    HW124341   6.062   2.364   1.800
 7814SOL    HW224342   6.129   2.417   1.939
 7815SOL     OW24343   4.697   5.072   3.641
 7815SOL    HW124344   4.656   5.160   3.616
 7815SOL    HW224345   4.786   5.063   3.595
 7816SOL     OW24346   1.247   1.261   5.490
 7816SOL    HW124347   1.253   1.176   5.437
 7816SOL    HW224348   1.336   1.308   5.487
 7817SOL     OW24349   4.349   1.858   6.463
 7817SOL    HW124350   4.284   1.929   6.492
 7817SOL    HW224351   4.310   1.807   6.387
 7818SOL     OW24352   5.930   1.051   3.091
 7818SOL    HW124353   5.884   1.103   3.162
 7818SOL    HW224354   6.028   1.047   3.110
 7819SOL     OW24355   1.615   2.726   4.640
 7819SOL    HW124356   1.628   2.732   4.739
 7819SOL    HW224357   1.519   2.709   4.620
 7820SOL     OW24358   1.188   0.993   5.757
 7820SOL    HW124359   1.130   0.912   5.752
 7820SOL    HW224360   1.277   0.973   5.717
 7821SOL     OW24361   4.004   5.506   6.580
 7821SOL    HW124362   3.929   5.572   6.572
 7821SOL    HW224363   4.058   5.527   6.662
 7822SOL     OW24364   0.678   1.476   4.702
 7822SOL    HW124365   0.775   1.474   4.680
 7822SOL    HW224366   0.657   1.558   4.756
 7823SOL     OW24367   2.715   2.933   6.151
 7823SOL    HW124368   2.695   2.860   6.085
 7823SOL    HW224369   2.758   2.894   6.232
 7824SOL     OW24370   5.845   4.341   2.827
 7824SOL    HW124371   5.896   4.256   2.839
 7824SOL    HW224372   5.767   4.325   2.766
 7825SOL     OW24373   3.663   3.218   3.106
 7825SOL    HW124374   3.643   3.312   3.134
 7825SOL    HW224375   3.659   3.158   3.186
 7826SOL     OW24376   6.423   0.271   0.832
 7826SOL    HW124377   6.412   0.249   0.929
 7826SOL    HW224378   6.339   0.313   0.798
 7827SOL     OW24379   4.365   3.519   0.384
 7827SOL    HW124380   4.441   3.500   0.446
 7827SOL    HW224381   4.344   3.617   0.387
 7828SOL     OW24382   1.464   6.897   1.090
 7828SOL    HW124383   1.395   6.875   1.159
 7828SOL    HW224384   1.418   6.926   1.006
 7829SOL     OW24385   3.714   3.741   2.455
 7829SOL    HW124386   3.729   3.833   2.418
 7829SOL    HW224387   3.789   3.682   2.427
 7830SOL     OW24388   6.678   4.109   0.576
 7830SOL    HW124389   6.736   4.028   0.572
 7830SOL    HW224390   6.720   4.182   0.522
 7831SOL     OW24391   2.015   2.478   0.507
 7831SOL    HW124392   1.962   2.409   0.555
 7831SOL    HW224393   2.091   2.509   0.565
 7832SOL     OW24394   3.659   2.934   6.193
 7832SOL    HW124395   3.697   2.842   6.205
 7832SOL    HW224396   3.711   2.983   6.123
 7833SOL     OW24397   6.586   6.615   1.925
 7833SOL    HW124398   6.561   6.519   1.943
 7833SOL    HW224399   6.525   6.653   1.856
 7834SOL     OW24400   5.668   1.312   1.073
 7834SOL    HW124401   5.705   1.372   1.144
 7834SOL    HW224402   5.658   1.220   1.108
 7835SOL     OW24403   1.990   2.152   4.426
 7835SOL    HW124404   1.918   2.206   4.382
 7835SOL    HW224405   2.064   2.134   4.361
 7836SOL     OW24406   1.913   0.526   0.060
 7836SOL    HW124407   1.844   0.579   0.011
 7836SOL    HW224408   1.900   0.539   0.159
 7837SOL     OW24409   5.559   5.696   2.166
 7837SOL    HW124410   5.642   5.677   2.218
 7837SOL    HW224411   5.566   5.786   2.122
 7838SOL     OW24412   3.880   6.257   3.940
 7838SOL    HW124413   3.970   6.214   3.934
 7838SOL    HW224414   3.822   6.222   3.867
 7839SOL     OW24415   6.932   4.280   3.300
 7839SOL    HW124416   6.959   4.197   3.349
 7839SOL    HW224417   6.889   4.344   3.364
 7840SOL     OW24418   4.728   3.454   6.007
 7840SOL    HW124419   4.796   3.416   5.945
 7840SOL    HW224420   4.662   3.508   5.955
 7841SOL     OW24421   0.909   2.288   6.288
 7841SOL    HW124422   0.948   2.346   6.359
 7841SOL    HW224423   0.907   2.337   6.201
 7842SOL     OW24424   2.621   0.276   2.690
 7842SOL    HW124425   2.570   0.346   2.638
 7842SOL    HW224426   2.587   0.186   2.666
 7843SOL     OW24427   0.056   2.384   2.238
 7843SOL    HW124428   0.070   2.463   2.297
 7843SOL    HW224429   0.024   2.415   2.148
 7844SOL     OW24430   4.096   2.100   3.650
 7844SOL    HW124431   4.150   2.016   3.654
 7844SOL    HW224432   4.027   2.100   3.723
 7845SOL     OW24433   0.625   1.256   4.154
 7845SOL    HW124434   0.629   1.181   4.220
 7845SOL    HW224435   0.687   1.329   4.184
 7846SOL     OW24436   4.626   6.963   2.259
 7846SOL    HW124437   4.622   7.015   2.344
 7846SOL    HW224438   4.720   6.957   2.227
 7847SOL     OW24439   0.514   0.052   7.018
 7847SOL    HW124440   0.468   7.017   0.060
 7847SOL    HW224441   0.509   0.010   6.927
 7848SOL     OW24442   3.509   3.991   1.604
 7848SOL    HW124443   3.512   3.902   1.651
 7848SOL    HW224444   3.428   4.041   1.634
 7849SOL     OW24445   5.029   4.287   4.874
 7849SOL    HW124446   5.003   4.333   4.959
 7849SOL    HW224447   5.112   4.327   4.838
 7850SOL     OW24448   1.085   2.728   4.677
 7850SOL    HW124449   1.096   2.696   4.583
 7850SOL    HW224450   1.031   2.662   4.729
 7851SOL     OW24451   3.966   6.596   1.222
 7851SOL    HW124452   3.898   6.668   1.236
 7851SOL    HW224453   3.934   6.534   1.150
 7852SOL     OW24454   2.493   6.846   0.013
 7852SOL    HW124455   2.488   6.759   0.063
 7852SOL    HW224456   2.542   6.913   0.068
 7853SOL     OW24457   2.171   2.512   0.282
 7853SOL    HW124458   2.144   2.483   0.373
 7853SOL    HW224459   2.089   2.534   0.228
 7854SOL     OW24460   3.714   4.037   3.727
 7854SOL    HW124461   3.713   3.938   3.714
 7854SOL    HW224462   3.691   4.058   3.822
 7855SOL     OW24463   3.203   0.144   4.884
 7855SOL    HW124464   3.146   0.136   4.803
 7855SOL    HW224465   3.298   0.122   4.861
 7856SOL     OW24466   2.861   3.859   6.701
 7856SOL    HW124467   2.795   3.796   6.742
 7856SOL    HW224468   2.887   3.928   6.769
 7857SOL     OW24469   0.423   2.587   5.435
 7857SOL    HW124470   0.380   2.672   5.465
 7857SOL    HW224471   0.354   2.529   5.391
 7858SOL     OW24472   5.690   3.354   2.728
 7858SOL    HW124473   5.612   3.404   2.766
 7858SOL    HW224474   5.769   3.367   2.788
 7859SOL     OW24475   0.529   6.679   0.781
 7859SOL    HW124476   0.489   6.701   0.692
 7859SOL    HW224477   0.458   6.640   0.840
 7860SOL     OW24478   4.556   6.377   1.306
 7860SOL    HW124479   4.500   6.435   1.247
 7860SOL    HW224480   4.589   6.430   1.384
 7861SOL     OW24481   5.680   3.847   0.607
 7861SOL    HW124482   5.767   3.873   0.566
 7861SOL    HW224483   5.618   3.813   0.536
 7862SOL     OW24484   3.138   4.533   1.679
 7862SOL    HW124485   3.062   4.517   1.742
 7862SOL    HW224486   3.143   4.458   1.613
 7863SOL     OW24487   4.347   5.923   2.721
 7863SOL    HW124488   4.431   5.875   2.746
 7863SOL    HW224489   4.337   5.922   2.622
 7864SOL     OW24490   0.926   5.686   5.091
 7864SOL    HW124491   0.987   5.763   5.071
 7864SOL    HW224492   0.840   5.698   5.040
 7865SOL     OW24493   4.634   0.472   3.048
 7865SOL    HW124494   4.656   0.483   2.951
 7865SOL    HW224495   4.683   0.393   3.084
 7866SOL     OW24496   2.703   2.401   5.589
 7866SOL    HW124497   2.605   2.388   5.578
 7866SOL    HW224498   2.728   2.495   5.565
 7867SOL     OW24499   5.938   3.284   1.415
 7867SOL    HW124500   5.872   3.272   1.342
 7867SOL    HW224501   5.958   3.381   1.427
 7868SOL     OW24502   4.750   0.439   0.279
 7868SOL    HW124503   4.733   0.342   0.262
 7868SOL    HW224504   4.797   0.479   0.200
 7869SOL     OW24505   6.264   1.888   4.283
 7869SOL    HW124506   6.183   1.913   4.230
 7869SOL    HW224507   6.277   1.955   4.357
 7870SOL     OW24508   6.881   0.210   2.919
 7870SOL    HW124509   6.938   0.292   2.922
 7870SOL    HW224510   6.919   0.145   2.853
 7871SOL     OW24511   5.642   3.192   4.556
 7871SOL    HW124512   5.692   3.277   4.570
 7871SOL    HW224513   5.688   3.136   4.487
 7872SOL     OW24514   0.278   4.417   4.060
 7872SOL    HW124515   0.230   4.331   4.078
 7872SOL    HW224516   0.319   4.451   4.145
 7873SOL     OW24517   6.747   5.551   4.590
 7873SOL    HW124518   6.771   5.462   4.549
 7873SOL    HW224519   6.825   5.585   4.643
 7874SOL     OW24520   5.861   0.544   0.393
 7874SOL    HW124521   5.868   0.643   0.404
 7874SOL    HW224522   5.929   0.513   0.326
 7875SOL     OW24523   4.711   3.120   0.227
 7875SOL    HW124524   4.673   3.041   0.275
 7875SOL    HW224525   4.684   3.204   0.274
 7876SOL     OW24526   0.231   1.500   5.018
 7876SOL    HW124527   0.151   1.443   5.038
 7876SOL    HW224528   0.242   1.568   5.090
 7877SOL     OW24529   6.114   3.277   2.678
 7877SOL    HW124530   6.026   3.292   2.633
 7877SOL    HW224531   6.165   3.363   2.680
 7878SOL     OW24532   3.553   3.867   1.279
 7878SOL    HW124533   3.468   3.838   1.324
 7878SOL    HW224534   3.603   3.786   1.248
 7879SOL     OW24535   6.595   1.154   4.729
 7879SOL    HW124536   6.688   1.189   4.718
 7879SOL    HW224537   6.537   1.190   4.657
 7880SOL     OW24538   1.677   6.457   6.321
 7880SOL    HW124539   1.677   6.465   6.421
 7880SOL    HW224540   1.601   6.399   6.292
 7881SOL     OW24541   0.852   5.735   4.434
 7881SOL    HW124542   0.948   5.744   4.462
 7881SOL    HW224543   0.839   5.782   4.346
 7882SOL     OW24544   1.809   4.924   1.722
 7882SOL    HW124545   1.855   4.988   1.661
 7882SOL    HW224546   1.768   4.850   1.669
 7883SOL     OW24547   3.359   1.577   2.493
 7883SOL    HW124548   3.268   1.589   2.452
 7883SOL    HW224549   3.363   1.623   2.581
 7884SOL     OW24550   0.747   3.225   4.423
 7884SOL    HW124551   0.695   3.204   4.506
 7884SOL    HW224552   0.741   3.148   4.359
 7885SOL     OW24553   6.300   5.235   2.496
 7885SOL    HW124554   6.255   5.317   2.532
 7885SOL    HW224555   6.343   5.255   2.408
 7886SOL     OW24556   4.246   4.759   2.581
 7886SOL    HW124557   4.325   4.815   2.608
 7886SOL    HW224558   4.277   4.667   2.559
 7887SOL     OW24559   0.717   3.188   0.659
 7887SOL    HW124560   0.771   3.251   0.716
 7887SOL    HW224561   0.755   3.096   0.667
 7888SOL     OW24562   6.625   1.363   5.039
 7888SOL    HW124563   6.628   1.436   4.970
 7888SOL    HW224564   6.562   1.388   5.112
 7889SOL     OW24565   5.594   5.227   0.642
 7889SOL    HW124566   5.688   5.239   0.609
 7889SOL    HW224567   5.530   5.243   0.568
 7890SOL     OW24568   2.338   2.848   3.034
 7890SOL    HW124569   2.273   2.914   2.998
 7890SOL    HW224570   2.390   2.889   3.109
 7891SOL     OW24571   6.442   1.310   4.525
 7891SOL    HW124572   6.530   1.325   4.478
 7891SOL    HW224573   6.371   1.291   4.457
 7892SOL     OW24574   1.192   1.544   4.811
 7892SOL    HW124575   1.204   1.640   4.788
 7892SOL    HW224576   1.276   1.509   4.852
 7893SOL     OW24577   6.077   6.300   0.726
 7893SOL    HW124578   6.119   6.391   0.721
 7893SOL    HW224579   6.107   6.246   0.647
 7894SOL     OW24580   3.298   1.057   6.492
 7894SOL    HW124581   3.309   0.990   6.419
 7894SOL    HW224582   3.209   1.045   6.535
 7895SOL     OW24583   6.375   6.553   2.596
 7895SOL    HW124584   6.311   6.485   2.631
 7895SOL    HW224585   6.412   6.522   2.508
 7896SOL     OW24586   2.364   1.403   0.572
 7896SOL    HW124587   2.307   1.358   0.641
 7896SOL    HW224588   2.312   1.411   0.487
 7897SOL     OW24589   4.257   1.305   0.838
 7897SOL    HW124590   4.210   1.356   0.910
 7897SOL    HW224591   4.325   1.245   0.879
 7898SOL     OW24592   4.851   6.635   3.420
 7898SOL    HW124593   4.832   6.731   3.437
 7898SOL    HW224594   4.919   6.602   3.485
 7899SOL     OW24595   5.825   4.316   3.373
 7899SOL    HW124596   5.784   4.387   3.429
 7899SOL    HW224597   5.869   4.357   3.293
 7900SOL     OW24598   0.465   3.495   0.528
 7900SOL    HW124599   0.551   3.453   0.499
 7900SOL    HW224600   0.389   3.435   0.505
 7901SOL     OW24601   0.461   2.161   0.271
 7901SOL    HW124602   0.431   2.210   0.353
 7901SOL    HW224603   0.459   2.062   0.288
 7902SOL     OW24604   1.579   6.654   1.330
 7902SOL    HW124605   1.579   6.739   1.278
 7902SOL    HW224606   1.622   6.669   1.419
 7903SOL     OW24607   3.011   1.786   5.600
 7903SOL    HW124608   3.090   1.843   5.576
 7903SOL    HW224609   3.040   1.691   5.610
 7904SOL     OW24610   4.775   2.885   2.501
 7904SOL    HW124611   4.775   2.886   2.601
 7904SOL    HW224612   4.801   2.975   2.466
 7905SOL     OW24613   6.287   2.197   1.155
 7905SOL    HW124614   6.242   2.117   1.194
 7905SOL    HW224615   6.382   2.175   1.134
 7906SOL     OW24616   0.721   5.599   6.682
 7906SOL    HW124617   0.820   5.612   6.680
 7906SOL    HW224618   0.679   5.649   6.606
 7907SOL     OW24619   6.077   6.712   3.233
 7907SOL    HW124620   6.173   6.741   3.223
 7907SOL    HW224621   6.032   6.717   3.144
 7908SOL     OW24622   1.837   0.367   6.164
 7908SOL    HW124623   1.925   0.411   6.184
 7908SOL    HW224624   1.771   0.391   6.236
 7909SOL     OW24625   6.470   3.335   1.299
 7909SOL    HW124626   6.533   3.413   1.294
 7909SOL    HW224627   6.475   3.295   1.391
 7910SOL     OW24628   1.411   4.547   4.880
 7910SOL    HW124629   1.322   4.540   4.925
 7910SOL    HW224630   1.423   4.640   4.845
 7911SOL     OW24631   5.834   4.866   6.025
 7911SOL    HW124632   5.767   4.820   5.966
 7911SOL    HW224633   5.920   4.815   6.024
 7912SOL     OW24634   5.832   5.837   0.533
 7912SOL    HW124635   5.812   5.929   0.566
 7912SOL    HW224636   5.820   5.834   0.433
 7913SOL     OW24637   1.337   5.243   6.822
 7913SOL    HW124638   1.263   5.242   6.889
 7913SOL    HW224639   1.371   5.337   6.812
 7914SOL     OW24640   1.082   6.937   4.607
 7914SOL    HW124641   1.023   7.011   4.575
 7914SOL    HW224642   1.034   6.850   4.598
 7915SOL     OW24643   2.688   5.167   2.224
 7915SOL    HW124644   2.711   5.124   2.311
 7915SOL    HW224645   2.625   5.109   2.173
 7916SOL     OW24646   1.068   0.206   3.328
 7916SOL    HW124647   0.991   0.238   3.275
 7916SOL    HW224648   1.057   0.233   3.424
 7917SOL     OW24649   4.936   1.841   2.045
 7917SOL    HW124650   4.877   1.761   2.055
 7917SOL    HW224651   4.932   1.874   1.950
 7918SOL     OW24652   2.159   2.987   2.605
 7918SOL    HW124653   2.096   2.918   2.641
 7918SOL    HW224654   2.131   3.078   2.637
 7919SOL     OW24655   0.961   6.515   4.656
 7919SOL    HW124656   0.909   6.465   4.726
 7919SOL    HW224657   1.004   6.450   4.594
 7920SOL     OW24658   4.679   0.246   1.232
 7920SOL    HW124659   4.595   0.299   1.233
 7920SOL    HW224660   4.714   0.236   1.326
 7921SOL     OW24661   5.326   2.648   0.757
 7921SOL    HW124662   5.339   2.577   0.688
 7921SOL    HW224663   5.261   2.616   0.826
 7922SOL     OW24664   2.878   0.123   2.752
 7922SOL    HW124665   2.863   0.029   2.724
 7922SOL    HW224666   2.790   0.167   2.770
 7923SOL     OW24667   4.532   0.632   0.101
 7923SOL    HW124668   4.618   0.607   0.057
 7923SOL    HW224669   4.548   0.647   0.198
 7924SOL     OW24670   5.527   6.037   0.219
 7924SOL    HW124671   5.549   5.993   0.305
 7924SOL    HW224672   5.429   6.060   0.217
 7925SOL     OW24673   1.065   5.045   6.315
 7925SOL    HW124674   1.130   5.107   6.272
 7925SOL    HW224675   1.086   5.036   6.412
 7926SOL     OW24676   5.003   6.189   5.886
 7926SOL    HW124677   5.102   6.172   5.878
 7926SOL    HW224678   4.969   6.224   5.799
 7927SOL     OW24679   4.411   7.011   3.658
 7927SOL    HW124680   4.347   6.940   3.688
 7927SOL    HW224681   4.391   0.013   3.564
 7928SOL     OW24682   5.540   1.805   3.775
 7928SOL    HW124683   5.627   1.837   3.812
 7928SOL    HW224684   5.536   1.823   3.677
 7929SOL     OW24685   4.889   4.245   5.689
 7929SOL    HW124686   4.963   4.199   5.638
 7929SOL    HW224687   4.927   4.288   5.770
 7930SOL     OW24688   4.144   5.924   6.529
 7930SOL    HW124689   4.234   5.882   6.533
 7930SOL    HW224690   4.089   5.893   6.607
 7931SOL     OW24691   4.485   1.190   0.973
 7931SOL    HW124692   4.550   1.164   0.901
 7931SOL    HW224693   4.536   1.208   1.058
 7932SOL     OW24694   1.160   3.890   1.418
 7932SOL    HW124695   1.167   3.907   1.320
 7932SOL    HW224696   1.077   3.837   1.437
 7933SOL     OW24697   1.081   1.800   6.935
 7933SOL    HW124698   1.143   1.755   6.870
 7933SOL    HW224699   0.997   1.826   6.888
 7934SOL     OW24700   6.984   5.412   1.059
 7934SOL    HW124701   7.013   5.476   0.988
 7934SOL    HW224702   6.897   5.371   1.032
 7935SOL     OW24703   6.579   3.406   3.587
 7935SOL    HW124704   6.528   3.451   3.514
 7935SOL    HW224705   6.529   3.326   3.619
 7936SOL     OW24706   2.226   5.718   3.354
 7936SOL    HW124707   2.241   5.656   3.430
 7936SOL    HW224708   2.135   5.760   3.361
 7937SOL     OW24709   4.570   1.189   1.234
 7937SOL    HW124710   4.541   1.284   1.243
 7937SOL    HW224711   4.571   1.145   1.323
 7938SOL     OW24712   2.594   0.213   3.201
 7938SOL    HW124713   2.592   0.167   3.113
 7938SOL    HW224714   2.583   0.146   3.275
 7939SOL     OW24715   1.475   0.809   2.741
 7939SOL    HW124716   1.393   0.752   2.747
 7939SOL    HW224717   1.545   0.762   2.687
 7940SOL     OW24718   5.885   1.742   4.896
 7940SOL    HW124719   5.950   1.693   4.839
 7940SOL    HW224720   5.793   1.707   4.879
 7941SOL     OW24721   3.387   6.938   1.018
 7941SOL    HW124722   3.309   6.977   1.067
 7941SOL    HW224723   3.469   6.945   1.076
 7942SOL     OW24724   1.216   4.279   0.718
 7942SOL    HW124725   1.312   4.306   0.723
 7942SOL    HW224726   1.168   4.335   0.651
 7943SOL     OW24727   1.262   6.553   6.186
 7943SOL    HW124728   1.213   6.602   6.114
 7943SOL    HW224729   1.258   6.605   6.271
 7944SOL     OW24730   1.511   2.037   1.414
 7944SOL    HW124731   1.603   2.055   1.381
 7944SOL    HW224732   1.486   2.108   1.480
 7945SOL     OW24733   6.289   3.145   3.030
 7945SOL    HW124734   6.215   3.077   3.037
 7945SOL    HW224735   6.315   3.175   3.122
 7946SOL     OW24736   4.268   1.737   6.237
 7946SOL    HW124737   4.263   1.637   6.233
 7946SOL    HW224738   4.205   1.777   6.171
 7947SOL     OW24739   7.021   3.726   6.215
 7947SOL    HW124740   0.043   3.804   6.258
 7947SOL    HW224741   6.966   3.758   6.138
 7948SOL     OW24742   1.363   6.034   1.198
 7948SOL    HW124743   1.300   6.000   1.129
 7948SOL    HW224744   1.432   5.964   1.217
 7949SOL     OW24745   2.447   5.443   5.427
 7949SOL    HW124746   2.367   5.400   5.386
 7949SOL    HW224747   2.466   5.400   5.515
 7950SOL     OW24748   6.515   4.447   5.723
 7950SOL    HW124749   6.506   4.393   5.807
 7950SOL    HW224750   6.607   4.485   5.718
 7951SOL     OW24751   4.109   0.163   3.042
 7951SOL    HW124752   4.019   0.180   3.003
 7951SOL    HW224753   4.162   0.248   3.043
 7952SOL     OW24754   6.569   3.701   5.303
 7952SOL    HW124755   6.654   3.718   5.254
 7952SOL    HW224756   6.529   3.615   5.273
 7953SOL     OW24757   1.913   0.108   0.188
 7953SOL    HW124758   1.820   0.114   0.153
 7953SOL    HW224759   1.975   0.157   0.127
 7954SOL     OW24760   3.480   3.349   6.973
 7954SOL    HW124761   3.429   3.431   6.947
 7954SOL    HW224762   3.506   3.299   6.891
 7955SOL     OW24763   0.671   1.447   6.666
 7955SOL    HW124764   0.681   1.349   6.648
 7955SOL    HW224765   0.707   1.499   6.588
 7956SOL     OW24766   0.085   6.901   0.286
 7956SOL    HW124767   0.038   6.898   0.374
 7956SOL    HW224768   0.059   6.985   0.237
 7957SOL     OW24769   5.310   1.410   5.475
 7957SOL    HW124770   5.399   1.380   5.439
 7957SOL    HW224771   5.240   1.343   5.451
 7958SOL     OW24772   4.254   2.277   6.859
 7958SOL    HW124773   4.263   2.247   6.954
 7958SOL    HW224774   4.216   2.203   6.804
 7959SOL     OW24775   4.976   2.963   0.255
 7959SOL    HW124776   4.880   2.988   0.253
 7959SOL    HW224777   5.010   2.953   0.161
 7960SOL     OW24778   0.775   1.873   4.857
 7960SOL    HW124779   0.739   1.966   4.846
 7960SOL    HW224780   0.701   1.811   4.882
 7961SOL     OW24781   6.030   0.038   0.827
 7961SOL    HW124782   5.934   0.067   0.825
 7961SOL    HW224783   6.089   0.117   0.842
 7962SOL     OW24784   5.955   6.680   5.078
 7962SOL    HW124785   5.941   6.708   5.173
 7962SOL    HW224786   6.000   6.754   5.028
 7963SOL     OW24787   5.781   6.302   3.055
 7963SOL    HW124788   5.868   6.327   3.097
 7963SOL    HW224789   5.739   6.384   3.015
 7964SOL     OW24790   6.237   3.473   1.205
 7964SOL    HW124791   6.236   3.548   1.270
 7964SOL    HW224792   6.320   3.418   1.217
 7965SOL     OW24793   5.001   1.766   6.408
 7965SOL    HW124794   4.926   1.779   6.473
 7965SOL    HW224795   5.001   1.840   6.341
 7966SOL     OW24796   5.961   3.217   4.969
 7966SOL    HW124797   5.898   3.251   5.039
 7966SOL    HW224798   5.966   3.118   4.974
 7967SOL     OW24799   1.411   4.680   0.614
 7967SOL    HW124800   1.423   4.665   0.712
 7967SOL    HW224801   1.388   4.776   0.597
 7968SOL     OW24802   2.084   2.722   3.870
 7968SOL    HW124803   2.016   2.755   3.804
 7968SOL    HW224804   2.038   2.683   3.949
 7969SOL     OW24805   3.221   4.318   6.708
 7969SOL    HW124806   3.266   4.279   6.628
 7969SOL    HW224807   3.240   4.262   6.788
 7970SOL     OW24808   6.500   2.828   4.112
 7970SOL    HW124809   6.439   2.749   4.108
 7970SOL    HW224810   6.534   2.840   4.206
 7971SOL     OW24811   3.222   0.941   6.887
 7971SOL    HW124812   3.235   1.023   6.833
 7971SOL    HW224813   3.142   0.952   6.947
 7972SOL     OW24814   3.580   4.160   4.436
 7972SOL    HW124815   3.512   4.229   4.412
 7972SOL    HW224816   3.616   4.179   4.528
 7973SOL     OW24817   6.408   4.807   2.070
 7973SOL    HW124818   6.416   4.802   1.971
 7973SOL    HW224819   6.450   4.727   2.111
 7974SOL     OW24820   0.801   3.408   4.669
 7974SOL    HW124821   0.807   3.311   4.645
 7974SOL    HW224822   0.743   3.455   4.603
 7975SOL     OW24823   4.588   0.338   6.960
 7975SOL    HW124824   4.597   0.435   6.935
 7975SOL    HW224825   4.506   0.327   7.017
 7976SOL     OW24826   0.808   0.508   0.198
 7976SOL    HW124827   0.840   0.548   0.112
 7976SOL    HW224828   0.710   0.490   0.192
 7977SOL     OW24829   5.437   5.311   2.858
 7977SOL    HW124830   5.418   5.286   2.953
 7977SOL    HW224831   5.491   5.240   2.814
 7978SOL     OW24832   0.213   3.435   1.294
 7978SOL    HW124833   0.218   3.525   1.337
 7978SOL    HW224834   0.289   3.378   1.327
 7979SOL     OW24835   2.844   2.650   5.380
 7979SOL    HW124836   2.861   2.734   5.431
 7979SOL    HW224837   2.746   2.643   5.358
 7980SOL     OW24838   3.640   5.417   1.988
 7980SOL    HW124839   3.683   5.384   1.903
 7980SOL    HW224840   3.624   5.339   2.049
 7981SOL     OW24841   1.850   3.627   4.487
 7981SOL    HW124842   1.802   3.616   4.574
 7981SOL    HW224843   1.841   3.722   4.456
 7982SOL     OW24844   6.822   1.018   6.381
 7982SOL    HW124845   6.891   1.091   6.382
 7982SOL    HW224846   6.790   1.004   6.287
 7983SOL     OW24847   3.719   0.785   2.086
 7983SOL    HW124848   3.678   0.694   2.094
 7983SOL    HW224849   3.765   0.793   1.998
 7984SOL     OW24850   6.511   2.862   3.028
 7984SOL    HW124851   6.594   2.894   3.075
 7984SOL    HW224852   6.500   2.764   3.042
 7985SOL     OW24853   3.155   2.823   5.527
 7985SOL    HW124854   3.166   2.763   5.448
 7985SOL    HW224855   3.063   2.862   5.528
 7986SOL     OW24856   4.091   1.039   3.877
 7986SOL    HW124857   4.164   0.986   3.921
 7986SOL    HW224858   4.127   1.129   3.851
 7987SOL     OW24859   1.060   3.073   6.328
 7987SOL    HW124860   1.038   2.977   6.343
 7987SOL    HW224861   1.038   3.125   6.411
 7988SOL     OW24862   6.514   0.771   0.929
 7988SOL    HW124863   6.541   0.727   0.843
 7988SOL    HW224864   6.595   0.784   0.986
 7989SOL     OW24865   0.617   4.639   1.228
 7989SOL    HW124866   0.566   4.628   1.143
 7989SOL    HW224867   0.691   4.572   1.230
 7990SOL     OW24868   4.808   5.129   4.693
 7990SOL    HW124869   4.732   5.069   4.717
 7990SOL    HW224870   4.839   5.177   4.775
 7991SOL     OW24871   5.776   0.705   4.392
 7991SOL    HW124872   5.843   0.778   4.389
 7991SOL    HW224873   5.821   0.617   4.375
 7992SOL     OW24874   1.788   0.436   6.676
 7992SOL    HW124875   1.834   0.391   6.600
 7992SOL    HW224876   1.773   0.532   6.653
 7993SOL     OW24877   6.435   6.208   0.654
 7993SOL    HW124878   6.418   6.162   0.741
 7993SOL    HW224879   6.399   6.301   0.657
 7994SOL     OW24880   6.898   0.815   4.365
 7994SOL    HW124881   6.916   0.750   4.438
 7994SOL    HW224882   6.902   0.908   4.400
 7995SOL     OW24883   0.152   5.980   1.313
 7995SOL    HW124884   0.173   6.007   1.407
 7995SOL    HW224885   0.143   5.880   1.308
 7996SOL     OW24886   2.087   6.416   3.457
 7996SOL    HW124887   2.059   6.473   3.380
 7996SOL    HW224888   2.147   6.343   3.425
 7997SOL     OW24889   2.187   1.394   5.979
 7997SOL    HW124890   2.101   1.379   6.027
 7997SOL    HW224891   2.171   1.392   5.880
 7998SOL     OW24892   2.308   0.879   1.293
 7998SOL    HW124893   2.401   0.867   1.327
 7998SOL    HW224894   2.283   0.801   1.235
 7999SOL     OW24895   0.649   0.457   3.312
 7999SOL    HW124896   0.681   0.551   3.323
 7999SOL    HW224897   0.652   0.411   3.400
 8000SOL     OW24898   4.252   5.748   0.862
 8000SOL    HW124899   4.291   5.662   0.895
 8000SOL    HW224900   4.324   5.805   0.823
 8001SOL     OW24901   4.908   4.345   1.456
 8001SOL    HW124902   4.958   4.346   1.542
 8001SOL    HW224903   4.810   4.335   1.474
 8002SOL     OW24904   1.183   0.441   4.417
 8002SOL    HW124905   1.207   0.416   4.324
 8002SOL    HW224906   1.208   0.367   4.479
 8003SOL     OW24907   2.986   5.628   3.002
 8003SOL    HW124908   2.978   5.530   3.022
 8003SOL    HW224909   2.939   5.680   3.074
 8004SOL     OW24910   1.911   3.546   4.075
 8004SOL    HW124911   1.831   3.557   4.016
 8004SOL    HW224912   1.928   3.631   4.124
 8005SOL     OW24913   2.625   0.113   3.864
 8005SOL    HW124914   2.681   0.075   3.938
 8005SOL    HW224915   2.529   0.097   3.884
 8006SOL     OW24916   4.959   5.301   6.000
 8006SOL    HW124917   4.981   5.234   5.929
 8006SOL    HW224918   4.900   5.259   6.068
 8007SOL     OW24919   0.022   0.735   0.921
 8007SOL    HW124920   0.072   0.799   0.980
 8007SOL    HW224921   6.950   0.765   0.913
 8008SOL     OW24922   4.365   4.923   0.708
 8008SOL    HW124923   4.395   5.016   0.684
 8008SOL    HW224924   4.353   4.870   0.624
 8009SOL     OW24925   6.782   1.389   0.925
 8009SOL    HW124926   6.808   1.476   0.884
 8009SOL    HW224927   6.842   1.368   1.002
 8010SOL     OW24928   3.805   0.701   5.999
 8010SOL    HW124929   3.851   0.766   5.938
 8010SOL    HW224930   3.823   0.608   5.967
 8011SOL     OW24931   4.143   2.147   2.776
 8011SOL    HW124932   4.094   2.176   2.694
 8011SOL    HW224933   4.211   2.216   2.801
 8012SOL     OW24934   6.540   0.640   4.926
 8012SOL    HW124935   6.550   0.643   5.025
 8012SOL    HW224936   6.544   0.732   4.889
 8013SOL     OW24937   3.806   0.511   3.533
 8013SOL    HW124938   3.767   0.465   3.613
 8013SOL    HW224939   3.822   0.608   3.556
 8014SOL     OW24940   2.555   2.435   3.283
 8014SOL    HW124941   2.638   2.412   3.233
 8014SOL    HW224942   2.489   2.478   3.220
 8015SOL     OW24943   3.164   6.933   4.352
 8015SOL    HW124944   3.074   6.906   4.386
 8015SOL    HW224945   3.223   6.852   4.349
 8016SOL     OW24946   3.449   2.576   5.293
 8016SOL    HW124947   3.430   2.567   5.391
 8016SOL    HW224948   3.377   2.530   5.241
 8017SOL     OW24949   6.051   5.998   0.878
 8017SOL    HW124950   6.062   5.947   0.792
 8017SOL    HW224951   5.962   6.044   0.877
 8018SOL     OW24952   2.881   3.784   0.915
 8018SOL    HW124953   2.898   3.883   0.915
 8018SOL    HW224954   2.967   3.736   0.931
 8019SOL     OW24955   2.688   3.488   0.628
 8019SOL    HW124956   2.683   3.446   0.538
 8019SOL    HW224957   2.596   3.518   0.656
 8020SOL     OW24958   0.264   0.476   6.751
 8020SOL    HW124959   0.302   0.388   6.724
 8020SOL    HW224960   0.312   0.549   6.701
 8021SOL     OW24961   1.111   3.180   0.748
 8021SOL    HW124962   1.029   3.225   0.783
 8021SOL    HW224963   1.109   3.083   0.770
 8022SOL     OW24964   4.364   6.981   2.236
 8022SOL    HW124965   4.462   6.972   2.253
 8022SOL    HW224966   4.313   6.925   2.302
 8023SOL     OW24967   4.059   5.293   2.418
 8023SOL    HW124968   3.997   5.220   2.446
 8023SOL    HW224969   4.050   5.308   2.320
 8024SOL     OW24970   2.264   1.063   6.835
 8024SOL    HW124971   2.282   1.128   6.761
 8024SOL    HW224972   2.295   0.972   6.806
 8025SOL     OW24973   0.918   6.368   1.601
 8025SOL    HW124974   1.000   6.310   1.600
 8025SOL    HW224975   0.931   6.441   1.668
 8026SOL     OW24976   0.712   6.389   6.563
 8026SOL    HW124977   0.663   6.471   6.533
 8026SOL    HW224978   0.771   6.358   6.489
 8027SOL     OW24979   3.848   0.340   6.800
 8027SOL    HW124980   3.890   0.402   6.734
 8027SOL    HW224981   3.807   0.262   6.752
 8028SOL     OW24982   3.387   6.050   6.424
 8028SOL    HW124983   3.312   6.063   6.489
 8028SOL    HW224984   3.420   6.139   6.393
 8029SOL     OW24985   1.007   0.473   1.861
 8029SOL    HW124986   1.026   0.473   1.762
 8029SOL    HW224987   0.920   0.520   1.877
 8030SOL     OW24988   0.720   4.124   0.794
 8030SOL    HW124989   0.633   4.123   0.745
 8030SOL    HW224990   0.704   4.128   0.892
 8031SOL     OW24991   0.070   0.479   2.254
 8031SOL    HW124992   7.007   0.435   2.275
 8031SOL    HW224993   0.108   0.521   2.336
 8032SOL     OW24994   0.093   2.790   0.143
 8032SOL    HW124995   7.019   2.807   0.143
 8032SOL    HW224996   0.141   2.870   0.179
 8033SOL     OW24997   3.861   4.280   1.668
 8033SOL    HW124998   3.888   4.288   1.572
 8033SOL    HW224999   3.765   4.305   1.678
 8034SOL     OW25000   0.736   6.814   5.924
 8034SOL    HW125001   0.641   6.789   5.941
 8034SOL    HW225002   0.779   6.843   6.010
 8035SOL     OW25003   5.945   6.922   4.664
 8035SOL    HW125004   5.950   6.989   4.589
 8035SOL    HW225005   5.850   6.910   4.691
 8036SOL     OW25006   5.108   3.544   3.803
 8036SOL    HW125007   5.181   3.500   3.750
 8036SOL    HW225008   5.023   3.542   3.751
 8037SOL     OW25009   2.438   1.313   6.025
 8037SOL    HW125010   2.340   1.331   6.025
 8037SOL    HW225011   2.464   1.270   6.112
 8038SOL     OW25012   6.563   5.496   2.058
 8038SOL    HW125013   6.639   5.515   1.996
 8038SOL    HW225014   6.481   5.476   2.005
 8039SOL     OW25015   2.107   2.470   5.039
 8039SOL    HW125016   2.120   2.440   5.134
 8039SOL    HW225017   2.192   2.457   4.988
 8040SOL     OW25018   0.408   6.391   6.516
 8040SOL    HW125019   0.429   6.293   6.518
 8040SOL    HW225020   0.347   6.413   6.592
 8041SOL     OW25021   3.226   1.370   2.988
 8041SOL    HW125022   3.320   1.404   2.991
 8041SOL    HW225023   3.228   1.270   2.979
 8042SOL     OW25024   3.644   3.834   5.954
 8042SOL    HW125025   3.654   3.794   6.045
 8042SOL    HW225026   3.564   3.893   5.951
 8043SOL     OW25027   4.852   5.104   0.177
 8043SOL    HW125028   4.778   5.160   0.214
 8043SOL    HW225029   4.819   5.054   0.097
 8044SOL     OW25030   1.321   3.209   1.729
 8044SOL    HW125031   1.236   3.262   1.735
 8044SOL    HW225032   1.299   3.112   1.723
 8045SOL     OW25033   6.268   3.487   4.939
 8045SOL    HW125034   6.202   3.533   4.997
 8045SOL    HW225035   6.333   3.553   4.902
 8046SOL     OW25036   0.216   4.140   1.231
 8046SOL    HW125037   0.314   4.125   1.226
 8046SOL    HW225038   0.188   4.198   1.154
 8047SOL     OW25039   2.852   6.282   6.700
 8047SOL    HW125040   2.843   6.374   6.739
 8047SOL    HW225041   2.887   6.289   6.606
 8048SOL     OW25042   4.010   1.818   6.421
 8048SOL    HW125043   3.985   1.731   6.380
 8048SOL    HW225044   3.980   1.819   6.517
 8049SOL     OW25045   1.714   1.377   0.617
 8049SOL    HW125046   1.788   1.320   0.580
 8049SOL    HW225047   1.690   1.346   0.709
 8050SOL     OW25048   0.597   5.288   5.911
 8050SOL    HW125049   0.545   5.296   5.996
 8050SOL    HW225050   0.562   5.210   5.858
 8051SOL     OW25051   4.668   6.587   2.795
 8051SOL    HW125052   4.577   6.594   2.753
 8051SOL    HW225053   4.666   6.515   2.865
 8052SOL     OW25054   2.564   1.675   3.111
 8052SOL    HW125055   2.562   1.588   3.061
 8052SOL    HW225056   2.616   1.663   3.196
 8053SOL     OW25057   1.238   2.480   6.703
 8053SOL    HW125058   1.183   2.416   6.756
 8053SOL    HW225059   1.305   2.524   6.764
 8054SOL     OW25060   5.292   3.653   5.030
 8054SOL    HW125061   5.196   3.655   5.061
 8054SOL    HW225062   5.340   3.579   5.076
 8055SOL     OW25063   6.288   0.341   0.225
 8055SOL    HW125064   6.270   0.251   0.183
 8055SOL    HW225065   6.386   0.361   0.217
 8056SOL     OW25066   2.815   1.673   3.885
 8056SOL    HW125067   2.878   1.714   3.951
 8056SOL    HW225068   2.860   1.596   3.840
 8057SOL     OW25069   3.017   2.097   2.150
 8057SOL    HW125070   2.953   2.053   2.213
 8057SOL    HW225071   2.973   2.175   2.105
 8058SOL     OW25072   4.021   6.412   1.971
 8058SOL    HW125073   4.024   6.349   1.893
 8058SOL    HW225074   3.929   6.413   2.010
 8059SOL     OW25075   3.770   3.161   5.610
 8059SOL    HW125076   3.687   3.133   5.658
 8059SOL    HW225077   3.839   3.089   5.619
 8060SOL     OW25078   0.201   0.832   6.072
 8060SOL    HW125079   0.243   0.910   6.120
 8060SOL    HW225080   0.127   0.795   6.127
 8061SOL     OW25081   0.015   1.072   1.668
 8061SOL    HW125082   6.944   1.093   1.692
 8061SOL    HW225083   0.077   1.122   1.728
 8062SOL     OW25084   4.636   4.614   5.695
 8062SOL    HW125085   4.658   4.710   5.679
 8062SOL    HW225086   4.606   4.602   5.790
 8063SOL     OW25087   2.031   4.591   3.180
 8063SOL    HW125088   2.126   4.605   3.152
 8063SOL    HW225089   1.970   4.629   3.111
 8064SOL     OW25090   0.193   2.432   0.661
 8064SOL    HW125091   0.104   2.402   0.696
 8064SOL    HW225092   0.203   2.530   0.675
 8065SOL     OW25093   4.761   0.008   6.547
 8065SOL    HW125094   4.820   6.993   6.617
 8065SOL    HW225095   4.812   0.017   6.461
 8066SOL     OW25096   0.393   0.308   5.966
 8066SOL    HW125097   0.381   0.265   6.056
 8066SOL    HW225098   0.306   0.310   5.918
 8067SOL     OW25099   5.472   0.608   4.145
 8067SOL    HW125100   5.565   0.645   4.142
 8067SOL    HW225101   5.416   0.665   4.205
 8068SOL     OW25102   6.770   3.656   1.976
 8068SOL    HW125103   6.816   3.721   1.915
 8068SOL    HW225104   6.827   3.575   1.987
 8069SOL     OW25105   1.056   2.410   2.357
 8069SOL    HW125106   1.124   2.478   2.385
 8069SOL    HW225107   1.009   2.374   2.437
 8070SOL     OW25108   5.722   3.849   1.169
 8070SOL    HW125109   5.800   3.791   1.146
 8070SOL    HW225110   5.679   3.882   1.085
 8071SOL     OW25111   2.993   0.511   6.171
 8071SOL    HW125112   3.087   0.496   6.140
 8071SOL    HW225113   2.958   0.427   6.213
 8072SOL     OW25114   2.167   2.332   5.277
 8072SOL    HW125115   2.157   2.421   5.322
 8072SOL    HW225116   2.253   2.290   5.304
 8073SOL     OW25117   5.461   0.405   6.504
 8073SOL    HW125118   5.463   0.325   6.444
 8073SOL    HW225119   5.373   0.452   6.494
 8074SOL     OW25120   6.666   0.811   0.351
 8074SOL    HW125121   6.616   0.760   0.421
 8074SOL    HW225122   6.703   0.895   0.392
 8075SOL     OW25123   0.336   0.132   0.955
 8075SOL    HW125124   0.423   0.083   0.953
 8075SOL    HW225125   0.309   0.155   0.861
 8076SOL     OW25126   6.500   6.354   0.297
 8076SOL    HW125127   6.513   6.423   0.226
 8076SOL    HW225128   6.415   6.304   0.281
 8077SOL     OW25129   5.933   4.550   1.332
 8077SOL    HW125130   6.027   4.562   1.362
 8077SOL    HW225131   5.911   4.618   1.262
 8078SOL     OW25132   6.372   1.448   1.316
 8078SOL    HW125133   6.472   1.442   1.313
 8078SOL    HW225134   6.333   1.363   1.281
 8079SOL     OW25135   0.389   1.116   6.683
 8079SOL    HW125136   0.298   1.130   6.644
 8079SOL    HW225137   0.404   1.183   6.756
 8080SOL     OW25138   1.552   3.674   3.604
 8080SOL    HW125139   1.476   3.729   3.571
 8080SOL    HW225140   1.636   3.700   3.556
 8081SOL     OW25141   6.510   0.281   5.465
 8081SOL    HW125142   6.602   0.317   5.452
 8081SOL    HW225143   6.505   0.188   5.427
 8082SOL     OW25144   4.015   2.185   4.553
 8082SOL    HW125145   4.042   2.159   4.460
 8082SOL    HW225146   4.077   2.257   4.586
 8083SOL     OW25147   6.553   3.074   4.383
 8083SOL    HW125148   6.497   3.129   4.445
 8083SOL    HW225149   6.631   3.128   4.351
 8084SOL     OW25150   4.809   1.515   6.367
 8084SOL    HW125151   4.742   1.573   6.414
 8084SOL    HW225152   4.857   1.568   6.298
 8085SOL     OW25153   1.752   5.862   4.108
 8085SOL    HW125154   1.774   5.785   4.047
 8085SOL    HW225155   1.678   5.835   4.170
 8086SOL     OW25156   6.690   2.183   2.651
 8086SOL    HW125157   6.676   2.255   2.583
 8086SOL    HW225158   6.723   2.224   2.736
 8087SOL     OW25159   0.022   1.196   6.389
 8087SOL    HW125160   0.108   1.222   6.434
 8087SOL    HW225161   0.036   1.189   6.291
 8088SOL     OW25162   0.395   6.859   5.123
 8088SOL    HW125163   0.408   6.827   5.217
 8088SOL    HW225164   0.484   6.886   5.085
 8089SOL     OW25165   6.530   1.791   6.609
 8089SOL    HW125166   6.615   1.791   6.555
 8089SOL    HW225167   6.460   1.844   6.561
 8090SOL     OW25168   4.456   2.519   5.143
 8090SOL    HW125169   4.503   2.607   5.153
 8090SOL    HW225170   4.358   2.532   5.157
 8091SOL     OW25171   0.369   3.901   4.794
 8091SOL    HW125172   0.373   3.923   4.696
 8091SOL    HW225173   0.375   3.802   4.806
 8092SOL     OW25174   5.002   0.515   5.939
 8092SOL    HW125175   4.999   0.425   5.981
 8092SOL    HW225176   4.922   0.568   5.967
 8093SOL     OW25177   3.290   6.359   3.603
 8093SOL    HW125178   3.389   6.373   3.595
 8093SOL    HW225179   3.273   6.274   3.653
 8094SOL     OW25180   2.194   3.946   4.187
 8094SOL    HW125181   2.239   4.010   4.250
 8094SOL    HW225182   2.204   3.979   4.093
 8095SOL     OW25183   1.011   4.990   4.938
 8095SOL    HW125184   0.956   5.053   4.883
 8095SOL    HW225185   1.099   5.033   4.958
 8096SOL     OW25186   0.882   4.762   0.843
 8096SOL    HW125187   0.941   4.702   0.789
 8096SOL    HW225188   0.852   4.839   0.787
 8097SOL     OW25189   4.392   6.502   6.691
 8097SOL    HW125190   4.344   6.416   6.672
 8097SOL    HW225191   4.441   6.495   6.778
 8098SOL     OW25192   2.184   5.789   4.774
 8098SOL    HW125193   2.129   5.872   4.762
 8098SOL    HW225194   2.255   5.806   4.843
 8099SOL     OW25195   2.054   4.092   2.540
 8099SOL    HW125196   1.987   4.063   2.472
 8099SOL    HW225197   2.010   4.153   2.605
 8100SOL     OW25198   0.019   0.133   0.171
 8100SOL    HW125199   0.105   0.185   0.170
 8100SOL    HW225200   6.984   0.166   0.244
 8101SOL     OW25201   1.817   5.972   0.689
 8101SOL    HW125202   1.857   6.024   0.613
 8101SOL    HW225203   1.723   6.002   0.705
 8102SOL     OW25204   0.895   4.101   4.088
 8102SOL    HW125205   0.937   4.031   4.031
 8102SOL    HW225206   0.945   4.187   4.077
 8103SOL     OW25207   4.236   0.793   1.216
 8103SOL    HW125208   4.267   0.835   1.301
 8103SOL    HW225209   4.213   0.864   1.149
 8104SOL     OW25210   1.027   5.612   6.681
 8104SOL    HW125211   1.071   5.602   6.592
 8104SOL    HW225212   1.052   5.535   6.740
 8105SOL     OW25213   6.908   6.818   3.423
 8105SOL    HW125214   6.938   6.909   3.450
 8105SOL    HW225215   6.897   6.761   3.505
 8106SOL     OW25216   2.875   6.831   6.231
 8106SOL    HW125217   2.797   6.806   6.175
 8106SOL    HW225218   2.958   6.829   6.176
 8107SOL     OW25219   1.084   6.767   6.987
 8107SOL    HW125220   1.015   6.840   6.987
 8107SOL    HW225221   1.093   6.730   0.055
 8108SOL     OW25222   1.176   1.308   0.029
 8108SOL    HW125223   1.149   1.352   0.115
 8108SOL    HW225224   1.215   1.219   0.048
 8109SOL     OW25225   0.051   3.277   2.341
 8109SOL    HW125226   0.004   3.364   2.355
 8109SOL    HW225227   0.083   3.272   2.246
 8110SOL     OW25228   4.374   4.846   0.424
 8110SOL    HW125229   4.472   4.833   0.407
 8110SOL    HW225230   4.322   4.784   0.365
 8111SOL     OW25231   6.378   1.035   2.364
 8111SOL    HW125232   6.395   1.030   2.463
 8111SOL    HW225233   6.334   0.950   2.334
 8112SOL     OW25234   1.852   5.222   6.099
 8112SOL    HW125235   1.800   5.161   6.039
 8112SOL    HW225236   1.948   5.222   6.071
 8113SOL     OW25237   4.865   5.080   6.532
 8113SOL    HW125238   4.928   5.043   6.600
 8113SOL    HW225239   4.916   5.113   6.453
 8114SOL     OW25240   1.731   3.487   2.828
 8114SOL    HW125241   1.786   3.570   2.822
 8114SOL    HW225242   1.790   3.407   2.829
 8115SOL     OW25243   1.874   1.596   6.061
 8115SOL    HW125244   1.894   1.508   6.103
 8115SOL    HW225245   1.953   1.626   6.008
 8116SOL     OW25246   4.049   3.387   1.660
 8116SOL    HW125247   4.134   3.356   1.701
 8116SOL    HW225248   3.975   3.384   1.728
 8117SOL     OW25249   1.938   6.758   3.873
 8117SOL    HW125250   1.968   6.827   3.807
 8117SOL    HW225251   1.861   6.795   3.926
 8118SOL     OW25252   6.606   3.143   6.751
 8118SOL    HW125253   6.590   3.178   6.844
 8118SOL    HW225254   6.671   3.202   6.704
 8119SOL     OW25255   5.170   6.400   6.549
 8119SOL    HW125256   5.235   6.393   6.473
 8119SOL    HW225257   5.079   6.376   6.516
 8120SOL     OW25258   2.324   6.330   2.475
 8120SOL    HW125259   2.284   6.242   2.503
 8120SOL    HW225260   2.393   6.358   2.540
 8121SOL     OW25261   1.931   2.304   2.429
 8121SOL    HW125262   1.887   2.314   2.518
 8121SOL    HW225263   1.862   2.301   2.357
 8122SOL     OW25264   0.834   4.443   1.211
 8122SOL    HW125265   0.757   4.425   1.273
 8122SOL    HW225266   0.896   4.364   1.212
 8123SOL     OW25267   7.006   2.301   6.704
 8123SOL    HW125268   7.013   2.378   6.766
 8123SOL    HW225269   0.023   2.220   6.746
 8124SOL     OW25270   6.091   6.306   5.737
 8124SOL    HW125271   6.041   6.255   5.667
 8124SOL    HW225272   6.162   6.248   5.776
 8125SOL     OW25273   1.245   5.278   1.980
 8125SOL    HW125274   1.327   5.332   1.997
 8125SOL    HW225275   1.270   5.181   1.976
 8126SOL     OW25276   3.168   5.871   5.036
 8126SOL    HW125277   3.197   5.943   4.973
 8126SOL    HW225278   3.246   5.843   5.093
 8127SOL     OW25279   3.873   1.559   6.348
 8127SOL    HW125280   3.864   1.537   6.251
 8127SOL    HW225281   3.798   1.618   6.377
 8128SOL     OW25282   3.210   2.858   0.794
 8128SOL    HW125283   3.262   2.935   0.756
 8128SOL    HW225284   3.261   2.819   0.870
 8129SOL     OW25285   0.734   2.258   2.727
 8129SOL    HW125286   0.710   2.176   2.676
 8129SOL    HW225287   0.806   2.236   2.793
 8130SOL     OW25288   6.782   6.194   6.867
 8130SOL    HW125289   6.736   6.201   6.955
 8130SOL    HW225290   6.766   6.276   6.813
 8131SOL     OW25291   1.613   2.308   0.560
 8131SOL    HW125292   1.708   2.280   0.576
 8131SOL    HW225293   1.557   2.281   0.639
 8132SOL     OW25294   6.393   1.699   4.853
 8132SOL    HW125295   6.356   1.613   4.890
 8132SOL    HW225296   6.432   1.682   4.762
 8133SOL     OW25297   3.756   4.840   1.258
 8133SOL    HW125298   3.708   4.907   1.313
 8133SOL    HW225299   3.710   4.830   1.169
 8134SOL     OW25300   5.634   2.421   5.750
 8134SOL    HW125301   5.670   2.369   5.827
 8134SOL    HW225302   5.550   2.468   5.778
 8135SOL     OW25303   2.378   6.682   1.920
 8135SOL    HW125304   2.475   6.682   1.898
 8135SOL    HW225305   2.361   6.621   1.997
 8136SOL     OW25306   4.992   4.433   1.879
 8136SOL    HW125307   5.013   4.436   1.977
 8136SOL    HW225308   4.894   4.446   1.866
 8137SOL     OW25309   4.555   1.836   6.129
 8137SOL    HW125310   4.546   1.815   6.031
 8137SOL    HW225311   4.472   1.809   6.177
 8138SOL     OW25312   5.336   1.153   2.045
 8138SOL    HW125313   5.326   1.232   2.106
 8138SOL    HW225314   5.375   1.076   2.096
 8139SOL     OW25315   0.792   1.799   3.451
 8139SOL    HW125316   0.892   1.802   3.445
 8139SOL    HW225317   0.760   1.709   3.420
 8140SOL     OW25318   4.892   2.485   2.810
 8140SOL    HW125319   4.953   2.512   2.735
 8140SOL    HW225320   4.864   2.391   2.797
 8141SOL     OW25321   5.771   3.626   3.891
 8141SOL    HW125322   5.763   3.725   3.903
 8141SOL    HW225323   5.812   3.606   3.803
 8142SOL     OW25324   6.640   6.280   0.052
 8142SOL    HW125325   6.677   6.302   0.142
 8142SOL    HW225326   6.567   6.345   0.029
 8143SOL     OW25327   6.575   3.199   5.427
 8143SOL    HW125328   6.566   3.104   5.456
 8143SOL    HW225329   6.487   3.233   5.395
 8144SOL     OW25330   4.706   6.663   0.158
 8144SOL    HW125331   4.666   6.745   0.119
 8144SOL    HW225332   4.752   6.686   0.244
 8145SOL     OW25333   4.556   6.305   3.531
 8145SOL    HW125334   4.574   6.385   3.474
 8145SOL    HW225335   4.546   6.224   3.472
 8146SOL     OW25336   3.770   1.657   4.594
 8146SOL    HW125337   3.689   1.659   4.535
 8146SOL    HW225338   3.852   1.655   4.537
 8147SOL     OW25339   5.494   1.097   2.677
 8147SOL    HW125340   5.466   1.193   2.678
 8147SOL    HW225341   5.478   1.057   2.767
 8148SOL     OW25342   6.926   4.618   2.822
 8148SOL    HW125343   6.831   4.613   2.792
 8148SOL    HW225344   6.959   4.526   2.844
 8149SOL     OW25345   3.636   5.219   3.848
 8149SOL    HW125346   3.653   5.304   3.799
 8149SOL    HW225347   3.539   5.195   3.841
 8150SOL     OW25348   0.961   6.088   1.026
 8150SOL    HW125349   0.945   5.994   1.056
 8150SOL    HW225350   1.033   6.088   0.957
 8151SOL     OW25351   0.327   1.863   4.863
 8151SOL    HW125352   0.318   1.876   4.765
 8151SOL    HW225353   0.344   1.766   4.882
 8152SOL     OW25354   1.439   0.456   3.131
 8152SOL    HW125355   1.483   0.510   3.059
 8152SOL    HW225356   1.357   0.412   3.094
 8153SOL     OW25357   2.074   6.597   0.199
 8153SOL    HW125358   2.054   6.678   0.143
 8153SOL    HW225359   2.001   6.586   0.268
 8154SOL     OW25360   2.389   6.773   2.967
 8154SOL    HW125361   2.416   6.786   3.062
 8154SOL    HW225362   2.391   6.861   2.919
 8155SOL     OW25363   3.000   3.254   4.686
 8155SOL    HW125364   3.035   3.197   4.760
 8155SOL    HW225365   2.900   3.256   4.691
 8156SOL     OW25366   6.819   0.380   5.362
 8156SOL    HW125367   6.836   0.334   5.449
 8156SOL    HW225368   6.846   0.321   5.287
 8157SOL     OW25369   5.811   2.041   6.844
 8157SOL    HW125370   5.758   2.034   6.928
 8157SOL    HW225371   5.841   2.136   6.832
 8158SOL     OW25372   1.884   5.492   2.069
 8158SOL    HW125373   1.980   5.501   2.041
 8158SOL    HW225374   1.829   5.471   1.988
 8159SOL     OW25375   0.544   5.510   0.997
 8159SOL    HW125376   0.521   5.473   1.087
 8159SOL    HW225377   0.578   5.603   1.007
 8160SOL     OW25378   4.549   1.884   1.919
 8160SOL    HW125379   4.599   1.943   1.855
 8160SOL    HW225380   4.462   1.856   1.879
 8161SOL     OW25381   4.096   2.791   1.395
 8161SOL    HW125382   4.063   2.804   1.488
 8161SOL    HW225383   4.021   2.762   1.336
 8162SOL     OW25384   5.951   0.859   1.884
 8162SOL    HW125385   5.920   0.764   1.880
 8162SOL    HW225386   5.871   0.920   1.884
 8163SOL     OW25387   1.953   3.284   5.529
 8163SOL    HW125388   1.913   3.192   5.526
 8163SOL    HW225389   2.025   3.291   5.460
 8164SOL     OW25390   4.886   3.404   2.028
 8164SOL    HW125391   4.957   3.448   1.972
 8164SOL    HW225392   4.836   3.338   1.971
 8165SOL     OW25393   2.091   4.772   2.009
 8165SOL    HW125394   2.189   4.779   1.996
 8165SOL    HW225395   2.054   4.862   2.034
 8166SOL     OW25396   4.081   6.721   1.584
 8166SOL    HW125397   3.999   6.714   1.640
 8166SOL    HW225398   4.112   6.630   1.557
 8167SOL     OW25399   5.256   2.808   4.222
 8167SOL    HW125400   5.292   2.805   4.315
 8167SOL    HW225401   5.273   2.720   4.177
 8168SOL     OW25402   2.648   2.225   2.755
 8168SOL    HW125403   2.722   2.158   2.747
 8168SOL    HW225404   2.653   2.290   2.679
 8169SOL     OW25405   5.565   4.227   4.933
 8169SOL    HW125406   5.526   4.307   4.978
 8169SOL    HW225407   5.494   4.182   4.878
 8170SOL     OW25408   1.236   5.334   4.109
 8170SOL    HW125409   1.202   5.365   4.198
 8170SOL    HW225410   1.332   5.309   4.118
 8171SOL     OW25411   1.715   1.188   6.201
 8171SOL    HW125412   1.767   1.209   6.283
 8171SOL    HW225413   1.674   1.097   6.209
 8172SOL     OW25414   0.026   6.189   1.193
 8172SOL    HW125415   0.075   6.113   1.236
 8172SOL    HW225416   6.978   6.153   1.133
 8173SOL     OW25417   5.866   3.192   0.223
 8173SOL    HW125418   5.805   3.193   0.302
 8173SOL    HW225419   5.868   3.100   0.184
 8174SOL     OW25420   5.335   6.622   2.334
 8174SOL    HW125421   5.348   6.713   2.372
 8174SOL    HW225422   5.238   6.597   2.340
 8175SOL     OW25423   1.809   2.248   4.268
 8175SOL    HW125424   1.741   2.176   4.285
 8175SOL    HW225425   1.811   2.270   4.171
 8176SOL     OW25426   4.067   5.906   3.818
 8176SOL    HW125427   4.167   5.905   3.818
 8176SOL    HW225428   4.034   5.878   3.728
 8177SOL     OW25429   1.197   6.452   5.820
 8177SOL    HW125430   1.174   6.516   5.893
 8177SOL    HW225431   1.209   6.503   5.735
 8178SOL     OW25432   2.585   6.857   5.500
 8178SOL    HW125433   2.672   6.892   5.465
 8178SOL    HW225434   2.598   6.765   5.536
 8179SOL     OW25435   3.568   0.474   0.323
 8179SOL    HW125436   3.556   0.448   0.419
 8179SOL    HW225437   3.581   0.573   0.318
 8180SOL     OW25438   4.696   4.162   5.271
 8180SOL    HW125439   4.679   4.251   5.227
 8180SOL    HW225440   4.613   4.132   5.319
 8181SOL     OW25441   2.425   2.346   2.272
 8181SOL    HW125442   2.434   2.408   2.350
 8181SOL    HW225443   2.494   2.369   2.203
 8182SOL     OW25444   5.585   2.936   5.844
 8182SOL    HW125445   5.534   2.906   5.925
 8182SOL    HW225446   5.534   2.910   5.762
 8183SOL     OW25447   2.285   2.817   3.619
 8183SOL    HW125448   2.248   2.910   3.616
 8183SOL    HW225449   2.238   2.760   3.551
 8184SOL     OW25450   5.693   5.963   4.429
 8184SOL    HW125451   5.659   5.919   4.512
 8184SOL    HW225452   5.636   6.042   4.408
 8185SOL     OW25453   1.712   1.840   3.272
 8185SOL    HW125454   1.617   1.830   3.301
 8185SOL    HW225455   1.716   1.894   3.188
 8186SOL     OW25456   4.066   4.032   6.884
 8186SOL    HW125457   4.015   4.075   6.959
 8186SOL    HW225458   4.159   4.068   6.882
 8187SOL     OW25459   2.008   1.990   5.926
 8187SOL    HW125460   2.038   1.908   5.877
 8187SOL    HW225461   2.037   2.071   5.876
 8188SOL     OW25462   5.019   2.741   2.408
 8188SOL    HW125463   4.939   2.788   2.444
 8188SOL    HW225464   5.083   2.807   2.369
 8189SOL     OW25465   6.778   5.480   2.676
 8189SOL    HW125466   6.734   5.434   2.598
 8189SOL    HW225467   6.806   5.412   2.744
 8190SOL     OW25468   6.050   3.571   2.287
 8190SOL    HW125469   6.097   3.505   2.228
 8190SOL    HW225470   6.090   3.568   2.378
 8191SOL     OW25471   6.306   5.020   1.598
 8191SOL    HW125472   6.346   5.105   1.630
 8191SOL    HW225473   6.379   4.956   1.573
 8192SOL     OW25474   1.145   2.573   0.812
 8192SOL    HW125475   1.165   2.476   0.795
 8192SOL    HW225476   1.193   2.629   0.745
 8193SOL     OW25477   3.658   6.737   5.551
 8193SOL    HW125478   3.570   6.783   5.540
 8193SOL    HW225479   3.727   6.803   5.578
 8194SOL     OW25480   2.243   0.452   2.248
 8194SOL    HW125481   2.144   0.466   2.250
 8194SOL    HW225482   2.289   0.540   2.255
 8195SOL     OW25483   5.630   1.466   1.623
 8195SOL    HW125484   5.672   1.400   1.561
 8195SOL    HW225485   5.535   1.440   1.639
 8196SOL     OW25486   2.048   0.778   0.298
 8196SOL    HW125487   1.984   0.711   0.336
 8196SOL    HW225488   2.005   0.825   0.221
 8197SOL     OW25489   0.308   0.175   0.661
 8197SOL    HW125490   0.256   0.245   0.611
 8197SOL    HW225491   0.266   0.085   0.646
 8198SOL     OW25492   3.348   0.457   3.089
 8198SOL    HW125493   3.271   0.437   3.149
 8198SOL    HW225494   3.372   0.554   3.097
 8199SOL     OW25495   5.670   4.833   1.313
 8199SOL    HW125496   5.675   4.804   1.218
 8199SOL    HW225497   5.645   4.755   1.371
 8200SOL     OW25498   4.288   3.413   1.785
 8200SOL    HW125499   4.322   3.319   1.787
 8200SOL    HW225500   4.360   3.475   1.754
 8201SOL     OW25501   0.320   1.182   5.287
 8201SOL    HW125502   0.265   1.178   5.203
 8201SOL    HW225503   0.416   1.172   5.264
 8202SOL     OW25504   1.959   4.039   4.471
 8202SOL    HW125505   1.898   4.063   4.547
 8202SOL    HW225506   1.971   3.940   4.468
 8203SOL     OW25507   6.007   4.342   0.179
 8203SOL    HW125508   5.971   4.300   0.261
 8203SOL    HW225509   6.099   4.306   0.160
 8204SOL     OW25510   3.039   0.533   0.626
 8204SOL    HW125511   3.088   0.515   0.541
 8204SOL    HW225512   2.940   0.524   0.611
 8205SOL     OW25513   4.621   6.512   3.363
 8205SOL    HW125514   4.710   6.555   3.381
 8205SOL    HW225515   4.551   6.583   3.358
 8206SOL     OW25516   3.644   1.799   4.852
 8206SOL    HW125517   3.630   1.728   4.782
 8206SOL    HW225518   3.567   1.799   4.916
 8207SOL     OW25519   2.797   5.762   6.904
 8207SOL    HW125520   2.744   5.792   6.984
 8207SOL    HW225521   2.738   5.709   6.843
 8208SOL     OW25522   1.720   6.303   6.915
 8208SOL    HW125523   1.687   6.361   6.989
 8208SOL    HW225524   1.818   6.321   6.901
 8209SOL     OW25525   1.056   5.459   5.001
 8209SOL    HW125526   0.985   5.394   5.027
 8209SOL    HW225527   1.024   5.552   5.019
 8210SOL     OW25528   2.413   1.395   0.075
 8210SOL    HW125529   2.473   1.474   0.061
 8210SOL    HW225530   2.336   1.421   0.132
 8211SOL     OW25531   3.890   4.006   3.483
 8211SOL    HW125532   3.950   3.953   3.542
 8211SOL    HW225533   3.811   4.037   3.535
 8212SOL     OW25534   4.369   4.881   6.687
 8212SOL    HW125535   4.469   4.888   6.676
 8212SOL    HW225536   4.344   4.903   6.781
 8213SOL     OW25537   4.566   4.318   1.621
 8213SOL    HW125538   4.507   4.323   1.702
 8213SOL    HW225539   4.600   4.410   1.599
 8214SOL     OW25540   3.966   5.181   3.879
 8214SOL    HW125541   3.903   5.107   3.903
 8214SOL    HW225542   3.933   5.267   3.918
 8215SOL     OW25543   2.639   6.478   6.258
 8215SOL    HW125544   2.582   6.435   6.328
 8215SOL    HW225545   2.693   6.407   6.212
 8216SOL     OW25546   5.077   5.514   1.240
 8216SOL    HW125547   5.133   5.486   1.318
 8216SOL    HW225548   5.053   5.611   1.249
 8217SOL     OW25549   3.600   6.578   3.849
 8217SOL    HW125550   3.511   6.534   3.836
 8217SOL    HW225551   3.600   6.631   3.934
 8218SOL     OW25552   1.848   6.574   4.217
 8218SOL    HW125553   1.931   6.532   4.178
 8218SOL    HW225554   1.808   6.511   4.284
 8219SOL     OW25555   3.977   3.174   3.304
 8219SOL    HW125556   3.939   3.122   3.380
 8219SOL    HW225557   3.987   3.115   3.224
 8220SOL     OW25558   3.868   4.212   5.451
 8220SOL    HW125559   3.779   4.216   5.405
 8220SOL    HW225560   3.941   4.215   5.382
 8221SOL     OW25561   6.404   4.068   4.245
 8221SOL    HW125562   6.393   4.051   4.147
 8221SOL    HW225563   6.364   4.157   4.268
 8222SOL     OW25564   5.590   2.271   6.400
 8222SOL    HW125565   5.642   2.191   6.432
 8222SOL    HW225566   5.496   2.243   6.379
 8223SOL     OW25567   1.675   6.526   5.416
 8223SOL    HW125568   1.593   6.580   5.399
 8223SOL    HW225569   1.701   6.535   5.512
 8224SOL     OW25570   5.535   1.204   6.295
 8224SOL    HW125571   5.513   1.241   6.385
 8224SOL    HW225572   5.457   1.217   6.234
 8225SOL     OW25573   5.827   2.953   6.990
 8225SOL    HW125574   5.783   2.966   6.902
 8225SOL    HW225575   5.886   2.872   6.987
 8226SOL     OW25576   3.618   1.369   6.394
 8226SOL    HW125577   3.666   1.327   6.471
 8226SOL    HW225578   3.629   1.469   6.399
 8227SOL     OW25579   4.850   3.127   2.914
 8227SOL    HW125580   4.879   3.167   2.827
 8227SOL    HW225581   4.890   3.180   2.989
 8228SOL     OW25582   2.853   1.093   4.944
 8228SOL    HW125583   2.891   1.165   5.002
 8228SOL    HW225584   2.862   1.119   4.848
 8229SOL     OW25585   4.648   4.864   0.713
 8229SOL    HW125586   4.550   4.872   0.728
 8229SOL    HW225587   4.677   4.928   0.642
 8230SOL     OW25588   6.102   1.014   6.298
 8230SOL    HW125589   6.061   0.925   6.315
 8230SOL    HW225590   6.171   1.033   6.367
 8231SOL     OW25591   3.489   1.460   2.298
 8231SOL    HW125592   3.438   1.480   2.214
 8231SOL    HW225593   3.461   1.524   2.370
 8232SOL     OW25594   4.041   6.699   3.203
 8232SOL    HW125595   4.109   6.636   3.165
 8232SOL    HW225596   4.070   6.793   3.188
 8233SOL     OW25597   2.360   1.599   6.812
 8233SOL    HW125598   2.411   1.641   6.887
 8233SOL    HW225599   2.270   1.569   6.846
 8234SOL     OW25600   1.448   2.865   0.234
 8234SOL    HW125601   1.468   2.909   0.146
 8234SOL    HW225602   1.356   2.889   0.263
 8235SOL     OW25603   0.607   0.211   1.212
 8235SOL    HW125604   0.660   0.290   1.241
 8235SOL    HW225605   0.538   0.190   1.281
 8236SOL     OW25606   1.016   6.878   1.058
 8236SOL    HW125607   0.943   6.812   1.043
 8236SOL    HW225608   1.086   6.866   0.987
 8237SOL     OW25609   4.215   5.323   5.361
 8237SOL    HW125610   4.148   5.396   5.355
 8237SOL    HW225611   4.230   5.284   5.270
 8238SOL     OW25612   0.008   5.518   0.170
 8238SOL    HW125613   0.085   5.549   0.226
 8238SOL    HW225614   6.947   5.529   0.221
 8239SOL     OW25615   4.340   1.818   5.485
 8239SOL    HW125616   4.281   1.865   5.419
 8239SOL    HW225617   4.363   1.727   5.449
 8240SOL     OW25618   3.580   3.799   4.942
 8240SOL    HW125619   3.520   3.828   5.017
 8240SOL    HW225620   3.555   3.849   4.859
 8241SOL     OW25621   1.043   2.949   5.450
 8241SOL    HW125622   0.949   2.959   5.483
 8241SOL    HW225623   1.075   3.036   5.413
 8242SOL     OW25624   0.433   2.399   3.154
 8242SOL    HW125625   0.498   2.398   3.230
 8242SOL    HW225626   0.472   2.350   3.076
 8243SOL     OW25627   1.414   6.568   3.369
 8243SOL    HW125628   1.382   6.643   3.312
 8243SOL    HW225629   1.340   6.537   3.429
 8244SOL     OW25630   6.014   0.527   3.709
 8244SOL    HW125631   6.111   0.522   3.733
 8244SOL    HW225632   6.002   0.589   3.631
 8245SOL     OW25633   5.205   3.038   1.844
 8245SOL    HW125634   5.167   2.951   1.814
 8245SOL    HW225635   5.155   3.071   1.924
 8246SOL     OW25636   2.054   4.903   6.541
 8246SOL    HW125637   2.108   4.849   6.477
 8246SOL    HW225638   2.011   4.979   6.493
 8247SOL     OW25639   2.205   5.044   3.338
 8247SOL    HW125640   2.223   5.124   3.396
 8247SOL    HW225641   2.265   4.969   3.366
 8248SOL     OW25642   7.023   6.180   2.892
 8248SOL    HW125643   7.023   6.259   2.954
 8248SOL    HW225644   0.029   6.099   2.943
 8249SOL     OW25645   3.053   1.075   6.646
 8249SOL    HW125646   3.003   1.143   6.593
 8249SOL    HW225647   3.002   0.989   6.647
 8250SOL     OW25648   1.365   1.517   6.658
 8250SOL    HW125649   1.387   1.453   6.731
 8250SOL    HW225650   1.382   1.473   6.569
 8251SOL     OW25651   1.032   1.907   5.477
 8251SOL    HW125652   1.057   1.992   5.432
 8251SOL    HW225653   0.988   1.846   5.412
 8252SOL     OW25654   0.605   2.107   6.671
 8252SOL    HW125655   0.544   2.164   6.725
 8252SOL    HW225656   0.618   2.148   6.581
 8253SOL     OW25657   5.758   5.032   6.210
 8253SOL    HW125658   5.778   4.958   6.145
 8253SOL    HW225659   5.766   4.997   6.304
 8254SOL     OW25660   5.608   5.289   6.877
 8254SOL    HW125661   5.687   5.330   6.924
 8254SOL    HW225662   5.527   5.347   6.892
 8255SOL     OW25663   1.334   0.181   5.555
 8255SOL    HW125664   1.350   0.240   5.635
 8255SOL    HW225665   1.314   0.238   5.475
 8256SOL     OW25666   1.439   5.725   3.200
 8256SOL    HW125667   1.474   5.787   3.270
 8256SOL    HW225668   1.351   5.758   3.167
 8257SOL     OW25669   4.873   3.558   3.627
 8257SOL    HW125670   4.789   3.524   3.583
 8257SOL    HW225671   4.931   3.601   3.558
 8258SOL     OW25672   0.190   3.064   3.446
 8258SOL    HW125673   0.226   3.029   3.360
 8258SOL    HW225674   0.264   3.074   3.512
 8259SOL     OW25675   5.598   2.454   4.046
 8259SOL    HW125676   5.538   2.374   4.047
 8259SOL    HW225677   5.650   2.455   3.961
 8260SOL     OW25678   4.819   2.210   6.414
 8260SOL    HW125679   4.855   2.188   6.505
 8260SOL    HW225680   4.737   2.156   6.397
 8261SOL     OW25681   6.224   1.838   2.772
 8261SOL    HW125682   6.190   1.884   2.854
 8261SOL    HW225683   6.154   1.841   2.701
 8262SOL     OW25684   4.780   4.141   2.005
 8262SOL    HW125685   4.830   4.158   1.921
 8262SOL    HW225686   4.730   4.223   2.032
 8263SOL     OW25687   6.329   1.508   6.864
 8263SOL    HW125688   6.391   1.469   6.932
 8263SOL    HW225689   6.382   1.558   6.795
 8264SOL     OW25690   2.893   0.753   1.447
 8264SOL    HW125691   2.902   0.760   1.347
 8264SOL    HW225692   2.919   0.840   1.488
 8265SOL     OW25693   4.480   5.729   0.289
 8265SOL    HW125694   4.503   5.646   0.238
 8265SOL    HW225695   4.520   5.809   0.242
 8266SOL     OW25696   3.822   1.820   3.053
 8266SOL    HW125697   3.900   1.833   3.115
 8266SOL    HW225698   3.832   1.732   3.006
 8267SOL     OW25699   1.831   2.954   3.186
 8267SOL    HW125700   1.768   2.995   3.121
 8267SOL    HW225701   1.810   2.857   3.197
 8268SOL     OW25702   2.701   5.124   1.317
 8268SOL    HW125703   2.656   5.036   1.331
 8268SOL    HW225704   2.685   5.182   1.397
 8269SOL     OW25705   6.342   2.057   4.527
 8269SOL    HW125706   6.289   2.033   4.608
 8269SOL    HW225707   6.420   2.113   4.554
 8270SOL     OW25708   3.469   4.524   0.022
 8270SOL    HW125709   3.376   4.545   7.015
 8270SOL    HW225710   3.464   4.477   0.111
 8271SOL     OW25711   3.380   0.166   5.797
 8271SOL    HW125712   3.364   0.069   5.816
 8271SOL    HW225713   3.450   0.201   5.859
 8272SOL     OW25714   1.079   0.638   2.095
 8272SOL    HW125715   1.054   0.602   2.005
 8272SOL    HW225716   0.999   0.633   2.156
 8273SOL     OW25717   4.056   6.725   6.189
 8273SOL    HW125718   4.103   6.681   6.266
 8273SOL    HW225719   3.963   6.689   6.182
 8274SOL     OW25720   5.551   6.726   4.020
 8274SOL    HW125721   5.474   6.733   3.956
 8274SOL    HW225722   5.556   6.632   4.055
 8275SOL     OW25723   4.846   1.170   5.104
 8275SOL    HW125724   4.828   1.073   5.119
 8275SOL    HW225725   4.863   1.186   5.007
 8276SOL     OW25726   5.391   3.155   0.917
 8276SOL    HW125727   5.388   3.068   0.868
 8276SOL    HW225728   5.457   3.149   0.992
 8277SOL     OW25729   1.363   0.050   1.353
 8277SOL    HW125730   1.328   0.097   1.434
 8277SOL    HW225731   1.447   0.001   1.376
 8278SOL     OW25732   1.692   0.660   0.928
 8278SOL    HW125733   1.694   0.561   0.942
 8278SOL    HW225734   1.665   0.679   0.833
 8279SOL     OW25735   5.540   5.415   5.667
 8279SOL    HW125736   5.613   5.353   5.639
 8279SOL    HW225737   5.575   5.481   5.733
 8280SOL     OW25738   5.754   4.112   6.539
 8280SOL    HW125739   5.773   4.087   6.444
 8280SOL    HW225740   5.825   4.073   6.599
 8281SOL     OW25741   3.700   4.604   6.359
 8281SOL    HW125742   3.604   4.619   6.380
 8281SOL    HW225743   3.750   4.582   6.443
 8282SOL     OW25744   4.261   2.494   0.826
 8282SOL    HW125745   4.269   2.397   0.851
 8282SOL    HW225746   4.181   2.533   0.870
 8283SOL     OW25747   0.551   0.182   2.944
 8283SOL    HW125748   0.592   0.210   2.857
 8283SOL    HW225749   0.452   0.197   2.940
 8284SOL     OW25750   5.236   2.093   1.789
 8284SOL    HW125751   5.152   2.126   1.831
 8284SOL    HW225752   5.221   2.001   1.752
 8285SOL     OW25753   0.881   4.154   0.576
 8285SOL    HW125754   0.894   4.068   0.527
 8285SOL    HW225755   0.800   4.146   0.635
 8286SOL     OW25756   6.122   2.282   6.805
 8286SOL    HW125757   6.174   2.240   6.731
 8286SOL    HW225758   6.146   2.239   6.892
 8287SOL     OW25759   0.400   0.717   3.296
 8287SOL    HW125760   0.440   0.631   3.262
 8287SOL    HW225761   0.341   0.755   3.225
 8288SOL     OW25762   2.873   0.435   2.200
 8288SOL    HW125763   2.784   0.392   2.189
 8288SOL    HW225764   2.941   0.387   2.145
 8289SOL     OW25765   5.843   6.826   0.012
 8289SOL    HW125766   5.746   6.805   0.028
 8289SOL    HW225767   5.857   6.924   0.022
 8290SOL     OW25768   4.938   2.396   1.896
 8290SOL    HW125769   4.948   2.445   1.983
 8290SOL    HW225770   4.903   2.458   1.826
 8291SOL     OW25771   4.797   5.689   6.401
 8291SOL    HW125772   4.777   5.726   6.310
 8291SOL    HW225773   4.834   5.762   6.459
 8292SOL     OW25774   0.432   3.894   5.601
 8292SOL    HW125775   0.491   3.873   5.678
 8292SOL    HW225776   0.436   3.992   5.581
 8293SOL     OW25777   2.849   5.102   4.151
 8293SOL    HW125778   2.883   5.036   4.218
 8293SOL    HW225779   2.802   5.053   4.078
 8294SOL     OW25780   6.847   3.488   5.926
 8294SOL    HW125781   6.852   3.564   5.991
 8294SOL    HW225782   6.915   3.502   5.854
 8295SOL     OW25783   4.307   5.104   2.431
 8295SOL    HW125784   4.211   5.104   2.404
 8295SOL    HW225785   4.336   5.197   2.452
 8296SOL     OW25786   3.781   0.285   2.110
 8296SOL    HW125787   3.713   0.212   2.119
 8296SOL    HW225788   3.832   0.295   2.195
 8297SOL     OW25789   5.787   4.120   1.923
 8297SOL    HW125790   5.787   4.168   1.835
 8297SOL    HW225791   5.881   4.114   1.957
 8298SOL     OW25792   0.142   6.576   1.213
 8298SOL    HW125793   0.056   6.583   1.161
 8298SOL    HW225794   0.192   6.495   1.184
 8299SOL     OW25795   0.940   2.826   6.338
 8299SOL    HW125796   0.847   2.845   6.305
 8299SOL    HW225797   0.936   2.759   6.412
 8300SOL     OW25798   5.381   5.225   4.290
 8300SOL    HW125799   5.425   5.205   4.203
 8300SOL    HW225800   5.362   5.324   4.296
 8301SOL     OW25801   6.385   5.466   0.262
 8301SOL    HW125802   6.368   5.423   0.351
 8301SOL    HW225803   6.298   5.491   0.220
 8302SOL     OW25804   3.555   6.755   5.872
 8302SOL    HW125805   3.627   6.752   5.802
 8302SOL    HW225806   3.583   6.702   5.952
 8303SOL     OW25807   1.510   5.288   4.163
 8303SOL    HW125808   1.556   5.201   4.145
 8303SOL    HW225809   1.562   5.363   4.121
 8304SOL     OW25810   6.161   2.264   3.487
 8304SOL    HW125811   6.079   2.320   3.496
 8304SOL    HW225812   6.134   2.168   3.478
 8305SOL     OW25813   4.431   0.036   5.337
 8305SOL    HW125814   4.531   0.030   5.330
 8305SOL    HW225815   4.406   0.064   5.430
 8306SOL     OW25816   5.045   1.152   3.795
 8306SOL    HW125817   5.034   1.251   3.794
 8306SOL    HW225818   5.115   1.125   3.729
 8307SOL     OW25819   0.064   5.075   3.900
 8307SOL    HW125820   0.055   4.977   3.917
 8307SOL    HW225821   0.124   5.116   3.968
 8308SOL     OW25822   1.376   5.746   0.688
 8308SOL    HW125823   1.452   5.761   0.751
 8308SOL    HW225824   1.343   5.652   0.697
 8309SOL     OW25825   6.394   4.715   2.611
 8309SOL    HW125826   6.418   4.782   2.681
 8309SOL    HW225827   6.296   4.699   2.612
 8310SOL     OW25828   2.162   6.116   2.556
 8310SOL    HW125829   2.070   6.151   2.574
 8310SOL    HW225830   2.211   6.107   2.642
 8311SOL     OW25831   4.334   6.212   1.988
 8311SOL    HW125832   4.327   6.256   2.078
 8311SOL    HW225833   4.372   6.120   1.998
 8312SOL     OW25834   6.753   1.765   0.570
 8312SOL    HW125835   6.846   1.799   0.557
 8312SOL    HW225836   6.717   1.733   0.483
 8313SOL     OW25837   4.883   2.911   6.062
 8313SOL    HW125838   4.936   2.985   6.021
 8313SOL    HW225839   4.938   2.828   6.064
 8314SOL     OW25840   4.261   5.561   4.022
 8314SOL    HW125841   4.350   5.601   4.001
 8314SOL    HW225842   4.274   5.473   4.067
 8315SOL     OW25843   3.088   2.684   6.698
 8315SOL    HW125844   3.158   2.620   6.666
 8315SOL    HW225845   3.002   2.635   6.712
 8316SOL     OW25846   1.401   1.417   4.933
 8316SOL    HW125847   1.493   1.459   4.935
 8316SOL    HW225848   1.409   1.319   4.949
 8317SOL     OW25849   1.378   1.856   5.602
 8317SOL    HW125850   1.311   1.783   5.593
 8317SOL    HW225851   1.340   1.941   5.564
 8318SOL     OW25852   4.644   6.508   5.804
 8318SOL    HW125853   4.744   6.499   5.808
 8318SOL    HW225854   4.620   6.603   5.788
 8319SOL     OW25855   2.497   5.657   6.833
 8319SOL    HW125856   2.404   5.623   6.823
 8319SOL    HW225857   2.516   5.674   6.930
 8320SOL     OW25858   3.745   4.587   5.590
 8320SOL    HW125859   3.843   4.566   5.580
 8320SOL    HW225860   3.717   4.575   5.685
 8321SOL     OW25861   0.459   0.740   0.844
 8321SOL    HW125862   0.444   0.641   0.848
 8321SOL    HW225863   0.514   0.768   0.922
 8322SOL     OW25864   1.918   1.029   1.162
 8322SOL    HW125865   1.821   1.006   1.149
 8322SOL    HW225866   1.953   1.075   1.080
 8323SOL     OW25867   5.860   4.859   0.098
 8323SOL    HW125868   5.911   4.776   0.074
 8323SOL    HW225869   5.815   4.895   0.017
 8324SOL     OW25870   5.189   6.713   6.274
 8324SOL    HW125871   5.168   6.760   6.360
 8324SOL    HW225872   5.249   6.635   6.292
 8325SOL     OW25873   1.197   6.623   4.781
 8325SOL    HW125874   1.240   6.705   4.743
 8325SOL    HW225875   1.128   6.590   4.718
 8326SOL     OW25876   2.340   2.253   6.759
 8326SOL    HW125877   2.247   2.216   6.757
 8326SOL    HW225878   2.396   2.204   6.692
 8327SOL     OW25879   0.860   6.116   4.672
 8327SOL    HW125880   0.905   6.061   4.743
 8327SOL    HW225881   0.886   6.080   4.582
 8328SOL     OW25882   0.760   6.438   1.210
 8328SOL    HW125883   0.760   6.357   1.152
 8328SOL    HW225884   0.812   6.420   1.293
 8329SOL     OW25885   1.488   2.614   5.281
 8329SOL    HW125886   1.448   2.698   5.245
 8329SOL    HW225887   1.582   2.604   5.248
 8330SOL     OW25888   2.899   6.770   0.181
 8330SOL    HW125889   2.866   6.713   0.106
 8330SOL    HW225890   2.823   6.792   0.242
 8331SOL     OW25891   2.158   2.693   5.808
 8331SOL    HW125892   2.094   2.770   5.815
 8331SOL    HW225893   2.122   2.627   5.743
 8332SOL     OW25894   5.967   3.744   1.231
 8332SOL    HW125895   5.979   3.843   1.243
 8332SOL    HW225896   6.046   3.707   1.183
 8333SOL     OW25897   3.167   4.523   6.510
 8333SOL    HW125898   3.224   4.501   6.431
 8333SOL    HW225899   3.200   4.472   6.590
 8334SOL     OW25900   3.367   2.233   5.408
 8334SOL    HW125901   3.294   2.178   5.447
 8334SOL    HW225902   3.327   2.304   5.349
 8335SOL     OW25903   5.223   4.203   5.941
 8335SOL    HW125904   5.220   4.147   5.858
 8335SOL    HW225905   5.305   4.260   5.941
 8336SOL     OW25906   0.907   4.544   3.433
 8336SOL    HW125907   0.943   4.451   3.428
 8336SOL    HW225908   0.982   4.609   3.438
 8337SOL     OW25909   6.659   1.118   4.356
 8337SOL    HW125910   6.696   1.153   4.270
 8337SOL    HW225911   6.733   1.077   4.410
 8338SOL     OW25912   2.535   5.928   0.842
 8338SOL    HW125913   2.569   5.904   0.752
 8338SOL    HW225914   2.481   5.853   0.879
 8339SOL     OW25915   6.385   0.545   2.084
 8339SOL    HW125916   6.369   0.503   1.995
 8339SOL    HW225917   6.406   0.474   2.151
 8340SOL     OW25918   5.571   2.619   6.700
 8340SOL    HW125919   5.495   2.554   6.709
 8340SOL    HW225920   5.611   2.636   6.790
 8341SOL     OW25921   3.784   0.231   1.209
 8341SOL    HW125922   3.719   0.307   1.205
 8341SOL    HW225923   3.876   0.265   1.192
 8342SOL     OW25924   3.825   1.272   0.541
 8342SOL    HW125925   3.754   1.232   0.600
 8342SOL    HW225926   3.907   1.215   0.545
 8343SOL     OW25927   5.019   5.643   2.960
 8343SOL    HW125928   5.042   5.591   2.878
 8343SOL    HW225929   5.041   5.740   2.946
 8344SOL     OW25930   2.732   4.759   6.105
 8344SOL    HW125931   2.781   4.844   6.084
 8344SOL    HW225932   2.636   4.769   6.079
 8345SOL     OW25933   6.381   0.267   3.763
 8345SOL    HW125934   6.311   0.199   3.743
 8345SOL    HW225935   6.398   0.322   3.681
 8346SOL     OW25936   6.234   4.107   4.018
 8346SOL    HW125937   6.175   4.128   4.096
 8346SOL    HW225938   6.188   4.134   3.934
 8347SOL     OW25939   1.704   2.018   5.993
 8347SOL    HW125940   1.799   2.018   5.963
 8347SOL    HW225941   1.679   1.927   6.026
 8348SOL     OW25942   3.187   5.893   1.717
 8348SOL    HW125943   3.162   5.831   1.642
 8348SOL    HW225944   3.246   5.966   1.681
 8349SOL     OW25945   4.545   5.455   1.559
 8349SOL    HW125946   4.624   5.408   1.518
 8349SOL    HW225947   4.462   5.431   1.509
 8350SOL     OW25948   1.575   0.307   6.794
 8350SOL    HW125949   1.658   0.350   6.759
 8350SOL    HW225950   1.505   0.308   6.723
 8351SOL     OW25951   6.728   2.797   3.247
 8351SOL    HW125952   6.769   2.881   3.282
 8351SOL    HW225953   6.801   2.732   3.224
 8352SOL     OW25954   2.911   6.514   6.429
 8352SOL    HW125955   2.831   6.498   6.372
 8352SOL    HW225956   2.962   6.429   6.441
 8353SOL     OW25957   0.599   5.869   2.618
 8353SOL    HW125958   0.559   5.855   2.709
 8353SOL    HW225959   0.612   5.781   2.573
 8354SOL     OW25960   4.873   2.009   3.066
 8354SOL    HW125961   4.928   2.005   2.983
 8354SOL    HW225962   4.779   2.035   3.043
 8355SOL     OW25963   3.015   5.322   6.126
 8355SOL    HW125964   3.093   5.373   6.090
 8355SOL    HW225965   2.931   5.357   6.085
 8356SOL     OW25966   2.816   4.261   1.247
 8356SOL    HW125967   2.824   4.351   1.290
 8356SOL    HW225968   2.780   4.272   1.154
 8357SOL     OW25969   3.086   0.039   4.643
 8357SOL    HW125970   3.022   0.096   4.591
 8357SOL    HW225971   3.152   7.021   4.580
 8358SOL     OW25972   0.333   0.418   4.657
 8358SOL    HW125973   0.362   0.342   4.715
 8358SOL    HW225974   0.277   0.481   4.710
 8359SOL     OW25975   4.612   2.115   5.390
 8359SOL    HW125976   4.542   2.119   5.319
 8359SOL    HW225977   4.702   2.098   5.349
 8360SOL     OW25978   3.496   6.891   1.848
 8360SOL    HW125979   3.461   6.820   1.786
 8360SOL    HW225980   3.594   6.875   1.864
 8361SOL     OW25981   5.124   1.155   0.433
 8361SOL    HW125982   5.040   1.104   0.451
 8361SOL    HW225983   5.128   1.236   0.491
 8362SOL     OW25984   0.147   3.830   1.261
 8362SOL    HW125985   0.047   3.833   1.262
 8362SOL    HW225986   0.178   3.761   1.327
 8363SOL     OW25987   1.163   2.269   1.517
 8363SOL    HW125988   1.138   2.366   1.524
 8363SOL    HW225989   1.261   2.260   1.503
 8364SOL     OW25990   6.975   1.864   4.152
 8364SOL    HW125991   6.895   1.832   4.202
 8364SOL    HW225992   0.002   1.785   4.117
 8365SOL     OW25993   1.572   2.579   1.963
 8365SOL    HW125994   1.648   2.524   1.998
 8365SOL    HW225995   1.598   2.675   1.962
 8366SOL     OW25996   4.651   5.855   2.108
 8366SOL    HW125997   4.710   5.893   2.036
 8366SOL    HW225998   4.610   5.930   2.160
 8367SOL     OW25999   1.910   4.179   3.494
 8367SOL    HW126000   1.921   4.268   3.450
 8367SOL    HW226001   1.844   4.187   3.569
 8368SOL     OW26002   6.854   4.277   5.942
 8368SOL    HW126003   6.942   4.309   5.905
 8368SOL    HW226004   6.802   4.232   5.869
 8369SOL     OW26005   1.347   6.888   6.945
 8369SOL    HW126006   1.256   6.847   6.944
 8369SOL    HW226007   1.412   6.828   6.898
 8370SOL     OW26008   2.974   3.057   0.137
 8370SOL    HW126009   3.012   3.081   0.048
 8370SOL    HW226010   3.047   3.050   0.205
 8371SOL     OW26011   3.072   4.255   6.176
 8371SOL    HW126012   2.981   4.249   6.216
 8371SOL    HW226013   3.138   4.282   6.246
 8372SOL     OW26014   1.595   0.214   1.981
 8372SOL    HW126015   1.651   0.265   2.046
 8372SOL    HW226016   1.613   0.247   1.888
 8373SOL     OW26017   5.491   0.878   3.605
 8373SOL    HW126018   5.411   0.878   3.666
 8373SOL    HW226019   5.535   0.788   3.608
 8374SOL     OW26020   1.066   1.714   3.445
 8374SOL    HW126021   1.077   1.620   3.412
 8374SOL    HW226022   1.131   1.731   3.519
 8375SOL     OW26023   1.678   1.927   5.388
 8375SOL    HW126024   1.702   2.014   5.344
 8375SOL    HW226025   1.647   1.944   5.481
 8376SOL     OW26026   0.823   1.719   3.747
 8376SOL    HW126027   0.856   1.739   3.654
 8376SOL    HW226028   0.885   1.654   3.791
 8377SOL     OW26029   3.310   5.179   0.712
 8377SOL    HW126030   3.406   5.205   0.702
 8377SOL    HW226031   3.252   5.260   0.702
 8378SOL     OW26032   4.233   5.298   5.095
 8378SOL    HW126033   4.290   5.377   5.070
 8378SOL    HW226034   4.147   5.302   5.045
 8379SOL     OW26035   6.441   2.432   2.262
 8379SOL    HW126036   6.496   2.401   2.184
 8379SOL    HW226037   6.498   2.432   2.344
 8380SOL     OW26038   1.200   6.005   2.272
 8380SOL    HW126039   1.219   5.923   2.219
 8380SOL    HW226040   1.240   5.996   2.364
 8381SOL     OW26041   1.015   2.063   2.433
 8381SOL    HW126042   1.026   1.978   2.381
 8381SOL    HW226043   0.931   2.109   2.405
 8382SOL     OW26044   0.549   6.756   1.726
 8382SOL    HW126045   0.523   6.684   1.790
 8382SOL    HW226046   0.620   6.722   1.664
 8383SOL     OW26047   2.724   0.243   5.283
 8383SOL    HW126048   2.632   0.232   5.319
 8383SOL    HW226049   2.731   0.330   5.235
 8384SOL     OW26050   0.511   3.240   3.086
 8384SOL    HW126051   0.479   3.244   3.180
 8384SOL    HW226052   0.458   3.172   3.035
 8385SOL     OW26053   4.351   2.331   2.111
 8385SOL    HW126054   4.418   2.396   2.146
 8385SOL    HW226055   4.381   2.238   2.134
 8386SOL     OW26056   0.513   5.397   1.236
 8386SOL    HW126057   0.428   5.352   1.265
 8386SOL    HW226058   0.574   5.406   1.315
 8387SOL     OW26059   0.654   1.688   3.115
 8387SOL    HW126060   0.559   1.679   3.088
 8387SOL    HW226061   0.700   1.754   3.055
 8388SOL     OW26062   3.879   4.934   1.692
 8388SOL    HW126063   3.963   4.914   1.643
 8388SOL    HW226064   3.809   4.965   1.627
 8389SOL     OW26065   1.326   2.807   3.625
 8389SOL    HW126066   1.265   2.732   3.600
 8389SOL    HW226067   1.384   2.779   3.702
 8390SOL     OW26068   3.123   0.631   6.400
 8390SOL    HW126069   3.176   0.706   6.360
 8390SOL    HW226070   3.066   0.589   6.329
 8391SOL     OW26071   4.602   6.009   0.828
 8391SOL    HW126072   4.511   5.990   0.791
 8391SOL    HW226073   4.646   5.922   0.853
 8392SOL     OW26074   4.064   5.660   0.317
 8392SOL    HW126075   3.999   5.593   0.352
 8392SOL    HW226076   4.135   5.614   0.264
 8393SOL     OW26077   0.621   5.423   1.499
 8393SOL    HW126078   0.543   5.466   1.545
 8393SOL    HW226079   0.687   5.393   1.568
 8394SOL     OW26080   1.565   1.437   3.911
 8394SOL    HW126081   1.556   1.491   3.826
 8394SOL    HW226082   1.564   1.340   3.889
 8395SOL     OW26083   1.442   6.490   5.965
 8395SOL    HW126084   1.386   6.494   6.048
 8395SOL    HW226085   1.383   6.472   5.886
 8396SOL     OW26086   4.399   2.277   0.959
 8396SOL    HW126087   4.427   2.358   1.010
 8396SOL    HW226088   4.450   2.197   0.993
 8397SOL     OW26089   1.763   4.899   3.378
 8397SOL    HW126090   1.783   4.915   3.475
 8397SOL    HW226091   1.839   4.932   3.323
 8398SOL     OW26092   5.735   1.811   0.063
 8398SOL    HW126093   5.640   1.825   0.036
 8398SOL    HW226094   5.768   1.891   0.113
 8399SOL     OW26095   5.282   5.872   6.328
 8399SOL    HW126096   5.342   5.946   6.361
 8399SOL    HW226097   5.197   5.911   6.294
 8400SOL     OW26098   6.609   6.672   4.057
 8400SOL    HW126099   6.556   6.642   4.135
 8400SOL    HW226100   6.652   6.760   4.078
 8401SOL     OW26101   3.091   3.490   5.358
 8401SOL    HW126102   3.065   3.583   5.381
 8401SOL    HW226103   3.084   3.432   5.440
 8402SOL     OW26104   5.056   0.222   5.352
 8402SOL    HW126105   5.104   0.171   5.280
 8402SOL    HW226106   5.081   0.319   5.345
 8403SOL     OW26107   0.683   2.586   5.378
 8403SOL    HW126108   0.584   2.591   5.385
 8403SOL    HW226109   0.712   2.630   5.293
 8404SOL     OW26110   4.708   5.242   5.661
 8404SOL    HW126111   4.645   5.263   5.735
 8404SOL    HW226112   4.659   5.243   5.574
 8405SOL     OW26113   1.818   2.558   5.433
 8405SOL    HW126114   1.777   2.554   5.342
 8405SOL    HW226115   1.747   2.554   5.502
 8406SOL     OW26116   5.032   3.725   1.900
 8406SOL    HW126117   5.116   3.775   1.919
 8406SOL    HW226118   4.954   3.775   1.940
 8407SOL     OW26119   4.889   3.693   3.148
 8407SOL    HW126120   4.926   3.745   3.071
 8407SOL    HW226121   4.862   3.756   3.221
 8408SOL     OW26122   5.014   3.499   4.065
 8408SOL    HW126123   4.991   3.403   4.080
 8408SOL    HW226124   5.048   3.511   3.972
 8409SOL     OW26125   1.318   1.051   4.114
 8409SOL    HW126126   1.387   1.111   4.154
 8409SOL    HW226127   1.265   1.102   4.046
 8410SOL     OW26128   2.278   5.195   2.451
 8410SOL    HW126129   2.314   5.113   2.494
 8410SOL    HW226130   2.353   5.248   2.412
 8411SOL     OW26131   2.045   3.465   3.100
 8411SOL    HW126132   2.068   3.504   3.189
 8411SOL    HW226133   2.031   3.539   3.034
 8412SOL     OW26134   6.611   2.411   2.526
 8412SOL    HW126135   6.585   2.490   2.581
 8412SOL    HW226136   6.685   2.436   2.464
 8413SOL     OW26137   2.161   4.951   1.405
 8413SOL    HW126138   2.144   5.050   1.396
 8413SOL    HW226139   2.087   4.901   1.361
 8414SOL     OW26140   6.427   0.422   3.535
 8414SOL    HW126141   6.527   0.427   3.530
 8414SOL    HW226142   6.392   0.368   3.459
 8415SOL     OW26143   6.828   4.644   1.383
 8415SOL    HW126144   6.735   4.681   1.389
 8415SOL    HW226145   6.829   4.567   1.320
 8416SOL     OW26146   4.694   4.838   2.522
 8416SOL    HW126147   4.768   4.774   2.501
 8416SOL    HW226148   4.725   4.903   2.592
 8417SOL     OW26149   1.294   5.771   6.602
 8417SOL    HW126150   1.240   5.713   6.541
 8417SOL    HW226151   1.243   5.854   6.624
 8418SOL     OW26152   5.768   5.975   2.724
 8418SOL    HW126153   5.728   6.042   2.787
 8418SOL    HW226154   5.696   5.916   2.688
 8419SOL     OW26155   5.146   0.324   3.998
 8419SOL    HW126156   5.181   0.234   3.974
 8419SOL    HW226157   5.088   0.359   3.925
 8420SOL     OW26158   4.029   1.972   5.492
 8420SOL    HW126159   4.006   1.957   5.396
 8420SOL    HW226160   3.999   1.892   5.546
 8421SOL     OW26161   0.432   1.123   1.479
 8421SOL    HW126162   0.440   1.216   1.515
 8421SOL    HW226163   0.362   1.121   1.408
 8422SOL     OW26164   3.303   0.181   1.781
 8422SOL    HW126165   3.333   0.230   1.863
 8422SOL    HW226166   3.246   0.103   1.808
 8423SOL     OW26167   1.978   3.596   1.208
 8423SOL    HW126168   2.019   3.670   1.155
 8423SOL    HW226169   1.879   3.597   1.195
 8424SOL     OW26170   2.655   2.473   1.397
 8424SOL    HW126171   2.738   2.457   1.450
 8424SOL    HW226172   2.663   2.428   1.308
 8425SOL     OW26173   6.342   4.690   6.165
 8425SOL    HW126174   6.411   4.662   6.097
 8425SOL    HW226175   6.388   4.720   6.248
 8426SOL     OW26176   3.607   3.174   2.142
 8426SOL    HW126177   3.687   3.119   2.121
 8426SOL    HW226178   3.541   3.167   2.067
 8427SOL     OW26179   1.891   2.224   7.014
 8427SOL    HW126180   1.890   2.319   0.020
 8427SOL    HW226181   1.958   2.173   0.044
 8428SOL     OW26182   6.219   3.691   0.676
 8428SOL    HW126183   6.188   3.598   0.657
 8428SOL    HW226184   6.203   3.712   0.773
 8429SOL     OW26185   1.877   6.530   2.883
 8429SOL    HW126186   1.837   6.598   2.944
 8429SOL    HW226187   1.909   6.574   2.800
 8430SOL     OW26188   4.773   4.662   3.112
 8430SOL    HW126189   4.700   4.608   3.153
 8430SOL    HW226190   4.774   4.647   3.013
 8431SOL     OW26191   3.044   3.621   2.301
 8431SOL    HW126192   2.981   3.598   2.226
 8431SOL    HW226193   3.119   3.555   2.302
 8432SOL     OW26194   4.755   6.212   6.898
 8432SOL    HW126195   4.661   6.223   6.929
 8432SOL    HW226196   4.783   6.294   6.848
 8433SOL     OW26197   0.533   1.135   3.791
 8433SOL    HW126198   0.456   1.130   3.854
 8433SOL    HW226199   0.590   1.214   3.813
 8434SOL     OW26200   5.950   6.532   6.411
 8434SOL    HW126201   6.042   6.562   6.436
 8434SOL    HW226202   5.884   6.602   6.438
 8435SOL     OW26203   4.803   2.041   1.244
 8435SOL    HW126204   4.836   1.975   1.176
 8435SOL    HW226205   4.858   2.035   1.326
 8436SOL     OW26206   2.983   4.191   1.763
 8436SOL    HW126207   3.021   4.135   1.838
 8436SOL    HW226208   2.986   4.287   1.790
 8437SOL     OW26209   0.195   2.096   0.703
 8437SOL    HW126210   0.153   2.181   0.732
 8437SOL    HW226211   0.148   2.062   0.621
 8438SOL     OW26212   2.132   5.538   0.567
 8438SOL    HW126213   2.186   5.603   0.514
 8438SOL    HW226214   2.039   5.571   0.577
 8439SOL     OW26215   5.684   0.987   1.493
 8439SOL    HW126216   5.599   1.033   1.466
 8439SOL    HW226217   5.665   0.891   1.511
 8440SOL     OW26218   0.790   3.036   4.011
 8440SOL    HW126219   0.808   2.991   3.923
 8440SOL    HW226220   0.877   3.050   4.059
 8441SOL     OW26221   4.524   6.026   2.297
 8441SOL    HW126222   4.520   5.927   2.302
 8441SOL    HW226223   4.474   6.065   2.375
 8442SOL     OW26224   2.616   2.752   0.995
 8442SOL    HW126225   2.680   2.743   0.920
 8442SOL    HW226226   2.614   2.847   1.026
 8443SOL     OW26227   0.001   1.794   1.357
 8443SOL    HW126228   0.043   1.752   1.437
 8443SOL    HW226229   7.019   1.727   1.283
 8444SOL     OW26230   4.156   1.553   3.354
 8444SOL    HW126231   4.100   1.479   3.319
 8444SOL    HW226232   4.103   1.638   3.354
 8445SOL     OW26233   4.722   5.608   2.030
 8445SOL    HW126234   4.722   5.535   2.098
 8445SOL    HW226235   4.691   5.693   2.072
 8446SOL     OW26236   0.181   3.368   3.062
 8446SOL    HW126237   0.258   3.315   3.027
 8446SOL    HW226238   0.098   3.313   3.059
 8447SOL     OW26239   4.349   4.088   1.260
 8447SOL    HW126240   4.330   4.186   1.266
 8447SOL    HW226241   4.357   4.061   1.164
 8448SOL     OW26242   1.806   3.963   6.013
 8448SOL    HW126243   1.898   3.985   6.046
 8448SOL    HW226244   1.740   3.976   6.087
 8449SOL     OW26245   1.082   0.901   5.223
 8449SOL    HW126246   1.032   0.823   5.185
 8449SOL    HW226247   1.066   0.906   5.322
 8450SOL     OW26248   2.134   5.675   0.859
 8450SOL    HW126249   2.062   5.681   0.790
 8450SOL    HW226250   2.107   5.610   0.930
 8451SOL     OW26251   3.048   3.363   0.707
 8451SOL    HW126252   3.054   3.392   0.802
 8451SOL    HW226253   2.965   3.308   0.694
 8452SOL     OW26254   0.022   5.488   1.316
 8452SOL    HW126255   0.011   5.466   1.219
 8452SOL    HW226256   6.959   5.519   1.353
 8453SOL     OW26257   6.643   5.308   5.109
 8453SOL    HW126258   6.662   5.371   5.035
 8453SOL    HW226259   6.679   5.217   5.086
 8454SOL     OW26260   2.289   6.873   4.667
 8454SOL    HW126261   2.318   6.866   4.763
 8454SOL    HW226262   2.264   6.968   4.647
 8455SOL     OW26263   5.653   2.741   0.745
 8455SOL    HW126264   5.592   2.781   0.814
 8455SOL    HW226265   5.747   2.744   0.777
 8456SOL     OW26266   5.424   4.961   3.640
 8456SOL    HW126267   5.385   5.037   3.692
 8456SOL    HW226268   5.361   4.933   3.568
 8457SOL     OW26269   6.661   6.170   5.610
 8457SOL    HW126270   6.582   6.229   5.594
 8457SOL    HW226271   6.645   6.081   5.567
 8458SOL     OW26272   1.594   1.926   0.993
 8458SOL    HW126273   1.580   1.849   0.931
 8458SOL    HW226274   1.592   1.894   1.087
 8459SOL     OW26275   2.707   5.210   3.653
 8459SOL    HW126276   2.799   5.181   3.682
 8459SOL    HW226277   2.658   5.132   3.615
 8460SOL     OW26278   3.919   1.425   1.503
 8460SOL    HW126279   4.009   1.392   1.475
 8460SOL    HW226280   3.923   1.524   1.517
 8461SOL     OW26281   5.217   3.907   3.482
 8461SOL    HW126282   5.163   3.942   3.559
 8461SOL    HW226283   5.306   3.953   3.479
 8462SOL     OW26284   1.465   4.036   0.796
 8462SOL    HW126285   1.376   3.995   0.779
 8462SOL    HW226286   1.521   4.030   0.714
 8463SOL     OW26287   0.135   0.103   1.171
 8463SOL    HW126288   0.094   0.018   1.139
 8463SOL    HW226289   0.205   0.133   1.107
 8464SOL     OW26290   6.219   3.226   6.839
 8464SOL    HW126291   6.174   3.241   6.751
 8464SOL    HW226292   6.299   3.285   6.847
 8465SOL     OW26293   4.752   3.439   1.050
 8465SOL    HW126294   4.695   3.415   1.128
 8465SOL    HW226295   4.802   3.358   1.019
 8466SOL     OW26296   0.481   1.377   5.571
 8466SOL    HW126297   0.552   1.367   5.501
 8466SOL    HW226298   0.487   1.300   5.635
 8467SOL     OW26299   2.882   1.496   0.948
 8467SOL    HW126300   2.914   1.406   0.918
 8467SOL    HW226301   2.822   1.536   0.879
 8468SOL     OW26302   5.367   4.429   0.532
 8468SOL    HW126303   5.457   4.469   0.513
 8468SOL    HW226304   5.349   4.356   0.466
 8469SOL     OW26305   4.135   3.213   5.478
 8469SOL    HW126306   4.056   3.235   5.420
 8469SOL    HW226307   4.122   3.122   5.516
 8470SOL     OW26308   1.333   6.003   1.568
 8470SOL    HW126309   1.392   6.076   1.604
 8470SOL    HW226310   1.389   5.924   1.542
 8471SOL     OW26311   4.338   1.901   4.386
 8471SOL    HW126312   4.388   1.887   4.301
 8471SOL    HW226313   4.315   1.813   4.427
 8472SOL     OW26314   5.582   1.636   6.285
 8472SOL    HW126315   5.670   1.659   6.242
 8472SOL    HW226316   5.557   1.708   6.350
 8473SOL     OW26317   5.501   4.990   5.915
 8473SOL    HW126318   5.417   5.043   5.906
 8473SOL    HW226319   5.508   4.955   6.009
 8474SOL     OW26320   3.086   4.087   5.117
 8474SOL    HW126321   3.156   4.129   5.176
 8474SOL    HW226322   3.000   4.136   5.129
 8475SOL     OW26323   6.916   1.563   2.983
 8475SOL    HW126324   7.015   1.556   2.975
 8475SOL    HW226325   6.881   1.624   2.912
 8476SOL     OW26326   6.266   1.248   1.825
 8476SOL    HW126327   6.170   1.273   1.833
 8476SOL    HW226328   6.280   1.154   1.858
 8477SOL     OW26329   5.807   1.034   0.976
 8477SOL    HW126330   5.896   1.050   0.934
 8477SOL    HW226331   5.746   1.111   0.955
 8478SOL     OW26332   0.861   6.355   5.816
 8478SOL    HW126333   0.934   6.286   5.815
 8478SOL    HW226334   0.849   6.389   5.909
 8479SOL     OW26335   1.231   2.476   7.003
 8479SOL    HW126336   1.247   2.537   0.057
 8479SOL    HW226337   1.133   2.464   6.990
 8480SOL     OW26338   3.258   4.057   0.910
 8480SOL    HW126339   3.244   4.095   0.819
 8480SOL    HW226340   3.339   3.998   0.909
 8481SOL     OW26341   4.493   2.422   2.592
 8481SOL    HW126342   4.554   2.498   2.567
 8481SOL    HW226343   4.488   2.414   2.691
 8482SOL     OW26344   4.360   0.427   6.605
 8482SOL    HW126345   4.385   0.504   6.546
 8482SOL    HW226346   4.311   0.461   6.686
 8483SOL     OW26347   4.085   4.839   3.626
 8483SOL    HW126348   3.990   4.816   3.603
 8483SOL    HW226349   4.096   4.938   3.628
 8484SOL     OW26350   6.095   5.931   5.590
 8484SOL    HW126351   6.107   6.014   5.536
 8484SOL    HW226352   6.184   5.901   5.626
 8485SOL     OW26353   4.151   0.857   5.970
 8485SOL    HW126354   4.184   0.865   5.876
 8485SOL    HW226355   4.140   0.761   5.994
 8486SOL     OW26356   5.874   2.483   4.826
 8486SOL    HW126357   5.819   2.515   4.748
 8486SOL    HW226358   5.959   2.535   4.830
 8487SOL     OW26359   6.870   2.679   6.161
 8487SOL    HW126360   6.965   2.703   6.177
 8487SOL    HW226361   6.810   2.741   6.212
 8488SOL     OW26362   4.388   4.529   2.449
 8488SOL    HW126363   4.388   4.455   2.381
 8488SOL    HW226364   4.404   4.616   2.403
 8489SOL     OW26365   6.496   1.867   2.202
 8489SOL    HW126366   6.443   1.900   2.280
 8489SOL    HW226367   6.546   1.943   2.161
 8490SOL     OW26368   2.934   6.704   0.534
 8490SOL    HW126369   3.033   6.712   0.537
 8490SOL    HW226370   2.893   6.795   0.526
 8491SOL     OW26371   3.390   5.372   2.042
 8491SOL    HW126372   3.477   5.409   2.010
 8491SOL    HW226373   3.408   5.303   2.112
 8492SOL     OW26374   6.440   6.087   4.182
 8492SOL    HW126375   6.490   6.142   4.250
 8492SOL    HW226376   6.481   5.996   4.176
 8493SOL     OW26377   5.048   0.797   5.735
 8493SOL    HW126378   5.021   0.883   5.777
 8493SOL    HW226379   5.052   0.725   5.805
 8494SOL     OW26380   0.272   3.437   1.987
 8494SOL    HW126381   0.325   3.358   2.017
 8494SOL    HW226382   0.321   3.521   2.009
 8495SOL     OW26383   5.899   5.553   6.004
 8495SOL    HW126384   5.830   5.484   5.982
 8495SOL    HW226385   5.882   5.590   6.095
 8496SOL     OW26386   4.953   1.659   2.777
 8496SOL    HW126387   4.886   1.597   2.736
 8496SOL    HW226388   5.021   1.684   2.708
 8497SOL     OW26389   6.623   0.571   2.610
 8497SOL    HW126390   6.695   0.611   2.552
 8497SOL    HW226391   6.533   0.593   2.572
 8498SOL     OW26392   4.591   5.942   4.341
 8498SOL    HW126393   4.497   5.978   4.345
 8498SOL    HW226394   4.607   5.904   4.250
 8499SOL     OW26395   6.089   6.973   5.451
 8499SOL    HW126396   6.001   7.005   5.487
 8499SOL    HW226397   6.091   6.988   5.352
 8500SOL     OW26398   0.998   0.704   6.775
 8500SOL    HW126399   1.078   0.733   6.827
 8500SOL    HW226400   0.990   0.760   6.692
 8501SOL     OW26401   3.360   0.972   5.995
 8501SOL    HW126402   3.263   0.948   6.002
 8501SOL    HW226403   3.409   0.936   6.074
 8502SOL     OW26404   6.344   2.840   0.250
 8502SOL    HW126405   6.348   2.799   0.342
 8502SOL    HW226406   6.372   2.936   0.256
 8503SOL     OW26407   4.929   2.484   5.684
 8503SOL    HW126408   4.846   2.537   5.699
 8503SOL    HW226409   4.956   2.440   5.770
 8504SOL     OW26410   1.568   6.671   2.627
 8504SOL    HW126411   1.477   6.656   2.588
 8504SOL    HW226412   1.633   6.692   2.554
 8505SOL     OW26413   5.773   2.068   3.011
 8505SOL    HW126414   5.814   2.079   2.920
 8505SOL    HW226415   5.723   1.981   3.015
 8506SOL     OW26416   1.600   0.220   6.139
 8506SOL    HW126417   1.685   0.268   6.120
 8506SOL    HW226418   1.527   0.256   6.081
 8507SOL     OW26419   4.119   5.118   5.537
 8507SOL    HW126420   4.184   5.043   5.549
 8507SOL    HW226421   4.167   5.200   5.509
 8508SOL     OW26422   3.495   0.675   6.522
 8508SOL    HW126423   3.474   0.579   6.506
 8508SOL    HW226424   3.437   0.710   6.596
 8509SOL     OW26425   5.232   2.152   2.227
 8509SOL    HW126426   5.144   2.186   2.260
 8509SOL    HW226427   5.274   2.221   2.169
 8510SOL     OW26428   0.699   2.358   4.745
 8510SOL    HW126429   0.728   2.352   4.649
 8510SOL    HW226430   0.601   2.378   4.749
 8511SOL     OW26431   5.817   1.886   3.839
 8511SOL    HW126432   5.806   1.946   3.919
 8511SOL    HW226433   5.871   1.933   3.770
 8512SOL     OW26434   2.252   6.669   5.518
 8512SOL    HW126435   2.210   6.726   5.448
 8512SOL    HW226436   2.268   6.723   5.601
 8513SOL     OW26437   4.472   5.837   6.886
 8513SOL    HW126438   4.551   5.837   6.825
 8513SOL    HW226439   4.418   5.919   6.871
 8514SOL     OW26440   3.396   5.531   4.435
 8514SOL    HW126441   3.453   5.548   4.515
 8514SOL    HW226442   3.322   5.468   4.458
 8515SOL     OW26443   5.954   2.362   2.169
 8515SOL    HW126444   5.962   2.460   2.154
 8515SOL    HW226445   5.963   2.314   2.081
 8516SOL     OW26446   6.572   1.414   2.202
 8516SOL    HW126447   6.641   1.342   2.196
 8516SOL    HW226448   6.612   1.502   2.177
 8517SOL     OW26449   1.458   3.965   5.310
 8517SOL    HW126450   1.391   3.903   5.268
 8517SOL    HW226451   1.467   3.943   5.407
 8518SOL     OW26452   2.942   5.856   1.025
 8518SOL    HW126453   2.913   5.781   0.965
 8518SOL    HW226454   2.907   5.943   0.989
 8519SOL     OW26455   2.585   5.849   3.364
 8519SOL    HW126456   2.568   5.761   3.410
 8519SOL    HW226457   2.683   5.859   3.347
 8520SOL     OW26458   3.239   6.186   6.622
 8520SOL    HW126459   3.230   6.120   6.696
 8520SOL    HW226460   3.326   6.234   6.630
 8521SOL     OW26461   2.177   0.809   2.393
 8521SOL    HW126462   2.269   0.806   2.431
 8521SOL    HW226463   2.182   0.828   2.295
 8522SOL     OW26464   2.167   6.209   4.956
 8522SOL    HW126465   2.089   6.219   5.017
 8522SOL    HW226466   2.251   6.203   5.009
 8523SOL     OW26467   2.098   6.597   6.477
 8523SOL    HW126468   2.004   6.628   6.457
 8523SOL    HW226469   2.101   6.497   6.472
 8524SOL     OW26470   1.906   1.458   0.116
 8524SOL    HW126471   1.982   1.418   0.065
 8524SOL    HW226472   1.879   1.544   0.073
 8525SOL     OW26473   5.443   3.364   4.062
 8525SOL    HW126474   5.396   3.333   3.980
 8525SOL    HW226475   5.485   3.453   4.045
 8526SOL     OW26476   1.507   3.415   2.079
 8526SOL    HW126477   1.450   3.352   2.131
 8526SOL    HW226478   1.472   3.508   2.089
 8527SOL     OW26479   4.704   0.172   4.762
 8527SOL    HW126480   4.697   0.226   4.845
 8527SOL    HW226481   4.789   0.194   4.714
 8528SOL     OW26482   5.716   1.278   6.902
 8528SOL    HW126483   5.740   1.233   6.816
 8528SOL    HW226484   5.660   1.358   6.883
 8529SOL     OW26485   0.053   6.857   5.351
 8529SOL    HW126486   0.080   6.764   5.375
 8529SOL    HW226487   0.052   6.914   5.433
 8530SOL     OW26488   2.045   4.947   5.701
 8530SOL    HW126489   1.992   4.869   5.667
 8530SOL    HW226490   1.983   5.012   5.746
 8531SOL     OW26491   4.072   5.167   1.476
 8531SOL    HW126492   4.122   5.201   1.396
 8531SOL    HW226493   4.108   5.078   1.502
 8532SOL     OW26494   1.502   4.303   0.486
 8532SOL    HW126495   1.493   4.304   0.585
 8532SOL    HW226496   1.421   4.263   0.445
 8533SOL     OW26497   3.596   6.629   5.262
 8533SOL    HW126498   3.648   6.634   5.347
 8533SOL    HW226499   3.634   6.693   5.195
 8534SOL     OW26500   2.252   2.440   1.059
 8534SOL    HW126501   2.251   2.436   1.159
 8534SOL    HW226502   2.218   2.354   1.021
 8535SOL     OW26503   0.464   3.483   5.817
 8535SOL    HW126504   0.488   3.390   5.788
 8535SOL    HW226505   0.386   3.516   5.764
 8536SOL     OW26506   6.103   0.878   5.890
 8536SOL    HW126507   6.020   0.909   5.843
 8536SOL    HW226508   6.136   0.951   5.950
 8537SOL     OW26509   4.305   6.209   3.653
 8537SOL    HW126510   4.396   6.227   3.614
 8537SOL    HW226511   4.252   6.155   3.588
 8538SOL     OW26512   4.882   6.819   5.339
 8538SOL    HW126513   4.945   6.782   5.407
 8538SOL    HW226514   4.932   6.838   5.254
 8539SOL     OW26515   0.838   3.055   2.662
 8539SOL    HW126516   0.881   3.145   2.661
 8539SOL    HW226517   0.906   2.985   2.684
 8540SOL     OW26518   4.297   6.749   6.633
 8540SOL    HW126519   4.209   6.762   6.679
 8540SOL    HW226520   4.327   6.654   6.645
 8541SOL     OW26521   2.891   6.437   5.322
 8541SOL    HW126522   2.842   6.515   5.361
 8541SOL    HW226523   2.834   6.355   5.327
 8542SOL     OW26524   1.006   5.298   5.798
 8542SOL    HW126525   0.982   5.227   5.732
 8542SOL    HW226526   1.076   5.263   5.860
 8543SOL     OW26527   3.159   2.130   5.576
 8543SOL    HW126528   3.139   2.227   5.593
 8543SOL    HW226529   3.182   2.086   5.663
 8544SOL     OW26530   5.559   4.059   5.536
 8544SOL    HW126531   5.518   3.969   5.524
 8544SOL    HW226532   5.642   4.065   5.480
 8545SOL     OW26533   2.691   0.325   6.103
 8545SOL    HW126534   2.663   0.403   6.046
 8545SOL    HW226535   2.701   0.354   6.198
 8546SOL     OW26536   3.266   0.953   3.497
 8546SOL    HW126537   3.310   1.026   3.445
 8546SOL    HW226538   3.303   0.865   3.467
 8547SOL     OW26539   5.281   6.189   6.166
 8547SOL    HW126540   5.363   6.143   6.202
 8547SOL    HW226541   5.307   6.260   6.102
 8548SOL     OW26542   1.446   4.389   4.346
 8548SOL    HW126543   1.368   4.449   4.325
 8548SOL    HW226544   1.514   4.397   4.273
 8549SOL     OW26545   2.878   0.278   3.751
 8549SOL    HW126546   2.852   0.361   3.701
 8549SOL    HW226547   2.823   0.201   3.719
 8550SOL     OW26548   0.465   4.461   5.213
 8550SOL    HW126549   0.549   4.453   5.160
 8550SOL    HW226550   0.418   4.373   5.214
 8551SOL     OW26551   3.630   1.393   4.425
 8551SOL    HW126552   3.633   1.362   4.519
 8551SOL    HW226553   3.577   1.478   4.419
 8552SOL     OW26554   3.478   1.819   2.234
 8552SOL    HW126555   3.437   1.909   2.225
 8552SOL    HW226556   3.411   1.749   2.209
 8553SOL     OW26557   4.805   3.983   0.423
 8553SOL    HW126558   4.833   3.995   0.519
 8553SOL    HW226559   4.852   3.903   0.385
 8554SOL     OW26560   1.386   1.150   6.570
 8554SOL    HW126561   1.428   1.166   6.659
 8554SOL    HW226562   1.296   1.193   6.567
 8555SOL     OW26563   3.252   1.735   3.673
 8555SOL    HW126564   3.193   1.811   3.702
 8555SOL    HW226565   3.335   1.735   3.729
 8556SOL     OW26566   0.010   5.120   5.045
 8556SOL    HW126567   0.080   5.065   5.091
 8556SOL    HW226568   6.945   5.076   5.055
 8557SOL     OW26569   6.744   1.070   0.173
 8557SOL    HW126570   6.758   1.034   0.266
 8557SOL    HW226571   6.830   1.063   0.122
 8558SOL     OW26572   2.639   6.593   3.624
 8558SOL    HW126573   2.557   6.545   3.594
 8558SOL    HW226574   2.614   6.666   3.687
 8559SOL     OW26575   1.514   3.396   2.703
 8559SOL    HW126576   1.592   3.436   2.750
 8559SOL    HW226577   1.469   3.329   2.763
 8560SOL     OW26578   3.476   4.232   1.365
 8560SOL    HW126579   3.497   4.329   1.354
 8560SOL    HW226580   3.377   4.219   1.361
 8561SOL     OW26581   4.135   0.718   2.676
 8561SOL    HW126582   4.198   0.741   2.602
 8561SOL    HW226583   4.115   0.620   2.675
 8562SOL     OW26584   5.373   2.564   6.376
 8562SOL    HW126585   5.303   2.515   6.324
 8562SOL    HW226586   5.385   2.520   6.465
 8563SOL     OW26587   1.672   5.072   2.780
 8563SOL    HW126588   1.670   5.037   2.687
 8563SOL    HW226589   1.651   4.997   2.844
 8564SOL     OW26590   3.481   6.363   0.097
 8564SOL    HW126591   3.514   6.274   0.067
 8564SOL    HW226592   3.543   6.401   0.165
 8565SOL     OW26593   0.740   5.255   1.131
 8565SOL    HW126594   0.660   5.301   1.167
 8565SOL    HW226595   0.780   5.311   1.058
 8566SOL     OW26596   3.733   0.809   3.462
 8566SOL    HW126597   3.798   0.824   3.388
 8566SOL    HW226598   3.761   0.860   3.543
 8567SOL     OW26599   1.746   2.334   1.456
 8567SOL    HW126600   1.732   2.237   1.473
 8567SOL    HW226601   1.727   2.386   1.540
 8568SOL     OW26602   6.176   0.276   5.923
 8568SOL    HW126603   6.096   0.337   5.920
 8568SOL    HW226604   6.240   0.309   5.993
 8569SOL     OW26605   5.360   1.601   6.662
 8569SOL    HW126606   5.316   1.690   6.674
 8569SOL    HW226607   5.361   1.578   6.564
 8570SOL     OW26608   1.784   1.861   3.552
 8570SOL    HW126609   1.838   1.935   3.591
 8570SOL    HW226610   1.752   1.887   3.461
 8571SOL     OW26611   1.380   0.486   3.377
 8571SOL    HW126612   1.420   0.475   3.287
 8571SOL    HW226613   1.281   0.501   3.368
 8572SOL     OW26614   3.218   4.145   5.766
 8572SOL    HW126615   3.250   4.224   5.713
 8572SOL    HW226616   3.139   4.172   5.821
 8573SOL     OW26617   1.520   6.176   6.016
 8573SOL    HW126618   1.509   6.103   6.084
 8573SOL    HW226619   1.521   6.265   6.062
 8574SOL     OW26620   5.527   1.310   5.371
 8574SOL    HW126621   5.579   1.298   5.455
 8574SOL    HW226622   5.511   1.221   5.329
 8575SOL     OW26623   3.219   5.736   4.627
 8575SOL    HW126624   3.196   5.734   4.530
 8575SOL    HW226625   3.314   5.706   4.639
 8576SOL     OW26626   1.173   3.884   4.947
 8576SOL    HW126627   1.228   3.875   5.030
 8576SOL    HW226628   1.159   3.794   4.906
 8577SOL     OW26629   2.240   0.665   0.463
 8577SOL    HW126630   2.300   0.610   0.405
 8577SOL    HW226631   2.175   0.715   0.405
 8578SOL     OW26632   1.010   6.976   5.901
 8578SOL    HW126633   1.022   6.989   5.999
 8578SOL    HW226634   0.924   6.928   5.884
 8579SOL     OW26635   3.761   6.879   1.992
 8579SOL    HW126636   3.860   6.884   2.005
 8579SOL    HW226637   3.725   6.799   2.040
 8580SOL     OW26638   2.634   0.436   1.839
 8580SOL    HW126639   2.624   0.344   1.876
 8580SOL    HW226640   2.683   0.432   1.752
 8581SOL     OW26641   4.143   3.676   2.242
 8581SOL    HW126642   4.199   3.638   2.168
 8581SOL    HW226643   4.139   3.776   2.233
 8582SOL     OW26644   4.555   5.545   5.770
 8582SOL    HW126645   4.624   5.519   5.837
 8582SOL    HW226646   4.500   5.620   5.807
 8583SOL     OW26647   3.605   6.628   2.828
 8583SOL    HW126648   3.636   6.619   2.733
 8583SOL    HW226649   3.635   6.549   2.881
 8584SOL     OW26650   6.180   1.631   5.157
 8584SOL    HW126651   6.250   1.701   5.169
 8584SOL    HW226652   6.196   1.581   5.071
 8585SOL     OW26653   4.797   2.101   2.213
 8585SOL    HW126654   4.857   2.098   2.133
 8585SOL    HW226655   4.765   2.195   2.228
 8586SOL     OW26656   6.374   5.765   5.598
 8586SOL    HW126657   6.390   5.754   5.500
 8586SOL    HW226658   6.432   5.702   5.649
 8587SOL     OW26659   6.968   1.470   0.281
 8587SOL    HW126660   6.958   1.389   0.339
 8587SOL    HW226661   7.017   1.541   0.331
 8588SOL     OW26662   1.627   0.958   5.239
 8588SOL    HW126663   1.699   0.932   5.304
 8588SOL    HW226664   1.598   0.877   5.189
 8589SOL     OW26665   5.449   2.878   6.610
 8589SOL    HW126666   5.481   2.786   6.630
 8589SOL    HW226667   5.356   2.889   6.644
 8590SOL     OW26668   1.478   1.154   3.621
 8590SOL    HW126669   1.466   1.136   3.718
 8590SOL    HW226670   1.555   1.217   3.608
 8591SOL     OW26671   0.880   3.928   4.953
 8591SOL    HW126672   0.902   3.858   5.022
 8591SOL    HW226673   0.962   3.951   4.902
 8592SOL     OW26674   7.020   1.946   4.613
 8592SOL    HW126675   7.014   1.877   4.541
 8592SOL    HW226676   7.010   2.037   4.572
 8593SOL     OW26677   6.214   1.473   0.591
 8593SOL    HW126678   6.260   1.386   0.572
 8593SOL    HW226679   6.118   1.467   0.564
 8594SOL     OW26680   5.880   4.013   6.343
 8594SOL    HW126681   5.863   3.944   6.273
 8594SOL    HW226682   5.947   4.079   6.310
 8595SOL     OW26683   5.388   6.019   2.930
 8595SOL    HW126684   5.477   6.063   2.925
 8595SOL    HW226685   5.334   6.041   2.849
 8596SOL     OW26686   1.290   2.341   5.571
 8596SOL    HW126687   1.192   2.361   5.561
 8596SOL    HW226688   1.314   2.340   5.668
 8597SOL     OW26689   6.078   2.303   6.010
 8597SOL    HW126690   6.009   2.327   6.079
 8597SOL    HW226691   6.161   2.272   6.056
 8598SOL     OW26692   6.904   1.066   5.941
 8598SOL    HW126693   6.988   1.025   5.903
 8598SOL    HW226694   6.854   1.111   5.867
 8599SOL     OW26695   6.021   4.081   5.071
 8599SOL    HW126696   5.934   4.041   5.043
 8599SOL    HW226697   6.008   4.179   5.089
 8600SOL     OW26698   4.346   2.657   1.316
 8600SOL    HW126699   4.370   2.590   1.386
 8600SOL    HW226700   4.254   2.692   1.334
 8601SOL     OW26701   5.003   5.638   2.486
 8601SOL    HW126702   4.994   5.737   2.498
 8601SOL    HW226703   5.057   5.619   2.404
 8602SOL     OW26704   1.494   0.479   5.605
 8602SOL    HW126705   1.543   0.440   5.527
 8602SOL    HW226706   1.493   0.414   5.681
 8603SOL     OW26707   0.529   1.068   6.440
 8603SOL    HW126708   0.566   0.976   6.435
 8603SOL    HW226709   0.464   1.074   6.516
 8604SOL     OW26710   1.832   5.496   6.105
 8604SOL    HW126711   1.812   5.398   6.109
 8604SOL    HW226712   1.833   5.534   6.197
 8605SOL     OW26713   6.848   4.214   3.691
 8605SOL    HW126714   6.929   4.263   3.722
 8605SOL    HW226715   6.803   4.171   3.770
 8606SOL     OW26716   1.247   0.486   6.652
 8606SOL    HW126717   1.158   0.531   6.660
 8606SOL    HW226718   1.256   0.418   6.724
 8607SOL     OW26719   2.977   3.027   1.171
 8607SOL    HW126720   2.976   3.082   1.088
 8607SOL    HW226721   2.900   3.055   1.229
 8608SOL     OW26722   1.612   6.436   1.900
 8608SOL    HW126723   1.606   6.341   1.868
 8608SOL    HW226724   1.521   6.471   1.918
 8609SOL     OW26725   5.482   2.222   4.984
 8609SOL    HW126726   5.447   2.177   5.067
 8609SOL    HW226727   5.564   2.274   5.007
 8610SOL     OW26728   6.672   5.309   2.457
 8610SOL    HW126729   6.694   5.212   2.469
 8610SOL    HW226730   6.606   5.320   2.383
 8611SOL     OW26731   2.142   1.567   5.145
 8611SOL    HW126732   2.222   1.623   5.123
 8611SOL    HW226733   2.117   1.581   5.241
 8612SOL     OW26734   3.759   3.174   5.150
 8612SOL    HW126735   3.832   3.119   5.107
 8612SOL    HW226736   3.682   3.182   5.087
 8613SOL     OW26737   3.638   2.854   3.576
 8613SOL    HW126738   3.718   2.900   3.537
 8613SOL    HW226739   3.556   2.887   3.530
 8614SOL     OW26740   0.777   2.244   3.375
 8614SOL    HW126741   0.847   2.315   3.382
 8614SOL    HW226742   0.688   2.284   3.394
 8615SOL     OW26743   3.846   1.371   5.393
 8615SOL    HW126744   3.842   1.381   5.493
 8615SOL    HW226745   3.935   1.403   5.360
 8616SOL     OW26746   5.714   4.627   5.098
 8616SOL    HW126747   5.745   4.631   5.003
 8616SOL    HW226748   5.784   4.667   5.157
 8617SOL     OW26749   1.475   6.699   2.872
 8617SOL    HW126750   1.522   6.715   2.785
 8617SOL    HW226751   1.396   6.760   2.879
 8618SOL     OW26752   5.390   4.293   0.788
 8618SOL    HW126753   5.364   4.325   0.697
 8618SOL    HW226754   5.451   4.214   0.780
 8619SOL     OW26755   5.111   5.617   0.411
 8619SOL    HW126756   5.046   5.630   0.336
 8619SOL    HW226757   5.143   5.523   0.411
 8620SOL     OW26758   1.564   6.460   3.788
 8620SOL    HW126759   1.663   6.457   3.801
 8620SOL    HW226760   1.518   6.417   3.866
 8621SOL     OW26761   5.998   3.658   1.942
 8621SOL    HW126762   5.921   3.608   1.901
 8621SOL    HW226763   6.070   3.593   1.967
 8622SOL     OW26764   0.782   5.663   1.343
 8622SOL    HW126765   0.697   5.625   1.381
 8622SOL    HW226766   0.852   5.591   1.340
 8623SOL     OW26767   2.098   1.987   3.416
 8623SOL    HW126768   2.055   2.007   3.328
 8623SOL    HW226769   2.128   2.073   3.458
 8624SOL     OW26770   3.216   3.964   5.548
 8624SOL    HW126771   3.186   4.024   5.622
 8624SOL    HW226772   3.207   4.013   5.461
 8625SOL     OW26773   4.511   3.795   6.124
 8625SOL    HW126774   4.528   3.717   6.063
 8625SOL    HW226775   4.592   3.811   6.180
 8626SOL     OW26776   4.785   2.015   1.516
 8626SOL    HW126777   4.788   1.916   1.530
 8626SOL    HW226778   4.693   2.041   1.487
 8627SOL     OW26779   1.474   0.162   2.858
 8627SOL    HW126780   1.525   0.133   2.777
 8627SOL    HW226781   1.421   0.244   2.837
 8628SOL     OW26782   1.702   6.993   0.968
 8628SOL    HW126783   1.763   6.931   0.920
 8628SOL    HW226784   1.631   6.941   1.016
 8629SOL     OW26785   0.200   6.785   4.621
 8629SOL    HW126786   0.192   6.737   4.709
 8629SOL    HW226787   0.108   6.810   4.589
 8630SOL     OW26788   4.856   2.533   1.658
 8630SOL    HW126789   4.803   2.584   1.589
 8630SOL    HW226790   4.857   2.436   1.634
 8631SOL     OW26791   1.972   6.260   6.277
 8631SOL    HW126792   2.025   6.282   6.359
 8631SOL    HW226793   1.984   6.332   6.208
 8632SOL     OW26794   6.161   5.572   4.058
 8632SOL    HW126795   6.074   5.582   4.011
 8632SOL    HW226796   6.183   5.657   4.107
 8633SOL     OW26797   6.196   3.777   5.635
 8633SOL    HW126798   6.277   3.805   5.687
 8633SOL    HW226799   6.126   3.745   5.698
 8634SOL     OW26800   5.332   4.962   6.626
 8634SOL    HW126801   5.343   4.916   6.537
 8634SOL    HW226802   5.420   4.995   6.658
 8635SOL     OW26803   4.805   2.429   6.833
 8635SOL    HW126804   4.861   2.479   6.900
 8635SOL    HW226805   4.737   2.374   6.882
 8636SOL     OW26806   3.965   6.124   1.842
 8636SOL    HW126807   4.036   6.172   1.790
 8636SOL    HW226808   3.898   6.085   1.778
 8637SOL     OW26809   2.437   2.429   0.225
 8637SOL    HW126810   2.435   2.333   0.252
 8637SOL    HW226811   2.350   2.472   0.249
 8638SOL     OW26812   5.148   2.850   4.752
 8638SOL    HW126813   5.083   2.889   4.817
 8638SOL    HW226814   5.196   2.773   4.795
 8639SOL     OW26815   3.023   4.619   0.126
 8639SOL    HW126816   2.941   4.669   0.099
 8639SOL    HW226817   3.076   4.674   0.190
 8640SOL     OW26818   4.001   2.607   0.487
 8640SOL    HW126819   3.933   2.536   0.472
 8640SOL    HW226820   4.075   2.572   0.545
 8641SOL     OW26821   3.192   4.861   3.285
 8641SOL    HW126822   3.105   4.901   3.257
 8641SOL    HW226823   3.266   4.924   3.263
 8642SOL     OW26824   2.283   5.958   3.206
 8642SOL    HW126825   2.224   5.969   3.126
 8642SOL    HW226826   2.291   5.861   3.228
 8643SOL     OW26827   3.853   6.373   1.419
 8643SOL    HW126828   3.951   6.371   1.435
 8643SOL    HW226829   3.833   6.334   1.329
 8644SOL     OW26830   5.914   2.888   6.090
 8644SOL    HW126831   5.849   2.833   6.142
 8644SOL    HW226832   5.959   2.953   6.151
 8645SOL     OW26833   4.992   4.965   2.538
 8645SOL    HW126834   4.946   4.891   2.488
 8645SOL    HW226835   4.939   4.987   2.620
 8646SOL     OW26836   6.995   2.494   5.039
 8646SOL    HW126837   6.914   2.447   5.074
 8646SOL    HW226838   0.052   2.439   5.058
 8647SOL     OW26839   2.312   5.094   1.785
 8647SOL    HW126840   2.277   5.156   1.855
 8647SOL    HW226841   2.402   5.060   1.813
 8648SOL     OW26842   5.125   5.168   0.148
 8648SOL    HW126843   5.183   5.095   0.186
 8648SOL    HW226844   5.029   5.146   0.166
 8649SOL     OW26845   5.478   1.723   1.477
 8649SOL    HW126846   5.409   1.665   1.520
 8649SOL    HW226847   5.521   1.673   1.402
 8650SOL     OW26848   2.299   0.776   5.579
 8650SOL    HW126849   2.221   0.775   5.641
 8650SOL    HW226850   2.326   0.682   5.559
 8651SOL     OW26851   4.139   1.916   2.025
 8651SOL    HW126852   4.056   1.959   1.990
 8651SOL    HW226853   4.201   1.896   1.949
 8652SOL     OW26854   0.016   2.136   4.202
 8652SOL    HW126855   0.089   2.170   4.259
 8652SOL    HW226856   0.029   2.038   4.184
 8653SOL     OW26857   5.722   1.434   0.147
 8653SOL    HW126858   5.705   1.395   0.056
 8653SOL    HW226859   5.732   1.360   0.213
 8654SOL     OW26860   0.406   4.999   2.842
 8654SOL    HW126861   0.424   5.061   2.918
 8654SOL    HW226862   0.369   4.913   2.876
 8655SOL     OW26863   0.898   0.003   5.123
 8655SOL    HW126864   0.905   6.997   5.218
 8655SOL    HW226865   0.948   0.089   5.111
 8656SOL     OW26866   4.067   5.953   0.925
 8656SOL    HW126867   4.134   5.906   0.867
 8656SOL    HW226868   4.090   6.050   0.931
 8657SOL     OW26869   3.079   1.559   2.823
 8657SOL    HW126870   3.126   1.640   2.786
 8657SOL    HW226871   3.121   1.535   2.911
 8658SOL     OW26872   6.452   3.630   1.040
 8658SOL    HW126873   6.478   3.698   0.971
 8658SOL    HW226874   6.353   3.633   1.054
 8659SOL     OW26875   3.901   0.709   3.228
 8659SOL    HW126876   3.994   0.704   3.265
 8659SOL    HW226877   3.862   0.617   3.228
 8660SOL     OW26878   0.173   3.675   1.483
 8660SOL    HW126879   0.244   3.742   1.504
 8660SOL    HW226880   0.144   3.630   1.568
 8661SOL     OW26881   6.183   3.527   2.559
 8661SOL    HW126882   6.258   3.495   2.616
 8661SOL    HW226883   6.184   3.626   2.555
 8662SOL     OW26884   1.566   2.183   2.405
 8662SOL    HW126885   1.467   2.174   2.397
 8662SOL    HW226886   1.588   2.263   2.460
 8663SOL     OW26887   3.503   5.012   2.711
 8663SOL    HW126888   3.473   4.962   2.792
 8663SOL    HW226889   3.431   5.010   2.641
 8664SOL     OW26890   3.108   6.317   4.282
 8664SOL    HW126891   3.015   6.316   4.245
 8664SOL    HW226892   3.123   6.233   4.335
 8665SOL     OW26893   6.086   4.133   6.662
 8665SOL    HW126894   6.001   4.096   6.699
 8665SOL    HW226895   6.067   4.216   6.610
 8666SOL     OW26896   4.841   0.670   3.117
 8666SOL    HW126897   4.932   0.642   3.147
 8666SOL    HW226898   4.781   0.590   3.110
 8667SOL     OW26899   5.350   2.343   2.030
 8667SOL    HW126900   5.362   2.281   1.952
 8667SOL    HW226901   5.396   2.430   2.011
 8668SOL     OW26902   4.479   2.106   4.495
 8668SOL    HW126903   4.427   2.035   4.447
 8668SOL    HW226904   4.441   2.196   4.473
 8669SOL     OW26905   6.961   6.024   6.074
 8669SOL    HW126906   6.885   6.066   6.123
 8669SOL    HW226907   6.942   5.927   6.059
 8670SOL     OW26908   0.227   5.251   5.209
 8670SOL    HW126909   0.236   5.291   5.300
 8670SOL    HW226910   0.214   5.152   5.217
 8671SOL     OW26911   6.826   2.695   3.603
 8671SOL    HW126912   6.915   2.697   3.556
 8671SOL    HW226913   6.783   2.606   3.589
 8672SOL     OW26914   6.743   1.129   2.407
 8672SOL    HW126915   6.815   1.198   2.412
 8672SOL    HW226916   6.700   1.119   2.497
 8673SOL     OW26917   1.090   0.964   1.509
 8673SOL    HW126918   1.162   0.894   1.508
 8673SOL    HW226919   1.012   0.931   1.456
 8674SOL     OW26920   0.304   3.353   3.506
 8674SOL    HW126921   0.210   3.367   3.538
 8674SOL    HW226922   0.319   3.406   3.422
 8675SOL     OW26923   4.574   2.738   5.211
 8675SOL    HW126924   4.665   2.760   5.176
 8675SOL    HW226925   4.537   2.816   5.262
 8676SOL     OW26926   4.450   2.173   0.691
 8676SOL    HW126927   4.423   2.238   0.763
 8676SOL    HW226928   4.375   2.110   0.673
 8677SOL     OW26929   2.763   0.511   0.148
 8677SOL    HW126930   2.837   0.556   0.198
 8677SOL    HW226931   2.770   0.412   0.160
 8678SOL     OW26932   3.132   2.210   0.259
 8678SOL    HW126933   3.164   2.150   0.332
 8678SOL    HW226934   3.038   2.185   0.234
 8679SOL     OW26935   1.594   1.700   6.718
 8679SOL    HW126936   1.547   1.788   6.714
 8679SOL    HW226937   1.530   1.629   6.746
 8680SOL     OW26938   0.050   0.476   0.961
 8680SOL    HW126939   0.034   0.571   0.935
 8680SOL    HW226940   0.140   0.467   1.003
 8681SOL     OW26941   5.617   4.842   1.028
 8681SOL    HW126942   5.534   4.788   1.040
 8681SOL    HW226943   5.607   4.903   0.950
 8682SOL     OW26944   2.673   1.074   2.840
 8682SOL    HW126945   2.585   1.078   2.792
 8682SOL    HW226946   2.700   0.978   2.853
 8683SOL     OW26947   2.529   4.704   3.785
 8683SOL    HW126948   2.574   4.704   3.874
 8683SOL    HW226949   2.436   4.670   3.795
 8684SOL     OW26950   2.241   3.917   3.464
 8684SOL    HW126951   2.334   3.882   3.458
 8684SOL    HW226952   2.244   4.017   3.471
 8685SOL     OW26953   5.048   3.649   5.144
 8685SOL    HW126954   4.978   3.617   5.081
 8685SOL    HW226955   5.055   3.585   5.221
 8686SOL     OW26956   1.154   4.959   2.793
 8686SOL    HW126957   1.234   4.916   2.752
 8686SOL    HW226958   1.182   5.011   2.874
 8687SOL     OW26959   5.497   4.590   5.456
 8687SOL    HW126960   5.405   4.559   5.432
 8687SOL    HW226961   5.516   4.565   5.551
 8688SOL     OW26962   0.734   4.050   4.363
 8688SOL    HW126963   0.768   4.004   4.281
 8688SOL    HW226964   0.808   4.056   4.430
 8689SOL     OW26965   4.564   3.323   1.202
 8689SOL    HW126966   4.521   3.233   1.194
 8689SOL    HW226967   4.614   3.330   1.288
 8690SOL     OW26968   1.117   1.829   1.872
 8690SOL    HW126969   1.194   1.768   1.894
 8690SOL    HW226970   1.032   1.776   1.868
 8691SOL     OW26971   3.639   1.984   6.931
 8691SOL    HW126972   3.566   1.963   6.996
 8691SOL    HW226973   3.643   2.083   6.917
 8692SOL     OW26974   5.335   2.367   4.484
 8692SOL    HW126975   5.243   2.407   4.488
 8692SOL    HW226976   5.340   2.304   4.407
 8693SOL     OW26977   0.303   0.211   5.414
 8693SOL    HW126978   0.338   0.169   5.497
 8693SOL    HW226979   0.317   0.310   5.417
 8694SOL     OW26980   4.186   3.895   5.677
 8694SOL    HW126981   4.163   3.826   5.745
 8694SOL    HW226982   4.154   3.865   5.587
 8695SOL     OW26983   3.553   4.802   1.071
 8695SOL    HW126984   3.471   4.808   1.015
 8695SOL    HW226985   3.567   4.707   1.100
 8696SOL     OW26986   2.689   6.084   6.382
 8696SOL    HW126987   2.691   6.082   6.482
 8696SOL    HW226988   2.718   5.996   6.345
 8697SOL     OW26989   1.192   3.577   4.943
 8697SOL    HW126990   1.139   3.510   4.891
 8697SOL    HW226991   1.270   3.607   4.888
 8698SOL     OW26992   5.063   4.066   0.288
 8698SOL    HW126993   4.972   4.043   0.321
 8698SOL    HW226994   5.123   3.986   0.296
 8699SOL     OW26995   2.519   2.170   0.955
 8699SOL    HW126996   2.484   2.115   0.878
 8699SOL    HW226997   2.614   2.194   0.938
 8700SOL     OW26998   0.185   1.649   4.682
 8700SOL    HW126999   0.250   1.575   4.703
 8700SOL    HW227000   0.231   1.718   4.625
 8701SOL     OW27001   1.991   3.847   6.541
 8701SOL    HW127002   1.965   3.867   6.636
 8701SOL    HW227003   1.916   3.798   6.496
 8702SOL     OW27004   5.626   4.244   1.654
 8702SOL    HW127005   5.550   4.240   1.590
 8702SOL    HW227006   5.686   4.320   1.630
 8703SOL     OW27007   2.055   5.817   2.249
 8703SOL    HW127008   2.133   5.755   2.263
 8703SOL    HW227009   1.972   5.775   2.285
 8704SOL     OW27010   6.687   1.416   4.032
 8704SOL    HW127011   6.663   1.506   3.997
 8704SOL    HW227012   6.611   1.352   4.013
 8705SOL     OW27013   3.707   2.343   0.729
 8705SOL    HW127014   3.680   2.367   0.823
 8705SOL    HW227015   3.676   2.250   0.709
 8706SOL     OW27016   4.691   2.962   6.257
 8706SOL    HW127017   4.754   2.968   6.179
 8706SOL    HW227018   4.675   3.053   6.294
 8707SOL     OW27019   1.073   0.779   3.841
 8707SOL    HW127020   1.065   0.843   3.764
 8707SOL    HW227021   1.056   0.686   3.809
 8708SOL     OW27022   5.701   2.578   0.531
 8708SOL    HW127023   5.722   2.595   0.435
 8708SOL    HW227024   5.630   2.643   0.561
 8709SOL     OW27025   6.783   5.903   3.744
 8709SOL    HW127026   6.717   5.932   3.814
 8709SOL    HW227027   6.848   5.977   3.727
 8710SOL     OW27028   2.382   2.665   3.803
 8710SOL    HW127029   2.446   2.601   3.758
 8710SOL    HW227030   2.353   2.734   3.737
 8711SOL     OW27031   2.048   1.271   2.116
 8711SOL    HW127032   2.122   1.221   2.162
 8711SOL    HW227033   2.028   1.355   2.167
 8712SOL     OW27034   1.812   3.794   4.256
 8712SOL    HW127035   1.830   3.890   4.240
 8712SOL    HW227036   1.740   3.762   4.195
 8713SOL     OW27037   0.264   3.729   2.460
 8713SOL    HW127038   0.271   3.684   2.549
 8713SOL    HW227039   0.337   3.695   2.400
 8714SOL     OW27040   6.385   4.181   6.388
 8714SOL    HW127041   6.315   4.111   6.393
 8714SOL    HW227042   6.462   4.155   6.447
 8715SOL     OW27043   2.529   5.231   0.730
 8715SOL    HW127044   2.534   5.163   0.803
 8715SOL    HW227045   2.582   5.198   0.651
 8716SOL     OW27046   5.994   0.251   2.235
 8716SOL    HW127047   6.076   0.247   2.292
 8716SOL    HW227048   5.913   0.249   2.293
 8717SOL     OW27049   3.251   2.212   0.688
 8717SOL    HW127050   3.184   2.285   0.680
 8717SOL    HW227051   3.308   2.227   0.769
 8718SOL     OW27052   2.838   5.706   6.221
 8718SOL    HW127053   2.747   5.733   6.190
 8718SOL    HW227054   2.834   5.614   6.259
 8719SOL     OW27055   2.951   1.313   5.091
 8719SOL    HW127056   2.933   1.402   5.050
 8719SOL    HW227057   2.889   1.298   5.168
 8720SOL     OW27058   0.581   5.884   4.899
 8720SOL    HW127059   0.584   5.949   4.975
 8720SOL    HW227060   0.572   5.933   4.813
 8721SOL     OW27061   1.298   0.536   1.079
 8721SOL    HW127062   1.288   0.471   1.005
 8721SOL    HW227063   1.211   0.581   1.097
 8722SOL     OW27064   3.664   1.247   0.315
 8722SOL    HW127065   3.576   1.226   0.357
 8722SOL    HW227066   3.734   1.258   0.387
 8723SOL     OW27067   4.155   6.550   2.862
 8723SOL    HW127068   4.156   6.453   2.885
 8723SOL    HW227069   4.066   6.589   2.886
 8724SOL     OW27070   3.166   1.178   5.344
 8724SOL    HW127071   3.237   1.150   5.407
 8724SOL    HW227072   3.202   1.179   5.251
 8725SOL     OW27073   0.384   0.963   2.497
 8725SOL    HW127074   0.288   0.938   2.486
 8725SOL    HW227075   0.412   0.945   2.592
 8726SOL     OW27076   6.770   1.439   0.544
 8726SOL    HW127077   6.840   1.372   0.568
 8726SOL    HW227078   6.809   1.509   0.484
 8727SOL     OW27079   5.155   5.468   6.781
 8727SOL    HW127080   5.187   5.434   6.693
 8727SOL    HW227081   5.198   5.556   6.801
 8728SOL     OW27082   6.044   5.997   4.335
 8728SOL    HW127083   5.957   6.047   4.330
 8728SOL    HW227084   6.038   5.928   4.407
 8729SOL     OW27085   5.513   6.093   6.003
 8729SOL    HW127086   5.557   6.003   6.014
 8729SOL    HW227087   5.558   6.159   6.064
 8730SOL     OW27088   4.024   4.706   1.839
 8730SOL    HW127089   4.101   4.644   1.820
 8730SOL    HW227090   4.058   4.787   1.887
 8731SOL     OW27091   0.136   2.208   3.732
 8731SOL    HW127092   0.182   2.296   3.714
 8731SOL    HW227093   0.064   2.194   3.665
 8732SOL     OW27094   5.409   6.390   5.463
 8732SOL    HW127095   5.478   6.454   5.429
 8732SOL    HW227096   5.427   6.298   5.428
 8733SOL     OW27097   6.742   4.380   2.040
 8733SOL    HW127098   6.812   4.451   2.028
 8733SOL    HW227099   6.783   4.291   2.020
 8734SOL     OW27100   1.176   5.080   0.709
 8734SOL    HW127101   1.149   5.176   0.707
 8734SOL    HW227102   1.251   5.068   0.774
 8735SOL     OW27103   1.152   3.129   6.075
 8735SOL    HW127104   1.187   3.219   6.050
 8735SOL    HW227105   1.093   3.138   6.155
 8736SOL     OW27106   1.899   6.149   3.272
 8736SOL    HW127107   1.874   6.146   3.369
 8736SOL    HW227108   1.818   6.169   3.217
 8737SOL     OW27109   0.013   5.526   6.496
 8737SOL    HW127110   0.047   5.475   6.574
 8737SOL    HW227111   6.944   5.558   6.515
 8738SOL     OW27112   2.213   2.798   2.106
 8738SOL    HW127113   2.286   2.733   2.125
 8738SOL    HW227114   2.212   2.869   2.177
 8739SOL     OW27115   4.987   4.348   2.687
 8739SOL    HW127116   4.909   4.345   2.625
 8739SOL    HW227117   4.972   4.283   2.762
 8740SOL     OW27118   2.718   1.259   3.305
 8740SOL    HW127119   2.809   1.259   3.263
 8740SOL    HW227120   2.654   1.211   3.246
 8741SOL     OW27121   1.368   1.844   2.296
 8741SOL    HW127122   1.383   1.745   2.288
 8741SOL    HW227123   1.383   1.872   2.390
 8742SOL     OW27124   2.024   2.881   1.870
 8742SOL    HW127125   2.080   2.866   1.951
 8742SOL    HW227126   2.070   2.842   1.790
 8743SOL     OW27127   1.171   3.667   6.856
 8743SOL    HW127128   1.191   3.623   6.944
 8743SOL    HW227129   1.249   3.653   6.794
 8744SOL     OW27130   3.255   3.944   6.186
 8744SOL    HW127131   3.220   4.005   6.258
 8744SOL    HW227132   3.316   3.995   6.126
 8745SOL     OW27133   5.769   1.793   6.189
 8745SOL    HW127134   5.756   1.809   6.091
 8745SOL    HW227135   5.761   1.880   6.238
 8746SOL     OW27136   4.316   4.896   4.744
 8746SOL    HW127137   4.253   4.973   4.750
 8746SOL    HW227138   4.401   4.919   4.793
 8747SOL     OW27139   0.749   7.008   2.314
 8747SOL    HW127140   0.718   6.943   2.384
 8747SOL    HW227141   0.846   0.004   2.327
 8748SOL     OW27142   5.980   1.583   4.067
 8748SOL    HW127143   5.936   1.584   3.977
 8748SOL    HW227144   6.009   1.675   4.091
 8749SOL     OW27145   2.584   1.881   4.177
 8749SOL    HW127146   2.654   1.890   4.106
 8749SOL    HW227147   2.497   1.855   4.135
 8750SOL     OW27148   4.433   3.705   1.192
 8750SOL    HW127149   4.392   3.659   1.271
 8750SOL    HW227150   4.375   3.780   1.163
 8751SOL     OW27151   2.129   0.340   0.437
 8751SOL    HW127152   2.202   0.367   0.375
 8751SOL    HW227153   2.112   0.242   0.428
 8752SOL     OW27154   7.024   3.266   6.156
 8752SOL    HW127155   6.969   3.334   6.204
 8752SOL    HW227156   0.084   3.308   6.121
 8753SOL     OW27157   2.193   1.889   1.203
 8753SOL    HW127158   2.223   1.984   1.205
 8753SOL    HW227159   2.125   1.877   1.130
 8754SOL     OW27160   1.268   6.102   6.217
 8754SOL    HW127161   1.321   6.033   6.169
 8754SOL    HW227162   1.195   6.136   6.158
 8755SOL     OW27163   0.569   2.580   1.987
 8755SOL    HW127164   0.500   2.622   1.929
 8755SOL    HW227165   0.659   2.588   1.943
 8756SOL     OW27166   1.767   1.651   2.271
 8756SOL    HW127167   1.746   1.661   2.173
 8756SOL    HW227168   1.755   1.739   2.316
 8757SOL     OW27169   5.683   6.028   4.772
 8757SOL    HW127170   5.651   6.119   4.747
 8757SOL    HW227171   5.621   5.959   4.734
 8758SOL     OW27172   3.578   5.308   6.284
 8758SOL    HW127173   3.509   5.379   6.294
 8758SOL    HW227174   3.668   5.350   6.276
 8759SOL     OW27175   6.417   1.320   1.569
 8759SOL    HW127176   6.393   1.383   1.495
 8759SOL    HW227177   6.338   1.308   1.630
 8760SOL     OW27178   2.002   2.467   4.573
 8760SOL    HW127179   2.086   2.412   4.564
 8760SOL    HW227180   1.972   2.467   4.668
 8761SOL     OW27181   4.680   2.557   3.116
 8761SOL    HW127182   4.778   2.574   3.104
 8761SOL    HW227183   4.665   2.458   3.121
 8762SOL     OW27184   4.475   6.142   3.126
 8762SOL    HW127185   4.415   6.099   3.059
 8762SOL    HW227186   4.459   6.240   3.127
 8763SOL     OW27187   6.748   1.555   5.384
 8763SOL    HW127188   6.803   1.587   5.307
 8763SOL    HW227189   6.651   1.568   5.364
 8764SOL     OW27190   3.381   4.796   5.983
 8764SOL    HW127191   3.301   4.775   5.927
 8764SOL    HW227192   3.450   4.725   5.969
 8765SOL     OW27193   4.698   6.637   4.230
 8765SOL    HW127194   4.640   6.706   4.274
 8765SOL    HW227195   4.645   6.553   4.217
 8766SOL     OW27196   6.018   0.235   4.817
 8766SOL    HW127197   6.060   0.311   4.867
 8766SOL    HW227198   5.920   0.251   4.810
 8767SOL     OW27199   1.698   0.987   4.922
 8767SOL    HW127200   1.656   0.940   4.845
 8767SOL    HW227201   1.767   0.928   4.964
 8768SOL     OW27202   6.393   1.907   0.906
 8768SOL    HW127203   6.401   1.929   1.003
 8768SOL    HW227204   6.445   1.974   0.853
 8769SOL     OW27205   6.351   6.790   6.179
 8769SOL    HW127206   6.432   6.766   6.125
 8769SOL    HW227207   6.280   6.721   6.165
 8770SOL     OW27208   4.680   1.700   0.079
 8770SOL    HW127209   4.745   1.776   0.076
 8770SOL    HW227210   4.604   1.723   0.140
 8771SOL     OW27211   0.315   2.184   6.243
 8771SOL    HW127212   0.328   2.240   6.161
 8771SOL    HW227213   0.354   2.093   6.228
 8772SOL     OW27214   0.846   7.006   3.569
 8772SOL    HW127215   0.818   0.058   3.511
 8772SOL    HW227216   0.944   7.013   3.588
 8773SOL     OW27217   0.104   1.508   3.731
 8773SOL    HW127218   0.200   1.490   3.752
 8773SOL    HW227219   0.047   1.440   3.776
 8774SOL     OW27220   1.405   1.959   6.687
 8774SOL    HW127221   1.436   1.980   6.594
 8774SOL    HW227222   1.450   2.020   6.752
 8775SOL     OW27223   5.395   2.260   2.783
 8775SOL    HW127224   5.397   2.223   2.690
 8775SOL    HW227225   5.301   2.259   2.817
 8776SOL     OW27226   4.962   2.723   1.479
 8776SOL    HW127227   4.964   2.708   1.578
 8776SOL    HW227228   4.999   2.642   1.432
 8777SOL     OW27229   6.621   2.317   3.917
 8777SOL    HW127230   6.609   2.232   3.865
 8777SOL    HW227231   6.533   2.345   3.956
 8778SOL     OW27232   2.406   3.984   0.020
 8778SOL    HW127233   2.492   4.036   0.021
 8778SOL    HW227234   2.403   3.922   0.098
 8779SOL     OW27235   3.972   5.789   3.590
 8779SOL    HW127236   3.964   5.859   3.519
 8779SOL    HW227237   4.025   5.712   3.555
 8780SOL     OW27238   1.002   3.938   3.917
 8780SOL    HW127239   1.070   3.874   3.953
 8780SOL    HW227240   0.992   3.924   3.818
 8781SOL     OW27241   3.461   1.886   1.886
 8781SOL    HW127242   3.412   1.971   1.865
 8781SOL    HW227243   3.548   1.909   1.929
 8782SOL     OW27244   6.744   2.519   0.416
 8782SOL    HW127245   6.775   2.439   0.364
 8782SOL    HW227246   6.818   2.585   0.423
 8783SOL     OW27247   3.786   3.922   5.076
 8783SOL    HW127248   3.748   3.989   5.139
 8783SOL    HW227249   3.712   3.878   5.025
 8784SOL     OW27250   4.434   0.862   6.648
 8784SOL    HW127251   4.442   0.799   6.571
 8784SOL    HW227252   4.340   0.866   6.680
 8785SOL     OW27253   6.912   5.758   6.068
 8785SOL    HW127254   6.907   5.779   6.166
 8785SOL    HW227255   6.981   5.688   6.052
 8786SOL     OW27256   5.714   2.339   3.279
 8786SOL    HW127257   5.675   2.374   3.194
 8786SOL    HW227258   5.659   2.262   3.313
 8787SOL     OW27259   3.431   5.128   2.187
 8787SOL    HW127260   3.473   5.056   2.132
 8787SOL    HW227261   3.503   5.186   2.226
 8788SOL     OW27262   0.180   5.817   3.921
 8788SOL    HW127263   0.121   5.774   3.852
 8788SOL    HW227264   0.249   5.873   3.876
 8789SOL     OW27265   1.335   3.301   6.838
 8789SOL    HW127266   1.411   3.282   6.775
 8789SOL    HW227267   1.366   3.293   6.932
 8790SOL     OW27268   4.905   3.025   5.201
 8790SOL    HW127269   4.954   3.086   5.138
 8790SOL    HW227270   4.907   2.932   5.165
 8791SOL     OW27271   4.033   6.596   5.177
 8791SOL    HW127272   4.101   6.620   5.247
 8791SOL    HW227273   3.970   6.528   5.215
 8792SOL     OW27274   5.705   5.038   0.839
 8792SOL    HW127275   5.723   4.971   0.767
 8792SOL    HW227276   5.652   5.114   0.801
 8793SOL     OW27277   6.359   6.865   5.518
 8793SOL    HW127278   6.265   6.894   5.502
 8793SOL    HW227279   6.360   6.793   5.587
 8794SOL     OW27280   0.302   2.075   3.197
 8794SOL    HW127281   0.387   2.024   3.205
 8794SOL    HW227282   0.229   2.027   3.246
 8795SOL     OW27283   1.563   6.884   6.429
 8795SOL    HW127284   1.518   6.960   6.476
 8795SOL    HW227285   1.589   6.814   6.495
 8796SOL     OW27286   5.674   4.424   4.518
 8796SOL    HW127287   5.664   4.388   4.611
 8796SOL    HW227288   5.744   4.372   4.469
 8797SOL     OW27289   4.933   6.385   4.620
 8797SOL    HW127290   4.899   6.415   4.709
 8797SOL    HW227291   4.943   6.464   4.560
 8798SOL     OW27292   1.635   5.959   5.831
 8798SOL    HW127293   1.608   5.916   5.744
 8798SOL    HW227294   1.576   6.036   5.850
 8799SOL     OW27295   1.621   6.246   1.549
 8799SOL    HW127296   1.567   6.330   1.555
 8799SOL    HW227297   1.639   6.211   1.641
 8800SOL     OW27298   6.482   5.714   3.953
 8800SOL    HW127299   6.397   5.696   3.904
 8800SOL    HW227300   6.540   5.632   3.952
 8801SOL     OW27301   4.799   3.678   5.681
 8801SOL    HW127302   4.757   3.726   5.758
 8801SOL    HW227303   4.789   3.579   5.693
 8802SOL     OW27304   1.366   6.360   0.170
 8802SOL    HW127305   1.389   6.457   0.181
 8802SOL    HW227306   1.436   6.304   0.215
 8803SOL     OW27307   5.495   5.272   5.014
 8803SOL    HW127308   5.524   5.269   5.110
 8803SOL    HW227309   5.502   5.180   4.975
 8804SOL     OW27310   1.991   6.667   2.067
 8804SOL    HW127311   1.928   6.667   2.145
 8804SOL    HW227312   1.956   6.606   1.996
 8805SOL     OW27313   5.173   4.709   2.224
 8805SOL    HW127314   5.197   4.758   2.308
 8805SOL    HW227315   5.249   4.716   2.159
 8806SOL     OW27316   1.138   0.938   2.358
 8806SOL    HW127317   1.129   1.014   2.422
 8806SOL    HW227318   1.115   0.853   2.404
 8807SOL     OW27319   6.078   2.218   1.657
 8807SOL    HW127320   6.075   2.121   1.634
 8807SOL    HW227321   6.154   2.262   1.610
 8808SOL     OW27322   1.565   1.516   7.023
 8808SOL    HW127323   1.605   1.435   0.042
 8808SOL    HW227324   1.536   1.581   0.070
 8809SOL     OW27325   0.724   3.606   3.147
 8809SOL    HW127326   0.763   3.541   3.212
 8809SOL    HW227327   0.788   3.620   3.071
 8810SOL     OW27328   6.532   2.261   4.564
 8810SOL    HW127329   6.474   2.339   4.543
 8810SOL    HW227330   6.605   2.289   4.625
 8811SOL     OW27331   4.153   5.103   2.147
 8811SOL    HW127332   4.149   5.052   2.062
 8811SOL    HW227333   4.146   5.201   2.128
 8812SOL     OW27334   5.646   0.392   0.408
 8812SOL    HW127335   5.571   0.417   0.347
 8812SOL    HW227336   5.723   0.453   0.394
 8813SOL     OW27337   1.411   2.929   1.968
 8813SOL    HW127338   1.390   3.017   2.010
 8813SOL    HW227339   1.403   2.937   1.868
 8814SOL     OW27340   5.426   6.993   4.757
 8814SOL    HW127341   5.358   0.036   4.726
 8814SOL    HW227342   5.468   6.950   4.677
 8815SOL     OW27343   5.228   1.052   1.151
 8815SOL    HW127344   5.170   0.976   1.184
 8815SOL    HW227345   5.261   1.031   1.059
 8816SOL     OW27346   0.011   0.341   3.662
 8816SOL    HW127347   7.022   0.376   3.569
 8816SOL    HW227348   0.086   0.391   3.706
 8817SOL     OW27349   1.124   2.580   3.329
 8817SOL    HW127350   1.210   2.546   3.369
 8817SOL    HW227351   1.127   2.679   3.325
 8818SOL     OW27352   1.159   6.279   6.418
 8818SOL    HW127353   1.243   6.295   6.470
 8818SOL    HW227354   1.174   6.205   6.353
 8819SOL     OW27355   4.784   6.089   5.996
 8819SOL    HW127356   4.867   6.123   5.952
 8819SOL    HW227357   4.737   6.027   5.934
 8820SOL     OW27358   3.828   6.729   5.804
 8820SOL    HW127359   3.861   6.679   5.723
 8820SOL    HW227360   3.856   6.680   5.887
 8821SOL     OW27361   0.564   5.167   5.512
 8821SOL    HW127362   0.616   5.229   5.453
 8821SOL    HW227363   0.582   5.072   5.485
 8822SOL     OW27364   6.229   0.011   4.879
 8822SOL    HW127365   6.243   6.984   4.964
 8822SOL    HW227366   6.137   0.051   4.879
 8823SOL     OW27367   4.627   2.002   2.904
 8823SOL    HW127368   4.626   1.917   2.851
 8823SOL    HW227369   4.539   2.012   2.952
 8824SOL     OW27370   1.800   0.121   4.096
 8824SOL    HW127371   1.805   0.216   4.062
 8824SOL    HW227372   1.838   0.117   4.188
 8825SOL     OW27373   0.720   6.914   0.427
 8825SOL    HW127374   0.803   6.909   0.482
 8825SOL    HW227375   0.640   6.907   0.486
 8826SOL     OW27376   0.405   3.866   0.163
 8826SOL    HW127377   0.430   3.825   0.075
 8826SOL    HW227378   0.455   3.819   0.236
 8827SOL     OW27379   4.876   6.283   3.740
 8827SOL    HW127380   4.808   6.264   3.811
 8827SOL    HW227381   4.922   6.369   3.761
 8828SOL     OW27382   5.376   2.545   5.751
 8828SOL    HW127383   5.310   2.471   5.738
 8828SOL    HW227384   5.382   2.567   5.849
 8829SOL     OW27385   6.360   0.875   2.820
 8829SOL    HW127386   6.394   0.787   2.853
 8829SOL    HW227387   6.303   0.917   2.891
 8830SOL     OW27388   3.401   0.720   3.087
 8830SOL    HW127389   3.481   0.752   3.036
 8830SOL    HW227390   3.418   0.730   3.185
 8831SOL     OW27391   0.821   2.715   2.509
 8831SOL    HW127392   0.861   2.799   2.471
 8831SOL    HW227393   0.818   2.645   2.438
 8832SOL     OW27394   5.549   0.485   5.428
 8832SOL    HW127395   5.479   0.423   5.465
 8832SOL    HW227396   5.640   0.449   5.449
 8833SOL     OW27397   4.827   2.621   1.132
 8833SOL    HW127398   4.819   2.572   1.045
 8833SOL    HW227399   4.837   2.719   1.114
 8834SOL     OW27400   5.475   4.510   6.351
 8834SOL    HW127401   5.496   4.412   6.349
 8834SOL    HW227402   5.495   4.550   6.262
 8835SOL     OW27403   6.322   1.067   5.138
 8835SOL    HW127404   6.281   1.003   5.073
 8835SOL    HW227405   6.330   1.157   5.095
 8836SOL     OW27406   4.147   1.006   0.984
 8836SOL    HW127407   4.101   1.080   0.933
 8836SOL    HW227408   4.237   0.990   0.945
 8837SOL     OW27409   4.338   5.374   0.387
 8837SOL    HW127410   4.297   5.430   0.315
 8837SOL    HW227411   4.390   5.299   0.346
 8838SOL     OW27412   1.894   3.677   2.759
 8838SOL    HW127413   1.988   3.674   2.791
 8838SOL    HW227414   1.892   3.676   2.659
 8839SOL     OW27415   4.329   4.936   0.979
 8839SOL    HW127416   4.388   4.855   0.980
 8839SOL    HW227417   4.339   4.982   0.891
 8840SOL     OW27418   0.511   0.595   1.371
 8840SOL    HW127419   0.510   0.643   1.459
 8840SOL    HW227420   0.446   0.520   1.373
 8841SOL     OW27421   3.656   1.270   1.138
 8841SOL    HW127422   3.646   1.288   1.236
 8841SOL    HW227423   3.589   1.324   1.088
 8842SOL     OW27424   3.231   3.338   3.731
 8842SOL    HW127425   3.270   3.310   3.643
 8842SOL    HW227426   3.297   3.320   3.804
 8843SOL     OW27427   2.313   6.010   5.495
 8843SOL    HW127428   2.326   5.911   5.483
 8843SOL    HW227429   2.375   6.044   5.566
 8844SOL     OW27430   3.163   2.854   5.942
 8844SOL    HW127431   3.135   2.818   6.031
 8844SOL    HW227432   3.235   2.922   5.954
 8845SOL     OW27433   0.706   3.550   2.001
 8845SOL    HW127434   0.634   3.547   1.931
 8845SOL    HW227435   0.703   3.466   2.055
 8846SOL     OW27436   5.216   5.179   4.493
 8846SOL    HW127437   5.277   5.171   4.414
 8846SOL    HW227438   5.200   5.276   4.513
 8847SOL     OW27439   0.513   2.065   3.810
 8847SOL    HW127440   0.592   2.097   3.862
 8847SOL    HW227441   0.430   2.079   3.864
 8848SOL     OW27442   6.406   2.259   0.747
 8848SOL    HW127443   6.307   2.265   0.734
 8848SOL    HW227444   6.450   2.241   0.660
 8849SOL     OW27445   3.022   5.315   4.677
 8849SOL    HW127446   2.974   5.399   4.649
 8849SOL    HW227447   3.002   5.242   4.612
 8850SOL     OW27448   2.974   2.305   1.010
 8850SOL    HW127449   2.928   2.383   1.054
 8850SOL    HW227450   3.066   2.296   1.047
 8851SOL     OW27451   0.041   5.187   2.547
 8851SOL    HW127452   0.006   5.103   2.590
 8851SOL    HW227453   0.069   5.251   2.618
 8852SOL     OW27454   4.905   3.535   4.389
 8852SOL    HW127455   4.994   3.577   4.373
 8852SOL    HW227456   4.897   3.452   4.334
 8853SOL     OW27457   4.822   1.951   5.336
 8853SOL    HW127458   4.890   1.959   5.409
 8853SOL    HW227459   4.855   1.886   5.267
 8854SOL     OW27460   2.677   1.191   5.704
 8854SOL    HW127461   2.665   1.276   5.756
 8854SOL    HW227462   2.616   1.121   5.742
 8855SOL     OW27463   5.942   5.157   6.040
 8855SOL    HW127464   6.016   5.092   6.029
 8855SOL    HW227465   5.879   5.125   6.111
 8856SOL     OW27466   5.653   1.175   5.563
 8856SOL    HW127467   5.605   1.095   5.599
 8856SOL    HW227468   5.747   1.174   5.596
 8857SOL     OW27469   2.157   3.366   4.600
 8857SOL    HW127470   2.161   3.464   4.580
 8857SOL    HW227471   2.175   3.352   4.697
 8858SOL     OW27472   0.115   3.563   5.426
 8858SOL    HW127473   0.052   3.495   5.464
 8858SOL    HW227474   0.067   3.649   5.412
 8859SOL     OW27475   2.604   6.374   5.460
 8859SOL    HW127476   2.638   6.280   5.465
 8859SOL    HW227477   2.536   6.389   5.532
 8860SOL     OW27478   2.065   1.673   1.283
 8860SOL    HW127479   2.091   1.599   1.220
 8860SOL    HW227480   2.117   1.755   1.261
 8861SOL     OW27481   2.505   2.500   0.978
 8861SOL    HW127482   2.523   2.598   0.986
 8861SOL    HW227483   2.412   2.480   1.009
 8862SOL     OW27484   6.566   2.004   4.797
 8862SOL    HW127485   6.590   1.954   4.714
 8862SOL    HW227486   6.468   2.024   4.796
 8863SOL     OW27487   1.790   5.862   5.187
 8863SOL    HW127488   1.788   5.892   5.091
 8863SOL    HW227489   1.857   5.788   5.197
 8864SOL     OW27490   2.080   4.053   6.060
 8864SOL    HW127491   2.074   4.013   6.152
 8864SOL    HW227492   2.175   4.075   6.039
 8865SOL     OW27493   3.069   2.217   5.872
 8865SOL    HW127494   2.993   2.153   5.884
 8865SOL    HW227495   3.045   2.285   5.803
 8866SOL     OW27496   5.174   6.829   5.201
 8866SOL    HW127497   5.093   6.884   5.181
 8866SOL    HW227498   5.175   6.749   5.141
 8867SOL     OW27499   6.375   0.834   4.010
 8867SOL    HW127500   6.435   0.788   4.076
 8867SOL    HW227501   6.422   0.844   3.923
 8868SOL     OW27502   5.203   3.590   0.693
 8868SOL    HW127503   5.238   3.522   0.629
 8868SOL    HW227504   5.149   3.545   0.764
 8869SOL     OW27505   3.223   2.081   3.370
 8869SOL    HW127506   3.181   2.057   3.457
 8869SOL    HW227507   3.312   2.124   3.387
 8870SOL     OW27508   4.707   1.322   2.258
 8870SOL    HW127509   4.670   1.387   2.325
 8870SOL    HW227510   4.667   1.342   2.168
 8871SOL     OW27511   1.676   2.422   3.837
 8871SOL    HW127512   1.692   2.350   3.769
 8871SOL    HW227513   1.583   2.412   3.874
 8872SOL     OW27514   1.016   2.215   1.915
 8872SOL    HW127515   1.002   2.173   1.825
 8872SOL    HW227516   1.058   2.149   1.977
 8873SOL     OW27517   6.977   5.721   4.681
 8873SOL    HW127518   0.024   5.792   4.677
 8873SOL    HW227519   6.996   5.659   4.757
 8874SOL     OW27520   0.853   1.610   6.106
 8874SOL    HW127521   0.884   1.702   6.130
 8874SOL    HW227522   0.775   1.616   6.044
 8875SOL     OW27523   0.999   1.069   4.587
 8875SOL    HW127524   0.937   1.147   4.599
 8875SOL    HW227525   1.093   1.103   4.577
 8876SOL     OW27526   3.173   0.840   4.579
 8876SOL    HW127527   3.159   0.747   4.545
 8876SOL    HW227528   3.108   0.859   4.652
 8877SOL     OW27529   2.853   6.900   4.370
 8877SOL    HW127530   2.840   6.829   4.438
 8877SOL    HW227531   2.884   6.859   4.284
 8878SOL     OW27532   5.862   4.800   5.260
 8878SOL    HW127533   5.880   4.898   5.259
 8878SOL    HW227534   5.947   4.749   5.245
 8879SOL     OW27535   4.580   5.468   4.437
 8879SOL    HW127536   4.617   5.552   4.398
 8879SOL    HW227537   4.617   5.389   4.387
 8880SOL     OW27538   0.203   6.529   4.817
 8880SOL    HW127539   0.103   6.534   4.814
 8880SOL    HW227540   0.234   6.442   4.779
 8881SOL     OW27541   0.116   1.480   2.006
 8881SOL    HW127542   0.140   1.411   1.938
 8881SOL    HW227543   0.043   1.446   2.065
 8882SOL     OW27544   5.061   2.515   0.489
 8882SOL    HW127545   5.139   2.529   0.550
 8882SOL    HW227546   4.976   2.520   0.542
 8883SOL     OW27547   6.156   1.176   5.644
 8883SOL    HW127548   6.119   1.170   5.551
 8883SOL    HW227549   6.237   1.119   5.651
 8884SOL     OW27550   7.008   1.570   6.382
 8884SOL    HW127551   0.042   1.492   6.361
 8884SOL    HW227552   7.009   1.588   6.480
 8885SOL     OW27553   5.385   3.552   1.693
 8885SOL    HW127554   5.406   3.620   1.763
 8885SOL    HW227555   5.315   3.588   1.632
 8886SOL     OW27556   2.952   5.876   5.920
 8886SOL    HW127557   3.027   5.872   5.986
 8886SOL    HW227558   2.939   5.786   5.878
 8887SOL     OW27559   1.897   1.371   1.243
 8887SOL    HW127560   1.973   1.338   1.299
 8887SOL    HW227561   1.928   1.448   1.187
 8888SOL     OW27562   2.739   1.813   2.855
 8888SOL    HW127563   2.809   1.860   2.909
 8888SOL    HW227564   2.670   1.774   2.917
 8889SOL     OW27565   3.289   0.462   4.676
 8889SOL    HW127566   3.378   0.441   4.636
 8889SOL    HW227567   3.301   0.489   4.772
 8890SOL     OW27568   0.463   3.992   2.990
 8890SOL    HW127569   0.377   3.941   3.002
 8890SOL    HW227570   0.537   3.944   3.038
 8891SOL     OW27571   2.699   1.770   6.152
 8891SOL    HW127572   2.782   1.730   6.113
 8891SOL    HW227573   2.637   1.798   6.079
 8892SOL     OW27574   1.145   0.005   2.675
 8892SOL    HW127575   1.212   0.048   2.615
 8892SOL    HW227576   1.103   6.951   2.628
 8893SOL     OW27577   0.446   1.068   0.540
 8893SOL    HW127578   0.406   1.015   0.615
 8893SOL    HW227579   0.389   1.148   0.521
 8894SOL     OW27580   4.644   2.756   6.437
 8894SOL    HW127581   4.561   2.708   6.410
 8894SOL    HW227582   4.658   2.836   6.377
 8895SOL     OW27583   2.096   1.289   3.439
 8895SOL    HW127584   2.099   1.192   3.463
 8895SOL    HW227585   2.066   1.298   3.344
 8896SOL     OW27586   2.216   4.220   5.166
 8896SOL    HW127587   2.272   4.294   5.129
 8896SOL    HW227588   2.266   4.134   5.157
 8897SOL     OW27589   1.071   2.513   1.131
 8897SOL    HW127590   1.052   2.437   1.194
 8897SOL    HW227591   1.158   2.497   1.086
 8898SOL     OW27592   0.230   2.964   5.206
 8898SOL    HW127593   0.178   2.968   5.120
 8898SOL    HW227594   0.322   2.928   5.188
 8899SOL     OW27595   3.144   5.149   1.648
 8899SOL    HW127596   3.060   5.105   1.617
 8899SOL    HW227597   3.142   5.158   1.748
 8900SOL     OW27598   6.787   1.633   3.583
 8900SOL    HW127599   6.849   1.559   3.556
 8900SOL    HW227600   6.831   1.690   3.651
 8901SOL     OW27601   2.028   6.756   1.639
 8901SOL    HW127602   2.086   6.788   1.713
 8901SOL    HW227603   2.081   6.752   1.554
 8902SOL     OW27604   3.437   6.276   5.733
 8902SOL    HW127605   3.468   6.218   5.808
 8902SOL    HW227606   3.384   6.353   5.768
 8903SOL     OW27607   0.055   0.132   2.430
 8903SOL    HW127608   0.071   0.071   2.353
 8903SOL    HW227609   7.008   0.198   2.405
 8904SOL     OW27610   1.597   4.807   3.192
 8904SOL    HW127611   1.510   4.854   3.201
 8904SOL    HW227612   1.662   4.845   3.258
 8905SOL     OW27613   2.127   4.098   4.873
 8905SOL    HW127614   2.192   4.052   4.935
 8905SOL    HW227615   2.053   4.138   4.927
 8906SOL     OW27616   2.024   5.123   4.211
 8906SOL    HW127617   2.090   5.077   4.151
 8906SOL    HW227618   2.019   5.074   4.298
 8907SOL     OW27619   3.916   2.334   6.669
 8907SOL    HW127620   3.960   2.309   6.756
 8907SOL    HW227621   3.847   2.405   6.687
 8908SOL     OW27622   1.077   2.621   3.043
 8908SOL    HW127623   1.039   2.682   3.113
 8908SOL    HW227624   1.168   2.653   3.017
 8909SOL     OW27625   3.683   0.185   5.617
 8909SOL    HW127626   3.661   0.209   5.712
 8909SOL    HW227627   3.606   0.208   5.558
 8910SOL     OW27628   3.931   3.224   0.085
 8910SOL    HW127629   3.941   3.137   0.132
 8910SOL    HW227630   3.880   3.211   0.000
 8911SOL     OW27631   4.981   2.292   3.553
 8911SOL    HW127632   5.029   2.335   3.630
 8911SOL    HW227633   4.943   2.363   3.494
 8912SOL     OW27634   5.237   1.288   6.414
 8912SOL    HW127635   5.286   1.269   6.328
 8912SOL    HW227636   5.232   1.386   6.429
 8913SOL     OW27637   4.185   4.001   1.458
 8913SOL    HW127638   4.230   4.034   1.375
 8913SOL    HW227639   4.212   4.059   1.535
 8914SOL     OW27640   4.982   1.970   3.692
 8914SOL    HW127641   5.036   2.001   3.614
 8914SOL    HW227642   4.905   1.914   3.661
 8915SOL     OW27643   1.126   5.510   2.083
 8915SOL    HW127644   1.156   5.419   2.054
 8915SOL    HW227645   1.092   5.506   2.177
 8916SOL     OW27646   5.889   3.310   2.545
 8916SOL    HW127647   5.881   3.249   2.466
 8916SOL    HW227648   5.806   3.304   2.600
 8917SOL     OW27649   5.528   4.816   5.178
 8917SOL    HW127650   5.436   4.797   5.213
 8917SOL    HW227651   5.578   4.730   5.166
 8918SOL     OW27652   4.709   3.801   6.308
 8918SOL    HW127653   4.805   3.778   6.293
 8918SOL    HW227654   4.701   3.898   6.333
 8919SOL     OW27655   2.399   3.410   1.519
 8919SOL    HW127656   2.433   3.316   1.531
 8919SOL    HW227657   2.476   3.474   1.520
 8920SOL     OW27658   6.861   5.314   5.499
 8920SOL    HW127659   6.922   5.348   5.427
 8920SOL    HW227660   6.814   5.232   5.466
 8921SOL     OW27661   1.027   5.562   3.825
 8921SOL    HW127662   1.097   5.628   3.852
 8921SOL    HW227663   1.014   5.566   3.726
 8922SOL     OW27664   6.622   4.015   6.496
 8922SOL    HW127665   6.664   3.943   6.551
 8922SOL    HW227666   6.686   4.048   6.427
 8923SOL     OW27667   2.349   4.417   4.322
 8923SOL    HW127668   2.306   4.330   4.346
 8923SOL    HW227669   2.344   4.479   4.400
 8924SOL     OW27670   2.421   5.810   4.912
 8924SOL    HW127671   2.411   5.809   5.011
 8924SOL    HW227672   2.474   5.890   4.884
 8925SOL     OW27673   4.653   5.231   1.217
 8925SOL    HW127674   4.648   5.135   1.191
 8925SOL    HW227675   4.674   5.239   1.314
 8926SOL     OW27676   5.761   0.061   6.728
 8926SOL    HW127677   5.775   0.086   6.824
 8926SOL    HW227678   5.800   0.133   6.670
 8927SOL     OW27679   2.388   1.518   4.755
 8927SOL    HW127680   2.309   1.473   4.798
 8927SOL    HW227681   2.432   1.578   4.822
 8928SOL     OW27682   0.765   0.197   4.663
 8928SOL    HW127683   0.780   0.199   4.762
 8928SOL    HW227684   0.672   0.163   4.645
 8929SOL     OW27685   5.225   4.283   3.701
 8929SOL    HW127686   5.201   4.368   3.747
 8929SOL    HW227687   5.149   4.218   3.711
 8930SOL     OW27688   0.827   5.523   5.286
 8930SOL    HW127689   0.881   5.579   5.222
 8930SOL    HW227690   0.825   5.568   5.375
 8931SOL     OW27691   4.794   1.262   1.745
 8931SOL    HW127692   4.853   1.313   1.808
 8931SOL    HW227693   4.835   1.261   1.654
 8932SOL     OW27694   5.535   1.164   0.291
 8932SOL    HW127695   5.456   1.222   0.269
 8932SOL    HW227696   5.505   1.082   0.339
 8933SOL     OW27697   1.257   0.313   5.287
 8933SOL    HW127698   1.323   0.363   5.229
 8933SOL    HW227699   1.171   0.363   5.289
 8934SOL     OW27700   4.176   6.895   4.274
 8934SOL    HW127701   4.205   6.846   4.192
 8934SOL    HW227702   4.246   6.961   4.300
 8935SOL     OW27703   5.973   1.888   2.652
 8935SOL    HW127704   5.965   1.935   2.564
 8935SOL    HW227705   5.952   1.951   2.726
 8936SOL     OW27706   1.551   3.597   2.433
 8936SOL    HW127707   1.494   3.636   2.506
 8936SOL    HW227708   1.519   3.506   2.410
 8937SOL     OW27709   3.712   0.137   4.907
 8937SOL    HW127710   3.751   0.056   4.864
 8937SOL    HW227711   3.699   0.120   5.005
 8938SOL     OW27712   5.639   6.364   1.288
 8938SOL    HW127713   5.701   6.313   1.228
 8938SOL    HW227714   5.658   6.461   1.281
 8939SOL     OW27715   0.338   3.227   4.613
 8939SOL    HW127716   0.309   3.193   4.703
 8939SOL    HW227717   0.268   3.204   4.545
 8940SOL     OW27718   6.719   3.198   2.537
 8940SOL    HW127719   6.718   3.098   2.531
 8940SOL    HW227720   6.800   3.227   2.588
 8941SOL     OW27721   6.009   1.792   3.209
 8941SOL    HW127722   5.998   1.752   3.118
 8941SOL    HW227723   5.972   1.885   3.210
 8942SOL     OW27724   4.905   4.618   3.682
 8942SOL    HW127725   4.857   4.638   3.767
 8942SOL    HW227726   4.996   4.581   3.703
 8943SOL     OW27727   4.609   3.313   0.441
 8943SOL    HW127728   4.578   3.226   0.479
 8943SOL    HW227729   4.693   3.341   0.486
 8944SOL     OW27730   4.415   6.540   5.165
 8944SOL    HW127731   4.512   6.534   5.187
 8944SOL    HW227732   4.391   6.469   5.099
 8945SOL     OW27733   6.527   4.996   1.914
 8945SOL    HW127734   6.471   4.926   1.871
 8945SOL    HW227735   6.585   4.954   1.984
 8946SOL     OW27736   3.529   1.544   4.712
 8946SOL    HW127737   3.439   1.554   4.669
 8946SOL    HW227738   3.596   1.516   4.643
 8947SOL     OW27739   1.967   4.669   0.868
 8947SOL    HW127740   2.067   4.675   0.871
 8947SOL    HW227741   1.929   4.730   0.938
 8948SOL     OW27742   5.538   0.346   2.689
 8948SOL    HW127743   5.555   0.309   2.780
 8948SOL    HW227744   5.484   0.429   2.696
 8949SOL     OW27745   3.510   6.369   1.095
 8949SOL    HW127746   3.468   6.354   1.005
 8949SOL    HW227747   3.539   6.464   1.102
 8950SOL     OW27748   3.525   3.896   2.680
 8950SOL    HW127749   3.459   3.929   2.747
 8950SOL    HW227750   3.541   3.798   2.695
 8951SOL     OW27751   0.359   0.784   3.788
 8951SOL    HW127752   0.408   0.711   3.836
 8951SOL    HW227753   0.348   0.863   3.850
 8952SOL     OW27754   1.258   4.123   4.830
 8952SOL    HW127755   1.313   4.103   4.749
 8952SOL    HW227756   1.241   4.039   4.881
 8953SOL     OW27757   0.336   5.458   0.785
 8953SOL    HW127758   0.363   5.454   0.881
 8953SOL    HW227759   0.269   5.386   0.765
 8954SOL     OW27760   2.147   4.305   5.428
 8954SOL    HW127761   2.158   4.266   5.337
 8954SOL    HW227762   2.152   4.232   5.496
 8955SOL     OW27763   6.156   3.478   5.920
 8955SOL    HW127764   6.231   3.543   5.936
 8955SOL    HW227765   6.126   3.439   6.007
 8956SOL     OW27766   0.754   6.251   0.507
 8956SOL    HW127767   0.693   6.178   0.476
 8956SOL    HW227768   0.708   6.304   0.579
 8957SOL     OW27769   1.424   0.010   3.072
 8957SOL    HW127770   1.451   0.066   2.994
 8957SOL    HW227771   1.332   0.036   3.102
 8958SOL     OW27772   6.881   3.704   4.918
 8958SOL    HW127773   6.827   3.620   4.911
 8958SOL    HW227774   6.913   3.731   4.827
 8959SOL     OW27775   5.246   2.049   3.973
 8959SOL    HW127776   5.256   1.975   4.039
 8959SOL    HW227777   5.164   2.102   3.995
 8960SOL     OW27778   5.230   4.906   2.421
 8960SOL    HW127779   5.306   4.950   2.470
 8960SOL    HW227780   5.144   4.932   2.464
 8961SOL     OW27781   2.397   1.565   5.368
 8961SOL    HW127782   2.402   1.632   5.293
 8961SOL    HW227783   2.307   1.569   5.411
 8962SOL     OW27784   6.966   6.161   2.110
 8962SOL    HW127785   0.042   6.152   2.117
 8962SOL    HW227786   6.924   6.121   2.191
 8963SOL     OW27787   2.736   6.226   6.155
 8963SOL    HW127788   2.726   6.152   6.088
 8963SOL    HW227789   2.720   6.189   6.247
 8964SOL     OW27790   1.534   2.868   3.433
 8964SOL    HW127791   1.455   2.869   3.495
 8964SOL    HW227792   1.555   2.961   3.404
 8965SOL     OW27793   3.557   6.129   0.508
 8965SOL    HW127794   3.498   6.207   0.527
 8965SOL    HW227795   3.584   6.086   0.595
 8966SOL     OW27796   5.598   6.644   5.630
 8966SOL    HW127797   5.624   6.563   5.683
 8966SOL    HW227798   5.524   6.691   5.677
 8967SOL     OW27799   2.878   0.218   3.074
 8967SOL    HW127800   2.931   0.148   3.121
 8967SOL    HW227801   2.781   0.193   3.075
 8968SOL     OW27802   3.116   5.153   2.752
 8968SOL    HW127803   3.171   5.083   2.707
 8968SOL    HW227804   3.021   5.146   2.719
 8969SOL     OW27805   6.911   1.451   2.655
 8969SOL    HW127806   6.827   1.475   2.703
 8969SOL    HW227807   6.919   1.351   2.649
 8970SOL     OW27808   2.458   1.282   3.771
 8970SOL    HW127809   2.481   1.371   3.811
 8970SOL    HW227810   2.370   1.290   3.724
 8971SOL     OW27811   3.186   4.376   1.228
 8971SOL    HW127812   3.122   4.316   1.180
 8971SOL    HW227813   3.154   4.389   1.322
 8972SOL     OW27814   5.933   3.781   6.505
 8972SOL    HW127815   5.835   3.778   6.528
 8972SOL    HW227816   5.947   3.844   6.428
 8973SOL     OW27817   2.620   1.832   3.730
 8973SOL    HW127818   2.678   1.764   3.776
 8973SOL    HW227819   2.577   1.791   3.650
 8974SOL     OW27820   1.978   4.243   5.047
 8974SOL    HW127821   1.913   4.210   5.116
 8974SOL    HW227822   2.070   4.243   5.085
 8975SOL     OW27823   0.303   3.419   6.285
 8975SOL    HW127824   0.293   3.506   6.332
 8975SOL    HW227825   0.263   3.346   6.341
 8976SOL     OW27826   6.159   0.590   1.782
 8976SOL    HW127827   6.063   0.572   1.803
 8976SOL    HW227828   6.176   0.688   1.788
 8977SOL     OW27829   6.646   4.819   6.218
 8977SOL    HW127830   6.709   4.812   6.141
 8977SOL    HW227831   6.633   4.915   6.242
 8978SOL     OW27832   6.561   5.642   5.741
 8978SOL    HW127833   6.646   5.618   5.693
 8978SOL    HW227834   6.542   5.574   5.812
 8979SOL     OW27835   1.802   4.911   3.668
 8979SOL    HW127836   1.734   4.842   3.695
 8979SOL    HW227837   1.766   5.002   3.688
 8980SOL     OW27838   4.203   0.887   0.644
 8980SOL    HW127839   4.247   0.832   0.573
 8980SOL    HW227840   4.111   0.852   0.660
 8981SOL     OW27841   3.831   2.132   0.259
 8981SOL    HW127842   3.919   2.175   0.240
 8981SOL    HW227843   3.762   2.203   0.278
 8982SOL     OW27844   0.461   1.278   2.010
 8982SOL    HW127845   0.391   1.247   2.075
 8982SOL    HW227846   0.467   1.214   1.934
 8983SOL     OW27847   1.059   0.269   2.614
 8983SOL    HW127848   1.086   0.290   2.520
 8983SOL    HW227849   1.052   0.170   2.626
 8984SOL     OW27850   6.485   1.624   4.612
 8984SOL    HW127851   6.480   1.690   4.537
 8984SOL    HW227852   6.519   1.537   4.578
 8985SOL     OW27853   4.936   0.463   2.158
 8985SOL    HW127854   5.036   0.458   2.161
 8985SOL    HW227855   4.907   0.497   2.069
 8986SOL     OW27856   0.278   6.218   0.128
 8986SOL    HW127857   0.198   6.227   0.068
 8986SOL    HW227858   0.317   6.308   0.145
 8987SOL     OW27859   2.612   6.209   2.672
 8987SOL    HW127860   2.579   6.123   2.635
 8987SOL    HW227861   2.575   6.285   2.619
 8988SOL     OW27862   2.493   0.197   0.864
 8988SOL    HW127863   2.549   0.151   0.934
 8988SOL    HW227864   2.397   0.173   0.877
 8989SOL     OW27865   6.079   1.179   2.134
 8989SOL    HW127866   6.147   1.184   2.207
 8989SOL    HW227867   6.077   1.087   2.096
 8990SOL     OW27868   3.860   1.156   2.814
 8990SOL    HW127869   3.891   1.195   2.728
 8990SOL    HW227870   3.936   1.111   2.860
 8991SOL     OW27871   1.206   1.881   1.016
 8991SOL    HW127872   1.290   1.899   1.067
 8991SOL    HW227873   1.175   1.788   1.034
 8992SOL     OW27874   0.118   4.747   5.955
 8992SOL    HW127875   0.189   4.696   6.003
 8992SOL    HW227876   0.055   4.683   5.911
 8993SOL     OW27877   5.050   3.992   3.726
 8993SOL    HW127878   4.998   4.032   3.801
 8993SOL    HW227879   5.099   3.911   3.758
 8994SOL     OW27880   1.103   6.307   2.247
 8994SOL    HW127881   1.164   6.351   2.313
 8994SOL    HW227882   1.124   6.210   2.242
 8995SOL     OW27883   2.074   3.552   3.816
 8995SOL    HW127884   2.137   3.480   3.847
 8995SOL    HW227885   2.004   3.567   3.885
 8996SOL     OW27886   2.075   4.018   1.332
 8996SOL    HW127887   2.100   3.968   1.415
 8996SOL    HW227888   1.991   3.979   1.293
 8997SOL     OW27889   4.624   1.353   5.002
 8997SOL    HW127890   4.659   1.390   4.916
 8997SOL    HW227891   4.651   1.257   5.010
 8998SOL     OW27892   1.032   1.714   6.479
 8998SOL    HW127893   1.066   1.751   6.566
 8998SOL    HW227894   1.090   1.637   6.451
 8999SOL     OW27895   5.418   2.809   5.657
 8999SOL    HW127896   5.398   2.815   5.560
 8999SOL    HW227897   5.402   2.716   5.689
 9000SOL     OW27898   4.438   4.674   1.015
 9000SOL    HW127899   4.357   4.629   0.978
 9000SOL    HW227900   4.519   4.621   0.992
 9001SOL     OW27901   1.334   4.068   3.335
 9001SOL    HW127902   1.350   4.059   3.433
 9001SOL    HW227903   1.422   4.065   3.287
 9002SOL     OW27904   5.434   3.525   5.287
 9002SOL    HW127905   5.480   3.614   5.289
 9002SOL    HW227906   5.370   3.519   5.364
 9003SOL     OW27907   6.387   3.040   6.640
 9003SOL    HW127908   6.307   3.063   6.694
 9003SOL    HW227909   6.466   3.092   6.672
 9004SOL     OW27910   4.507   5.133   0.933
 9004SOL    HW127911   4.451   5.074   0.991
 9004SOL    HW227912   4.466   5.224   0.927
 9005SOL     OW27913   5.129   2.876   2.995
 9005SOL    HW127914   5.136   2.872   2.895
 9005SOL    HW227915   5.124   2.971   3.024
 9006SOL     OW27916   2.403   6.698   1.638
 9006SOL    HW127917   2.410   6.796   1.659
 9006SOL    HW227918   2.373   6.649   1.719
 9007SOL     OW27919   1.967   6.144   5.160
 9007SOL    HW127920   2.010   6.091   5.234
 9007SOL    HW227921   1.930   6.081   5.092
 9008SOL     OW27922   0.240   4.200   1.722
 9008SOL    HW127923   0.214   4.151   1.639
 9008SOL    HW227924   0.253   4.297   1.702
 9009SOL     OW27925   3.876   6.277   6.931
 9009SOL    HW127926   3.924   6.329   6.860
 9009SOL    HW227927   3.779   6.302   6.930
 9010SOL     OW27928   6.577   6.010   4.455
 9010SOL    HW127929   6.674   5.989   4.439
 9010SOL    HW227930   6.520   5.950   4.399
 9011SOL     OW27931   4.623   2.641   2.105
 9011SOL    HW127932   4.590   2.689   2.024
 9011SOL    HW227933   4.690   2.699   2.153
 9012SOL     OW27934   4.900   5.322   2.436
 9012SOL    HW127935   4.980   5.293   2.490
 9012SOL    HW227936   4.851   5.394   2.485
 9013SOL     OW27937   4.565   6.179   2.581
 9013SOL    HW127938   4.651   6.158   2.534
 9013SOL    HW227939   4.510   6.096   2.589
 9014SOL     OW27940   2.755   0.380   1.593
 9014SOL    HW127941   2.700   0.407   1.513
 9014SOL    HW227942   2.852   0.381   1.568
 9015SOL     OW27943   6.051   2.019   4.529
 9015SOL    HW127944   6.116   2.094   4.513
 9015SOL    HW227945   6.026   2.017   4.625
 9016SOL     OW27946   0.079   6.191   6.979
 9016SOL    HW127947   0.036   6.236   6.900
 9016SOL    HW227948   0.057   6.093   6.976
 9017SOL     OW27949   6.953   3.596   2.772
 9017SOL    HW127950   6.897   3.652   2.833
 9017SOL    HW227951   0.026   3.611   2.794
 9018SOL     OW27952   4.742   1.735   6.545
 9018SOL    HW127953   4.693   1.822   6.544
 9018SOL    HW227954   4.739   1.696   6.637
 9019SOL     OW27955   1.645   5.724   0.295
 9019SOL    HW127956   1.597   5.723   0.208
 9019SOL    HW227957   1.651   5.632   0.332
 9020SOL     OW27958   0.464   5.229   3.980
 9020SOL    HW127959   0.427   5.136   3.976
 9020SOL    HW227960   0.405   5.286   4.037
 9021SOL     OW27961   5.778   5.212   5.602
 9021SOL    HW127962   5.875   5.236   5.594
 9021SOL    HW227963   5.765   5.154   5.683
 9022SOL     OW27964   2.676   6.913   6.516
 9022SOL    HW127965   2.713   6.928   6.424
 9022SOL    HW227966   2.691   6.818   6.542
 9023SOL     OW27967   2.999   3.823   3.703
 9023SOL    HW127968   2.985   3.725   3.715
 9023SOL    HW227969   2.941   3.856   3.628
 9024SOL     OW27970   1.066   6.985   6.179
 9024SOL    HW127971   1.117   0.047   6.185
 9024SOL    HW227972   1.096   6.923   6.252
 9025SOL     OW27973   0.289   3.283   6.891
 9025SOL    HW127974   0.326   3.310   6.802
 9025SOL    HW227975   0.300   3.358   6.956
 9026SOL     OW27976   2.756   3.371   5.598
 9026SOL    HW127977   2.713   3.418   5.520
 9026SOL    HW227978   2.844   3.334   5.569
 9027SOL     OW27979   1.662   2.699   2.452
 9027SOL    HW127980   1.568   2.695   2.418
 9027SOL    HW227981   1.724   2.657   2.385
 9028SOL     OW27982   2.417   4.420   4.657
 9028SOL    HW127983   2.429   4.472   4.741
 9028SOL    HW227984   2.499   4.365   4.640
 9029SOL     OW27985   5.688   5.461   2.471
 9029SOL    HW127986   5.695   5.543   2.529
 9029SOL    HW227987   5.760   5.396   2.495
 9030SOL     OW27988   4.375   1.943   2.517
 9030SOL    HW127989   4.439   2.020   2.519
 9030SOL    HW227990   4.295   1.968   2.462
 9031SOL     OW27991   2.527   1.322   1.642
 9031SOL    HW127992   2.441   1.271   1.634
 9031SOL    HW227993   2.540   1.377   1.560
 9032SOL     OW27994   0.586   2.747   2.289
 9032SOL    HW127995   0.574   2.654   2.255
 9032SOL    HW227996   0.658   2.792   2.235
 9033SOL     OW27997   1.198   4.142   2.674
 9033SOL    HW127998   1.183   4.077   2.599
 9033SOL    HW227999   1.127   4.129   2.744
 9034SOL     OW28000   1.843   6.645   6.796
 9034SOL    HW128001   1.912   6.711   6.827
 9034SOL    HW228002   1.880   6.552   6.807
 9035SOL     OW28003   6.457   0.942   4.372
 9035SOL    HW128004   6.529   1.012   4.372
 9035SOL    HW228005   6.389   0.964   4.302
 9036SOL     OW28006   0.602   1.036   4.811
 9036SOL    HW128007   0.661   0.959   4.835
 9036SOL    HW228008   0.637   1.079   4.727
 9037SOL     OW28009   2.380   4.300   5.772
 9037SOL    HW128010   2.286   4.269   5.784
 9037SOL    HW228011   2.396   4.383   5.826
 9038SOL     OW28012   4.933   5.113   5.770
 9038SOL    HW128013   4.866   5.160   5.711
 9038SOL    HW228014   4.884   5.063   5.842
 9039SOL     OW28015   2.542   5.134   6.871
 9039SOL    HW128016   2.458   5.090   6.901
 9039SOL    HW228017   2.562   5.108   6.777
 9040SOL     OW28018   2.731   1.416   2.569
 9040SOL    HW128019   2.666   1.455   2.503
 9040SOL    HW228020   2.691   1.335   2.611
 9041SOL     OW28021   1.580   3.147   5.908
 9041SOL    HW128022   1.538   3.134   5.998
 9041SOL    HW228023   1.640   3.070   5.888
 9042SOL     OW28024   1.314   5.704   2.664
 9042SOL    HW128025   1.397   5.661   2.630
 9042SOL    HW228026   1.245   5.634   2.681
 9043SOL     OW28027   0.365   2.264   6.830
 9043SOL    HW128028   0.416   2.235   6.912
 9043SOL    HW228029   0.343   2.361   6.838
 9044SOL     OW28030   0.133   4.071   0.751
 9044SOL    HW128031   0.150   4.142   0.683
 9044SOL    HW228032   0.043   4.086   0.793
 9045SOL     OW28033   2.323   4.620   4.516
 9045SOL    HW128034   2.382   4.554   4.563
 9045SOL    HW228035   2.238   4.630   4.567
 9046SOL     OW28036   3.621   4.213   6.322
 9046SOL    HW128037   3.702   4.161   6.348
 9046SOL    HW228038   3.644   4.311   6.321
 9047SOL     OW28039   0.412   4.606   4.611
 9047SOL    HW128040   0.429   4.513   4.644
 9047SOL    HW228041   0.314   4.618   4.594
 9048SOL     OW28042   1.704   2.189   5.345
 9048SOL    HW128043   1.663   2.224   5.260
 9048SOL    HW228044   1.648   2.215   5.423
 9049SOL     OW28045   4.814   6.376   6.067
 9049SOL    HW128046   4.820   6.280   6.038
 9049SOL    HW228047   4.905   6.418   6.062
 9050SOL     OW28048   0.038   5.274   5.681
 9050SOL    HW128049   0.132   5.269   5.648
 9050SOL    HW228050   6.998   5.262   5.605
 9051SOL     OW28051   5.738   6.859   6.284
 9051SOL    HW128052   5.715   6.789   6.352
 9051SOL    HW228053   5.757   6.815   6.196
 9052SOL     OW28054   2.885   4.958   4.992
 9052SOL    HW128055   2.804   4.994   4.945
 9052SOL    HW228056   2.870   4.862   5.016
 9053SOL     OW28057   2.630   1.107   3.100
 9053SOL    HW128058   2.667   1.016   3.117
 9053SOL    HW228059   2.650   1.133   3.005
 9054SOL     OW28060   1.871   0.087   1.357
 9054SOL    HW128061   1.876   7.012   1.365
 9054SOL    HW228062   1.953   0.128   1.397
 9055SOL     OW28063   1.035   2.265   4.592
 9055SOL    HW128064   0.952   2.313   4.564
 9055SOL    HW228065   1.048   2.184   4.534
 9056SOL     OW28066   4.427   2.226   1.809
 9056SOL    HW128067   4.349   2.226   1.872
 9056SOL    HW228068   4.460   2.319   1.797
 9057SOL     OW28069   3.574   6.543   6.814
 9057SOL    HW128070   3.586   6.580   6.906
 9057SOL    HW228071   3.542   6.615   6.753
 9058SOL     OW28072   2.284   1.934   4.438
 9058SOL    HW128073   2.342   1.855   4.419
 9058SOL    HW228074   2.218   1.946   4.364
 9059SOL     OW28075   6.975   1.073   2.043
 9059SOL    HW128076   6.947   1.058   1.948
 9059SOL    HW228077   6.899   1.110   2.096
 9060SOL     OW28078   6.824   4.863   0.892
 9060SOL    HW128079   6.891   4.828   0.956
 9060SOL    HW228080   6.732   4.851   0.930
 9061SOL     OW28081   4.640   4.265   2.297
 9061SOL    HW128082   4.670   4.170   2.285
 9061SOL    HW228083   4.590   4.295   2.216
 9062SOL     OW28084   0.738   5.566   3.124
 9062SOL    HW128085   0.697   5.650   3.161
 9062SOL    HW228086   0.837   5.568   3.140
 9063SOL     OW28087   4.449   0.511   1.036
 9063SOL    HW128088   4.420   0.546   0.947
 9063SOL    HW228089   4.418   0.416   1.047
 9064SOL     OW28090   0.974   5.814   2.980
 9064SOL    HW128091   0.885   5.859   2.989
 9064SOL    HW228092   0.966   5.719   3.012
 9065SOL     OW28093   3.563   4.009   0.038
 9065SOL    HW128094   3.638   3.946   0.057
 9065SOL    HW228095   3.491   3.998   0.106
 9066SOL     OW28096   5.148   4.847   3.847
 9066SOL    HW128097   5.105   4.859   3.758
 9066SOL    HW228098   5.128   4.925   3.905
 9067SOL     OW28099   2.240   6.550   4.358
 9067SOL    HW128100   2.307   6.497   4.307
 9067SOL    HW228101   2.206   6.496   4.435
 9068SOL     OW28102   4.731   6.908   6.148
 9068SOL    HW128103   4.734   6.863   6.059
 9068SOL    HW228104   4.814   6.963   6.161
 9069SOL     OW28105   5.029   2.152   1.965
 9069SOL    HW128106   4.986   2.239   1.939
 9069SOL    HW228107   5.085   2.166   2.046
 9070SOL     OW28108   1.853   1.006   5.966
 9070SOL    HW128109   1.840   0.913   6.001
 9070SOL    HW228110   1.879   1.002   5.869
 9071SOL     OW28111   4.539   2.551   6.749
 9071SOL    HW128112   4.583   2.638   6.769
 9071SOL    HW228113   4.608   2.478   6.751
 9072SOL     OW28114   6.160   0.376   1.979
 9072SOL    HW128115   6.089   0.374   2.049
 9072SOL    HW228116   6.150   0.458   1.923
 9073SOL     OW28117   4.750   3.146   5.716
 9073SOL    HW128118   4.850   3.140   5.721
 9073SOL    HW228119   4.709   3.078   5.776
 9074SOL     OW28120   1.949   1.158   3.748
 9074SOL    HW128121   1.964   1.098   3.826
 9074SOL    HW228122   2.012   1.133   3.674
 9075SOL     OW28123   4.970   5.062   0.424
 9075SOL    HW128124   5.018   4.977   0.446
 9075SOL    HW228125   4.932   5.056   0.331
 9076SOL     OW28126   1.354   6.157   2.645
 9076SOL    HW128127   1.365   6.162   2.744
 9076SOL    HW228128   1.371   6.063   2.615
 9077SOL     OW28129   6.538   1.537   6.263
 9077SOL    HW128130   6.531   1.577   6.172
 9077SOL    HW228131   6.585   1.448   6.256
 9078SOL     OW28132   4.764   6.714   0.460
 9078SOL    HW128133   4.743   6.773   0.538
 9078SOL    HW228134   4.757   6.618   0.488
 9079SOL     OW28135   1.363   1.143   6.203
 9079SOL    HW128136   1.306   1.158   6.122
 9079SOL    HW228137   1.417   1.225   6.221
 9080SOL     OW28138   6.795   4.527   2.465
 9080SOL    HW128139   6.880   4.576   2.444
 9080SOL    HW228140   6.718   4.576   2.425
 9081SOL     OW28141   5.105   1.537   0.448
 9081SOL    HW128142   5.146   1.481   0.521
 9081SOL    HW228143   5.019   1.577   0.481
 9082SOL     OW28144   3.610   4.295   6.653
 9082SOL    HW128145   3.564   4.240   6.723
 9082SOL    HW228146   3.573   4.388   6.655
 9083SOL     OW28147   3.307   0.515   0.719
 9083SOL    HW128148   3.335   0.608   0.740
 9083SOL    HW228149   3.210   0.514   0.694
 9084SOL     OW28150   6.612   4.058   4.645
 9084SOL    HW128151   6.530   4.000   4.644
 9084SOL    HW228152   6.685   4.011   4.695
 9085SOL     OW28153   2.601   4.753   0.891
 9085SOL    HW128154   2.536   4.691   0.935
 9085SOL    HW228155   2.680   4.768   0.950
 9086SOL     OW28156   6.627   2.906   0.494
 9086SOL    HW128157   6.534   2.870   0.492
 9086SOL    HW228158   6.631   2.985   0.556
 9087SOL     OW28159   4.986   1.657   1.727
 9087SOL    HW128160   4.891   1.643   1.755
 9087SOL    HW228161   5.017   1.747   1.758
 9088SOL     OW28162   5.554   5.729   0.116
 9088SOL    HW128163   5.619   5.653   0.112
 9088SOL    HW228164   5.597   5.808   0.161
 9089SOL     OW28165   5.575   5.078   3.239
 9089SOL    HW128166   5.543   5.024   3.316
 9089SOL    HW228167   5.567   5.024   3.155
 9090SOL     OW28168   5.765   5.784   5.891
 9090SOL    HW128169   5.737   5.827   5.977
 9090SOL    HW228170   5.842   5.722   5.908
 9091SOL     OW28171   2.767   2.115   1.923
 9091SOL    HW128172   2.795   2.194   1.977
 9091SOL    HW228173   2.796   2.127   1.828
 9092SOL     OW28174   2.197   1.799   4.925
 9092SOL    HW128175   2.248   1.845   4.853
 9092SOL    HW228176   2.140   1.728   4.884
 9093SOL     OW28177   1.980   3.702   0.806
 9093SOL    HW128178   1.885   3.691   0.836
 9093SOL    HW228179   2.000   3.635   0.734
 9094SOL     OW28180   6.662   3.126   0.653
 9094SOL    HW128181   6.698   3.113   0.745
 9094SOL    HW228182   6.734   3.161   0.593
 9095SOL     OW28183   2.278   2.860   0.089
 9095SOL    HW128184   2.230   2.779   0.055
 9095SOL    HW228185   2.332   2.900   0.016
 9096SOL     OW28186   6.564   3.850   3.155
 9096SOL    HW128187   6.633   3.909   3.197
 9096SOL    HW228188   6.513   3.902   3.086
 9097SOL     OW28189   6.277   6.119   5.857
 9097SOL    HW128190   6.322   6.195   5.903
 9097SOL    HW228191   6.335   6.037   5.863
 9098SOL     OW28192   3.730   3.693   4.696
 9098SOL    HW128193   3.829   3.706   4.707
 9098SOL    HW228194   3.691   3.773   4.650
 9099SOL     OW28195   1.491   2.109   6.905
 9099SOL    HW128196   1.568   2.062   6.949
 9099SOL    HW228197   1.461   2.185   6.962
 9100SOL     OW28198   1.679   2.949   0.408
 9100SOL    HW128199   1.616   2.912   0.339
 9100SOL    HW228200   1.772   2.923   0.384
 9101SOL     OW28201   2.074   2.243   6.677
 9101SOL    HW128202   1.998   2.264   6.738
 9101SOL    HW228203   2.082   2.314   6.607
 9102SOL     OW28204   5.183   6.338   2.492
 9102SOL    HW128205   5.203   6.362   2.587
 9102SOL    HW228206   5.084   6.328   2.480
 9103SOL     OW28207   0.588   4.505   6.159
 9103SOL    HW128208   0.610   4.408   6.148
 9103SOL    HW228209   0.612   4.534   6.251
 9104SOL     OW28210   5.369   6.791   3.061
 9104SOL    HW128211   5.404   6.884   3.070
 9104SOL    HW228212   5.308   6.771   3.137
 9105SOL     OW28213   2.374   1.683   5.826
 9105SOL    HW128214   2.395   1.594   5.786
 9105SOL    HW228215   2.305   1.730   5.770
 9106SOL     OW28216   6.451   5.031   2.225
 9106SOL    HW128217   6.525   4.999   2.284
 9106SOL    HW228218   6.417   4.955   2.170
 9107SOL     OW28219   5.072   0.062   0.034
 9107SOL    HW128220   5.162   0.042   7.020
 9107SOL    HW228221   5.080   0.083   0.131
 9108SOL     OW28222   3.492   5.957   0.022
 9108SOL    HW128223   3.556   5.882   0.038
 9108SOL    HW228224   3.433   5.968   0.102
 9109SOL     OW28225   2.874   1.268   4.727
 9109SOL    HW128226   2.900   1.208   4.651
 9109SOL    HW228227   2.782   1.302   4.713
 9110SOL     OW28228   1.529   3.463   3.348
 9110SOL    HW128229   1.494   3.437   3.259
 9110SOL    HW228230   1.586   3.545   3.339
 9111SOL     OW28231   4.283   4.105   1.720
 9111SOL    HW128232   4.196   4.082   1.763
 9111SOL    HW228233   4.340   4.156   1.785
 9112SOL     OW28234   1.000   5.589   1.623
 9112SOL    HW128235   0.924   5.527   1.645
 9112SOL    HW228236   1.081   5.561   1.673
 9113SOL     OW28237   2.998   5.661   6.739
 9113SOL    HW128238   2.933   5.677   6.813
 9113SOL    HW228239   2.948   5.639   6.655
 9114SOL     OW28240   2.650   3.909   1.680
 9114SOL    HW128241   2.625   4.003   1.703
 9114SOL    HW228242   2.700   3.908   1.593
 9115SOL     OW28243   1.901   4.387   4.238
 9115SOL    HW128244   1.908   4.390   4.337
 9115SOL    HW228245   1.980   4.434   4.198
 9116SOL     OW28246   2.062   1.983   6.192
 9116SOL    HW128247   2.044   1.972   6.094
 9116SOL    HW228248   2.097   2.075   6.210
 9117SOL     OW28249   6.953   3.318   0.040
 9117SOL    HW128250   7.014   3.241   0.057
 9117SOL    HW228251   6.958   3.381   0.118
 9118SOL     OW28252   0.212   5.680   1.284
 9118SOL    HW128253   0.213   5.685   1.184
 9118SOL    HW228254   0.161   5.600   1.314
 9119SOL     OW28255   6.607   0.494   0.781
 9119SOL    HW128256   6.554   0.409   0.777
 9119SOL    HW228257   6.679   0.485   0.850
 9120SOL     OW28258   6.196   0.979   6.616
 9120SOL    HW128259   6.128   1.052   6.620
 9120SOL    HW228260   6.157   0.894   6.652
 9121SOL     OW28261   1.868   1.218   6.425
 9121SOL    HW128262   1.949   1.163   6.402
 9121SOL    HW228263   1.836   1.193   6.517
 9122SOL     OW28264   1.196   2.284   0.770
 9122SOL    HW128265   1.182   2.227   0.689
 9122SOL    HW228266   1.156   2.239   0.850
 9123SOL     OW28267   2.830   6.561   0.006
 9123SOL    HW128268   2.918   6.519   7.009
 9123SOL    HW228269   2.775   6.500   0.063
 9124SOL     OW28270   6.342   4.736   5.763
 9124SOL    HW128271   6.368   4.786   5.845
 9124SOL    HW228272   6.413   4.669   5.741
 9125SOL     OW28273   4.767   5.679   1.326
 9125SOL    HW128274   4.748   5.588   1.363
 9125SOL    HW228275   4.865   5.687   1.308
 9126SOL     OW28276   5.616   6.925   2.205
 9126SOL    HW128277   5.714   6.909   2.194
 9126SOL    HW228278   5.564   6.850   2.164
 9127SOL     OW28279   4.888   6.319   6.455
 9127SOL    HW128280   4.839   6.372   6.387
 9127SOL    HW228281   4.880   6.221   6.433
 9128SOL     OW28282   5.089   3.063   5.406
 9128SOL    HW128283   5.010   3.068   5.346
 9128SOL    HW228284   5.173   3.062   5.351
 9129SOL     OW28285   1.844   1.790   6.836
 9129SOL    HW128286   1.888   1.880   6.831
 9129SOL    HW228287   1.798   1.770   6.750
 9130SOL     OW28288   6.248   5.732   1.390
 9130SOL    HW128289   6.191   5.714   1.470
 9130SOL    HW228290   6.250   5.830   1.371
 9131SOL     OW28291   0.651   4.340   3.833
 9131SOL    HW128292   0.728   4.293   3.790
 9131SOL    HW228293   0.635   4.302   3.924
 9132SOL     OW28294   1.381   3.343   4.460
 9132SOL    HW128295   1.322   3.279   4.510
 9132SOL    HW228296   1.452   3.292   4.412
 9133SOL     OW28297   1.828   5.073   1.308
 9133SOL    HW128298   1.797   4.979   1.293
 9133SOL    HW228299   1.801   5.130   1.230
 9134SOL     OW28300   2.804   5.022   6.032
 9134SOL    HW128301   2.881   5.073   5.994
 9134SOL    HW228302   2.751   5.081   6.093
 9135SOL     OW28303   0.632   6.237   3.972
 9135SOL    HW128304   0.624   6.225   3.873
 9135SOL    HW228305   0.541   6.241   4.013
 9136SOL     OW28306   3.719   5.417   5.309
 9136SOL    HW128307   3.682   5.471   5.233
 9136SOL    HW228308   3.744   5.478   5.384
 9137SOL     OW28309   4.518   0.452   1.718
 9137SOL    HW128310   4.615   0.430   1.721
 9137SOL    HW228311   4.476   0.433   1.807
 9138SOL     OW28312   3.281   4.520   1.025
 9138SOL    HW128313   3.257   4.459   1.101
 9138SOL    HW228314   3.380   4.537   1.026
 9139SOL     OW28315   3.416   1.143   5.474
 9139SOL    HW128316   3.429   1.222   5.535
 9139SOL    HW228317   3.503   1.118   5.433
 9140SOL     OW28318   6.633   2.051   3.840
 9140SOL    HW128319   6.656   2.036   3.744
 9140SOL    HW228320   6.705   2.015   3.898
 9141SOL     OW28321   5.596   0.589   5.890
 9141SOL    HW128322   5.694   0.604   5.903
 9141SOL    HW228323   5.560   0.532   5.964
 9142SOL     OW28324   1.411   4.270   6.324
 9142SOL    HW128325   1.339   4.235   6.383
 9142SOL    HW228326   1.382   4.356   6.282
 9143SOL     OW28327   5.455   4.146   1.398
 9143SOL    HW128328   5.540   4.093   1.406
 9143SOL    HW228329   5.412   4.127   1.310
 9144SOL     OW28330   1.224   4.800   4.776
 9144SOL    HW128331   1.210   4.733   4.849
 9144SOL    HW228332   1.319   4.832   4.776
 9145SOL     OW28333   0.262   3.815   6.662
 9145SOL    HW128334   0.236   3.902   6.621
 9145SOL    HW228335   0.356   3.819   6.695
 9146SOL     OW28336   0.418   1.619   1.768
 9146SOL    HW128337   0.517   1.619   1.754
 9146SOL    HW228338   0.381   1.708   1.742
 9147SOL     OW28339   4.670   6.255   6.293
 9147SOL    HW128340   4.658   6.157   6.280
 9147SOL    HW228341   4.702   6.296   6.208
 9148SOL     OW28342   3.383   5.443   2.891
 9148SOL    HW128343   3.395   5.354   2.935
 9148SOL    HW228344   3.322   5.433   2.813
 9149SOL     OW28345   5.894   3.486   4.116
 9149SOL    HW128346   5.856   3.547   4.047
 9149SOL    HW228347   5.994   3.483   4.106
 9150SOL     OW28348   4.345   1.430   3.132
 9150SOL    HW128349   4.440   1.455   3.110
 9150SOL    HW228350   4.324   1.461   3.225
 9151SOL     OW28351   1.013   3.322   2.367
 9151SOL    HW128352   1.051   3.241   2.412
 9151SOL    HW228353   1.069   3.345   2.287
 9152SOL     OW28354   2.199   5.365   3.339
 9152SOL    HW128355   2.141   5.390   3.262
 9152SOL    HW228356   2.294   5.390   3.319
 9153SOL     OW28357   1.669   3.087   6.470
 9153SOL    HW128358   1.655   3.072   6.372
 9153SOL    HW228359   1.756   3.133   6.484
 9154SOL     OW28360   1.850   5.634   6.886
 9154SOL    HW128361   1.855   5.719   6.834
 9154SOL    HW228362   1.769   5.582   6.856
 9155SOL     OW28363   1.199   4.202   0.301
 9155SOL    HW128364   1.200   4.281   0.363
 9155SOL    HW228365   1.111   4.198   0.254
 9156SOL     OW28366   5.140   2.396   1.696
 9156SOL    HW128367   5.210   2.467   1.704
 9156SOL    HW228368   5.071   2.408   1.767
 9157SOL     OW28369   4.972   4.268   5.947
 9157SOL    HW128370   4.972   4.367   5.965
 9157SOL    HW228371   5.066   4.233   5.957
 9158SOL     OW28372   0.506   3.522   3.005
 9158SOL    HW128373   0.580   3.559   3.062
 9158SOL    HW228374   0.520   3.424   2.993
 9159SOL     OW28375   6.769   4.839   2.581
 9159SOL    HW128376   6.855   4.848   2.630
 9159SOL    HW228377   6.720   4.758   2.615
 9160SOL     OW28378   6.961   6.932   0.522
 9160SOL    HW128379   6.884   6.907   0.464
 9160SOL    HW228380   6.936   7.009   0.580
 9161SOL     OW28381   5.444   4.017   3.585
 9161SOL    HW128382   5.500   4.067   3.519
 9161SOL    HW228383   5.466   4.049   3.677
 9162SOL     OW28384   5.235   1.639   2.221
 9162SOL    HW128385   5.229   1.695   2.138
 9162SOL    HW228386   5.145   1.600   2.242
 9163SOL     OW28387   3.270   1.496   4.365
 9163SOL    HW128388   3.287   1.398   4.352
 9163SOL    HW228389   3.173   1.510   4.385
 9164SOL     OW28390   2.531   0.247   0.154
 9164SOL    HW128391   2.447   0.280   0.111
 9164SOL    HW228392   2.535   0.280   0.248
 9165SOL     OW28393   4.862   6.061   0.475
 9165SOL    HW128394   4.908   5.972   0.469
 9165SOL    HW228395   4.843   6.082   0.571
 9166SOL     OW28396   3.129   5.435   1.428
 9166SOL    HW128397   3.144   5.444   1.526
 9166SOL    HW228398   3.071   5.355   1.410
 9167SOL     OW28399   0.475   4.006   5.040
 9167SOL    HW128400   0.564   4.045   5.018
 9167SOL    HW228401   0.425   3.986   4.956
 9168SOL     OW28402   2.452   0.256   6.495
 9168SOL    HW128403   2.377   0.323   6.502
 9168SOL    HW228404   2.441   0.187   6.566
 9169SOL     OW28405   6.723   6.837   2.947
 9169SOL    HW128406   6.712   6.804   3.041
 9169SOL    HW228407   6.633   6.849   2.906
 9170SOL     OW28408   6.358   6.055   6.821
 9170SOL    HW128409   6.258   6.058   6.819
 9170SOL    HW228410   6.395   6.141   6.786
 9171SOL     OW28411   2.913   5.624   5.816
 9171SOL    HW128412   2.960   5.589   5.735
 9171SOL    HW228413   2.884   5.548   5.873
 9172SOL     OW28414   2.477   2.484   4.007
 9172SOL    HW128415   2.449   2.549   3.937
 9172SOL    HW228416   2.455   2.521   4.098
 9173SOL     OW28417   0.475   4.833   5.321
 9173SOL    HW128418   0.548   4.855   5.384
 9173SOL    HW228419   0.397   4.795   5.371
 9174SOL     OW28420   0.235   5.612   0.344
 9174SOL    HW128421   0.252   5.677   0.270
 9174SOL    HW228422   0.321   5.593   0.392
 9175SOL     OW28423   1.570   6.956   5.113
 9175SOL    HW128424   1.594   6.982   5.207
 9175SOL    HW228425   1.497   6.888   5.115
 9176SOL     OW28426   1.503   1.423   5.410
 9176SOL    HW128427   1.519   1.342   5.354
 9176SOL    HW228428   1.569   1.426   5.485
 9177SOL     OW28429   0.964   4.465   3.709
 9177SOL    HW128430   0.904   4.386   3.703
 9177SOL    HW228431   0.971   4.509   3.620
 9178SOL     OW28432   1.943   4.357   0.448
 9178SOL    HW128433   1.949   4.259   0.432
 9178SOL    HW228434   2.033   4.399   0.437
 9179SOL     OW28435   2.541   4.574   4.886
 9179SOL    HW128436   2.511   4.669   4.880
 9179SOL    HW228437   2.625   4.569   4.939
 9180SOL     OW28438   5.157   1.800   2.621
 9180SOL    HW128439   5.189   1.844   2.538
 9180SOL    HW228440   5.179   1.703   2.618
 9181SOL     OW28441   3.824   1.605   2.364
 9181SOL    HW128442   3.873   1.664   2.300
 9181SOL    HW228443   3.803   1.518   2.320
 9182SOL     OW28444   1.952   0.100   1.890
 9182SOL    HW128445   1.985   0.193   1.908
 9182SOL    HW228446   2.020   0.034   1.923
 9183SOL     OW28447   5.178   5.814   6.601
 9183SOL    HW128448   5.222   5.778   6.519
 9183SOL    HW228449   5.137   5.903   6.581
 9184SOL     OW28450   4.831   6.951   0.060
 9184SOL    HW128451   4.844   6.875   7.021
 9184SOL    HW228452   4.918   6.998   0.075
 9185SOL     OW28453   4.469   0.985   4.940
 9185SOL    HW128454   4.510   1.038   5.014
 9185SOL    HW228455   4.369   0.988   4.947
 9186SOL     OW28456   5.385   0.202   6.762
 9186SOL    HW128457   5.441   0.168   6.686
 9186SOL    HW228458   5.305   0.249   6.726
 9187SOL     OW28459   3.186   6.148   2.462
 9187SOL    HW128460   3.087   6.137   2.450
 9187SOL    HW228461   3.233   6.067   2.428
 9188SOL     OW28462   2.329   6.278   1.271
 9188SOL    HW128463   2.366   6.185   1.277
 9188SOL    HW228464   2.253   6.279   1.206
 9189SOL     OW28465   5.474   4.788   2.395
 9189SOL    HW128466   5.516   4.700   2.371
 9189SOL    HW228467   5.447   4.836   2.312
 9190SOL     OW28468   1.444   5.184   1.331
 9190SOL    HW128469   1.479   5.211   1.241
 9190SOL    HW228470   1.449   5.262   1.394
 9191SOL     OW28471   0.078   0.553   6.358
 9191SOL    HW128472   0.132   0.547   6.273
 9191SOL    HW228473   0.052   0.461   6.387
 9192SOL     OW28474   0.618   3.723   4.103
 9192SOL    HW128475   0.601   3.625   4.090
 9192SOL    HW228476   0.715   3.738   4.119
 9193SOL     OW28477   2.433   3.364   6.987
 9193SOL    HW128478   2.407   3.323   6.900
 9193SOL    HW228479   2.387   3.452   6.998
 9194SOL     OW28480   3.230   0.181   4.380
 9194SOL    HW128481   3.330   0.189   4.379
 9194SOL    HW228482   3.204   0.085   4.367
 9195SOL     OW28483   1.767   0.915   4.043
 9195SOL    HW128484   1.722   0.935   3.956
 9195SOL    HW228485   1.739   0.983   4.111
 9196SOL     OW28486   5.226   2.224   5.656
 9196SOL    HW128487   5.221   2.125   5.651
 9196SOL    HW228488   5.151   2.259   5.712
 9197SOL     OW28489   2.578   3.544   1.207
 9197SOL    HW128490   2.591   3.445   1.194
 9197SOL    HW228491   2.480   3.564   1.209
 9198SOL     OW28492   0.100   4.789   3.791
 9198SOL    HW128493   0.066   4.708   3.743
 9198SOL    HW228494   0.194   4.807   3.761
 9199SOL     OW28495   5.944   4.342   5.077
 9199SOL    HW128496   5.875   4.372   5.143
 9199SOL    HW228497   5.899   4.324   4.989
 9200SOL     OW28498   3.027   0.664   0.133
 9200SOL    HW128499   3.057   0.569   0.131
 9200SOL    HW228500   3.081   0.715   0.199
 9201SOL     OW28501   1.806   4.436   0.220
 9201SOL    HW128502   1.874   4.363   0.221
 9201SOL    HW228503   1.777   4.457   0.314
 9202SOL     OW28504   2.437   0.847   3.824
 9202SOL    HW128505   2.476   0.931   3.785
 9202SOL    HW228506   2.511   0.784   3.849
 9203SOL     OW28507   6.602   6.751   0.915
 9203SOL    HW128508   6.527   6.737   0.980
 9203SOL    HW228509   6.639   6.663   0.887
 9204SOL     OW28510   5.037   0.418   5.651
 9204SOL    HW128511   5.007   0.451   5.741
 9204SOL    HW228512   4.966   0.362   5.610
 9205SOL     OW28513   0.044   5.164   1.461
 9205SOL    HW128514   6.969   5.151   1.457
 9205SOL    HW228515   0.090   5.080   1.433
 9206SOL     OW28516   3.359   6.314   0.870
 9206SOL    HW128517   3.283   6.366   0.910
 9206SOL    HW228518   3.354   6.319   0.770
 9207SOL     OW28519   5.461   5.661   6.895
 9207SOL    HW128520   5.494   5.672   6.989
 9207SOL    HW228521   5.376   5.713   6.883
 9208SOL     OW28522   1.206   3.648   3.006
 9208SOL    HW128523   1.244   3.603   2.925
 9208SOL    HW228524   1.266   3.723   3.034
 9209SOL     OW28525   3.085   0.240   6.277
 9209SOL    HW128526   3.169   0.196   6.245
 9209SOL    HW228527   3.005   0.193   6.238
 9210SOL     OW28528   6.813   0.465   3.774
 9210SOL    HW128529   6.892   0.405   3.763
 9210SOL    HW228530   6.780   0.459   3.868
 9211SOL     OW28531   0.448   1.550   2.711
 9211SOL    HW128532   0.547   1.566   2.709
 9211SOL    HW228533   0.427   1.462   2.669
 9212SOL     OW28534   3.434   4.892   4.651
 9212SOL    HW128535   3.356   4.922   4.706
 9212SOL    HW228536   3.409   4.809   4.601
 9213SOL     OW28537   6.111   4.331   6.417
 9213SOL    HW128538   6.100   4.256   6.352
 9213SOL    HW228539   6.208   4.340   6.441
 9214SOL     OW28540   0.221   4.861   0.777
 9214SOL    HW128541   0.240   4.768   0.808
 9214SOL    HW228542   0.307   4.906   0.753
 9215SOL     OW28543   1.423   1.332   1.052
 9215SOL    HW128544   1.486   1.281   1.111
 9215SOL    HW228545   1.330   1.296   1.062
 9216SOL     OW28546   2.161   0.053   3.061
 9216SOL    HW128547   2.161   0.062   3.160
 9216SOL    HW228548   2.083   7.021   3.032
 9217SOL     OW28549   0.590   2.761   0.308
 9217SOL    HW128550   0.627   2.733   0.397
 9217SOL    HW228551   0.645   2.837   0.272
 9218SOL     OW28552   2.550   1.191   0.548
 9218SOL    HW128553   2.619   1.199   0.476
 9218SOL    HW228554   2.467   1.239   0.521
 9219SOL     OW28555   0.317   1.313   0.473
 9219SOL    HW128556   0.285   1.329   0.566
 9219SOL    HW228557   0.239   1.290   0.415
 9220SOL     OW28558   3.102   6.296   1.643
 9220SOL    HW128559   3.095   6.202   1.611
 9220SOL    HW228560   3.047   6.356   1.585
 9221SOL     OW28561   2.475   4.950   4.708
 9221SOL    HW128562   2.484   4.990   4.617
 9221SOL    HW228563   2.530   4.867   4.714
 9222SOL     OW28564   2.839   2.091   5.926
 9222SOL    HW128565   2.782   2.164   5.888
 9222SOL    HW228566   2.809   2.003   5.889
 9223SOL     OW28567   2.767   3.094   5.338
 9223SOL    HW128568   2.840   3.098   5.270
 9223SOL    HW228569   2.679   3.091   5.291
 9224SOL     OW28570   2.170   5.023   5.098
 9224SOL    HW128571   2.131   5.018   5.006
 9224SOL    HW228572   2.099   5.003   5.166
 9225SOL     OW28573   2.012   6.862   6.811
 9225SOL    HW128574   2.107   6.887   6.833
 9225SOL    HW228575   1.995   6.880   6.714
 9226SOL     OW28576   3.883   6.477   0.971
 9226SOL    HW128577   3.825   6.510   0.896
 9226SOL    HW228578   3.861   6.381   0.990
 9227SOL     OW28579   1.934   6.510   1.375
 9227SOL    HW128580   1.863   6.553   1.431
 9227SOL    HW228581   1.933   6.550   1.284
 9228SOL     OW28582   0.541   0.491   0.088
 9228SOL    HW128583   0.580   0.431   0.018
 9228SOL    HW228584   0.563   0.586   0.065
 9229SOL     OW28585   0.661   5.927   5.607
 9229SOL    HW128586   0.682   5.830   5.618
 9229SOL    HW228587   0.636   5.966   5.696
 9230SOL     OW28588   5.324   0.806   3.816
 9230SOL    HW128589   5.391   0.750   3.767
 9230SOL    HW228590   5.232   0.782   3.785
 9231SOL     OW28591   1.865   3.360   3.292
 9231SOL    HW128592   1.911   3.407   3.216
 9231SOL    HW228593   1.930   3.299   3.337
 9232SOL     OW28594   4.471   4.761   1.529
 9232SOL    HW128595   4.410   4.718   1.462
 9232SOL    HW228596   4.486   4.856   1.504
 9233SOL     OW28597   4.738   4.520   1.264
 9233SOL    HW128598   4.758   4.539   1.168
 9233SOL    HW228599   4.679   4.440   1.270
 9234SOL     OW28600   2.167   5.942   3.600
 9234SOL    HW128601   2.126   5.869   3.544
 9234SOL    HW228602   2.157   6.030   3.553
 9235SOL     OW28603   0.545   2.389   3.410
 9235SOL    HW128604   0.546   2.478   3.456
 9235SOL    HW228605   0.458   2.343   3.428
 9236SOL     OW28606   3.692   2.734   5.632
 9236SOL    HW128607   3.777   2.754   5.582
 9236SOL    HW228608   3.701   2.646   5.679
 9237SOL     OW28609   1.706   3.493   3.894
 9237SOL    HW128610   1.711   3.479   3.795
 9237SOL    HW228611   1.636   3.434   3.933
 9238SOL     OW28612   4.315   3.416   6.385
 9238SOL    HW128613   4.259   3.496   6.362
 9238SOL    HW228614   4.335   3.364   6.302
 9239SOL     OW28615   1.771   3.979   6.721
 9239SOL    HW128616   1.860   4.020   6.741
 9239SOL    HW228617   1.720   4.038   6.659
 9240SOL     OW28618   5.083   0.902   2.094
 9240SOL    HW128619   5.166   0.922   2.147
 9240SOL    HW228620   5.031   0.987   2.080
 9241SOL     OW28621   0.526   5.706   0.159
 9241SOL    HW128622   0.438   5.744   0.132
 9241SOL    HW228623   0.558   5.642   0.089
 9242SOL     OW28624   6.444   5.850   1.794
 9242SOL    HW128625   6.352   5.888   1.787
 9242SOL    HW228626   6.476   5.825   1.703
 9243SOL     OW28627   6.014   6.241   4.731
 9243SOL    HW128628   5.976   6.161   4.686
 9243SOL    HW228629   5.949   6.317   4.726
 9244SOL     OW28630   3.243   5.534   0.485
 9244SOL    HW128631   3.250   5.494   0.394
 9244SOL    HW228632   3.323   5.590   0.503
 9245SOL     OW28633   0.529   6.187   1.249
 9245SOL    HW128634   0.452   6.249   1.235
 9245SOL    HW228635   0.548   6.178   1.347
 9246SOL     OW28636   6.978   4.810   4.011
 9246SOL    HW128637   6.884   4.823   3.978
 9246SOL    HW228638   0.015   4.796   3.933
 9247SOL     OW28639   1.860   6.832   2.669
 9247SOL    HW128640   1.928   6.905   2.665
 9247SOL    HW228641   1.773   6.869   2.704
 9248SOL     OW28642   3.819   1.907   6.191
 9248SOL    HW128643   3.796   1.909   6.094
 9248SOL    HW228644   3.915   1.883   6.202
 9249SOL     OW28645   4.306   6.671   3.072
 9249SOL    HW128646   4.361   6.747   3.036
 9249SOL    HW228647   4.268   6.618   2.995
 9250SOL     OW28648   5.540   3.672   3.537
 9250SOL    HW128649   5.604   3.746   3.559
 9250SOL    HW228650   5.581   3.584   3.560
 9251SOL     OW28651   4.149   1.839   3.291
 9251SOL    HW128652   4.225   1.855   3.354
 9251SOL    HW228653   4.062   1.859   3.337
 9252SOL     OW28654   1.486   6.720   4.474
 9252SOL    HW128655   1.529   6.662   4.543
 9252SOL    HW228656   1.551   6.790   4.444
 9253SOL     OW28657   1.317   6.935   5.503
 9253SOL    HW128658   1.337   0.008   5.486
 9253SOL    HW228659   1.299   6.922   5.601
 9254SOL     OW28660   5.517   3.270   1.701
 9254SOL    HW128661   5.436   3.298   1.651
 9254SOL    HW228662   5.521   3.170   1.705
 9255SOL     OW28663   0.160   4.687   0.441
 9255SOL    HW128664   0.256   4.712   0.454
 9255SOL    HW228665   0.114   4.760   0.390
 9256SOL     OW28666   4.137   4.947   1.912
 9256SOL    HW128667   4.209   4.901   1.859
 9256SOL    HW228668   4.073   4.992   1.849
 9257SOL     OW28669   0.611   3.513   0.894
 9257SOL    HW128670   0.567   3.425   0.874
 9257SOL    HW228671   0.594   3.537   0.990
 9258SOL     OW28672   4.146   3.487   3.884
 9258SOL    HW128673   4.121   3.433   3.965
 9258SOL    HW228674   4.226   3.543   3.904
 9259SOL     OW28675   1.189   2.507   0.424
 9259SOL    HW128676   1.125   2.438   0.391
 9259SOL    HW228677   1.198   2.499   0.523
 9260SOL     OW28678   6.118   3.811   0.256
 9260SOL    HW128679   6.121   3.906   0.224
 9260SOL    HW228680   6.135   3.809   0.355
 9261SOL     OW28681   4.358   0.059   6.937
 9261SOL    HW128682   4.302   0.117   6.878
 9261SOL    HW228683   4.409   0.116   7.001
 9262SOL     OW28684   4.991   0.729   5.473
 9262SOL    HW128685   5.004   0.744   5.571
 9262SOL    HW228686   4.909   0.778   5.443
 9263SOL     OW28687   5.615   3.782   2.241
 9263SOL    HW128688   5.529   3.733   2.251
 9263SOL    HW228689   5.687   3.719   2.211
 9264SOL     OW28690   6.136   2.620   0.217
 9264SOL    HW128691   6.215   2.675   0.188
 9264SOL    HW228692   6.157   2.574   0.303
 9265SOL     OW28693   1.850   1.455   5.196
 9265SOL    HW128694   1.820   1.453   5.100
 9265SOL    HW228695   1.895   1.542   5.215
 9266SOL     OW28696   2.208   6.044   2.292
 9266SOL    HW128697   2.187   6.100   2.372
 9266SOL    HW228698   2.139   5.971   2.283
 9267SOL     OW28699   2.652   5.183   5.552
 9267SOL    HW128700   2.663   5.210   5.457
 9267SOL    HW228701   2.700   5.097   5.569
 9268SOL     OW28702   0.740   1.180   2.669
 9268SOL    HW128703   0.665   1.156   2.730
 9268SOL    HW228704   0.703   1.213   2.582
 9269SOL     OW28705   4.191   1.779   5.720
 9269SOL    HW128706   4.246   1.793   5.638
 9269SOL    HW228707   4.246   1.800   5.801
 9270SOL     OW28708   1.217   6.852   5.747
 9270SOL    HW128709   1.282   6.861   5.823
 9270SOL    HW228710   1.132   6.898   5.771
 9271SOL     OW28711   1.138   5.048   6.997
 9271SOL    HW128712   1.048   5.091   6.993
 9271SOL    HW228713   1.133   4.957   6.957
 9272SOL     OW28714   2.898   5.193   6.411
 9272SOL    HW128715   2.878   5.133   6.334
 9272SOL    HW228716   2.988   5.169   6.448
 9273SOL     OW28717   3.884   6.401   5.343
 9273SOL    HW128718   3.819   6.364   5.277
 9273SOL    HW228719   3.880   6.347   5.427
 9274SOL     OW28720   6.069   2.363   1.174
 9274SOL    HW128721   6.001   2.315   1.230
 9274SOL    HW228722   6.150   2.306   1.164
 9275SOL     OW28723   0.584   0.767   6.413
 9275SOL    HW128724   0.636   0.694   6.457
 9275SOL    HW228725   0.584   0.753   6.314
 9276SOL     OW28726   5.025   6.179   4.468
 9276SOL    HW128727   5.124   6.189   4.461
 9276SOL    HW228728   4.989   6.244   4.535
 9277SOL     OW28729   3.643   2.666   0.554
 9277SOL    HW128730   3.589   2.652   0.637
 9277SOL    HW228731   3.718   2.599   0.551
 9278SOL     OW28732   1.431   2.265   1.546
 9278SOL    HW128733   1.452   2.339   1.483
 9278SOL    HW228734   1.455   2.292   1.639
 9279SOL     OW28735   3.356   0.139   1.233
 9279SOL    HW128736   3.320   0.136   1.326
 9279SOL    HW228737   3.282   0.165   1.170
 9280SOL     OW28738   2.135   0.661   2.831
 9280SOL    HW128739   2.121   0.609   2.915
 9280SOL    HW228740   2.064   0.637   2.765
 9281SOL     OW28741   1.915   2.660   0.876
 9281SOL    HW128742   1.850   2.612   0.817
 9281SOL    HW228743   1.914   2.757   0.854
 9282SOL     OW28744   4.498   2.139   6.227
 9282SOL    HW128745   4.522   2.094   6.313
 9282SOL    HW228746   4.578   2.188   6.193
 9283SOL     OW28747   5.847   2.135   2.735
 9283SOL    HW128748   5.848   2.235   2.738
 9283SOL    HW228749   5.776   2.104   2.671
 9284SOL     OW28750   3.260   3.445   2.350
 9284SOL    HW128751   3.250   3.394   2.264
 9284SOL    HW228752   3.343   3.501   2.346
 9285SOL     OW28753   5.832   2.376   6.485
 9285SOL    HW128754   5.869   2.468   6.471
 9285SOL    HW228755   5.738   2.373   6.451
 9286SOL     OW28756   5.444   5.863   5.054
 9286SOL    HW128757   5.423   5.840   5.148
 9286SOL    HW228758   5.417   5.958   5.035
 9287SOL     OW28759   3.310   6.612   1.945
 9287SOL    HW128760   3.330   6.697   1.993
 9287SOL    HW228761   3.338   6.534   2.000
 9288SOL     OW28762   4.574   2.397   5.881
 9288SOL    HW128763   4.563   2.303   5.850
 9288SOL    HW228764   4.494   2.451   5.855
 9289SOL     OW28765   5.057   3.461   2.628
 9289SOL    HW128766   5.077   3.466   2.726
 9289SOL    HW228767   5.139   3.486   2.576
 9290SOL     OW28768   4.328   2.033   4.781
 9290SOL    HW128769   4.373   2.052   4.694
 9290SOL    HW228770   4.234   2.005   4.764
 9291SOL     OW28771   0.642   1.971   4.561
 9291SOL    HW128772   0.653   1.969   4.661
 9291SOL    HW228773   0.568   2.034   4.538
 9292SOL     OW28774   6.646   3.493   6.976
 9292SOL    HW128775   6.636   3.586   7.012
 9292SOL    HW228776   6.738   3.481   6.939
 9293SOL     OW28777   6.187   3.740   6.607
 9293SOL    HW128778   6.089   3.738   6.586
 9293SOL    HW228779   6.230   3.656   6.574
 9294SOL     OW28780   5.123   6.061   6.789
 9294SOL    HW128781   5.168   6.144   6.821
 9294SOL    HW228782   5.121   5.994   6.863
 9295SOL     OW28783   4.609   1.938   3.767
 9295SOL    HW128784   4.544   1.880   3.816
 9295SOL    HW228785   4.644   1.889   3.687
 9296SOL     OW28786   6.613   6.546   5.573
 9296SOL    HW128787   6.679   6.512   5.641
 9296SOL    HW228788   6.619   6.491   5.490
 9297SOL     OW28789   0.638   0.750   1.196
 9297SOL    HW128790   0.580   0.693   1.255
 9297SOL    HW228791   0.581   0.798   1.130
 9298SOL     OW28792   0.540   6.468   5.031
 9298SOL    HW128793   0.477   6.401   5.069
 9298SOL    HW228794   0.570   6.439   4.940
 9299SOL     OW28795   2.016   2.896   4.289
 9299SOL    HW128796   1.979   2.989   4.294
 9299SOL    HW228797   1.958   2.834   4.341
 9300SOL     OW28798   5.759   4.279   3.946
 9300SOL    HW128799   5.754   4.343   4.023
 9300SOL    HW228800   5.677   4.223   3.944
 9301SOL     OW28801   6.210   3.821   2.512
 9301SOL    HW128802   6.236   3.917   2.520
 9301SOL    HW228803   6.111   3.812   2.524
 9302SOL     OW28804   2.440   2.030   2.679
 9302SOL    HW128805   2.526   2.078   2.695
 9302SOL    HW228806   2.413   2.040   2.583
 9303SOL     OW28807   3.578   4.522   1.118
 9303SOL    HW128808   3.558   4.425   1.105
 9303SOL    HW228809   3.586   4.542   1.215
 9304SOL     OW28810   4.059   3.507   0.432
 9304SOL    HW128811   4.151   3.478   0.403
 9304SOL    HW228812   4.027   3.579   0.371
 9305SOL     OW28813   4.910   3.141   2.423
 9305SOL    HW128814   4.938   3.207   2.354
 9305SOL    HW228815   4.894   3.188   2.510
 9306SOL     OW28816   6.527   4.441   3.802
 9306SOL    HW128817   6.485   4.382   3.733
 9306SOL    HW228818   6.469   4.522   3.815
 9307SOL     OW28819   2.302   1.043   6.196
 9307SOL    HW128820   2.376   1.107   6.217
 9307SOL    HW228821   2.323   0.953   6.233
 9308SOL     OW28822   6.459   2.542   0.526
 9308SOL    HW128823   6.554   2.533   0.496
 9308SOL    HW228824   6.417   2.451   0.528
 9309SOL     OW28825   4.666   3.407   6.892
 9309SOL    HW128826   4.594   3.451   6.837
 9309SOL    HW228827   4.675   3.311   6.863
 9310SOL     OW28828   3.655   6.149   1.196
 9310SOL    HW128829   3.595   6.211   1.145
 9310SOL    HW228830   3.739   6.134   1.145
 9311SOL     OW28831   6.446   3.220   1.578
 9311SOL    HW128832   6.506   3.270   1.642
 9311SOL    HW228833   6.484   3.129   1.562
 9312SOL     OW28834   1.251   4.744   5.333
 9312SOL    HW128835   1.323   4.761   5.266
 9312SOL    HW228836   1.275   4.664   5.388
 9313SOL     OW28837   6.282   6.518   2.207
 9313SOL    HW128838   6.276   6.527   2.108
 9313SOL    HW228839   6.360   6.570   2.240
 9314SOL     OW28840   5.533   4.931   0.245
 9314SOL    HW128841   5.511   4.833   0.251
 9314SOL    HW228842   5.627   4.945   0.277
 9315SOL     OW28843   7.017   6.602   6.522
 9315SOL    HW128844   0.011   6.619   6.619
 9315SOL    HW228845   0.080   6.595   6.473
 9316SOL     OW28846   3.885   6.006   4.558
 9316SOL    HW128847   3.882   6.093   4.509
 9316SOL    HW228848   3.963   6.005   4.620
 9317SOL     OW28849   5.418   4.450   4.967
 9317SOL    HW128850   5.416   4.538   4.919
 9317SOL    HW228851   5.369   4.458   5.054
 9318SOL     OW28852   6.235   6.597   6.427
 9318SOL    HW128853   6.232   6.697   6.418
 9318SOL    HW228854   6.329   6.565   6.417
 9319SOL     OW28855   6.782   2.890   4.826
 9319SOL    HW128856   6.828   2.854   4.908
 9319SOL    HW228857   6.707   2.950   4.854
 9320SOL     OW28858   4.034   2.780   6.377
 9320SOL    HW128859   4.002   2.688   6.398
 9320SOL    HW228860   4.049   2.788   6.279
 9321SOL     OW28861   6.208   6.205   3.197
 9321SOL    HW128862   6.291   6.211   3.142
 9321SOL    HW228863   6.167   6.114   3.185
 9322SOL     OW28864   0.733   6.436   6.908
 9322SOL    HW128865   0.691   6.385   6.982
 9322SOL    HW228866   0.828   6.406   6.896
 9323SOL     OW28867   0.250   1.667   6.130
 9323SOL    HW128868   0.161   1.664   6.083
 9323SOL    HW228869   0.304   1.742   6.093
 9324SOL     OW28870   1.452   5.482   6.687
 9324SOL    HW128871   1.494   5.455   6.600
 9324SOL    HW228872   1.396   5.564   6.672
 9325SOL     OW28873   0.387   3.145   0.385
 9325SOL    HW128874   0.349   3.234   0.409
 9325SOL    HW228875   0.381   3.083   0.464
 9326SOL     OW28876   2.002   5.516   1.028
 9326SOL    HW128877   1.979   5.611   1.052
 9326SOL    HW228878   1.999   5.459   1.110
 9327SOL     OW28879   3.956   1.114   3.569
 9327SOL    HW128880   3.885   1.108   3.639
 9327SOL    HW228881   4.003   1.026   3.562
 9328SOL     OW28882   4.093   0.853   2.146
 9328SOL    HW128883   4.045   0.808   2.221
 9328SOL    HW228884   4.037   0.851   2.064
 9329SOL     OW28885   1.315   4.168   1.795
 9329SOL    HW128886   1.295   4.089   1.737
 9329SOL    HW228887   1.330   4.248   1.738
 9330SOL     OW28888   5.215   6.913   6.715
 9330SOL    HW128889   5.274   6.937   6.638
 9330SOL    HW228890   5.232   6.818   6.742
 9331SOL     OW28891   0.493   1.676   0.075
 9331SOL    HW128892   0.583   1.659   0.115
 9331SOL    HW228893   0.503   1.691   7.000
 9332SOL     OW28894   3.270   4.109   4.590
 9332SOL    HW128895   3.214   4.189   4.571
 9332SOL    HW228896   3.255   4.080   4.685
 9333SOL     OW28897   5.819   5.367   1.077
 9333SOL    HW128898   5.870   5.318   1.148
 9333SOL    HW228899   5.721   5.354   1.090
 9334SOL     OW28900   2.771   0.223   4.646
 9334SOL    HW128901   2.713   0.305   4.643
 9334SOL    HW228902   2.830   0.222   4.565
 9335SOL     OW28903   0.677   1.000   1.469
 9335SOL    HW128904   0.670   0.948   1.554
 9335SOL    HW228905   0.590   1.046   1.451
 9336SOL     OW28906   3.233   0.025   5.543
 9336SOL    HW128907   3.291   6.979   5.500
 9336SOL    HW228908   3.202   7.017   5.632
 9337SOL     OW28909   4.873   6.867   3.068
 9337SOL    HW128910   4.803   6.901   3.132
 9337SOL    HW228911   4.842   6.881   2.974
 9338SOL     OW28912   3.964   0.018   1.759
 9338SOL    HW128913   3.886   0.061   1.805
 9338SOL    HW228914   4.003   0.082   1.694
 9339SOL     OW28915   3.834   5.861   0.835
 9339SOL    HW128916   3.915   5.896   0.881
 9339SOL    HW228917   3.775   5.816   0.902
 9340SOL     OW28918   5.655   3.382   0.677
 9340SOL    HW128919   5.597   3.370   0.757
 9340SOL    HW228920   5.599   3.397   0.596
 9341SOL     OW28921   6.737   5.113   5.720
 9341SOL    HW128922   6.700   5.148   5.806
 9341SOL    HW228923   6.666   5.115   5.649
 9342SOL     OW28924   0.889   6.655   6.401
 9342SOL    HW128925   0.904   6.748   6.366
 9342SOL    HW228926   0.902   6.655   6.500
 9343SOL     OW28927   6.521   5.815   4.235
 9343SOL    HW128928   6.501   5.770   4.322
 9343SOL    HW228929   6.461   5.778   4.164
 9344SOL     OW28930   4.205   6.177   1.007
 9344SOL    HW128931   4.239   6.211   1.094
 9344SOL    HW228932   4.221   6.246   0.935
 9345SOL     OW28933   0.032   2.802   0.515
 9345SOL    HW128934   7.007   2.885   0.542
 9345SOL    HW228935   7.010   2.760   0.438
 9346SOL     OW28936   6.040   6.781   0.855
 9346SOL    HW128937   5.950   6.738   0.863
 9346SOL    HW228938   6.029   6.878   0.831
 9347SOL     OW28939   1.202   6.632   1.741
 9347SOL    HW128940   1.283   6.617   1.798
 9347SOL    HW228941   1.124   6.582   1.779
 9348SOL     OW28942   2.604   4.904   0.268
 9348SOL    HW128943   2.532   4.849   0.312
 9348SOL    HW228944   2.601   4.997   0.303
 9349SOL     OW28945   1.861   5.896   2.523
 9349SOL    HW128946   1.941   5.837   2.536
 9349SOL    HW228947   1.864   5.972   2.588
 9350SOL     OW28948   0.169   2.818   5.678
 9350SOL    HW128949   0.094   2.884   5.676
 9350SOL    HW228950   0.229   2.832   5.599
 9351SOL     OW28951   2.639   1.278   6.757
 9351SOL    HW128952   2.688   1.344   6.815
 9351SOL    HW228953   2.593   1.327   6.683
 9352SOL     OW28954   2.164   4.904   5.446
 9352SOL    HW128955   2.086   4.855   5.406
 9352SOL    HW228956   2.137   4.943   5.534
 9353SOL     OW28957   6.050   1.040   0.675
 9353SOL    HW128958   6.090   0.953   0.701
 9353SOL    HW228959   6.071   1.109   0.745
 9354SOL     OW28960   1.018   1.833   6.155
 9354SOL    HW128961   1.054   1.906   6.213
 9354SOL    HW228962   1.016   1.864   6.059
 9355SOL     OW28963   0.593   1.689   4.954
 9355SOL    HW128964   0.600   1.604   5.006
 9355SOL    HW228965   0.549   1.759   5.010
 9356SOL     OW28966   5.326   6.932   3.759
 9356SOL    HW128967   5.406   6.924   3.700
 9356SOL    HW228968   5.311   6.845   3.806
 9357SOL     OW28969   1.133   1.514   0.261
 9357SOL    HW128970   1.182   1.598   0.283
 9357SOL    HW228971   1.061   1.533   0.194
 9358SOL     OW28972   1.143   2.535   1.582
 9358SOL    HW128973   1.162   2.597   1.505
 9358SOL    HW228974   1.208   2.553   1.656
 9359SOL     OW28975   0.918   6.763   5.349
 9359SOL    HW128976   1.001   6.817   5.331
 9359SOL    HW228977   0.925   6.721   5.440
 9360SOL     OW28978   0.665   0.274   6.057
 9360SOL    HW128979   0.585   0.298   6.002
 9360SOL    HW228980   0.742   0.252   5.997
 9361SOL     OW28981   2.181   5.593   4.204
 9361SOL    HW128982   2.154   5.609   4.109
 9361SOL    HW228983   2.280   5.600   4.213
 9362SOL     OW28984   2.412   0.656   2.220
 9362SOL    HW128985   2.501   0.649   2.176
 9362SOL    HW228986   2.360   0.731   2.179
 9363SOL     OW28987   1.921   4.694   2.719
 9363SOL    HW128988   1.985   4.635   2.767
 9363SOL    HW228989   1.835   4.645   2.703
 9364SOL     OW28990   0.686   2.653   0.544
 9364SOL    HW128991   0.595   2.610   0.547
 9364SOL    HW228992   0.736   2.633   0.628
 9365SOL     OW28993   3.033   0.908   4.836
 9365SOL    HW128994   2.998   0.814   4.827
 9365SOL    HW228995   2.965   0.965   4.880
 9366SOL     OW28996   4.143   6.253   2.546
 9366SOL    HW128997   4.133   6.317   2.623
 9366SOL    HW228998   4.105   6.296   2.463
 9367SOL     OW28999   6.348   1.196   1.138
 9367SOL    HW129000   6.300   1.120   1.095
 9367SOL    HW229001   6.363   1.269   1.072
 9368SOL     OW29002   2.826   0.411   2.893
 9368SOL    HW129003   2.837   0.354   2.974
 9368SOL    HW229004   2.728   0.418   2.871
 9369SOL     OW29005   3.611   5.260   0.275
 9369SOL    HW129006   3.663   5.270   0.190
 9369SOL    HW229007   3.674   5.243   0.351
 9370SOL     OW29008   4.318   1.991   5.066
 9370SOL    HW129009   4.366   1.911   5.100
 9370SOL    HW229010   4.319   1.991   4.966
 9371SOL     OW29011   4.139   4.731   0.770
 9371SOL    HW129012   4.079   4.794   0.820
 9371SOL    HW229013   4.233   4.765   0.771
 9372SOL     OW29014   4.294   5.491   1.461
 9372SOL    HW129015   4.199   5.460   1.457
 9372SOL    HW229016   4.308   5.564   1.394
 9373SOL     OW29017   6.722   3.087   0.923
 9373SOL    HW129018   6.788   3.116   0.992
 9373SOL    HW229019   6.701   2.990   0.936
 9374SOL     OW29020   0.188   5.312   6.081
 9374SOL    HW129021   0.132   5.339   6.003
 9374SOL    HW229022   0.193   5.213   6.086
 9375SOL     OW29023   1.262   1.068   0.081
 9375SOL    HW129024   1.254   1.003   0.007
 9375SOL    HW229025   1.319   1.029   0.154
 9376SOL     OW29026   2.376   3.882   0.889
 9376SOL    HW129027   2.282   3.914   0.883
 9376SOL    HW229028   2.431   3.948   0.939
 9377SOL     OW29029   2.039   0.630   3.186
 9377SOL    HW129030   1.992   0.544   3.204
 9377SOL    HW229031   2.126   0.611   3.140
 9378SOL     OW29032   3.756   0.954   4.903
 9378SOL    HW129033   3.768   0.856   4.917
 9378SOL    HW229034   3.822   0.986   4.835
 9379SOL     OW29035   4.225   0.239   4.607
 9379SOL    HW129036   4.133   0.215   4.636
 9379SOL    HW229037   4.250   0.186   4.526
 9380SOL     OW29038   5.132   5.295   0.455
 9380SOL    HW129039   5.081   5.214   0.483
 9380SOL    HW229040   5.150   5.292   0.357
 9381SOL     OW29041   5.473   0.738   5.397
 9381SOL    HW129042   5.470   0.640   5.419
 9381SOL    HW229043   5.402   0.786   5.447
 9382SOL     OW29044   3.266   5.475   6.075
 9382SOL    HW129045   3.330   5.488   5.999
 9382SOL    HW229046   3.318   5.467   6.161
 9383SOL     OW29047   5.378   4.167   2.496
 9383SOL    HW129048   5.301   4.122   2.449
 9383SOL    HW229049   5.420   4.103   2.560
 9384SOL     OW29050   3.761   0.040   1.435
 9384SOL    HW129051   3.690   0.072   1.499
 9384SOL    HW229052   3.749   0.085   1.347
 9385SOL     OW29053   4.095   1.767   4.612
 9385SOL    HW129054   4.113   1.685   4.665
 9385SOL    HW229055   4.057   1.838   4.671
 9386SOL     OW29056   5.181   6.326   1.352
 9386SOL    HW129057   5.279   6.341   1.364
 9386SOL    HW229058   5.152   6.362   1.264
 9387SOL     OW29059   2.249   1.862   6.627
 9387SOL    HW129060   2.212   1.862   6.534
 9387SOL    HW229061   2.288   1.773   6.648
 9388SOL     OW29062   2.385   0.125   5.021
 9388SOL    HW129063   2.308   0.142   4.959
 9388SOL    HW229064   2.454   0.196   5.009
 9389SOL     OW29065   1.796   3.963   1.671
 9389SOL    HW129066   1.872   3.999   1.724
 9389SOL    HW229067   1.822   3.874   1.632
 9390SOL     OW29068   4.934   4.351   4.167
 9390SOL    HW129069   4.863   4.392   4.110
 9390SOL    HW229070   4.939   4.399   4.255
 9391SOL     OW29071   1.407   4.021   4.635
 9391SOL    HW129072   1.450   4.000   4.722
 9391SOL    HW229073   1.354   3.942   4.603
 9392SOL     OW29074   5.011   4.610   2.723
 9392SOL    HW129075   5.006   4.511   2.716
 9392SOL    HW229076   5.096   4.642   2.681
 9393SOL     OW29077   1.503   5.959   6.152
 9393SOL    HW129078   1.516   5.914   6.240
 9393SOL    HW229079   1.542   5.902   6.079
 9394SOL     OW29080   4.223   0.449   0.491
 9394SOL    HW129081   4.245   0.546   0.478
 9394SOL    HW229082   4.305   0.394   0.475
 9395SOL     OW29083   1.650   1.326   1.309
 9395SOL    HW129084   1.596   1.408   1.291
 9395SOL    HW229085   1.743   1.339   1.274
 9396SOL     OW29086   0.791   1.185   6.064
 9396SOL    HW129087   0.838   1.244   6.130
 9396SOL    HW229088   0.841   1.099   6.055
 9397SOL     OW29089   3.682   1.293   4.684
 9397SOL    HW129090   3.719   1.323   4.772
 9397SOL    HW229091   3.751   1.240   4.635
 9398SOL     OW29092   0.487   2.112   0.557
 9398SOL    HW129093   0.403   2.105   0.612
 9398SOL    HW229094   0.512   2.022   0.523
 9399SOL     OW29095   0.894   2.281   4.165
 9399SOL    HW129096   0.851   2.192   4.181
 9399SOL    HW229097   0.823   2.347   4.139
 9400SOL     OW29098   5.448   2.058   1.050
 9400SOL    HW129099   5.440   1.995   1.127
 9400SOL    HW229100   5.439   2.007   0.964
 9401SOL     OW29101   0.078   2.455   3.526
 9401SOL    HW129102   7.011   2.443   3.485
 9401SOL    HW229103   0.120   2.539   3.490
 9402SOL     OW29104   2.599   6.525   4.399
 9402SOL    HW129105   2.620   6.616   4.364
 9402SOL    HW229106   2.531   6.533   4.472
 9403SOL     OW29107   5.371   2.293   1.151
 9403SOL    HW129108   5.398   2.207   1.108
 9403SOL    HW229109   5.452   2.351   1.164
 9404SOL     OW29110   2.221   2.944   1.179
 9404SOL    HW129111   2.156   2.875   1.211
 9404SOL    HW229112   2.244   2.927   1.083
 9405SOL     OW29113   6.409   6.107   5.367
 9405SOL    HW129114   6.476   6.032   5.370
 9405SOL    HW229115   6.353   6.099   5.285
 9406SOL     OW29116   1.711   2.017   0.383
 9406SOL    HW129117   1.654   2.083   0.431
 9406SOL    HW229118   1.759   1.959   0.449
 9407SOL     OW29119   1.473   4.515   4.590
 9407SOL    HW129120   1.383   4.517   4.634
 9407SOL    HW229121   1.469   4.457   4.509
 9408SOL     OW29122   5.833   4.631   4.051
 9408SOL    HW129123   5.804   4.552   4.105
 9408SOL    HW229124   5.909   4.677   4.096
 9409SOL     OW29125   5.925   5.139   1.790
 9409SOL    HW129126   5.957   5.232   1.772
 9409SOL    HW229127   5.826   5.140   1.806
 9410SOL     OW29128   4.062   0.575   0.859
 9410SOL    HW129129   4.082   0.569   0.957
 9410SOL    HW229130   4.055   0.483   0.821
 9411SOL     OW29131   3.296   4.128   3.336
 9411SOL    HW129132   3.265   4.144   3.430
 9411SOL    HW229133   3.396   4.126   3.334
 9412SOL     OW29134   4.835   6.562   1.532
 9412SOL    HW129135   4.867   6.605   1.447
 9412SOL    HW229136   4.770   6.623   1.577
 9413SOL     OW29137   4.583   4.369   2.877
 9413SOL    HW129138   4.614   4.426   2.801
 9413SOL    HW229139   4.485   4.352   2.868
 9414SOL     OW29140   2.588   2.119   2.370
 9414SOL    HW129141   2.507   2.174   2.348
 9414SOL    HW229142   2.670   2.171   2.349
 9415SOL     OW29143   5.618   0.259   1.536
 9415SOL    HW129144   5.535   0.307   1.508
 9415SOL    HW229145   5.595   0.170   1.575
 9416SOL     OW29146   5.963   5.476   5.261
 9416SOL    HW129147   5.991   5.478   5.165
 9416SOL    HW229148   5.977   5.566   5.302
 9417SOL     OW29149   3.436   5.668   2.409
 9417SOL    HW129150   3.511   5.727   2.442
 9417SOL    HW229151   3.423   5.592   2.472
 9418SOL     OW29152   2.885   1.960   5.062
 9418SOL    HW129153   2.848   1.923   4.977
 9418SOL    HW229154   2.956   1.899   5.097
 9419SOL     OW29155   2.250   2.582   6.980
 9419SOL    HW129156   2.246   2.542   6.888
 9419SOL    HW229157   2.332   2.550   0.002
 9420SOL     OW29158   5.623   3.798   5.510
 9420SOL    HW129159   5.713   3.840   5.518
 9420SOL    HW229160   5.618   3.717   5.567
 9421SOL     OW29161   3.735   6.145   6.664
 9421SOL    HW129162   3.780   6.110   6.746
 9421SOL    HW229163   3.681   6.226   6.687
 9422SOL     OW29164   2.355   6.403   5.602
 9422SOL    HW129165   2.353   6.347   5.519
 9422SOL    HW229166   2.310   6.491   5.584
 9423SOL     OW29167   4.067   5.208   1.764
 9423SOL    HW129168   4.063   5.180   1.668
 9423SOL    HW229169   4.122   5.291   1.773
 9424SOL     OW29170   0.058   0.277   4.387
 9424SOL    HW129171   0.097   0.186   4.393
 9424SOL    HW229172   0.006   0.296   4.471
 9425SOL     OW29173   6.528   4.114   0.834
 9425SOL    HW129174   6.557   4.146   0.924
 9425SOL    HW229175   6.601   4.128   0.768
 9426SOL     OW29176   4.373   2.891   6.642
 9426SOL    HW129177   4.471   2.882   6.625
 9426SOL    HW229178   4.325   2.809   6.609
 9427SOL     OW29179   4.210   4.748   2.197
 9427SOL    HW129180   4.201   4.688   2.117
 9427SOL    HW229181   4.299   4.732   2.241
 9428SOL     OW29182   1.068   5.976   5.910
 9428SOL    HW129183   1.014   5.981   5.826
 9428SOL    HW229184   1.057   5.886   5.953
 9429SOL     OW29185   3.049   2.192   4.214
 9429SOL    HW129186   3.086   2.179   4.306
 9429SOL    HW229187   3.120   2.175   4.146
 9430SOL     OW29188   1.954   0.549   4.332
 9430SOL    HW129189   1.917   0.578   4.244
 9430SOL    HW229190   2.023   0.614   4.363
 9431SOL     OW29191   1.059   3.969   5.339
 9431SOL    HW129192   1.109   4.002   5.419
 9431SOL    HW229193   1.053   4.042   5.271
 9432SOL     OW29194   6.951   1.336   3.873
 9432SOL    HW129195   6.960   1.237   3.859
 9432SOL    HW229196   6.921   1.354   3.967
 9433SOL     OW29197   4.347   5.660   2.017
 9433SOL    HW129198   4.301   5.581   2.058
 9433SOL    HW229199   4.418   5.628   1.953
 9434SOL     OW29200   4.239   5.715   4.369
 9434SOL    HW129201   4.227   5.616   4.372
 9434SOL    HW229202   4.174   5.755   4.305
 9435SOL     OW29203   6.076   4.044   0.936
 9435SOL    HW129204   5.979   4.040   0.910
 9435SOL    HW229205   6.122   4.113   0.881
 9436SOL     OW29206   3.134   0.844   3.064
 9436SOL    HW129207   3.051   0.792   3.085
 9436SOL    HW229208   3.209   0.782   3.042
 9437SOL     OW29209   5.379   0.539   4.507
 9437SOL    HW129210   5.451   0.594   4.549
 9437SOL    HW229211   5.340   0.478   4.577
 9438SOL     OW29212   5.027   0.554   2.882
 9438SOL    HW129213   5.096   0.592   2.820
 9438SOL    HW229214   5.058   0.566   2.977
 9439SOL     OW29215   1.958   4.250   1.154
 9439SOL    HW129216   1.947   4.174   1.218
 9439SOL    HW229217   1.892   4.242   1.080
 9440SOL     OW29218   1.583   5.734   4.285
 9440SOL    HW129219   1.647   5.661   4.311
 9440SOL    HW229220   1.550   5.780   4.367
 9441SOL     OW29221   0.465   6.451   4.487
 9441SOL    HW129222   0.538   6.495   4.434
 9441SOL    HW229223   0.377   6.471   4.444
 9442SOL     OW29224   5.664   3.053   1.071
 9442SOL    HW129225   5.753   3.027   1.033
 9442SOL    HW229226   5.674   3.138   1.122
 9443SOL     OW29227   2.567   4.174   1.688
 9443SOL    HW129228   2.526   4.236   1.754
 9443SOL    HW229229   2.500   4.150   1.618
 9444SOL     OW29230   1.818   5.595   6.359
 9444SOL    HW129231   1.878   5.674   6.371
 9444SOL    HW229232   1.837   5.528   6.431
 9445SOL     OW29233   0.321   0.990   4.032
 9445SOL    HW129234   0.234   0.968   4.076
 9445SOL    HW229235   0.397   0.968   4.093
 9446SOL     OW29236   6.370   4.355   4.229
 9446SOL    HW129237   6.430   4.362   4.150
 9446SOL    HW229238   6.421   4.377   4.312
 9447SOL     OW29239   5.194   5.110   2.139
 9447SOL    HW129240   5.237   5.197   2.163
 9447SOL    HW229241   5.259   5.035   2.151
 9448SOL     OW29242   5.194   1.847   6.589
 9448SOL    HW129243   5.120   1.797   6.543
 9448SOL    HW229244   5.280   1.834   6.538
 9449SOL     OW29245   4.810   0.116   1.898
 9449SOL    HW129246   4.824   0.024   1.860
 9449SOL    HW229247   4.860   0.124   1.984
 9450SOL     OW29248   1.146   0.072   3.062
 9450SOL    HW129249   1.099   0.123   2.989
 9450SOL    HW229250   1.091   0.076   3.146
 9451SOL     OW29251   3.770   4.636   0.395
 9451SOL    HW129252   3.781   4.566   0.324
 9451SOL    HW229253   3.724   4.596   0.474
 9452SOL     OW29254   5.846   4.092   5.948
 9452SOL    HW129255   5.926   4.086   5.889
 9452SOL    HW229256   5.763   4.092   5.891
 9453SOL     OW29257   5.919   4.437   2.130
 9453SOL    HW129258   5.887   4.528   2.105
 9453SOL    HW229259   5.874   4.369   2.072
 9454SOL     OW29260   5.849   5.058   1.074
 9454SOL    HW129261   5.811   5.056   0.982
 9454SOL    HW229262   5.775   5.063   1.141
 9455SOL     OW29263   4.507   0.653   1.263
 9455SOL    HW129264   4.490   0.590   1.188
 9455SOL    HW229265   4.486   0.747   1.234
 9456SOL     OW29266   6.680   2.319   2.928
 9456SOL    HW129267   6.653   2.237   2.978
 9456SOL    HW229268   6.774   2.344   2.951
 9457SOL     OW29269   6.586   6.003   3.924
 9457SOL    HW129270   6.565   5.910   3.954
 9457SOL    HW229271   6.502   6.052   3.905
 9458SOL     OW29272   5.903   4.067   0.405
 9458SOL    HW129273   5.988   4.043   0.453
 9458SOL    HW229274   5.889   4.005   0.328
 9459SOL     OW29275   4.682   4.229   4.909
 9459SOL    HW129276   4.683   4.146   4.854
 9459SOL    HW229277   4.661   4.308   4.850
 9460SOL     OW29278   1.803   2.666   2.225
 9460SOL    HW129279   1.758   2.716   2.151
 9460SOL    HW229280   1.876   2.609   2.186
 9461SOL     OW29281   2.137   1.687   2.097
 9461SOL    HW129282   2.160   1.764   2.038
 9461SOL    HW229283   2.080   1.622   2.047
 9462SOL     OW29284   6.682   1.684   5.664
 9462SOL    HW129285   6.671   1.599   5.613
 9462SOL    HW229286   6.777   1.696   5.690
 9463SOL     OW29287   6.449   4.651   0.720
 9463SOL    HW129288   6.402   4.704   0.650
 9463SOL    HW229289   6.396   4.569   0.741
 9464SOL     OW29290   1.058   0.515   1.581
 9464SOL    HW129291   1.121   0.575   1.532
 9464SOL    HW229292   1.064   0.423   1.544
 9465SOL     OW29293   6.421   5.781   0.334
 9465SOL    HW129294   6.410   5.689   0.296
 9465SOL    HW229295   6.518   5.801   0.344
 9466SOL     OW29296   4.457   3.759   5.397
 9466SOL    HW129297   4.420   3.683   5.344
 9466SOL    HW229298   4.384   3.821   5.424
 9467SOL     OW29299   1.183   3.981   0.727
 9467SOL    HW129300   1.172   4.077   0.702
 9467SOL    HW229301   1.095   3.945   0.757
 9468SOL     OW29302   6.088   1.540   1.224
 9468SOL    HW129303   6.162   1.481   1.257
 9468SOL    HW229304   6.124   1.630   1.202
 9469SOL     OW29305   7.007   6.864   1.415
 9469SOL    HW129306   6.976   6.959   1.407
 9469SOL    HW229307   7.012   6.823   1.324
 9470SOL     OW29308   3.728   2.912   0.542
 9470SOL    HW129309   3.685   2.985   0.595
 9470SOL    HW229310   3.685   2.825   0.564
 9471SOL     OW29311   6.583   3.047   4.958
 9471SOL    HW129312   6.604   3.029   5.054
 9471SOL    HW229313   6.484   3.043   4.944
 9472SOL     OW29314   1.607   3.374   5.764
 9472SOL    HW129315   1.589   3.287   5.810
 9472SOL    HW229316   1.586   3.450   5.825
 9473SOL     OW29317   3.303   3.763   1.402
 9473SOL    HW129318   3.246   3.741   1.323
 9473SOL    HW229319   3.266   3.717   1.483
 9474SOL     OW29320   5.456   4.388   1.043
 9474SOL    HW129321   5.433   4.361   0.949
 9474SOL    HW229322   5.404   4.470   1.067
 9475SOL     OW29323   5.283   3.553   6.450
 9475SOL    HW129324   5.225   3.494   6.393
 9475SOL    HW229325   5.377   3.550   6.415
 9476SOL     OW29326   4.305   4.353   1.227
 9476SOL    HW129327   4.262   4.349   1.317
 9476SOL    HW229328   4.253   4.414   1.168
 9477SOL     OW29329   1.546   4.912   1.054
 9477SOL    HW129330   1.571   4.824   1.013
 9477SOL    HW229331   1.462   4.901   1.108
 9478SOL     OW29332   6.307   3.936   6.127
 9478SOL    HW129333   6.291   3.971   6.220
 9478SOL    HW229334   6.330   3.838   6.132
 9479SOL     OW29335   4.186   1.059   2.305
 9479SOL    HW129336   4.165   0.987   2.238
 9479SOL    HW229337   4.157   1.148   2.269
 9480SOL     OW29338   5.688   0.391   0.879
 9480SOL    HW129339   5.632   0.437   0.810
 9480SOL    HW229340   5.701   0.450   0.958
 9481SOL     OW29341   5.070   0.353   3.312
 9481SOL    HW129342   5.163   0.354   3.349
 9481SOL    HW229343   5.007   0.393   3.379
 9482SOL     OW29344   6.270   5.038   5.316
 9482SOL    HW129345   6.217   4.956   5.294
 9482SOL    HW229346   6.220   5.119   5.287
 9483SOL     OW29347   6.233   5.463   6.430
 9483SOL    HW129348   6.164   5.448   6.500
 9483SOL    HW229349   6.216   5.401   6.353
 9484SOL     OW29350   2.024   6.060   4.776
 9484SOL    HW129351   2.078   6.107   4.846
 9484SOL    HW229352   2.064   6.077   4.686
 9485SOL     OW29353   0.603   1.163   5.219
 9485SOL    HW129354   0.678   1.100   5.198
 9485SOL    HW229355   0.568   1.202   5.134
 9486SOL     OW29356   6.537   5.598   6.248
 9486SOL    HW129357   6.491   5.681   6.279
 9486SOL    HW229358   6.626   5.591   6.294
 9487SOL     OW29359   3.383   3.896   3.174
 9487SOL    HW129360   3.430   3.856   3.096
 9487SOL    HW229361   3.366   3.993   3.156
 9488SOL     OW29362   2.242   1.005   1.717
 9488SOL    HW129363   2.276   1.041   1.630
 9488SOL    HW229364   2.320   0.982   1.776
 9489SOL     OW29365   6.199   4.084   0.146
 9489SOL    HW129366   6.143   4.108   0.067
 9489SOL    HW229367   6.295   4.096   0.124
 9490SOL     OW29368   5.380   3.230   4.547
 9490SOL    HW129369   5.480   3.223   4.550
 9490SOL    HW229370   5.350   3.240   4.452
 9491SOL     OW29371   5.656   0.127   2.858
 9491SOL    HW129372   5.732   0.096   2.801
 9491SOL    HW229373   5.576   0.069   2.842
 9492SOL     OW29374   4.614   2.447   3.950
 9492SOL    HW129375   4.525   2.429   3.992
 9492SOL    HW229376   4.631   2.381   3.877
 9493SOL     OW29377   3.443   5.993   2.138
 9493SOL    HW129378   3.352   5.997   2.096
 9493SOL    HW229379   3.495   5.918   2.096
 9494SOL     OW29380   5.206   2.551   2.179
 9494SOL    HW129381   5.155   2.506   2.252
 9494SOL    HW229382   5.241   2.482   2.115
 9495SOL     OW29383   5.602   2.760   1.269
 9495SOL    HW129384   5.579   2.766   1.172
 9495SOL    HW229385   5.633   2.849   1.302
 9496SOL     OW29386   5.915   2.889   1.089
 9496SOL    HW129387   5.955   2.888   1.181
 9496SOL    HW229388   5.962   2.958   1.034
 9497SOL     OW29389   5.127   5.124   5.224
 9497SOL    HW129390   5.081   5.062   5.288
 9497SOL    HW229391   5.132   5.215   5.264
 9498SOL     OW29392   0.979   6.002   5.424
 9498SOL    HW129393   1.022   6.056   5.352
 9498SOL    HW229394   0.897   5.958   5.389
 9499SOL     OW29395   5.906   6.279   4.359
 9499SOL    HW129396   5.918   6.373   4.329
 9499SOL    HW229397   5.990   6.246   4.402
 9500SOL     OW29398   2.960   1.746   0.714
 9500SOL    HW129399   2.867   1.746   0.751
 9500SOL    HW229400   2.990   1.651   0.701
 9501SOL     OW29401   1.901   4.030   5.276
 9501SOL    HW129402   1.973   3.979   5.229
 9501SOL    HW229403   1.814   3.982   5.265
 9502SOL     OW29404   5.704   4.478   3.574
 9502SOL    HW129405   5.718   4.546   3.647
 9502SOL    HW229406   5.621   4.501   3.523
 9503SOL     OW29407   5.807   1.253   0.350
 9503SOL    HW129408   5.722   1.201   0.337
 9503SOL    HW229409   5.793   1.323   0.420
 9504SOL     OW29410   6.237   5.631   2.356
 9504SOL    HW129411   6.246   5.704   2.288
 9504SOL    HW229412   6.309   5.640   2.425
 9505SOL     OW29413   4.708   3.680   6.577
 9505SOL    HW129414   4.681   3.642   6.489
 9505SOL    HW229415   4.753   3.768   6.564
 9506SOL     OW29416   3.295   1.147   1.555
 9506SOL    HW129417   3.372   1.104   1.602
 9506SOL    HW229418   3.226   1.173   1.622
 9507SOL     OW29419   6.340   6.557   1.530
 9507SOL    HW129420   6.258   6.608   1.554
 9507SOL    HW229421   6.321   6.459   1.534
 9508SOL     OW29422   4.913   0.721   2.207
 9508SOL    HW129423   4.931   0.622   2.208
 9508SOL    HW229424   4.994   0.770   2.177
 9509SOL     OW29425   5.506   1.263   3.253
 9509SOL    HW129426   5.482   1.325   3.328
 9509SOL    HW229427   5.443   1.277   3.176
 9510SOL     OW29428   1.750   2.616   2.703
 9510SOL    HW129429   1.841   2.654   2.720
 9510SOL    HW229430   1.706   2.667   2.629
 9511SOL     OW29431   0.752   1.604   1.281
 9511SOL    HW129432   0.753   1.689   1.333
 9511SOL    HW229433   0.690   1.539   1.325
 9512SOL     OW29434   6.580   2.144   2.200
 9512SOL    HW129435   6.670   2.186   2.196
 9512SOL    HW229436   6.565   2.107   2.292
 9513SOL     OW29437   4.879   3.954   5.099
 9513SOL    HW129438   4.846   4.044   5.127
 9513SOL    HW229439   4.894   3.953   5.000
 9514SOL     OW29440   3.605   2.900   0.964
 9514SOL    HW129441   3.588   2.937   1.056
 9514SOL    HW229442   3.556   2.955   0.897
 9515SOL     OW29443   0.346   5.682   2.988
 9515SOL    HW129444   0.330   5.633   2.902
 9515SOL    HW229445   0.307   5.629   3.063
 9516SOL     OW29446   0.789   4.092   6.374
 9516SOL    HW129447   0.888   4.083   6.361
 9516SOL    HW229448   0.745   4.104   6.285
 9517SOL     OW29449   0.101   6.784   1.659
 9517SOL    HW129450   0.053   6.707   1.702
 9517SOL    HW229451   0.039   6.832   1.598
 9518SOL     OW29452   0.875   1.312   1.431
 9518SOL    HW129453   0.903   1.242   1.498
 9518SOL    HW229454   0.957   1.356   1.394
 9519SOL     OW29455   1.279   2.445   5.271
 9519SOL    HW129456   1.337   2.526   5.279
 9519SOL    HW229457   1.301   2.379   5.343
 9520SOL     OW29458   4.515   6.582   1.797
 9520SOL    HW129459   4.427   6.591   1.843
 9520SOL    HW229460   4.535   6.486   1.780
 9521SOL     OW29461   5.543   4.761   3.416
 9521SOL    HW129462   5.616   4.805   3.469
 9521SOL    HW229463   5.454   4.798   3.444
 9522SOL     OW29464   3.139   4.880   6.212
 9522SOL    HW129465   3.239   4.875   6.218
 9522SOL    HW229466   3.113   4.956   6.152
 9523SOL     OW29467   2.137   6.453   5.290
 9523SOL    HW129468   2.173   6.512   5.362
 9523SOL    HW229469   2.189   6.367   5.288
 9524SOL     OW29470   5.079   3.231   0.286
 9524SOL    HW129471   5.015   3.244   0.210
 9524SOL    HW229472   5.109   3.136   0.289
 9525SOL     OW29473   3.997   0.210   4.731
 9525SOL    HW129474   3.967   0.220   4.826
 9525SOL    HW229475   3.921   0.177   4.675
 9526SOL     OW29476   4.723   5.905   1.139
 9526SOL    HW129477   4.709   5.845   1.060
 9526SOL    HW229478   4.739   5.848   1.220
 9527SOL     OW29479   0.338   2.342   0.435
 9527SOL    HW129480   0.288   2.325   0.519
 9527SOL    HW229481   0.354   2.440   0.424
 9528SOL     OW29482   6.902   1.280   1.471
 9528SOL    HW129483   6.942   1.189   1.467
 9528SOL    HW229484   6.829   1.281   1.541
 9529SOL     OW29485   1.756   3.017   5.193
 9529SOL    HW129486   1.850   3.008   5.227
 9529SOL    HW229487   1.752   3.092   5.127
 9530SOL     OW29488   2.515   1.539   3.871
 9530SOL    HW129489   2.535   1.578   3.781
 9530SOL    HW229490   2.597   1.541   3.927
 9531SOL     OW29491   2.656   6.667   4.027
 9531SOL    HW129492   2.632   6.657   4.124
 9531SOL    HW229493   2.577   6.701   3.977
 9532SOL     OW29494   3.377   1.558   2.062
 9532SOL    HW129495   3.322   1.622   2.008
 9532SOL    HW229496   3.330   1.470   2.068
 9533SOL     OW29497   0.916   1.759   4.600
 9533SOL    HW129498   1.013   1.760   4.622
 9533SOL    HW229499   0.864   1.801   4.674
 9534SOL     OW29500   6.026   1.993   4.855
 9534SOL    HW129501   5.937   1.948   4.841
 9534SOL    HW229502   6.031   2.029   4.948
 9535SOL     OW29503   3.330   1.773   4.525
 9535SOL    HW129504   3.250   1.772   4.466
 9535SOL    HW229505   3.303   1.793   4.619
 9536SOL     OW29506   2.469   0.158   6.090
 9536SOL    HW129507   2.553   0.212   6.089
 9536SOL    HW229508   2.460   0.111   6.178
 9537SOL     OW29509   2.373   0.467   0.313
 9537SOL    HW129510   2.425   0.395   0.357
 9537SOL    HW229511   2.329   0.431   0.230
 9538SOL     OW29512   5.991   3.867   2.840
 9538SOL    HW129513   5.982   3.945   2.778
 9538SOL    HW229514   5.981   3.782   2.788
 9539SOL     OW29515   6.803   3.831   6.639
 9539SOL    HW129516   6.796   3.810   6.736
 9539SOL    HW229517   6.870   3.904   6.626
 9540SOL     OW29518   5.391   3.775   5.917
 9540SOL    HW129519   5.356   3.835   5.989
 9540SOL    HW229520   5.491   3.775   5.919
 9541SOL     OW29521   6.749   1.965   3.520
 9541SOL    HW129522   6.703   2.040   3.472
 9541SOL    HW229523   6.703   1.878   3.497
 9542SOL     OW29524   4.643   4.325   4.422
 9542SOL    HW129525   4.705   4.296   4.494
 9542SOL    HW229526   4.592   4.406   4.452
 9543SOL     OW29527   3.977   2.932   0.715
 9543SOL    HW129528   3.930   3.000   0.658
 9543SOL    HW229529   3.976   2.962   0.811
 9544SOL     OW29530   4.323   0.482   0.797
 9544SOL    HW129531   4.308   0.385   0.778
 9544SOL    HW229532   4.235   0.529   0.805
 9545SOL     OW29533   1.360   6.825   4.696
 9545SOL    HW129534   1.275   6.874   4.680
 9545SOL    HW229535   1.403   6.803   4.608
 9546SOL     OW29536   2.550   4.564   1.914
 9546SOL    HW129537   2.647   4.567   1.939
 9546SOL    HW229538   2.521   4.655   1.884
 9547SOL     OW29539   5.513   5.791   3.482
 9547SOL    HW129540   5.494   5.883   3.517
 9547SOL    HW229541   5.548   5.734   3.557
 9548SOL     OW29542   5.685   6.962   2.475
 9548SOL    HW129543   5.656   6.965   2.380
 9548SOL    HW229544   5.607   6.981   2.535
 9549SOL     OW29545   2.081   6.134   6.960
 9549SOL    HW129546   2.056   6.168   0.027
 9549SOL    HW229547   2.014   6.066   6.930
 9550SOL     OW29548   1.335   0.967   0.327
 9550SOL    HW129549   1.315   0.875   0.361
 9550SOL    HW229550   1.383   1.018   0.398
 9551SOL     OW29551   1.476   5.922   5.138
 9551SOL    HW129552   1.454   5.932   5.235
 9551SOL    HW229553   1.559   5.868   5.128
 9552SOL     OW29554   0.563   5.407   2.896
 9552SOL    HW129555   0.600   5.498   2.877
 9552SOL    HW229556   0.563   5.391   2.995
 9553SOL     OW29557   5.691   4.744   6.639
 9553SOL    HW129558   5.753   4.755   6.716
 9553SOL    HW229559   5.646   4.654   6.645
 9554SOL     OW29560   2.367   1.622   2.203
 9554SOL    HW129561   2.367   1.675   2.288
 9554SOL    HW229562   2.279   1.634   2.157
 9555SOL     OW29563   6.577   2.638   6.272
 9555SOL    HW129564   6.649   2.689   6.317
 9555SOL    HW229565   6.490   2.654   6.318
 9556SOL     OW29566   6.785   0.853   0.932
 9556SOL    HW129567   6.808   0.905   1.014
 9556SOL    HW229568   6.777   0.915   0.854
 9557SOL     OW29569   4.925   1.148   2.054
 9557SOL    HW129570   4.827   1.129   2.046
 9557SOL    HW229571   4.939   1.246   2.057
 9558SOL     OW29572   6.749   3.574   1.506
 9558SOL    HW129573   6.723   3.664   1.542
 9558SOL    HW229574   6.725   3.569   1.409
 9559SOL     OW29575   0.622   4.410   2.668
 9559SOL    HW129576   0.655   4.405   2.762
 9559SOL    HW229577   0.524   4.390   2.665
 9560SOL     OW29578   3.784   2.310   5.622
 9560SOL    HW129579   3.763   2.361   5.705
 9560SOL    HW229580   3.779   2.371   5.543
 9561SOL     OW29581   3.246   5.441   6.638
 9561SOL    HW129582   3.288   5.404   6.721
 9561SOL    HW229583   3.241   5.540   6.645
 9562SOL     OW29584   5.781   5.474   4.129
 9562SOL    HW129585   5.681   5.476   4.121
 9562SOL    HW229586   5.818   5.409   4.063
 9563SOL     OW29587   0.246   6.760   6.665
 9563SOL    HW129588   0.217   6.835   6.726
 9563SOL    HW229589   0.265   6.679   6.719
 9564SOL     OW29590   1.352   0.853   6.134
 9564SOL    HW129591   1.253   0.839   6.142
 9564SOL    HW229592   1.378   0.936   6.184
 9565SOL     OW29593   2.925   5.680   5.193
 9565SOL    HW129594   2.878   5.608   5.244
 9565SOL    HW229595   2.955   5.751   5.256
 9566SOL     OW29596   2.842   4.973   5.442
 9566SOL    HW129597   2.936   5.003   5.426
 9566SOL    HW229598   2.811   4.918   5.365
 9567SOL     OW29599   5.934   4.920   4.506
 9567SOL    HW129600   5.902   4.825   4.505
 9567SOL    HW229601   5.921   4.960   4.416
 9568SOL     OW29602   5.659   3.790   5.902
 9568SOL    HW129603   5.726   3.757   5.967
 9568SOL    HW229604   5.690   3.771   5.809
 9569SOL     OW29605   6.120   0.173   1.220
 9569SOL    HW129606   6.070   0.245   1.269
 9569SOL    HW229607   6.054   0.112   1.175
 9570SOL     OW29608   1.109   2.064   6.750
 9570SOL    HW129609   1.209   2.063   6.754
 9570SOL    HW229610   1.077   2.157   6.771
 9571SOL     OW29611   3.156   1.877   0.862
 9571SOL    HW129612   3.071   1.863   0.813
 9571SOL    HW229613   3.136   1.901   0.958
 9572SOL     OW29614   0.234   3.828   0.841
 9572SOL    HW129615   0.195   3.908   0.796
 9572SOL    HW229616   0.161   3.778   0.889
 9573SOL     OW29617   5.007   1.265   2.450
 9573SOL    HW129618   4.940   1.243   2.522
 9573SOL    HW229619   5.012   1.190   2.385
 9574SOL     OW29620   2.943   2.189   3.634
 9574SOL    HW129621   2.981   2.265   3.686
 9574SOL    HW229622   2.870   2.222   3.574
 9575SOL     OW29623   3.724   1.445   3.136
 9575SOL    HW129624   3.700   1.516   3.202
 9575SOL    HW229625   3.772   1.486   3.058
 9576SOL     OW29626   3.664   3.436   5.361
 9576SOL    HW129627   3.749   3.383   5.366
 9576SOL    HW229628   3.592   3.389   5.412
 9577SOL     OW29629   0.610   5.217   3.747
 9577SOL    HW129630   0.538   5.198   3.681
 9577SOL    HW229631   0.570   5.226   3.839
 9578SOL     OW29632   6.842   3.893   0.921
 9578SOL    HW129633   6.876   3.982   0.890
 9578SOL    HW229634   6.913   3.824   0.908
 9579SOL     OW29635   1.612   4.867   2.935
 9579SOL    HW129636   1.620   4.828   3.027
 9579SOL    HW229637   1.595   4.794   2.869
 9580SOL     OW29638   4.157   3.527   5.599
 9580SOL    HW129639   4.214   3.554   5.522
 9580SOL    HW229640   4.061   3.520   5.570
 9581SOL     OW29641   1.013   5.614   5.707
 9581SOL    HW129642   1.023   5.514   5.717
 9581SOL    HW229643   1.040   5.658   5.793
 9582SOL     OW29644   4.137   5.579   2.852
 9582SOL    HW129645   4.052   5.628   2.832
 9582SOL    HW229646   4.206   5.644   2.885
 9583SOL     OW29647   1.529   5.010   1.773
 9583SOL    HW129648   1.516   4.944   1.699
 9583SOL    HW229649   1.620   5.050   1.766
 9584SOL     OW29650   5.481   4.225   0.236
 9584SOL    HW129651   5.532   4.298   0.282
 9584SOL    HW229652   5.470   4.247   0.140
 9585SOL     OW29653   6.416   1.200   2.993
 9585SOL    HW129654   6.503   1.185   3.040
 9585SOL    HW229655   6.355   1.122   3.008
 9586SOL     OW29656   4.850   3.736   2.426
 9586SOL    HW129657   4.886   3.698   2.340
 9586SOL    HW229658   4.820   3.830   2.410
 9587SOL     OW29659   4.543   6.127   1.606
 9587SOL    HW129660   4.465   6.174   1.564
 9587SOL    HW229661   4.557   6.039   1.562
 9588SOL     OW29662   6.190   1.178   3.370
 9588SOL    HW129663   6.202   1.254   3.306
 9588SOL    HW229664   6.209   1.210   3.463
 9589SOL     OW29665   3.661   1.697   5.527
 9589SOL    HW129666   3.596   1.659   5.460
 9589SOL    HW229667   3.636   1.666   5.619
 9590SOL     OW29668   0.259   5.007   4.512
 9590SOL    HW129669   0.267   5.107   4.507
 9590SOL    HW229670   0.349   4.967   4.527
 9591SOL     OW29671   0.275   4.658   2.087
 9591SOL    HW129672   0.304   4.692   2.176
 9591SOL    HW229673   0.238   4.565   2.097
 9592SOL     OW29674   3.872   6.065   0.082
 9592SOL    HW129675   3.812   6.106   0.151
 9592SOL    HW229676   3.866   6.118   7.021
 9593SOL     OW29677   2.077   1.776   3.597
 9593SOL    HW129678   2.025   1.697   3.566
 9593SOL    HW229679   2.088   1.841   3.522
 9594SOL     OW29680   5.741   0.269   1.270
 9594SOL    HW129681   5.828   0.228   1.245
 9594SOL    HW229682   5.726   0.258   1.368
 9595SOL     OW29683   1.408   5.717   5.418
 9595SOL    HW129684   1.401   5.787   5.347
 9595SOL    HW229685   1.326   5.718   5.475
 9596SOL     OW29686   5.198   5.823   2.216
 9596SOL    HW129687   5.250   5.751   2.262
 9596SOL    HW229688   5.130   5.781   2.155
 9597SOL     OW29689   2.520   5.225   1.523
 9597SOL    HW129690   2.500   5.323   1.518
 9597SOL    HW229691   2.548   5.202   1.617
 9598SOL     OW29692   0.147   6.024   6.270
 9598SOL    HW129693   0.070   6.048   6.211
 9598SOL    HW229694   0.113   5.991   6.358
 9599SOL     OW29695   3.547   1.932   5.446
 9599SOL    HW129696   3.598   1.852   5.476
 9599SOL    HW229697   3.610   2.008   5.429
 9600SOL     OW29698   1.664   6.592   6.604
 9600SOL    HW129699   1.725   6.625   6.676
 9600SOL    HW229700   1.686   6.497   6.583
 9601SOL     OW29701   0.883   6.759   4.615
 9601SOL    HW129702   0.863   6.782   4.711
 9601SOL    HW229703   0.910   6.663   4.609
 9602SOL     OW29704   1.237   5.454   6.039
 9602SOL    HW129705   1.248   5.392   5.962
 9602SOL    HW229706   1.140   5.462   6.061
 9603SOL     OW29707   1.066   5.271   1.651
 9603SOL    HW129708   1.138   5.340   1.663
 9603SOL    HW229709   1.106   5.187   1.615
 9604SOL     OW29710   0.402   0.432   6.459
 9604SOL    HW129711   0.383   0.379   6.541
 9604SOL    HW229712   0.373   0.527   6.472
 9605SOL     OW29713   3.586   4.580   1.400
 9605SOL    HW129714   3.522   4.564   1.476
 9605SOL    HW229715   3.618   4.675   1.404
 9606SOL     OW29716   6.796   0.625   5.179
 9606SOL    HW129717   6.863   0.564   5.222
 9606SOL    HW229718   6.711   0.575   5.163
 9607SOL     OW29719   0.278   2.283   3.438
 9607SOL    HW129720   0.251   2.235   3.355
 9607SOL    HW229721   0.207   2.348   3.463
 9608SOL     OW29722   6.122   1.004   1.733
 9608SOL    HW129723   6.063   0.946   1.789
 9608SOL    HW229724   6.205   0.953   1.709
 9609SOL     OW29725   1.372   2.095   3.862
 9609SOL    HW129726   1.417   2.026   3.805
 9609SOL    HW229727   1.274   2.074   3.868
 9610SOL     OW29728   4.748   0.847   5.486
 9610SOL    HW129729   4.710   0.886   5.402
 9610SOL    HW229730   4.754   0.919   5.556
 9611SOL     OW29731   4.710   5.094   0.553
 9611SOL    HW129732   4.690   5.180   0.600
 9611SOL    HW229733   4.802   5.097   0.515
 9612SOL     OW29734   5.715   3.137   3.832
 9612SOL    HW129735   5.798   3.176   3.872
 9612SOL    HW229736   5.650   3.114   3.904
 9613SOL     OW29737   5.653   0.519   5.156
 9613SOL    HW129738   5.593   0.504   5.235
 9613SOL    HW229739   5.640   0.445   5.090
 9614SOL     OW29740   2.496   2.878   0.643
 9614SOL    HW129741   2.493   2.880   0.543
 9614SOL    HW229742   2.561   2.808   0.674
 9615SOL     OW29743   6.839   5.208   3.819
 9615SOL    HW129744   6.922   5.168   3.860
 9615SOL    HW229745   6.775   5.232   3.892
 9616SOL     OW29746   1.060   1.991   0.823
 9616SOL    HW129747   1.117   1.939   0.886
 9616SOL    HW229748   1.113   2.015   0.742
 9617SOL     OW29749   0.551   2.641   3.510
 9617SOL    HW129750   0.647   2.649   3.540
 9617SOL    HW229751   0.499   2.720   3.544
 9618SOL     OW29752   4.849   3.895   1.995
 9618SOL    HW129753   4.832   3.875   1.899
 9618SOL    HW229754   4.819   3.989   2.016
 9619SOL     OW29755   0.684   0.025   0.730
 9619SOL    HW129756   0.657   0.075   0.812
 9619SOL    HW229757   0.614   0.037   0.659
 9620SOL     OW29758   4.188   0.853   6.779
 9620SOL    HW129759   4.118   0.910   6.822
 9620SOL    HW229760   4.243   0.808   6.850
 9621SOL     OW29761   0.005   1.042   1.411
 9621SOL    HW129762   0.041   1.057   1.503
 9621SOL    HW229763   7.011   0.944   1.398
 9622SOL     OW29764   6.192   6.476   5.133
 9622SOL    HW129765   6.239   6.439   5.053
 9622SOL    HW229766   6.145   6.561   5.108
 9623SOL     OW29767   2.857   6.391   5.893
 9623SOL    HW129768   2.914   6.397   5.975
 9623SOL    HW229769   2.777   6.334   5.912
 9624SOL     OW29770   4.755   5.496   5.947
 9624SOL    HW129771   4.830   5.431   5.941
 9624SOL    HW229772   4.790   5.589   5.937
 9625SOL     OW29773   4.993   4.600   6.009
 9625SOL    HW129774   4.965   4.644   5.924
 9625SOL    HW229775   5.089   4.574   6.003
 9626SOL     OW29776   2.267   2.878   6.507
 9626SOL    HW129777   2.292   2.975   6.507
 9626SOL    HW229778   2.324   2.829   6.440
 9627SOL     OW29779   0.058   5.928   0.601
 9627SOL    HW129780   0.005   5.973   0.530
 9627SOL    HW229781   0.077   5.834   0.574
 9628SOL     OW29782   5.837   0.902   5.819
 9628SOL    HW129783   5.768   0.888   5.749
 9628SOL    HW229784   5.815   0.983   5.873
 9629SOL     OW29785   0.672   5.651   3.807
 9629SOL    HW129786   0.700   5.563   3.846
 9629SOL    HW229787   0.650   5.714   3.881
 9630SOL     OW29788   5.512   0.026   6.576
 9630SOL    HW129789   5.531   0.083   6.497
 9630SOL    HW229790   5.579   0.045   6.648
 9631SOL     OW29791   4.376   5.940   0.682
 9631SOL    HW129792   4.350   5.857   0.631
 9631SOL    HW229793   4.376   6.018   0.620
 9632SOL     OW29794   2.604   5.003   3.253
 9632SOL    HW129795   2.536   4.941   3.292
 9632SOL    HW229796   2.692   4.989   3.299
 9633SOL     OW29797   3.232   2.887   5.100
 9633SOL    HW129798   3.274   2.931   5.180
 9633SOL    HW229799   3.196   2.797   5.127
 9634SOL     OW29800   5.658   4.560   2.519
 9634SOL    HW129801   5.689   4.573   2.425
 9634SOL    HW229802   5.683   4.639   2.574
 9635SOL     OW29803   0.378   5.264   4.517
 9635SOL    HW129804   0.400   5.351   4.560
 9635SOL    HW229805   0.360   5.278   4.419
 9636SOL     OW29806   5.315   3.058   3.911
 9636SOL    HW129807   5.275   3.036   3.822
 9636SOL    HW229808   5.379   3.133   3.902
 9637SOL     OW29809   1.579   3.289   6.994
 9637SOL    HW129810   1.596   3.385   6.972
 9637SOL    HW229811   1.666   3.242   7.008
 9638SOL     OW29812   6.831   4.412   5.548
 9638SOL    HW129813   6.791   4.322   5.563
 9638SOL    HW229814   6.805   4.473   5.623
 9639SOL     OW29815   4.637   2.513   1.399
 9639SOL    HW129816   4.683   2.567   1.328
 9639SOL    HW229817   4.665   2.418   1.391
 9640SOL     OW29818   3.542   0.181   3.308
 9640SOL    HW129819   3.606   0.258   3.300
 9640SOL    HW229820   3.458   0.212   3.351
 9641SOL     OW29821   0.656   3.593   4.498
 9641SOL    HW129822   0.564   3.581   4.534
 9641SOL    HW229823   0.677   3.690   4.490
 9642SOL     OW29824   0.862   2.940   4.977
 9642SOL    HW129825   0.917   2.922   5.058
 9642SOL    HW229826   0.805   2.860   4.957
 9643SOL     OW29827   5.496   5.196   4.048
 9643SOL    HW129828   5.444   5.111   4.052
 9643SOL    HW229829   5.591   5.177   4.021
 9644SOL     OW29830   0.840   4.671   3.902
 9644SOL    HW129831   0.878   4.625   3.822
 9644SOL    HW229832   0.825   4.768   3.881
 9645SOL     OW29833   1.374   5.013   6.682
 9645SOL    HW129834   1.409   4.936   6.737
 9645SOL    HW229835   1.386   5.098   6.733
 9646SOL     OW29836   2.915   5.190   0.879
 9646SOL    HW129837   2.853   5.221   0.951
 9646SOL    HW229838   2.867   5.189   0.791
 9647SOL     OW29839   6.101   6.907   2.860
 9647SOL    HW129840   6.082   6.999   2.892
 9647SOL    HW229841   6.016   6.855   2.854
 9648SOL     OW29842   3.275   2.035   1.502
 9648SOL    HW129843   3.206   2.101   1.532
 9648SOL    HW229844   3.360   2.052   1.551
 9649SOL     OW29845   6.661   6.216   1.222
 9649SOL    HW129846   6.734   6.179   1.164
 9649SOL    HW229847   6.646   6.312   1.199
 9650SOL     OW29848   0.641   5.129   4.610
 9650SOL    HW129849   0.647   5.045   4.556
 9650SOL    HW229850   0.588   5.197   4.561
 9651SOL     OW29851   3.980   1.603   0.110
 9651SOL    HW129852   3.998   1.584   0.206
 9651SOL    HW229853   3.997   1.700   0.091
 9652SOL     OW29854   0.001   3.454   0.263
 9652SOL    HW129855   0.066   3.530   0.268
 9652SOL    HW229856   6.946   3.474   0.322
 9653SOL     OW29857   5.232   4.558   5.182
 9653SOL    HW129858   5.247   4.651   5.216
 9653SOL    HW229859   5.145   4.553   5.134
 9654SOL     OW29860   3.950   3.956   3.850
 9654SOL    HW129861   3.900   4.022   3.793
 9654SOL    HW229862   3.932   3.975   3.946
 9655SOL     OW29863   5.102   0.736   1.080
 9655SOL    HW129864   5.077   0.711   1.173
 9655SOL    HW229865   5.199   0.715   1.065
 9656SOL     OW29866   4.844   4.690   6.446
 9656SOL    HW129867   4.804   4.611   6.401
 9656SOL    HW229868   4.834   4.771   6.387
 9657SOL     OW29869   5.099   4.992   3.022
 9657SOL    HW129870   5.130   4.908   3.067
 9657SOL    HW229871   5.001   5.005   3.037
 9658SOL     OW29872   5.779   1.128   2.233
 9658SOL    HW129873   5.756   1.194   2.305
 9658SOL    HW229874   5.878   1.116   2.229
 9659SOL     OW29875   3.190   3.104   6.985
 9659SOL    HW129876   3.208   3.018   6.936
 9659SOL    HW229877   3.266   3.124   0.023
 9660SOL     OW29878   1.935   6.855   1.331
 9660SOL    HW129879   1.978   6.793   1.397
 9660SOL    HW229880   1.945   6.818   1.239
 9661SOL     OW29881   4.081   3.566   1.896
 9661SOL    HW129882   4.147   3.492   1.894
 9661SOL    HW229883   4.110   3.638   1.833
 9662SOL     OW29884   4.344   0.094   5.715
 9662SOL    HW129885   4.436   0.093   5.754
 9662SOL    HW229886   4.311   0.188   5.708
 9663SOL     OW29887   1.040   5.674   2.689
 9663SOL    HW129888   1.037   5.734   2.769
 9663SOL    HW229889   1.025   5.729   2.606
 9664SOL     OW29890   2.311   4.711   2.769
 9664SOL    HW129891   2.295   4.731   2.865
 9664SOL    HW229892   2.393   4.655   2.760
 9665SOL     OW29893   6.361   4.712   6.451
 9665SOL    HW129894   6.392   4.626   6.492
 9665SOL    HW229895   6.417   4.787   6.485
 9666SOL     OW29896   5.041   3.627   1.245
 9666SOL    HW129897   5.069   3.690   1.172
 9666SOL    HW229898   4.957   3.660   1.288
 9667SOL     OW29899   5.509   5.998   6.699
 9667SOL    HW129900   5.417   6.002   6.658
 9667SOL    HW229901   5.572   5.956   6.634
 9668SOL     OW29902   1.978   0.846   0.034
 9668SOL    HW129903   2.056   0.805   7.012
 9668SOL    HW229904   1.967   0.940   0.002
 9669SOL     OW29905   3.603   0.526   7.011
 9669SOL    HW129906   3.696   0.537   6.974
 9669SOL    HW229907   3.596   0.575   0.074
 9670SOL     OW29908   0.607   1.413   1.430
 9670SOL    HW129909   0.591   1.441   1.524
 9670SOL    HW229910   0.679   1.343   1.427
 9671SOL     OW29911   0.686   5.840   6.470
 9671SOL    HW129912   0.716   5.786   6.391
 9671SOL    HW229913   0.760   5.903   6.496
 9672SOL     OW29914   0.625   3.424   4.290
 9672SOL    HW129915   0.647   3.510   4.335
 9672SOL    HW229916   0.668   3.349   4.340
 9673SOL     OW29917   2.244   3.219   6.485
 9673SOL    HW129918   2.307   3.210   6.408
 9673SOL    HW229919   2.163   3.270   6.456
 9674SOL     OW29920   2.180   7.018   4.366
 9674SOL    HW129921   2.142   0.015   4.276
 9674SOL    HW229922   2.115   6.962   4.418
 9675SOL     OW29923   6.140   4.475   5.933
 9675SOL    HW129924   6.087   4.546   5.979
 9675SOL    HW229925   6.232   4.508   5.915
 9676SOL     OW29926   0.924   3.207   5.515
 9676SOL    HW129927   0.840   3.242   5.473
 9676SOL    HW229928   0.996   3.276   5.507
 9677SOL     OW29929   0.289   5.217   2.406
 9677SOL    HW129930   0.203   5.243   2.451
 9677SOL    HW229931   0.274   5.208   2.308
 9678SOL     OW29932   3.947   2.952   5.600
 9678SOL    HW129933   4.005   2.993   5.670
 9678SOL    HW229934   3.964   2.853   5.597
 9679SOL     OW29935   1.527   0.725   3.779
 9679SOL    HW129936   1.481   0.812   3.793
 9679SOL    HW229937   1.464   0.660   3.736
 9680SOL     OW29938   4.855   0.283   2.344
 9680SOL    HW129939   4.880   0.346   2.270
 9680SOL    HW229940   4.878   0.189   2.317
 9681SOL     OW29941   1.034   3.645   1.052
 9681SOL    HW129942   1.106   3.576   1.052
 9681SOL    HW229943   1.075   3.736   1.046
 9682SOL     OW29944   4.253   6.792   5.600
 9682SOL    HW129945   4.245   6.703   5.645
 9682SOL    HW229946   4.348   6.823   5.605
 9683SOL     OW29947   3.552   6.409   4.511
 9683SOL    HW129948   3.552   6.451   4.420
 9683SOL    HW229949   3.607   6.326   4.508
 9684SOL     OW29950   0.012   3.052   5.958
 9684SOL    HW129951   6.943   3.017   5.950
 9684SOL    HW229952   0.012   3.135   6.014
 9685SOL     OW29953   3.593   4.287   1.699
 9685SOL    HW129954   3.512   4.339   1.673
 9685SOL    HW229955   3.568   4.218   1.767
 9686SOL     OW29956   0.088   1.580   5.672
 9686SOL    HW129957   0.184   1.558   5.659
 9686SOL    HW229958   0.032   1.510   5.627
 9687SOL     OW29959   5.480   1.797   3.517
 9687SOL    HW129960   5.512   1.728   3.452
 9687SOL    HW229961   5.381   1.791   3.526
 9688SOL     OW29962   0.013   5.393   1.612
 9688SOL    HW129963   0.044   5.331   1.540
 9688SOL    HW229964   0.023   5.488   1.581
 9689SOL     OW29965   1.873   5.464   1.499
 9689SOL    HW129966   1.785   5.500   1.470
 9689SOL    HW229967   1.864   5.420   1.588
 9690SOL     OW29968   6.416   4.719   4.972
 9690SOL    HW129969   6.424   4.621   4.990
 9690SOL    HW229970   6.375   4.733   4.881
 9691SOL     OW29971   4.012   3.164   2.262
 9691SOL    HW129972   3.979   3.083   2.213
 9691SOL    HW229973   4.094   3.198   2.217
 9692SOL     OW29974   5.095   4.434   0.622
 9692SOL    HW129975   5.194   4.430   0.615
 9692SOL    HW229976   5.054   4.415   0.533
 9693SOL     OW29977   4.628   3.128   6.834
 9693SOL    HW129978   4.652   3.060   6.903
 9693SOL    HW229979   4.531   3.119   6.811
 9694SOL     OW29980   2.445   6.511   1.204
 9694SOL    HW129981   2.396   6.431   1.238
 9694SOL    HW229982   2.513   6.539   1.272
 9695SOL     OW29983   1.876   2.736   4.068
 9695SOL    HW129984   1.904   2.832   4.073
 9695SOL    HW229985   1.806   2.718   4.137
 9696SOL     OW29986   4.941   2.515   3.411
 9696SOL    HW129987   4.934   2.586   3.482
 9696SOL    HW229988   4.887   2.541   3.331
 9697SOL     OW29989   0.445   0.135   1.411
 9697SOL    HW129990   0.382   0.067   1.373
 9697SOL    HW229991   0.485   0.100   1.496
 9698SOL     OW29992   6.989   3.204   2.058
 9698SOL    HW129993   0.004   3.112   2.047
 9698SOL    HW229994   6.920   3.203   2.130
 9699SOL     OW29995   1.190   6.891   1.641
 9699SOL    HW129996   1.244   6.960   1.689
 9699SOL    HW229997   1.177   6.811   1.700
 9700SOL     OW29998   6.240   0.378   6.498
 9700SOL    HW129999   6.323   0.434   6.504
 9700SOL    HW230000   6.173   0.425   6.440
 9701SOL     OW30001   5.472   3.884   6.801
 9701SOL    HW130002   5.537   3.810   6.813
 9701SOL    HW230003   5.410   3.887   6.879
 9702SOL     OW30004   3.492   3.521   2.009
 9702SOL    HW130005   3.553   3.485   2.080
 9702SOL    HW230006   3.520   3.613   1.984
 9703SOL     OW30007   6.488   5.316   2.928
 9703SOL    HW130008   6.447   5.269   2.850
 9703SOL    HW230009   6.443   5.404   2.942
 9704SOL     OW30010   0.805   4.747   2.045
 9704SOL    HW130011   0.786   4.842   2.018
 9704SOL    HW230012   0.730   4.688   2.015
 9705SOL     OW30013   0.207   3.966   6.278
 9705SOL    HW130014   0.177   3.972   6.373
 9705SOL    HW230015   0.232   4.057   6.245
 9706SOL     OW30016   1.009   0.121   1.809
 9706SOL    HW130017   1.046   0.084   1.894
 9706SOL    HW230018   1.077   0.111   1.737
 9707SOL     OW30019   1.538   4.931   2.104
 9707SOL    HW130020   1.604   5.005   2.093
 9707SOL    HW230021   1.448   4.962   2.076
 9708SOL     OW30022   3.226   1.324   2.056
 9708SOL    HW130023   3.129   1.339   2.036
 9708SOL    HW230024   3.237   1.237   2.103
 9709SOL     OW30025   4.828   1.584   2.092
 9709SOL    HW130026   4.743   1.620   2.130
 9709SOL    HW230027   4.807   1.522   2.016
 9710SOL     OW30028   4.709   5.238   4.359
 9710SOL    HW130029   4.730   5.197   4.270
 9710SOL    HW230030   4.742   5.178   4.432
 9711SOL     OW30031   2.743   0.769   6.621
 9711SOL    HW130032   2.842   0.777   6.606
 9711SOL    HW230033   2.715   0.834   6.692
 9712SOL     OW30034   5.455   6.767   5.374
 9712SOL    HW130035   5.502   6.838   5.427
 9712SOL    HW230036   5.359   6.794   5.361
 9713SOL     OW30037   1.926   0.553   2.668
 9713SOL    HW130038   1.828   0.568   2.659
 9713SOL    HW230039   1.969   0.564   2.578
 9714SOL     OW30040   2.233   3.039   4.238
 9714SOL    HW130041   2.282   3.016   4.154
 9714SOL    HW230042   2.174   2.963   4.264
 9715SOL     OW30043   6.847   2.214   6.462
 9715SOL    HW130044   6.938   2.253   6.476
 9715SOL    HW230045   6.782   2.259   6.524
 9716SOL     OW30046   2.185   6.853   0.712
 9716SOL    HW130047   2.092   6.889   0.715
 9716SOL    HW230048   2.186   6.770   0.656
 9717SOL     OW30049   3.427   2.557   5.891
 9717SOL    HW130050   3.422   2.617   5.970
 9717SOL    HW230051   3.371   2.595   5.817
 9718SOL     OW30052   3.378   2.834   0.180
 9718SOL    HW130053   3.453   2.778   0.214
 9718SOL    HW230054   3.416   2.910   0.125
 9719SOL     OW30055   4.495   0.350   5.837
 9719SOL    HW130056   4.574   0.288   5.834
 9719SOL    HW230057   4.493   0.397   5.925
 9720SOL     OW30058   2.195   2.552   2.798
 9720SOL    HW130059   2.168   2.539   2.703
 9720SOL    HW230060   2.293   2.537   2.808
 9721SOL     OW30061   0.972   1.950   1.240
 9721SOL    HW130062   0.922   1.891   1.176
 9721SOL    HW230063   0.923   2.037   1.250
 9722SOL     OW30064   4.080   2.766   5.326
 9722SOL    HW130065   4.117   2.701   5.260
 9722SOL    HW230066   4.002   2.813   5.287
 9723SOL     OW30067   6.175   0.693   4.732
 9723SOL    HW130068   6.252   0.639   4.765
 9723SOL    HW230069   6.208   0.770   4.677
 9724SOL     OW30070   1.939   5.096   1.562
 9724SOL    HW130071   1.888   5.101   1.476
 9724SOL    HW230072   2.032   5.064   1.544
 9725SOL     OW30073   5.158   5.516   3.930
 9725SOL    HW130074   5.239   5.463   3.905
 9725SOL    HW230075   5.077   5.458   3.921
 9726SOL     OW30076   6.723   0.096   3.448
 9726SOL    HW130077   6.681   0.034   3.515
 9726SOL    HW230078   6.688   0.074   3.357
 9727SOL     OW30079   6.207   2.563   1.595
 9727SOL    HW130080   6.256   2.491   1.545
 9727SOL    HW230081   6.219   2.550   1.693
 9728SOL     OW30082   5.206   1.770   4.901
 9728SOL    HW130083   5.219   1.869   4.907
 9728SOL    HW230084   5.241   1.737   4.813
 9729SOL     OW30085   0.777   3.963   2.739
 9729SOL    HW130086   0.841   4.021   2.790
 9729SOL    HW230087   0.685   4.002   2.746
 9730SOL     OW30088   1.101   5.685   3.384
 9730SOL    HW130089   1.171   5.691   3.455
 9730SOL    HW230090   1.127   5.742   3.307
 9731SOL     OW30091   6.981   2.252   1.575
 9731SOL    HW130092   6.982   2.155   1.599
 9731SOL    HW230093   6.889   2.289   1.591
 9732SOL     OW30094   1.414   2.978   2.691
 9732SOL    HW130095   1.470   2.903   2.726
 9732SOL    HW230096   1.409   3.050   2.760
 9733SOL     OW30097   6.053   5.089   1.484
 9733SOL    HW130098   6.121   5.030   1.528
 9733SOL    HW230099   5.985   5.118   1.551
 9734SOL     OW30100   4.052   4.650   6.708
 9734SOL    HW130101   4.031   4.730   6.763
 9734SOL    HW230102   4.061   4.570   6.767
 9735SOL     OW30103   0.978   1.566   0.050
 9735SOL    HW130104   0.929   1.523   6.999
 9735SOL    HW230105   1.010   1.656   0.022
 9736SOL     OW30106   4.937   2.296   5.457
 9736SOL    HW130107   4.945   2.355   5.538
 9736SOL    HW230108   4.930   2.353   5.375
 9737SOL     OW30109   5.633   3.099   5.204
 9737SOL    HW130110   5.560   3.087   5.137
 9737SOL    HW230111   5.672   3.191   5.196
 9738SOL     OW30112   2.552   6.383   1.794
 9738SOL    HW130113   2.496   6.315   1.842
 9738SOL    HW230114   2.546   6.368   1.696
 9739SOL     OW30115   5.342   6.806   0.622
 9739SOL    HW130116   5.343   6.763   0.712
 9739SOL    HW230117   5.326   6.736   0.552
 9740SOL     OW30118   6.274   0.732   1.364
 9740SOL    HW130119   6.197   0.766   1.311
 9740SOL    HW230120   6.342   0.691   1.303
 9741SOL     OW30121   2.385   2.472   3.489
 9741SOL    HW130122   2.447   2.471   3.568
 9741SOL    HW230123   2.439   2.459   3.405
 9742SOL     OW30124   4.077   1.632   6.725
 9742SOL    HW130125   4.110   1.726   6.718
 9742SOL    HW230126   4.076   1.604   6.821
 9743SOL     OW30127   6.624   3.328   4.576
 9743SOL    HW130128   6.683   3.378   4.639
 9743SOL    HW230129   6.664   3.330   4.484
 9744SOL     OW30130   1.922   2.012   2.610
 9744SOL    HW130131   1.864   1.957   2.550
 9744SOL    HW230132   1.879   2.101   2.626
 9745SOL     OW30133   0.913   6.364   6.365
 9745SOL    HW130134   1.005   6.339   6.394
 9745SOL    HW230135   0.911   6.461   6.340
 9746SOL     OW30136   3.415   6.286   6.231
 9746SOL    HW130137   3.474   6.316   6.156
 9746SOL    HW230138   3.353   6.360   6.257
 9747SOL     OW30139   3.734   1.538   3.762
 9747SOL    HW130140   3.769   1.512   3.672
 9747SOL    HW230141   3.674   1.617   3.752
 9748SOL     OW30142   0.540   2.017   2.708
 9748SOL    HW130143   0.532   2.064   2.796
 9748SOL    HW230144   0.476   1.940   2.706
 9749SOL     OW30145   6.348   0.232   1.090
 9749SOL    HW130146   6.264   0.196   1.131
 9749SOL    HW230147   6.411   0.260   1.163
 9750SOL     OW30148   5.230   2.332   5.353
 9750SOL    HW130149   5.171   2.255   5.378
 9750SOL    HW230150   5.179   2.417   5.360
 9751SOL     OW30151   2.820   6.178   1.149
 9751SOL    HW130152   2.861   6.132   1.228
 9751SOL    HW230153   2.890   6.227   1.098
 9752SOL     OW30154   3.347   3.227   0.774
 9752SOL    HW130155   3.250   3.250   0.765
 9752SOL    HW230156   3.402   3.302   0.736
 9753SOL     OW30157   6.538   6.122   3.295
 9753SOL    HW130158   6.562   6.027   3.273
 9753SOL    HW230159   6.453   6.123   3.348
 9754SOL     OW30160   3.576   1.016   2.332
 9754SOL    HW130161   3.512   1.083   2.371
 9754SOL    HW230162   3.626   0.970   2.405
 9755SOL     OW30163   3.315   3.819   0.442
 9755SOL    HW130164   3.229   3.823   0.492
 9755SOL    HW230165   3.386   3.782   0.502
 9756SOL     OW30166   5.299   6.934   6.442
 9756SOL    HW130167   5.284   6.954   6.345
 9756SOL    HW230168   5.373   6.993   6.476
 9757SOL     OW30169   5.510   3.733   4.475
 9757SOL    HW130170   5.483   3.794   4.400
 9757SOL    HW230171   5.561   3.656   4.438
 9758SOL     OW30172   2.962   0.779   2.448
 9758SOL    HW130173   2.983   0.719   2.370
 9758SOL    HW230174   3.048   0.814   2.487
 9759SOL     OW30175   6.773   2.221   1.016
 9759SOL    HW130176   6.807   2.136   0.975
 9759SOL    HW230177   6.731   2.277   0.945
 9760SOL     OW30178   4.885   0.374   6.309
 9760SOL    HW130179   4.906   0.336   6.399
 9760SOL    HW230180   4.929   0.318   6.238
 9761SOL     OW30181   1.162   1.825   1.396
 9761SOL    HW130182   1.186   1.868   1.484
 9761SOL    HW230183   1.098   1.883   1.347
 9762SOL     OW30184   3.907   1.142   6.393
 9762SOL    HW130185   3.861   1.090   6.322
 9762SOL    HW230186   3.980   1.086   6.433
 9763SOL     OW30187   6.424   2.418   1.003
 9763SOL    HW130188   6.434   2.501   0.948
 9763SOL    HW230189   6.456   2.339   0.951
 9764SOL     OW30190   0.728   2.665   2.761
 9764SOL    HW130191   0.758   2.716   2.680
 9764SOL    HW230192   0.656   2.600   2.735
 9765SOL     OW30193   6.987   2.379   1.145
 9765SOL    HW130194   6.941   2.388   1.233
 9765SOL    HW230195   6.938   2.312   1.089
 9766SOL     OW30196   0.569   2.834   2.959
 9766SOL    HW130197   0.506   2.756   2.964
 9766SOL    HW230198   0.655   2.810   3.003
 9767SOL     OW30199   3.141   1.478   5.330
 9767SOL    HW130200   3.230   1.522   5.316
 9767SOL    HW230201   3.152   1.379   5.330
 9768SOL     OW30202   4.831   1.966   0.071
 9768SOL    HW130203   4.912   1.951   0.127
 9768SOL    HW230204   4.855   1.961   6.998
 9769SOL     OW30205   3.626   1.047   5.306
 9769SOL    HW130206   3.598   0.961   5.265
 9769SOL    HW230207   3.718   1.037   5.345
 9770SOL     OW30208   1.794   3.558   5.274
 9770SOL    HW130209   1.771   3.655   5.265
 9770SOL    HW230210   1.886   3.549   5.313
 9771SOL     OW30211   3.417   0.859   2.135
 9771SOL    HW130212   3.421   0.764   2.163
 9771SOL    HW230213   3.510   0.895   2.125
 9772SOL     OW30214   0.687   0.877   1.726
 9772SOL    HW130215   0.780   0.855   1.757
 9772SOL    HW230216   0.643   0.794   1.691
 9773SOL     OW30217   5.565   6.353   2.022
 9773SOL    HW130218   5.585   6.267   1.976
 9773SOL    HW230219   5.636   6.372   2.090
 9774SOL     OW30220   1.763   5.284   4.492
 9774SOL    HW130221   1.789   5.203   4.439
 9774SOL    HW230222   1.830   5.298   4.565
 9775SOL     OW30223   1.501   1.251   2.814
 9775SOL    HW130224   1.409   1.261   2.777
 9775SOL    HW230225   1.550   1.338   2.804
 9776SOL     OW30226   2.153   5.456   1.509
 9776SOL    HW130227   2.055   5.462   1.488
 9776SOL    HW230228   2.168   5.484   1.603
 9777SOL     OW30229   4.145   2.248   5.278
 9777SOL    HW130230   4.159   2.313   5.203
 9777SOL    HW230231   4.109   2.162   5.241
 9778SOL     OW30232   1.415   3.828   3.050
 9778SOL    HW130233   1.457   3.808   2.961
 9778SOL    HW230234   1.422   3.926   3.068
 9779SOL     OW30235   2.867   0.079   3.488
 9779SOL    HW130236   2.882   0.012   3.560
 9779SOL    HW230237   2.782   0.128   3.506
 9780SOL     OW30238   0.856   1.151   0.786
 9780SOL    HW130239   0.876   1.064   0.742
 9780SOL    HW230240   0.757   1.166   0.787
 9781SOL     OW30241   1.590   1.323   2.167
 9781SOL    HW130242   1.596   1.369   2.078
 9781SOL    HW230243   1.642   1.237   2.163
 9782SOL     OW30244   0.374   2.645   0.501
 9782SOL    HW130245   0.302   2.669   0.565
 9782SOL    HW230246   0.406   2.727   0.454
 9783SOL     OW30247   4.548   0.946   2.588
 9783SOL    HW130248   4.604   0.874   2.628
 9783SOL    HW230249   4.587   0.976   2.501
 9784SOL     OW30250   1.388   1.359   6.862
 9784SOL    HW130251   1.435   1.434   6.907
 9784SOL    HW230252   1.314   1.326   6.920
 9785SOL     OW30253   0.993   3.704   5.116
 9785SOL    HW130254   0.928   3.645   5.164
 9785SOL    HW230255   1.060   3.649   5.068
 9786SOL     OW30256   2.560   4.668   6.565
 9786SOL    HW130257   2.507   4.588   6.537
 9786SOL    HW230258   2.547   4.685   6.662
 9787SOL     OW30259   3.035   3.336   1.500
 9787SOL    HW130260   3.129   3.311   1.523
 9787SOL    HW230261   3.026   3.436   1.501
 9788SOL     OW30262   2.951   6.862   2.639
 9788SOL    HW130263   2.917   6.816   2.557
 9788SOL    HW230264   2.998   6.796   2.697
 9789SOL     OW30265   4.074   1.627   0.401
 9789SOL    HW130266   4.045   1.587   0.488
 9789SOL    HW230267   4.061   1.726   0.404
 9790SOL     OW30268   4.571   5.376   5.200
 9790SOL    HW130269   4.547   5.336   5.288
 9790SOL    HW230270   4.665   5.409   5.202
 9791SOL     OW30271   0.321   0.406   1.083
 9791SOL    HW130272   0.327   0.307   1.074
 9791SOL    HW230273   0.348   0.434   1.175
 9792SOL     OW30274   3.562   4.529   0.749
 9792SOL    HW130275   3.573   4.609   0.691
 9792SOL    HW230276   3.560   4.558   0.845
 9793SOL     OW30277   6.018   0.899   2.464
 9793SOL    HW130278   5.942   0.893   2.527
 9793SOL    HW230279   6.101   0.865   2.508
 9794SOL     OW30280   3.778   5.316   4.522
 9794SOL    HW130281   3.694   5.264   4.539
 9794SOL    HW230282   3.756   5.402   4.477
 9795SOL     OW30283   1.391   3.421   3.574
 9795SOL    HW130284   1.405   3.511   3.614
 9795SOL    HW230285   1.446   3.413   3.490
 9796SOL     OW30286   3.080   3.569   3.841
 9796SOL    HW130287   3.134   3.487   3.819
 9796SOL    HW230288   3.133   3.650   3.815
 9797SOL     OW30289   3.125   5.625   7.011
 9797SOL    HW130290   3.101   5.626   6.914
 9797SOL    HW230291   3.150   5.533   0.015
 9798SOL     OW30292   6.974   4.120   6.885
 9798SOL    HW130293   6.913   4.159   6.953
 9798SOL    HW230294   0.021   4.066   6.931
 9799SOL     OW30295   3.976   6.279   6.638
 9799SOL    HW130296   3.920   6.361   6.625
 9799SOL    HW230297   3.920   6.198   6.621
 9800SOL     OW30298   6.307   4.796   4.733
 9800SOL    HW130299   6.289   4.871   4.669
 9800SOL    HW230300   6.333   4.714   4.682
 9801SOL     OW30301   4.369   6.584   1.227
 9801SOL    HW130302   4.308   6.662   1.215
 9801SOL    HW230303   4.417   6.592   1.315
 9802SOL     OW30304   3.393   3.629   0.087
 9802SOL    HW130305   3.413   3.721   0.122
 9802SOL    HW230306   3.436   3.561   0.146
 9803SOL     OW30307   1.621   4.132   6.538
 9803SOL    HW130308   1.623   4.197   6.615
 9803SOL    HW230309   1.606   4.182   6.453
 9804SOL     OW30310   1.089   4.609   3.043
 9804SOL    HW130311   1.060   4.516   3.018
 9804SOL    HW230312   1.013   4.672   3.025
 9805SOL     OW30313   0.059   5.611   4.429
 9805SOL    HW130314   0.061   5.546   4.353
 9805SOL    HW230315   0.004   5.574   4.504
 9806SOL     OW30316   3.626   1.686   0.157
 9806SOL    HW130317   3.720   1.704   0.130
 9806SOL    HW230318   3.603   1.591   0.133
 9807SOL     OW30319   3.827   3.090   3.500
 9807SOL    HW130320   3.875   3.101   3.587
 9807SOL    HW230321   3.731   3.117   3.511
 9808SOL     OW30322   2.996   5.642   2.056
 9808SOL    HW130323   3.040   5.625   1.967
 9808SOL    HW230324   2.903   5.606   2.054
 9809SOL     OW30325   5.896   2.430   0.923
 9809SOL    HW130326   5.895   2.518   0.875
 9809SOL    HW230327   5.950   2.437   1.006
 9810SOL     OW30328   2.384   3.087   1.420
 9810SOL    HW130329   2.452   3.068   1.491
 9810SOL    HW230330   2.378   3.009   1.358
 9811SOL     OW30331   5.316   3.253   4.286
 9811SOL    HW130332   5.272   3.194   4.218
 9811SOL    HW230333   5.333   3.343   4.246
 9812SOL     OW30334   3.432   5.545   6.311
 9812SOL    HW130335   3.386   5.622   6.356
 9812SOL    HW230336   3.507   5.579   6.255
 9813SOL     OW30337   4.231   0.498   2.132
 9813SOL    HW130338   4.320   0.456   2.152
 9813SOL    HW230339   4.236   0.548   2.045
 9814SOL     OW30340   0.034   1.639   5.935
 9814SOL    HW130341   0.005   1.733   5.952
 9814SOL    HW230342   0.051   1.626   5.838
 9815SOL     OW30343   4.298   2.352   4.536
 9815SOL    HW130344   4.320   2.441   4.495
 9815SOL    HW230345   4.286   2.362   4.634
 9816SOL     OW30346   2.827   1.244   0.154
 9816SOL    HW130347   2.848   1.234   0.057
 9816SOL    HW230348   2.740   1.199   0.174
 9817SOL     OW30349   6.519   0.731   1.701
 9817SOL    HW130350   6.599   0.785   1.728
 9817SOL    HW230351   6.548   0.639   1.674
 9818SOL     OW30352   3.873   2.899   5.239
 9818SOL    HW130353   3.888   2.976   5.300
 9818SOL    HW230354   3.778   2.869   5.246
 9819SOL     OW30355   3.208   0.556   1.802
 9819SOL    HW130356   3.179   0.626   1.867
 9819SOL    HW230357   3.139   0.547   1.730
 9820SOL     OW30358   3.591   2.697   0.257
 9820SOL    HW130359   3.643   2.619   0.221
 9820SOL    HW230360   3.621   2.717   0.350
 9821SOL     OW30361   0.153   5.445   6.973
 9821SOL    HW130362   0.097   5.476   0.026
 9821SOL    HW230363   0.246   5.426   7.004
 9822SOL     OW30364   0.283   0.176   2.557
 9822SOL    HW130365   0.323   0.257   2.514
 9822SOL    HW230366   0.206   0.144   2.502
 9823SOL     OW30367   3.486   6.259   1.784
 9823SOL    HW130368   3.529   6.267   1.874
 9823SOL    HW230369   3.480   6.350   1.742
 9824SOL     OW30370   1.886   4.346   6.394
 9824SOL    HW130371   1.859   4.317   6.303
 9824SOL    HW230372   1.929   4.436   6.390
 9825SOL     OW30373   4.471   4.950   5.361
 9825SOL    HW130374   4.422   4.947   5.274
 9825SOL    HW230375   4.405   4.941   5.436
 9826SOL     OW30376   5.554   6.575   5.218
 9826SOL    HW130377   5.628   6.545   5.277
 9826SOL    HW230378   5.504   6.650   5.262
 9827SOL     OW30379   0.755   4.538   4.356
 9827SOL    HW130380   0.749   4.497   4.265
 9827SOL    HW230381   0.693   4.490   4.418
 9828SOL     OW30382   2.509   2.587   6.746
 9828SOL    HW130383   2.478   2.526   6.673
 9828SOL    HW230384   2.525   2.533   6.829
 9829SOL     OW30385   2.506   4.594   1.100
 9829SOL    HW130386   2.577   4.543   1.149
 9829SOL    HW230387   2.437   4.626   1.166
 9830SOL     OW30388   0.048   1.684   0.436
 9830SOL    HW130389   0.102   1.626   0.497
 9830SOL    HW230390   0.060   1.780   0.462
 9831SOL     OW30391   5.704   6.620   1.350
 9831SOL    HW130392   5.661   6.710   1.352
 9831SOL    HW230393   5.788   6.623   1.297
 9832SOL     OW30394   4.023   4.851   1.288
 9832SOL    HW130395   3.924   4.863   1.296
 9832SOL    HW230396   4.050   4.863   1.193
 9833SOL     OW30397   4.655   4.040   5.707
 9833SOL    HW130398   4.677   4.044   5.805
 9833SOL    HW230399   4.725   4.089   5.655
 9834SOL     OW30400   2.128   2.567   4.149
 9834SOL    HW130401   2.215   2.578   4.197
 9834SOL    HW230402   2.053   2.572   4.215
 9835SOL     OW30403   5.198   1.491   4.961
 9835SOL    HW130404   5.212   1.577   4.914
 9835SOL    HW230405   5.218   1.415   4.899
 9836SOL     OW30406   5.255   5.377   1.929
 9836SOL    HW130407   5.345   5.382   1.973
 9836SOL    HW230408   5.187   5.350   1.997
 9837SOL     OW30409   1.731   6.289   5.604
 9837SOL    HW130410   1.633   6.293   5.627
 9837SOL    HW230411   1.743   6.249   5.513
 9838SOL     OW30412   6.474   5.605   4.769
 9838SOL    HW130413   6.551   5.541   4.767
 9838SOL    HW230414   6.388   5.554   4.781
 9839SOL     OW30415   6.546   2.672   2.746
 9839SOL    HW130416   6.506   2.591   2.790
 9839SOL    HW230417   6.483   2.705   2.675
 9840SOL     OW30418   5.980   0.420   0.614
 9840SOL    HW130419   5.957   0.362   0.536
 9840SOL    HW230420   5.926   0.504   0.611
 9841SOL     OW30421   2.143   3.312   3.992
 9841SOL    HW130422   2.058   3.357   4.020
 9841SOL    HW230423   2.219   3.347   4.047
 9842SOL     OW30424   2.968   3.499   3.321
 9842SOL    HW130425   2.948   3.460   3.232
 9842SOL    HW230426   3.065   3.524   3.326
 9843SOL     OW30427   6.027   3.876   3.095
 9843SOL    HW130428   6.015   3.872   2.996
 9843SOL    HW230429   5.937   3.882   3.139
 9844SOL     OW30430   5.282   0.181   2.673
 9844SOL    HW130431   5.347   0.256   2.660
 9844SOL    HW230432   5.201   0.197   2.616
 9845SOL     OW30433   1.249   1.795   3.628
 9845SOL    HW130434   1.215   1.878   3.671
 9845SOL    HW230435   1.256   1.722   3.696
 9846SOL     OW30436   2.939   3.348   3.074
 9846SOL    HW130437   2.945   3.430   3.017
 9846SOL    HW230438   2.989   3.273   3.030
 9847SOL     OW30439   2.008   4.411   4.793
 9847SOL    HW130440   1.966   4.325   4.764
 9847SOL    HW230441   2.005   4.417   4.893
 9848SOL     OW30442   5.494   3.684   0.464
 9848SOL    HW130443   5.430   3.693   0.387
 9848SOL    HW230444   5.514   3.587   0.480
 9849SOL     OW30445   6.948   6.633   5.647
 9849SOL    HW130446   6.957   6.691   5.727
 9849SOL    HW230447   6.888   6.677   5.581
 9850SOL     OW30448   4.712   0.229   2.820
 9850SOL    HW130449   4.636   0.259   2.761
 9850SOL    HW230450   4.676   0.179   2.898
 9851SOL     OW30451   5.489   3.086   5.451
 9851SOL    HW130452   5.475   2.992   5.483
 9851SOL    HW230453   5.534   3.084   5.361
 9852SOL     OW30454   5.312   1.844   4.161
 9852SOL    HW130455   5.234   1.859   4.222
 9852SOL    HW230456   5.394   1.881   4.204
 9853SOL     OW30457   0.367   3.890   1.125
 9853SOL    HW130458   0.298   3.885   1.198
 9853SOL    HW230459   0.354   3.813   1.062
 9854SOL     OW30460   4.348   5.891   3.793
 9854SOL    HW130461   4.381   5.833   3.719
 9854SOL    HW230462   4.412   5.966   3.809
 9855SOL     OW30463   1.711   3.703   0.850
 9855SOL    HW130464   1.677   3.615   0.882
 9855SOL    HW230465   1.650   3.739   0.780
 9856SOL     OW30466   3.904   2.680   0.740
 9856SOL    HW130467   3.944   2.627   0.666
 9856SOL    HW230468   3.932   2.776   0.731
 9857SOL     OW30469   6.255   4.382   2.874
 9857SOL    HW130470   6.239   4.310   2.941
 9857SOL    HW230471   6.178   4.386   2.811
 9858SOL     OW30472   4.163   1.348   1.377
 9858SOL    HW130473   4.193   1.282   1.445
 9858SOL    HW230474   4.232   1.419   1.366
 9859SOL     OW30475   6.398   0.259   1.546
 9859SOL    HW130476   6.352   0.348   1.543
 9859SOL    HW230477   6.330   0.188   1.564
 9860SOL     OW30478   0.602   0.997   2.334
 9860SOL    HW130479   0.557   0.973   2.248
 9860SOL    HW230480   0.537   0.988   2.409
 9861SOL     OW30481   2.893   6.771   4.829
 9861SOL    HW130482   2.984   6.806   4.852
 9861SOL    HW230483   2.900   6.674   4.807
 9862SOL     OW30484   0.697   2.012   1.000
 9862SOL    HW130485   0.682   2.060   1.087
 9862SOL    HW230486   0.732   1.920   1.019
 9863SOL     OW30487   3.008   6.977   0.755
 9863SOL    HW130488   3.101   7.013   0.764
 9863SOL    HW230489   2.987   6.919   0.834
 9864SOL     OW30490   4.314   6.122   2.903
 9864SOL    HW130491   4.343   6.212   2.871
 9864SOL    HW230492   4.311   6.058   2.826
 9865SOL     OW30493   1.432   2.433   4.621
 9865SOL    HW130494   1.401   2.382   4.541
 9865SOL    HW230495   1.532   2.429   4.627
 9866SOL     OW30496   3.749   4.883   3.225
 9866SOL    HW130497   3.814   4.829   3.172
 9866SOL    HW230498   3.777   4.979   3.225
 9867SOL     OW30499   4.250   0.249   6.443
 9867SOL    HW130500   4.302   0.301   6.511
 9867SOL    HW230501   4.263   0.291   6.353
 9868SOL     OW30502   0.144   4.947   6.358
 9868SOL    HW130503   0.055   4.985   6.384
 9868SOL    HW230504   0.167   4.978   6.266
 9869SOL     OW30505   1.778   3.728   3.083
 9869SOL    HW130506   1.851   3.776   3.035
 9869SOL    HW230507   1.694   3.783   3.077
 9870SOL     OW30508   4.922   4.678   2.473
 9870SOL    HW130509   4.955   4.626   2.551
 9870SOL    HW230510   4.870   4.618   2.412
 9871SOL     OW30511   1.289   1.601   5.299
 9871SOL    HW130512   1.216   1.616   5.365
 9871SOL    HW230513   1.357   1.538   5.338
 9872SOL     OW30514   1.309   4.575   3.618
 9872SOL    HW130515   1.282   4.539   3.707
 9872SOL    HW230516   1.334   4.499   3.558
 9873SOL     OW30517   1.509   2.500   0.435
 9873SOL    HW130518   1.545   2.416   0.476
 9873SOL    HW230519   1.413   2.510   0.459
 9874SOL     OW30520   0.830   3.265   3.851
 9874SOL    HW130521   0.852   3.346   3.905
 9874SOL    HW230522   0.819   3.186   3.912
 9875SOL     OW30523   1.425   0.825   3.098
 9875SOL    HW130524   1.407   0.922   3.083
 9875SOL    HW230525   1.521   0.812   3.121
 9876SOL     OW30526   0.013   5.774   2.397
 9876SOL    HW130527   0.093   5.812   2.443
 9876SOL    HW230528   6.972   5.740   2.465
 9877SOL     OW30529   3.823   6.806   1.688
 9877SOL    HW130530   3.761   6.766   1.756
 9877SOL    HW230531   3.830   6.905   1.703
 9878SOL     OW30532   0.795   0.317   5.498
 9878SOL    HW130533   0.745   0.308   5.412
 9878SOL    HW230534   0.860   0.242   5.507
 9879SOL     OW30535   5.277   6.107   5.812
 9879SOL    HW130536   5.343   6.109   5.888
 9879SOL    HW230537   5.316   6.057   5.735
 9880SOL     OW30538   1.838   1.857   4.403
 9880SOL    HW130539   1.898   1.877   4.480
 9880SOL    HW230540   1.797   1.767   4.414
 9881SOL     OW30541   0.079   1.840   6.396
 9881SOL    HW130542   0.086   1.863   6.493
 9881SOL    HW230543   0.071   1.741   6.385
 9882SOL     OW30544   1.733   1.650   2.760
 9882SOL    HW130545   1.692   1.741   2.770
 9882SOL    HW230546   1.687   1.602   2.685
 9883SOL     OW30547   2.948   1.337   2.202
 9883SOL    HW130548   2.970   1.301   2.292
 9883SOL    HW230549   2.944   1.437   2.207
 9884SOL     OW30550   3.734   0.748   4.110
 9884SOL    HW130551   3.816   0.703   4.073
 9884SOL    HW230552   3.750   0.847   4.115
 9885SOL     OW30553   6.723   4.373   3.527
 9885SOL    HW130554   6.762   4.318   3.601
 9885SOL    HW230555   6.645   4.325   3.487
 9886SOL     OW30556   1.118   3.549   1.868
 9886SOL    HW130557   1.215   3.572   1.855
 9886SOL    HW230558   1.065   3.633   1.877
 9887SOL     OW30559   4.434   6.957   5.958
 9887SOL    HW130560   4.397   6.865   5.974
 9887SOL    HW230561   4.388   7.022   6.019
 9888SOL     OW30562   6.541   4.895   0.472
 9888SOL    HW130563   6.463   4.842   0.505
 9888SOL    HW230564   6.566   4.964   0.540
 9889SOL     OW30565   0.333   5.226   0.529
 9889SOL    HW130566   0.426   5.261   0.516
 9889SOL    HW230567   0.284   5.230   0.442
 9890SOL     OW30568   0.988   3.669   0.564
 9890SOL    HW130569   1.082   3.638   0.546
 9890SOL    HW230570   0.954   3.627   0.647
 9891SOL     OW30571   5.011   1.390   1.885
 9891SOL    HW130572   5.020   1.463   1.816
 9891SOL    HW230573   5.070   1.411   1.963
 9892SOL     OW30574   0.392   5.985   0.167
 9892SOL    HW130575   0.339   6.069   0.156
 9892SOL    HW230576   0.468   6.001   0.229
 9893SOL     OW30577   2.679   2.070   1.254
 9893SOL    HW130578   2.654   2.072   1.351
 9893SOL    HW230579   2.596   2.079   1.198
 9894SOL     OW30580   2.010   1.208   1.594
 9894SOL    HW130581   1.917   1.243   1.606
 9894SOL    HW230582   2.062   1.220   1.679
 9895SOL     OW30583   4.547   3.642   5.846
 9895SOL    HW130584   4.457   3.676   5.874
 9895SOL    HW230585   4.542   3.609   5.752
 9896SOL     OW30586   6.644   6.699   6.362
 9896SOL    HW130587   6.631   6.642   6.281
 9896SOL    HW230588   6.738   6.731   6.366
 9897SOL     OW30589   6.010   5.263   4.227
 9897SOL    HW130590   5.928   5.208   4.239
 9897SOL    HW230591   6.013   5.299   4.134
 9898SOL     OW30592   2.784   6.598   5.551
 9898SOL    HW130593   2.845   6.542   5.608
 9898SOL    HW230594   2.689   6.575   5.573
 9899SOL     OW30595   0.116   5.397   6.707
 9899SOL    HW130596   0.194   5.335   6.696
 9899SOL    HW230597   0.103   5.416   6.804
 9900SOL     OW30598   2.130   3.565   3.335
 9900SOL    HW130599   2.202   3.496   3.343
 9900SOL    HW230600   2.070   3.561   3.415
 9901SOL     OW30601   2.235   2.780   5.436
 9901SOL    HW130602   2.331   2.799   5.416
 9901SOL    HW230603   2.187   2.867   5.451
 9902SOL     OW30604   2.955   4.382   6.855
 9902SOL    HW130605   2.938   4.324   6.935
 9902SOL    HW230606   3.044   4.359   6.816
 9903SOL     OW30607   5.733   0.723   4.108
 9903SOL    HW130608   5.780   0.713   4.196
 9903SOL    HW230609   5.798   0.707   4.034
 9904SOL     OW30610   6.377   2.118   0.222
 9904SOL    HW130611   6.344   2.129   0.316
 9904SOL    HW230612   6.368   2.023   0.193
 9905SOL     OW30613   5.300   0.798   0.207
 9905SOL    HW130614   5.243   0.872   0.172
 9905SOL    HW230615   5.385   0.836   0.244
 9906SOL     OW30616   3.765   2.916   4.970
 9906SOL    HW130617   3.668   2.902   4.993
 9906SOL    HW230618   3.821   2.866   5.035
 9907SOL     OW30619   0.845   0.244   1.609
 9907SOL    HW130620   0.931   0.271   1.565
 9907SOL    HW230621   0.865   0.190   1.691
 9908SOL     OW30622   5.149   3.473   2.876
 9908SOL    HW130623   5.175   3.531   2.954
 9908SOL    HW230624   5.208   3.392   2.874
 9909SOL     OW30625   2.167   0.405   4.939
 9909SOL    HW130626   2.173   0.313   4.898
 9909SOL    HW230627   2.256   0.450   4.929
 9910SOL     OW30628   0.191   4.451   3.418
 9910SOL    HW130629   0.216   4.357   3.392
 9910SOL    HW230630   0.100   4.450   3.461
 9911SOL     OW30631   2.684   5.858   2.814
 9911SOL    HW130632   2.774   5.902   2.812
 9911SOL    HW230633   2.632   5.894   2.892
 9912SOL     OW30634   5.402   0.759   6.488
 9912SOL    HW130635   5.446   0.732   6.574
 9912SOL    HW230636   5.458   0.731   6.411
 9913SOL     OW30637   4.372   3.130   6.720
 9913SOL    HW130638   4.291   3.149   6.775
 9913SOL    HW230639   4.367   3.038   6.683
 9914SOL     OW30640   0.110   4.061   4.472
 9914SOL    HW130641   0.017   4.052   4.436
 9914SOL    HW230642   0.106   4.099   4.565
 9915SOL     OW30643   5.387   1.024   3.399
 9915SOL    HW130644   5.437   1.002   3.483
 9915SOL    HW230645   5.434   1.097   3.350
 9916SOL     OW30646   2.186   2.769   1.674
 9916SOL    HW130647   2.135   2.712   1.610
 9916SOL    HW230648   2.270   2.801   1.632
 9917SOL     OW30649   5.956   4.587   4.560
 9917SOL    HW130650   6.055   4.588   4.542
 9917SOL    HW230651   5.940   4.595   4.658
 9918SOL     OW30652   4.686   2.616   2.562
 9918SOL    HW130653   4.660   2.624   2.658
 9918SOL    HW230654   4.723   2.703   2.530
 9919SOL     OW30655   6.200   6.649   0.178
 9919SOL    HW130656   6.169   6.726   0.234
 9919SOL    HW230657   6.292   6.667   0.144
 9920SOL     OW30658   4.780   1.262   2.652
 9920SOL    HW130659   4.704   1.326   2.665
 9920SOL    HW230660   4.815   1.233   2.741
 9921SOL     OW30661   3.416   4.937   6.344
 9921SOL    HW130662   3.499   4.963   6.295
 9921SOL    HW230663   3.419   4.840   6.366
 9922SOL     OW30664   0.153   5.208   0.746
 9922SOL    HW130665   0.087   5.134   0.747
 9922SOL    HW230666   0.225   5.188   0.679
 9923SOL     OW30667   5.430   4.675   1.168
 9923SOL    HW130668   5.497   4.627   1.225
 9923SOL    HW230669   5.353   4.704   1.225
 9924SOL     OW30670   0.768   3.759   4.746
 9924SOL    HW130671   0.690   3.697   4.753
 9924SOL    HW230672   0.789   3.798   4.836
 9925SOL     OW30673   5.045   2.299   3.124
 9925SOL    HW130674   5.100   2.226   3.165
 9925SOL    HW230675   5.056   2.382   3.178
 9926SOL     OW30676   2.706   5.471   6.733
 9926SOL    HW130677   2.791   5.442   6.688
 9926SOL    HW230678   2.671   5.396   6.788
 9927SOL     OW30679   5.693   0.157   3.322
 9927SOL    HW130680   5.695   0.084   3.390
 9927SOL    HW230681   5.787   0.175   3.290
 9928SOL     OW30682   4.679   4.700   2.005
 9928SOL    HW130683   4.747   4.723   2.075
 9928SOL    HW230684   4.714   4.626   1.947
 9929SOL     OW30685   1.188   4.730   2.413
 9929SOL    HW130686   1.238   4.752   2.497
 9929SOL    HW230687   1.117   4.661   2.434
 9930SOL     OW30688   6.687   0.388   3.536
 9930SOL    HW130689   6.696   0.293   3.506
 9930SOL    HW230690   6.743   0.402   3.618
 9931SOL     OW30691   0.659   4.715   5.888
 9931SOL    HW130692   0.601   4.659   5.828
 9931SOL    HW230693   0.691   4.660   5.964
 9932SOL     OW30694   0.423   6.246   5.093
 9932SOL    HW130695   0.376   6.260   5.180
 9932SOL    HW230696   0.491   6.173   5.103
 9933SOL     OW30697   0.932   6.089   2.194
 9933SOL    HW130698   0.926   6.184   2.227
 9933SOL    HW230699   1.027   6.058   2.202
 9934SOL     OW30700   6.760   1.848   6.107
 9934SOL    HW130701   6.794   1.892   6.190
 9934SOL    HW230702   6.835   1.835   6.043
 9935SOL     OW30703   3.343   0.440   6.425
 9935SOL    HW130704   3.334   0.350   6.467
 9935SOL    HW230705   3.257   0.490   6.435
 9936SOL     OW30706   0.757   3.818   3.652
 9936SOL    HW130707   0.822   3.894   3.658
 9936SOL    HW230708   0.788   3.754   3.582
 9937SOL     OW30709   6.534   2.321   6.465
 9937SOL    HW130710   6.581   2.366   6.390
 9937SOL    HW230711   6.538   2.222   6.453
 9938SOL     OW30712   7.002   6.359   2.712
 9938SOL    HW130713   7.002   6.272   2.762
 9938SOL    HW230714   0.053   6.417   2.745
 9939SOL     OW30715   3.615   3.394   2.888
 9939SOL    HW130716   3.555   3.461   2.932
 9939SOL    HW230717   3.567   3.306   2.880
 9940SOL     OW30718   6.997   1.247   0.528
 9940SOL    HW130719   0.015   1.193   0.455
 9940SOL    HW230720   7.014   1.203   0.616
 9941SOL     OW30721   2.831   5.582   5.446
 9941SOL    HW130722   2.786   5.494   5.462
 9941SOL    HW230723   2.804   5.647   5.517
 9942SOL     OW30724   3.004   5.721   4.104
 9942SOL    HW130725   2.953   5.637   4.086
 9942SOL    HW230726   3.066   5.740   4.028
 9943SOL     OW30727   1.548   6.708   4.867
 9943SOL    HW130728   1.470   6.753   4.824
 9943SOL    HW230729   1.630   6.764   4.854
 9944SOL     OW30730   1.445   4.173   6.984
 9944SOL    HW130731   1.492   4.210   0.040
 9944SOL    HW230732   1.356   4.137   7.011
 9945SOL     OW30733   6.557   5.894   6.657
 9945SOL    HW130734   6.529   5.899   6.560
 9945SOL    HW230735   6.490   5.943   6.713
 9946SOL     OW30736   5.447   1.431   4.639
 9946SOL    HW130737   5.483   1.338   4.646
 9946SOL    HW230738   5.473   1.470   4.551
 9947SOL     OW30739   6.289   4.714   3.453
 9947SOL    HW130740   6.322   4.772   3.379
 9947SOL    HW230741   6.307   4.618   3.431
 9948SOL     OW30742   5.350   3.718   4.018
 9948SOL    HW130743   5.344   3.774   3.935
 9948SOL    HW230744   5.260   3.712   4.061
 9949SOL     OW30745   5.726   5.171   2.240
 9949SOL    HW130746   5.798   5.220   2.191
 9949SOL    HW230747   5.732   5.192   2.338
 9950SOL     OW30748   3.387   5.783   6.039
 9950SOL    HW130749   3.313   5.770   6.105
 9950SOL    HW230750   3.389   5.705   5.976
 9951SOL     OW30751   6.310   2.599   3.277
 9951SOL    HW130752   6.242   2.578   3.347
 9951SOL    HW230753   6.400   2.568   3.307
 9952SOL     OW30754   0.074   5.136   6.867
 9952SOL    HW130755   0.055   5.167   6.774
 9952SOL    HW230756   0.173   5.130   6.881
 9953SOL     OW30757   6.340   2.769   3.741
 9953SOL    HW130758   6.432   2.772   3.781
 9953SOL    HW230759   6.338   2.826   3.659
 9954SOL     OW30760   3.895   0.361   5.594
 9954SOL    HW130761   3.819   0.296   5.586
 9954SOL    HW230762   3.978   0.320   5.556
 9955SOL     OW30763   0.138   4.615   4.561
 9955SOL    HW130764   0.120   4.641   4.466
 9955SOL    HW230765   0.057   4.573   4.600
 9956SOL     OW30766   1.119   6.112   0.136
 9956SOL    HW130767   1.204   6.086   0.181
 9956SOL    HW230768   1.055   6.148   0.205
 9957SOL     OW30769   5.880   5.277   2.437
 9957SOL    HW130770   5.935   5.278   2.353
 9957SOL    HW230771   5.921   5.215   2.504
 9958SOL     OW30772   2.099   4.422   0.989
 9958SOL    HW130773   2.043   4.383   1.061
 9958SOL    HW230774   2.042   4.480   0.930
 9959SOL     OW30775   3.387   3.641   1.085
 9959SOL    HW130776   3.366   3.543   1.078
 9959SOL    HW230777   3.454   3.655   1.159
 9960SOL     OW30778   0.672   1.674   1.945
 9960SOL    HW130779   0.630   1.619   2.017
 9960SOL    HW230780   0.695   1.616   1.867
 9961SOL     OW30781   2.155   3.906   4.641
 9961SOL    HW130782   2.166   3.949   4.731
 9961SOL    HW230783   2.183   3.972   4.570
 9962SOL     OW30784   5.243   6.486   4.599
 9962SOL    HW130785   5.153   6.529   4.610
 9962SOL    HW230786   5.307   6.526   4.664
 9963SOL     OW30787   3.180   1.084   0.768
 9963SOL    HW130788   3.187   0.985   0.769
 9963SOL    HW230789   3.199   1.118   0.675
 9964SOL     OW30790   5.326   6.005   4.763
 9964SOL    HW130791   5.266   5.934   4.727
 9964SOL    HW230792   5.275   6.063   4.826
 9965SOL     OW30793   4.174   6.858   0.332
 9965SOL    HW130794   4.152   6.951   0.303
 9965SOL    HW230795   4.225   6.811   0.260
 9966SOL     OW30796   6.965   0.142   3.195
 9966SOL    HW130797   6.961   0.168   3.098
 9966SOL    HW230798   6.878   0.104   3.223
 9967SOL     OW30799   0.988   5.594   0.694
 9967SOL    HW130800   1.021   5.550   0.611
 9967SOL    HW230801   1.015   5.540   0.773
 9968SOL     OW30802   2.914   3.634   2.945
 9968SOL    HW130803   2.830   3.668   2.988
 9968SOL    HW230804   2.908   3.646   2.845
 9969SOL     OW30805   1.414   3.291   1.390
 9969SOL    HW130806   1.394   3.350   1.468
 9969SOL    HW230807   1.343   3.303   1.320
 9970SOL     OW30808   5.960   4.582   1.665
 9970SOL    HW130809   6.038   4.558   1.722
 9970SOL    HW230810   5.937   4.679   1.679
 9971SOL     OW30811   2.432   6.279   0.181
 9971SOL    HW130812   2.382   6.193   0.188
 9971SOL    HW230813   2.395   6.345   0.246
 9972SOL     OW30814   6.636   5.007   1.339
 9972SOL    HW130815   6.556   5.055   1.305
 9972SOL    HW230816   6.657   4.930   1.279
 9973SOL     OW30817   5.981   6.958   3.327
 9973SOL    HW130818   5.975   6.858   3.323
 9973SOL    HW230819   6.059   6.984   3.384
 9974SOL     OW30820   2.557   0.255   4.321
 9974SOL    HW130821   2.632   0.317   4.296
 9974SOL    HW230822   2.504   0.233   4.239
 9975SOL     OW30823   6.275   4.053   0.440
 9975SOL    HW130824   6.242   4.055   0.346
 9975SOL    HW230825   6.324   3.968   0.457
 9976SOL     OW30826   2.183   6.616   5.015
 9976SOL    HW130827   2.277   6.584   5.001
 9976SOL    HW230828   2.178   6.667   5.101
 9977SOL     OW30829   6.611   4.377   4.058
 9977SOL    HW130830   6.590   4.382   3.961
 9977SOL    HW230831   6.612   4.469   4.097
 9978SOL     OW30832   0.451   2.786   5.181
 9978SOL    HW130833   0.518   2.802   5.253
 9978SOL    HW230834   0.498   2.769   5.095
 9979SOL     OW30835   0.718   4.127   5.020
 9979SOL    HW130836   0.758   4.218   5.005
 9979SOL    HW230837   0.787   4.057   5.001
 9980SOL     OW30838   2.848   6.487   4.731
 9980SOL    HW130839   2.822   6.496   4.828
 9980SOL    HW230840   2.785   6.423   4.686
 9981SOL     OW30841   4.118   2.279   3.947
 9981SOL    HW130842   4.173   2.233   4.016
 9981SOL    HW230843   4.080   2.363   3.985
 9982SOL     OW30844   6.772   6.075   2.795
 9982SOL    HW130845   6.748   5.986   2.835
 9982SOL    HW230846   6.863   6.102   2.827
 9983SOL     OW30847   6.791   1.123   0.848
 9983SOL    HW130848   6.777   1.221   0.861
 9983SOL    HW230849   6.714   1.073   0.888
 9984SOL     OW30850   2.623   1.018   6.844
 9984SOL    HW130851   2.642   1.109   6.806
 9984SOL    HW230852   2.567   1.027   6.926
 9985SOL     OW30853   1.988   1.919   1.762
 9985SOL    HW130854   2.056   1.877   1.701
 9985SOL    HW230855   1.907   1.945   1.709
 9986SOL     OW30856   4.780   3.982   4.701
 9986SOL    HW130857   4.778   3.900   4.644
 9986SOL    HW230858   4.872   3.994   4.739
 9987SOL     OW30859   0.358   4.519   5.984
 9987SOL    HW130860   0.326   4.424   5.995
 9987SOL    HW230861   0.442   4.532   6.037
 9988SOL     OW30862   6.615   0.119   4.439
 9988SOL    HW130863   6.601   0.028   4.400
 9988SOL    HW230864   6.654   0.180   4.370
 9989SOL     OW30865   1.324   3.061   4.292
 9989SOL    HW130866   1.284   3.054   4.384
 9989SOL    HW230867   1.398   3.128   4.293
 9990SOL     OW30868   1.478   5.413   2.055
 9990SOL    HW130869   1.461   5.499   2.103
 9990SOL    HW230870   1.559   5.424   1.997
 9991SOL     OW30871   4.144   2.105   3.099
 9991SOL    HW130872   4.140   2.053   3.184
 9991SOL    HW230873   4.128   2.202   3.119
 9992SOL     OW30874   6.827   5.324   6.008
 9992SOL    HW130875   6.854   5.311   6.103
 9992SOL    HW230876   6.901   5.368   5.958
 9993SOL     OW30877   1.347   0.778   2.216
 9993SOL    HW130878   1.262   0.724   2.215
 9993SOL    HW230879   1.327   0.870   2.249
 9994SOL     OW30880   6.355   4.823   3.194
 9994SOL    HW130881   6.439   4.796   3.147
 9994SOL    HW230882   6.279   4.767   3.162
 9995SOL     OW30883   5.044   1.144   4.618
 9995SOL    HW130884   4.984   1.164   4.695
 9995SOL    HW230885   5.105   1.069   4.641
 9996SOL     OW30886   2.406   3.267   6.710
 9996SOL    HW130887   2.347   3.261   6.630
 9996SOL    HW230888   2.442   3.177   6.732
 9997SOL     OW30889   2.371   0.413   4.468
 9997SOL    HW130890   2.437   0.369   4.406
 9997SOL    HW230891   2.278   0.385   4.443
 9998SOL     OW30892   5.729   6.445   5.402
 9998SOL    HW130893   5.768   6.356   5.381
 9998SOL    HW230894   5.756   6.472   5.494
 9999SOL     OW30895   6.954   1.565   4.644
 9999SOL    HW130896   6.904   1.570   4.730
 9999SOL    HW230897   0.019   1.609   4.655
10000SOL     OW30898   6.841   4.746   0.014
10000SOL    HW130899   6.868   4.791   6.953
10000SOL    HW230900   6.792   4.811   0.073
10001SOL     OW30901   4.079   6.980   3.706
10001SOL    HW130902   4.004   6.923   3.738
10001SOL    HW230903   4.133   6.930   3.638
10002SOL     OW30904   1.741   1.711   1.983
10002SOL    HW130905   1.802   1.763   1.922
10002SOL    HW230906   1.687   1.647   1.929
10003SOL     OW30907   5.158   3.138   3.113
10003SOL    HW130908   5.154   3.229   3.154
10003SOL    HW230909   5.218   3.140   3.033
10004SOL     OW30910   0.538   2.872   3.229
10004SOL    HW130911   0.495   2.782   3.226
10004SOL    HW230912   0.546   2.908   3.135
10005SOL     OW30913   5.349   0.157   4.392
10005SOL    HW130914   5.344   0.066   4.351
10005SOL    HW230915   5.292   0.221   4.340
10006SOL     OW30916   4.588   1.616   4.712
10006SOL    HW130917   4.608   1.518   4.711
10006SOL    HW230918   4.597   1.652   4.805
10007SOL     OW30919   6.424   3.813   4.040
10007SOL    HW130920   6.447   3.754   3.962
10007SOL    HW230921   6.416   3.908   4.009
10008SOL     OW30922   3.554   0.004   3.811
10008SOL    HW130923   3.529   6.948   3.756
10008SOL    HW230924   3.632   7.004   3.870
10009SOL     OW30925   2.288   4.483   1.645
10009SOL    HW130926   2.251   4.568   1.682
10009SOL    HW230927   2.331   4.430   1.718
10010SOL     OW30928   5.679   0.969   6.135
10010SOL    HW130929   5.632   1.035   6.194
10010SOL    HW230930   5.734   1.018   6.067
10011SOL     OW30931   7.005   6.733   4.137
10011SOL    HW130932   6.921   6.785   4.127
10011SOL    HW230933   0.035   6.738   4.053
10012SOL     OW30934   6.007   0.492   4.410
10012SOL    HW130935   6.036   0.563   4.346
10012SOL    HW230936   6.073   0.416   4.409
10013SOL     OW30937   1.672   1.068   2.071
10013SOL    HW130938   1.711   1.039   1.984
10013SOL    HW230939   1.690   0.997   2.140
10014SOL     OW30940   1.410   4.843   5.698
10014SOL    HW130941   1.472   4.853   5.776
10014SOL    HW230942   1.352   4.923   5.690
10015SOL     OW30943   2.182   5.640   6.627
10015SOL    HW130944   2.120   5.660   6.550
10015SOL    HW230945   2.157   5.696   6.706
10016SOL     OW30946   2.526   0.774   5.349
10016SOL    HW130947   2.454   0.814   5.291
10016SOL    HW230948   2.547   0.836   5.424
10017SOL     OW30949   0.264   2.272   4.299
10017SOL    HW130950   0.343   2.221   4.265
10017SOL    HW230951   0.238   2.341   4.232
10018SOL     OW30952   5.300   6.679   5.756
10018SOL    HW130953   5.299   6.589   5.800
10018SOL    HW230954   5.229   6.682   5.686
10019SOL     OW30955   1.841   0.974   2.742
10019SOL    HW130956   1.786   1.003   2.820
10019SOL    HW230957   1.933   1.012   2.751
10020SOL     OW30958   6.905   3.046   6.961
10020SOL    HW130959   6.848   3.126   6.980
10020SOL    HW230960   6.969   3.067   6.887
10021SOL     OW30961   5.297   2.833   1.656
10021SOL    HW130962   5.207   2.815   1.696
10021SOL    HW230963   5.286   2.875   1.566
10022SOL     OW30964   2.020   0.756   6.428
10022SOL    HW130965   1.993   0.816   6.504
10022SOL    HW230966   2.095   0.799   6.377
10023SOL     OW30967   0.378   2.927   0.875
10023SOL    HW130968   0.431   3.008   0.901
10023SOL    HW230969   0.282   2.941   0.900
10024SOL     OW30970   1.295   4.399   3.004
10024SOL    HW130971   1.337   4.489   3.017
10024SOL    HW230972   1.336   4.355   2.924
10025SOL     OW30973   0.626   0.964   0.974
10025SOL    HW130974   0.677   1.018   1.041
10025SOL    HW230975   0.581   1.026   0.909
10026SOL     OW30976   6.632   0.348   4.283
10026SOL    HW130977   6.648   0.405   4.363
10026SOL    HW230978   6.537   0.356   4.254
10027SOL     OW30979   6.035   2.551   5.872
10027SOL    HW130980   6.045   2.451   5.879
10027SOL    HW230981   6.025   2.576   5.776
10028SOL     OW30982   2.376   0.474   1.712
10028SOL    HW130983   2.459   0.450   1.763
10028SOL    HW230984   2.393   0.558   1.659
10029SOL     OW30985   4.307   1.306   4.167
10029SOL    HW130986   4.270   1.299   4.074
10029SOL    HW230987   4.255   1.375   4.218
10030SOL     OW30988   1.440   1.140   3.082
10030SOL    HW130989   1.489   1.165   2.998
10030SOL    HW230990   1.495   1.164   3.161
10031SOL     OW30991   6.561   4.610   3.553
10031SOL    HW130992   6.603   4.521   3.571
10031SOL    HW230993   6.472   4.614   3.598
10032SOL     OW30994   3.428   1.632   5.403
10032SOL    HW130995   3.416   1.576   5.322
10032SOL    HW230996   3.361   1.706   5.403
10033SOL     OW30997   5.117   3.206   4.080
10033SOL    HW130998   5.187   3.153   4.031
10033SOL    HW230999   5.028   3.189   4.038
10034SOL     OW31000   3.868   6.983   5.875
10034SOL    HW131001   3.960   6.992   5.839
10034SOL    HW231002   3.837   6.889   5.863
10035SOL     OW31003   0.473   6.957   3.584
10035SOL    HW131004   0.377   6.938   3.603
10035SOL    HW231005   0.503   6.906   3.504
10036SOL     OW31006   6.559   0.403   0.201
10036SOL    HW131007   6.606   0.335   0.144
10036SOL    HW231008   6.604   0.406   0.291
10037SOL     OW31009   6.644   6.864   1.290
10037SOL    HW131010   6.548   6.867   1.321
10037SOL    HW231011   6.692   6.944   1.324
10038SOL     OW31012   6.209   0.494   1.046
10038SOL    HW131013   6.233   0.397   1.055
10038SOL    HW231014   6.289   0.550   1.068
10039SOL     OW31015   4.002   0.409   3.387
10039SOL    HW131016   4.084   0.466   3.396
10039SOL    HW231017   3.929   0.447   3.444
10040SOL     OW31018   0.448   2.408   0.801
10040SOL    HW131019   0.437   2.395   0.900
10040SOL    HW231020   0.358   2.408   0.757
10041SOL     OW31021   1.300   6.724   0.652
10041SOL    HW131022   1.253   6.636   0.661
10041SOL    HW231023   1.399   6.710   0.662
10042SOL     OW31024   6.008   2.027   3.489
10042SOL    HW131025   5.971   2.044   3.398
10042SOL    HW231026   6.011   1.928   3.506
10043SOL     OW31027   1.518   2.919   5.200
10043SOL    HW131028   1.479   2.905   5.109
10043SOL    HW231029   1.609   2.960   5.191
10044SOL     OW31030   4.634   1.422   6.680
10044SOL    HW131031   4.593   1.511   6.657
10044SOL    HW231032   4.574   1.372   6.741
10045SOL     OW31033   2.811   1.199   1.075
10045SOL    HW131034   2.860   1.141   1.141
10045SOL    HW231035   2.735   1.244   1.121
10046SOL     OW31036   0.791   5.394   0.880
10046SOL    HW131037   0.761   5.385   0.785
10046SOL    HW231038   0.731   5.458   0.928
10047SOL     OW31039   1.628   3.419   0.549
10047SOL    HW131040   1.593   3.341   0.496
10047SOL    HW231041   1.688   3.386   0.621
10048SOL     OW31042   6.094   4.750   1.947
10048SOL    HW131043   6.172   4.704   1.988
10048SOL    HW231044   6.014   4.739   2.006
10049SOL     OW31045   6.251   1.486   4.935
10049SOL    HW131046   6.177   1.513   4.875
10049SOL    HW231047   6.269   1.388   4.926
10050SOL     OW31048   6.541   3.101   5.718
10050SOL    HW131049   6.522   3.044   5.638
10050SOL    HW231050   6.632   3.080   5.753
10051SOL     OW31051   2.345   1.513   4.170
10051SOL    HW131052   2.282   1.505   4.247
10051SOL    HW231053   2.307   1.463   4.091
10052SOL     OW31054   1.071   0.495   3.732
10052SOL    HW131055   0.974   0.474   3.724
10052SOL    HW231056   1.118   0.420   3.780
10053SOL     OW31057   5.877   4.860   2.971
10053SOL    HW131058   5.843   4.949   2.940
10053SOL    HW231059   5.800   4.803   2.998
10054SOL     OW31060   6.222   3.819   4.380
10054SOL    HW131061   6.257   3.913   4.386
10054SOL    HW231062   6.248   3.779   4.293
10055SOL     OW31063   1.820   1.722   0.060
10055SOL    HW131064   1.735   1.731   0.112
10055SOL    HW231065   1.805   1.753   6.990
10056SOL     OW31066   5.805   2.145   4.325
10056SOL    HW131067   5.791   2.091   4.407
10056SOL    HW231068   5.748   2.228   4.329
10057SOL     OW31069   5.847   4.739   5.563
10057SOL    HW131070   5.906   4.802   5.613
10057SOL    HW231071   5.833   4.773   5.470
10058SOL     OW31072   6.661   4.157   4.226
10058SOL    HW131073   6.567   4.126   4.242
10058SOL    HW231074   6.661   4.235   4.164
10059SOL     OW31075   5.016   6.406   6.938
10059SOL    HW131076   5.107   6.364   6.939
10059SOL    HW231077   4.975   6.396   6.848
10060SOL     OW31078   2.869   1.800   2.327
10060SOL    HW131079   2.800   1.848   2.273
10060SOL    HW231080   2.832   1.780   2.418
10061SOL     OW31081   3.685   6.548   2.582
10061SOL    HW131082   3.647   6.461   2.551
10061SOL    HW231083   3.706   6.606   2.503
10062SOL     OW31084   6.640   6.941   4.729
10062SOL    HW131085   6.718   6.999   4.754
10062SOL    HW231086   6.656   6.848   4.762
10063SOL     OW31087   3.176   2.158   4.863
10063SOL    HW131088   3.155   2.214   4.943
10063SOL    HW231089   3.123   2.073   4.867
10064SOL     OW31090   3.256   0.223   2.255
10064SOL    HW131091   3.179   0.275   2.216
10064SOL    HW231092   3.227   0.129   2.271
10065SOL     OW31093   0.286   1.855   1.651
10065SOL    HW131094   0.234   1.805   1.721
10065SOL    HW231095   0.295   1.951   1.679
10066SOL     OW31096   6.565   4.056   3.669
10066SOL    HW131097   6.621   4.048   3.751
10066SOL    HW231098   6.585   3.980   3.607
10067SOL     OW31099   6.090   3.910   5.403
10067SOL    HW131100   6.158   3.849   5.444
10067SOL    HW231101   6.135   3.976   5.343
10068SOL     OW31102   1.924   3.004   2.189
10068SOL    HW131103   2.008   2.949   2.188
10068SOL    HW231104   1.949   3.101   2.195
10069SOL     OW31105   3.152   4.783   1.577
10069SOL    HW131106   3.241   4.823   1.555
10069SOL    HW231107   3.162   4.685   1.590
10070SOL     OW31108   4.964   6.990   0.473
10070SOL    HW131109   5.030   6.977   0.548
10070SOL    HW231110   4.932   0.061   0.474
10071SOL     OW31111   5.416   0.661   5.702
10071SOL    HW131112   5.360   0.737   5.736
10071SOL    HW231113   5.491   0.644   5.766
10072SOL     OW31114   5.735   2.727   2.206
10072SOL    HW131115   5.698   2.634   2.199
10072SOL    HW231116   5.834   2.724   2.195
10073SOL     OW31117   5.609   5.871   5.674
10073SOL    HW131118   5.658   5.848   5.758
10073SOL    HW231119   5.671   5.859   5.596
10074SOL     OW31120   1.909   4.969   0.790
10074SOL    HW131121   1.878   5.063   0.788
10074SOL    HW231122   1.872   4.920   0.711
10075SOL     OW31123   1.492   2.789   1.638
10075SOL    HW131124   1.578   2.762   1.680
10075SOL    HW231125   1.511   2.848   1.558
10076SOL     OW31126   5.760   3.893   3.908
10076SOL    HW131127   5.824   3.922   3.979
10076SOL    HW231128   5.672   3.939   3.921
10077SOL     OW31129   4.141   3.640   6.338
10077SOL    HW131130   4.173   3.725   6.297
10077SOL    HW231131   4.112   3.658   6.432
10078SOL     OW31132   5.760   5.344   4.652
10078SOL    HW131133   5.742   5.358   4.555
10078SOL    HW231134   5.852   5.377   4.674
10079SOL     OW31135   5.277   5.006   2.801
10079SOL    HW131136   5.210   5.039   2.867
10079SOL    HW231137   5.286   4.907   2.809
10080SOL     OW31138   5.527   2.201   5.606
10080SOL    HW131139   5.566   2.271   5.666
10080SOL    HW231140   5.427   2.210   5.604
10081SOL     OW31141   1.851   4.916   6.732
10081SOL    HW131142   1.923   4.917   6.663
10081SOL    HW231143   1.762   4.925   6.686
10082SOL     OW31144   1.295   4.907   1.159
10082SOL    HW131145   1.256   4.988   1.202
10082SOL    HW231146   1.224   4.857   1.110
10083SOL     OW31147   2.833   6.194   2.822
10083SOL    HW131148   2.867   6.287   2.830
10083SOL    HW231149   2.746   6.194   2.772
10084SOL     OW31150   1.464   3.017   4.669
10084SOL    HW131151   1.509   2.933   4.641
10084SOL    HW231152   1.528   3.075   4.719
10085SOL     OW31153   4.544   6.825   1.686
10085SOL    HW131154   4.635   6.861   1.705
10085SOL    HW231155   4.519   6.759   1.756
10086SOL     OW31156   3.453   0.049   3.071
10086SOL    HW131157   3.490   6.987   3.035
10086SOL    HW231158   3.482   0.061   3.166
10087SOL     OW31159   1.531   5.533   5.247
10087SOL    HW131160   1.504   5.590   5.324
10087SOL    HW231161   1.599   5.466   5.277
10088SOL     OW31162   6.669   2.289   1.272
10088SOL    HW131163   6.699   2.246   1.186
10088SOL    HW231164   6.585   2.341   1.255
10089SOL     OW31165   4.307   6.823   2.032
10089SOL    HW131166   4.295   6.865   1.942
10089SOL    HW231167   4.348   6.889   2.095
10090SOL     OW31168   2.037   5.721   2.630
10090SOL    HW131169   2.028   5.633   2.582
10090SOL    HW231170   2.105   5.712   2.703
10091SOL     OW31171   5.546   4.790   3.823
10091SOL    HW131172   5.627   4.754   3.776
10091SOL    HW231173   5.498   4.853   3.762
10092SOL     OW31174   0.281   1.255   2.639
10092SOL    HW131175   0.210   1.188   2.662
10092SOL    HW231176   0.355   1.250   2.706
10093SOL     OW31177   4.588   3.536   6.384
10093SOL    HW131178   4.542   3.615   6.343
10093SOL    HW231179   4.519   3.469   6.413
10094SOL     OW31180   3.785   2.435   0.465
10094SOL    HW131181   3.752   2.396   0.551
10094SOL    HW231182   3.734   2.396   0.389
10095SOL     OW31183   4.542   2.718   5.673
10095SOL    HW131184   4.572   2.812   5.692
10095SOL    HW231185   4.572   2.692   5.582
10096SOL     OW31186   6.794   4.253   2.490
10096SOL    HW131187   6.835   4.345   2.483
10096SOL    HW231188   6.857   4.193   2.538
10097SOL     OW31189   0.849   1.682   0.763
10097SOL    HW131190   0.857   1.583   0.754
10097SOL    HW231191   0.766   1.714   0.717
10098SOL     OW31192   3.794   5.453   6.192
10098SOL    HW131193   3.878   5.451   6.247
10098SOL    HW231194   3.753   5.544   6.196
10099SOL     OW31195   0.287   5.764   3.439
10099SOL    HW131196   0.337   5.801   3.361
10099SOL    HW231197   0.350   5.748   3.514
10100SOL     OW31198   5.326   4.726   4.001
10100SOL    HW131199   5.415   4.760   3.972
10100SOL    HW231200   5.254   4.764   3.943
10101SOL     OW31201   6.996   2.556   6.843
10101SOL    HW131202   6.899   2.534   6.850
10101SOL    HW231203   7.008   2.655   6.835
10102SOL     OW31204   0.004   4.925   2.623
10102SOL    HW131205   0.043   4.890   2.708
10102SOL    HW231206   0.040   4.872   2.546
10103SOL     OW31207   6.951   6.827   6.743
10103SOL    HW131208   6.907   6.887   6.676
10103SOL    HW231209   0.006   6.874   6.783
10104SOL     OW31210   2.651   0.875   4.986
10104SOL    HW131211   2.560   0.911   4.963
10104SOL    HW231212   2.716   0.950   4.992
10105SOL     OW31213   3.452   1.594   4.179
10105SOL    HW131214   3.374   1.597   4.241
10105SOL    HW231215   3.432   1.532   4.103
10106SOL     OW31216   5.998   4.018   1.282
10106SOL    HW131217   5.936   4.096   1.286
10106SOL    HW231218   6.079   4.036   1.337
10107SOL     OW31219   5.376   6.103   6.448
10107SOL    HW131220   5.468   6.140   6.455
10107SOL    HW231221   5.311   6.165   6.492
10108SOL     OW31222   2.574   2.558   4.811
10108SOL    HW131223   2.554   2.623   4.884
10108SOL    HW231224   2.502   2.563   4.742
10109SOL     OW31225   1.198   3.144   1.044
10109SOL    HW131226   1.249   3.113   0.964
10109SOL    HW231227   1.100   3.136   1.026
10110SOL     OW31228   6.436   6.072   2.490
10110SOL    HW131229   6.426   6.143   2.421
10110SOL    HW231230   6.354   6.070   2.548
10111SOL     OW31231   6.640   2.579   1.695
10111SOL    HW131232   6.724   2.604   1.646
10111SOL    HW231233   6.597   2.662   1.731
10112SOL     OW31234   6.876   2.878   4.148
10112SOL    HW131235   6.802   2.875   4.215
10112SOL    HW231236   6.851   2.937   4.071
10113SOL     OW31237   6.985   5.747   5.676
10113SOL    HW131238   6.942   5.828   5.716
10113SOL    HW231239   0.026   5.708   5.742
10114SOL     OW31240   5.092   3.928   1.594
10114SOL    HW131241   5.038   3.943   1.511
10114SOL    HW231242   5.046   3.859   1.651
10115SOL     OW31243   3.686   2.544   6.530
10115SOL    HW131244   3.604   2.509   6.485
10115SOL    HW231245   3.659   2.599   6.609
10116SOL     OW31246   0.455   6.894   6.495
10116SOL    HW131247   0.495   6.804   6.478
10116SOL    HW231248   0.392   6.888   6.573
10117SOL     OW31249   0.354   4.485   1.300
10117SOL    HW131250   0.377   4.467   1.205
10117SOL    HW231251   0.438   4.505   1.351
10118SOL     OW31252   4.331   4.770   3.685
10118SOL    HW131253   4.240   4.807   3.666
10118SOL    HW231254   4.394   4.797   3.612
10119SOL     OW31255   5.964   5.850   6.866
10119SOL    HW131256   5.923   5.849   6.957
10119SOL    HW231257   5.936   5.932   6.817
10120SOL     OW31258   2.741   2.275   3.171
10120SOL    HW131259   2.678   2.231   3.107
10120SOL    HW231260   2.835   2.252   3.145
10121SOL     OW31261   6.104   5.507   1.927
10121SOL    HW131262   6.015   5.550   1.940
10121SOL    HW231263   6.144   5.486   2.017
10122SOL     OW31264   1.993   0.376   3.261
10122SOL    HW131265   2.054   0.298   3.249
10122SOL    HW231266   1.899   0.344   3.271
10123SOL     OW31267   6.259   5.832   6.552
10123SOL    HW131268   6.327   5.801   6.620
10123SOL    HW231269   6.282   5.793   6.463
10124SOL     OW31270   2.556   5.248   2.496
10124SOL    HW131271   2.640   5.206   2.530
10124SOL    HW231272   2.532   5.326   2.554
10125SOL     OW31273   1.763   1.578   4.725
10125SOL    HW131274   1.697   1.646   4.756
10125SOL    HW231275   1.748   1.559   4.628
10126SOL     OW31276   6.414   6.288   4.548
10126SOL    HW131277   6.357   6.368   4.564
10126SOL    HW231278   6.470   6.302   4.466
10127SOL     OW31279   2.331   0.831   5.179
10127SOL    HW131280   2.324   0.793   5.087
10127SOL    HW231281   2.318   0.930   5.175
10128SOL     OW31282   2.371   1.712   0.302
10128SOL    HW131283   2.421   1.701   0.388
10128SOL    HW231284   2.287   1.764   0.319
10129SOL     OW31285   6.731   2.244   4.780
10129SOL    HW131286   6.830   2.231   4.786
10129SOL    HW231287   6.686   2.155   4.777
10130SOL     OW31288   1.523   2.099   3.416
10130SOL    HW131289   1.620   2.086   3.394
10130SOL    HW231290   1.508   2.082   3.513
10131SOL     OW31291   2.050   0.171   5.292
10131SOL    HW131292   2.123   0.119   5.336
10131SOL    HW231293   2.083   0.264   5.274
10132SOL     OW31294   6.346   0.515   2.609
10132SOL    HW131295   6.313   0.511   2.703
10132SOL    HW231296   6.400   0.433   2.589
10133SOL     OW31297   4.467   5.415   1.154
10133SOL    HW131298   4.468   5.497   1.211
10133SOL    HW231299   4.531   5.347   1.192
10134SOL     OW31300   0.125   6.535   3.439
10134SOL    HW131301   0.061   6.469   3.478
10134SOL    HW231302   0.076   6.597   3.377
10135SOL     OW31303   6.315   6.657   3.973
10135SOL    HW131304   6.411   6.639   3.995
10135SOL    HW231305   6.284   6.738   4.023
10136SOL     OW31306   4.919   0.795   3.434
10136SOL    HW131307   4.876   0.886   3.431
10136SOL    HW231308   4.970   0.780   3.349
10137SOL     OW31309   6.829   5.744   3.347
10137SOL    HW131310   6.752   5.732   3.410
10137SOL    HW231311   6.909   5.695   3.382
10138SOL     OW31312   0.252   1.822   2.289
10138SOL    HW131313   0.340   1.865   2.271
10138SOL    HW231314   0.266   1.724   2.307
10139SOL     OW31315   3.680   3.021   0.238
10139SOL    HW131316   3.642   3.001   0.328
10139SOL    HW231317   3.758   2.961   0.220
10140SOL     OW31318   6.208   6.435   4.668
10140SOL    HW131319   6.153   6.363   4.709
10140SOL    HW231320   6.148   6.502   4.625
10141SOL     OW31321   1.471   1.749   4.628
10141SOL    HW131322   1.505   1.840   4.602
10141SOL    HW231323   1.492   1.733   4.725
10142SOL     OW31324   4.403   5.924   1.975
10142SOL    HW131325   4.359   5.835   1.989
10142SOL    HW231326   4.457   5.921   1.890
10143SOL     OW31327   6.042   3.493   6.951
10143SOL    HW131328   5.966   3.429   6.965
10143SOL    HW231329   6.118   3.445   6.908
10144SOL     OW31330   3.826   0.583   1.063
10144SOL    HW131331   3.746   0.553   1.114
10144SOL    HW231332   3.909   0.550   1.109
10145SOL     OW31333   6.742   0.290   5.031
10145SOL    HW131334   6.782   0.229   5.099
10145SOL    HW231335   6.664   0.339   5.072
10146SOL     OW31336   1.592   2.618   5.643
10146SOL    HW131337   1.518   2.685   5.634
10146SOL    HW231338   1.562   2.530   5.606
10147SOL     OW31339   3.589   5.595   0.273
10147SOL    HW131340   3.555   5.504   0.299
10147SOL    HW231341   3.534   5.665   0.318
10148SOL     OW31342   0.453   5.277   6.427
10148SOL    HW131343   0.474   5.319   6.339
10148SOL    HW231344   0.421   5.184   6.413
10149SOL     OW31345   3.385   3.378   3.385
10149SOL    HW131346   3.321   3.436   3.333
10149SOL    HW231347   3.424   3.431   3.460
10150SOL     OW31348   4.977   3.993   1.353
10150SOL    HW131349   4.968   3.955   1.261
10150SOL    HW231350   4.973   4.093   1.348
10151SOL     OW31351   0.069   0.814   6.955
10151SOL    HW131352   0.157   0.829   7.000
10151SOL    HW231353   0.081   0.817   6.855
10152SOL     OW31354   3.656   6.189   3.749
10152SOL    HW131355   3.658   6.110   3.687
10152SOL    HW231356   3.631   6.271   3.698
10153SOL     OW31357   5.083   3.488   1.571
10153SOL    HW131358   5.055   3.410   1.516
10153SOL    HW231359   5.150   3.542   1.520
10154SOL     OW31360   4.512   5.206   5.441
10154SOL    HW131361   4.460   5.241   5.519
10154SOL    HW231362   4.476   5.116   5.416
10155SOL     OW31363   4.183   2.266   4.307
10155SOL    HW131364   4.214   2.196   4.242
10155SOL    HW231365   4.252   2.277   4.378
10156SOL     OW31366   3.613   1.952   6.390
10156SOL    HW131367   3.682   1.951   6.317
10156SOL    HW231368   3.543   2.020   6.369
10157SOL     OW31369   1.013   4.571   0.727
10157SOL    HW131370   1.057   4.556   0.815
10157SOL    HW231371   1.062   4.520   0.656
10158SOL     OW31372   5.836   4.709   6.869
10158SOL    HW131373   5.832   4.808   6.853
10158SOL    HW231374   5.923   4.685   6.911
10159SOL     OW31375   3.622   2.823   1.480
10159SOL    HW131376   3.526   2.809   1.505
10159SOL    HW231377   3.657   2.904   1.527
10160SOL     OW31378   0.009   3.806   2.322
10160SOL    HW131379   0.018   3.841   2.229
10160SOL    HW231380   0.097   3.767   2.351
10161SOL     OW31381   6.013   2.749   7.003
10161SOL    HW131382   6.032   2.652   7.015
10161SOL    HW231383   6.097   2.802   7.016
10162SOL     OW31384   2.162   2.126   2.335
10162SOL    HW131385   2.134   2.174   2.418
10162SOL    HW231386   2.197   2.192   2.269
10163SOL     OW31387   3.418   5.167   5.088
10163SOL    HW131388   3.394   5.263   5.076
10163SOL    HW231389   3.412   5.143   5.185
10164SOL     OW31390   0.031   0.680   4.140
10164SOL    HW131391   7.013   0.715   4.223
10164SOL    HW231392   0.032   0.580   4.142
10165SOL     OW31393   1.744   3.463   3.634
10165SOL    HW131394   1.662   3.504   3.592
10165SOL    HW231395   1.825   3.514   3.605
10166SOL     OW31396   3.274   6.267   3.312
10166SOL    HW131397   3.283   6.308   3.403
10166SOL    HW231398   3.191   6.302   3.268
10167SOL     OW31399   3.630   1.655   6.421
10167SOL    HW131400   3.628   1.732   6.484
10167SOL    HW231401   3.587   1.681   6.335
10168SOL     OW31402   0.863   1.389   6.269
10168SOL    HW131403   0.862   1.472   6.212
10168SOL    HW231404   0.957   1.368   6.295
10169SOL     OW31405   4.426   5.496   2.785
10169SOL    HW131406   4.335   5.478   2.747
10169SOL    HW231407   4.483   5.415   2.772
10170SOL     OW31408   4.486   6.495   0.399
10170SOL    HW131409   4.491   6.579   0.346
10170SOL    HW231410   4.566   6.487   0.458
10171SOL     OW31411   1.344   4.354   3.459
10171SOL    HW131412   1.325   4.272   3.513
10171SOL    HW231413   1.415   4.334   3.391
10172SOL     OW31414   1.162   1.164   3.030
10172SOL    HW131415   1.147   1.249   2.980
10172SOL    HW231416   1.260   1.150   3.044
10173SOL     OW31417   4.636   3.243   5.497
10173SOL    HW131418   4.672   3.334   5.475
10173SOL    HW231419   4.680   3.209   5.580
10174SOL     OW31420   5.092   4.799   1.869
10174SOL    HW131421   5.182   4.773   1.905
10174SOL    HW231422   5.067   4.889   1.905
10175SOL     OW31423   6.618   6.912   3.588
10175SOL    HW131424   6.649   6.817   3.595
10175SOL    HW231425   6.606   6.950   3.680
10176SOL     OW31426   0.534   1.105   4.395
10176SOL    HW131427   0.597   1.104   4.473
10176SOL    HW231428   0.462   1.037   4.411
10177SOL     OW31429   3.407   0.828   4.336
10177SOL    HW131430   3.485   0.828   4.399
10177SOL    HW231431   3.322   0.826   4.389
10178SOL     OW31432   6.949   1.406   2.199
10178SOL    HW131433   6.938   1.439   2.293
10178SOL    HW231434   6.868   1.351   2.174
10179SOL     OW31435   0.255   6.200   0.535
10179SOL    HW131436   0.321   6.275   0.533
10179SOL    HW231437   0.301   6.116   0.565
10180SOL     OW31438   2.888   0.106   6.144
10180SOL    HW131439   2.820   0.168   6.104
10180SOL    HW231440   2.846   0.017   6.162
10181SOL     OW31441   7.006   4.109   2.632
10181SOL    HW131442   6.978   4.045   2.703
10181SOL    HW231443   0.066   4.077   2.589
10182SOL     OW31444   4.421   6.816   6.912
10182SOL    HW131445   4.410   6.915   6.921
10182SOL    HW231446   4.408   6.789   6.817
10183SOL     OW31447   3.655   6.082   6.105
10183SOL    HW131448   3.720   6.009   6.085
10183SOL    HW231449   3.646   6.093   6.204
10184SOL     OW31450   5.313   2.648   4.819
10184SOL    HW131451   5.309   2.560   4.866
10184SOL    HW231452   5.409   2.674   4.806
10185SOL     OW31453   3.051   4.764   1.947
10185SOL    HW131454   2.969   4.707   1.942
10185SOL    HW231455   3.117   4.733   1.879
10186SOL     OW31456   3.293   2.789   1.042
10186SOL    HW131457   3.232   2.827   1.112
10186SOL    HW231458   3.373   2.748   1.087
10187SOL     OW31459   1.797   3.749   5.841
10187SOL    HW131460   1.784   3.831   5.898
10187SOL    HW231461   1.785   3.773   5.745
10188SOL     OW31462   1.940   0.315   6.475
10188SOL    HW131463   1.906   0.226   6.444
10188SOL    HW231464   1.960   0.372   6.396
10189SOL     OW31465   1.868   1.821   5.551
10189SOL    HW131466   1.815   1.883   5.610
10189SOL    HW231467   1.849   1.842   5.455
10190SOL     OW31468   3.946   3.685   0.694
10190SOL    HW131469   4.038   3.715   0.718
10190SOL    HW231470   3.952   3.608   0.630
10191SOL     OW31471   5.655   0.689   0.771
10191SOL    HW131472   5.717   0.747   0.718
10191SOL    HW231473   5.593   0.641   0.708
10192SOL     OW31474   2.408   0.238   4.089
10192SOL    HW131475   2.399   0.142   4.063
10192SOL    HW231476   2.323   0.287   4.067
10193SOL     OW31477   3.715   3.776   3.701
10193SOL    HW131478   3.667   3.743   3.783
10193SOL    HW231479   3.731   3.700   3.639
10194SOL     OW31480   3.276   6.115   3.741
10194SOL    HW131481   3.226   6.109   3.827
10194SOL    HW231482   3.233   6.057   3.672
10195SOL     OW31483   5.112   0.561   3.139
10195SOL    HW131484   5.175   0.609   3.199
10195SOL    HW231485   5.126   0.462   3.149
10196SOL     OW31486   4.912   4.013   3.965
10196SOL    HW131487   4.918   3.917   3.989
10196SOL    HW231488   4.845   4.059   4.024
10197SOL     OW31489   4.873   2.112   2.462
10197SOL    HW131490   4.876   2.081   2.367
10197SOL    HW231491   4.959   2.157   2.485
10198SOL     OW31492   2.964   1.600   2.177
10198SOL    HW131493   2.938   1.664   2.249
10198SOL    HW231494   2.904   1.613   2.098
10199SOL     OW31495   0.879   1.905   6.795
10199SOL    HW131496   0.785   1.912   6.760
10199SOL    HW231497   0.934   1.980   6.759
10200SOL     OW31498   5.874   6.769   3.761
10200SOL    HW131499   5.777   6.760   3.737
10200SOL    HW231500   5.928   6.785   3.678
10201SOL     OW31501   1.555   4.501   2.194
10201SOL    HW131502   1.608   4.550   2.125
10201SOL    HW231503   1.457   4.514   2.175
10202SOL     OW31504   1.112   2.018   3.085
10202SOL    HW131505   1.013   2.023   3.098
10202SOL    HW231506   1.144   2.101   3.039
10203SOL     OW31507   0.401   2.052   1.128
10203SOL    HW131508   0.348   2.135   1.145
10203SOL    HW231509   0.382   2.019   1.036
10204SOL     OW31510   2.395   5.893   3.979
10204SOL    HW131511   2.387   5.971   3.917
10204SOL    HW231512   2.309   5.842   3.981
10205SOL     OW31513   3.597   0.010   1.153
10205SOL    HW131514   3.672   0.071   1.127
10205SOL    HW231515   3.514   0.064   1.168
10206SOL     OW31516   5.621   6.327   0.195
10206SOL    HW131517   5.704   6.351   0.245
10206SOL    HW231518   5.587   6.239   0.228
10207SOL     OW31519   3.743   1.490   2.633
10207SOL    HW131520   3.831   1.476   2.587
10207SOL    HW231521   3.685   1.549   2.577
10208SOL     OW31522   6.762   2.878   6.287
10208SOL    HW131523   6.838   2.941   6.305
10208SOL    HW231524   6.676   2.920   6.315
10209SOL     OW31525   3.219   6.425   0.027
10209SOL    HW131526   3.312   6.390   0.039
10209SOL    HW231527   3.193   6.480   0.106
10210SOL     OW31528   5.201   5.722   6.844
10210SOL    HW131529   5.197   5.771   6.757
10210SOL    HW231530   5.157   5.776   6.915
10211SOL     OW31531   3.858   5.941   5.540
10211SOL    HW131532   3.910   5.883   5.604
10211SOL    HW231533   3.771   5.966   5.582
10212SOL     OW31534   6.354   6.228   6.304
10212SOL    HW131535   6.434   6.244   6.247
10212SOL    HW231536   6.322   6.134   6.292
10213SOL     OW31537   3.800   0.100   4.590
10213SOL    HW131538   3.791   0.001   4.602
10213SOL    HW231539   3.710   0.138   4.568
10214SOL     OW31540   0.116   0.500   0.160
10214SOL    HW131541   0.110   0.505   0.061
10214SOL    HW231542   0.067   0.419   0.193
10215SOL     OW31543   4.513   2.352   0.224
10215SOL    HW131544   4.467   2.325   0.308
10215SOL    HW231545   4.454   2.415   0.173
10216SOL     OW31546   5.073   0.283   2.536
10216SOL    HW131547   5.005   0.296   2.464
10216SOL    HW231548   5.079   0.366   2.592
10217SOL     OW31549   3.671   2.390   5.316
10217SOL    HW131550   3.757   2.436   5.337
10217SOL    HW231551   3.599   2.457   5.302
10218SOL     OW31552   3.841   0.849   6.753
10218SOL    HW131553   3.887   0.931   6.789
10218SOL    HW231554   3.759   0.876   6.702
10219SOL     OW31555   1.095   5.336   0.533
10219SOL    HW131556   1.152   5.271   0.483
10219SOL    HW231557   1.085   5.420   0.480
10220SOL     OW31558   4.071   2.215   0.193
10220SOL    HW131559   4.137   2.141   0.178
10220SOL    HW231560   4.113   2.287   0.249
10221SOL     OW31561   2.757   0.873   4.145
10221SOL    HW131562   2.699   0.845   4.069
10221SOL    HW231563   2.730   0.965   4.175
10222SOL     OW31564   1.739   4.391   5.124
10222SOL    HW131565   1.838   4.392   5.136
10222SOL    HW231566   1.715   4.445   5.043
10223SOL     OW31567   0.841   5.083   6.091
10223SOL    HW131568   0.806   5.176   6.101
10223SOL    HW231569   0.779   5.031   6.032
10224SOL     OW31570   2.391   6.238   5.104
10224SOL    HW131571   2.399   6.336   5.126
10224SOL    HW231572   2.481   6.195   5.113
10225SOL     OW31573   5.251   6.446   4.327
10225SOL    HW131574   5.230   6.451   4.424
10225SOL    HW231575   5.315   6.519   4.302
10226SOL     OW31576   6.578   2.831   6.016
10226SOL    HW131577   6.495   2.887   6.019
10226SOL    HW231578   6.585   2.778   6.100
10227SOL     OW31579   4.868   4.449   5.305
10227SOL    HW131580   4.806   4.435   5.382
10227SOL    HW231581   4.958   4.477   5.340
10228SOL     OW31582   0.786   3.272   1.661
10228SOL    HW131583   0.884   3.262   1.678
10228SOL    HW231584   0.748   3.335   1.728
10229SOL     OW31585   3.016   0.541   1.600
10229SOL    HW131586   2.967   0.610   1.547
10229SOL    HW231587   3.051   0.470   1.539
10230SOL     OW31588   5.964   6.211   3.414
10230SOL    HW131589   5.946   6.303   3.381
10230SOL    HW231590   5.911   6.145   3.361
10231SOL     OW31591   4.563   6.317   4.217
10231SOL    HW131592   4.489   6.339   4.154
10231SOL    HW231593   4.538   6.347   4.309
10232SOL     OW31594   3.769   2.180   3.387
10232SOL    HW131595   3.754   2.178   3.486
10232SOL    HW231596   3.865   2.198   3.367
10233SOL     OW31597   4.868   6.525   5.463
10233SOL    HW131598   4.853   6.584   5.384
10233SOL    HW231599   4.780   6.496   5.501
10234SOL     OW31600   4.207   5.275   1.238
10234SOL    HW131601   4.141   5.346   1.262
10234SOL    HW231602   4.292   5.318   1.206
10235SOL     OW31603   5.243   0.491   0.219
10235SOL    HW131604   5.245   0.591   0.226
10235SOL    HW231605   5.324   0.459   0.170
10236SOL     OW31606   1.967   5.755   1.184
10236SOL    HW131607   1.953   5.722   1.278
10236SOL    HW231608   1.956   5.854   1.182
10237SOL     OW31609   5.844   2.413   2.816
10237SOL    HW131610   5.747   2.402   2.791
10237SOL    HW231611   5.856   2.500   2.863
10238SOL     OW31612   4.992   5.423   5.657
10238SOL    HW131613   5.041   5.394   5.575
10238SOL    HW231614   4.903   5.378   5.660
10239SOL     OW31615   5.995   3.222   4.689
10239SOL    HW131616   5.949   3.302   4.651
10239SOL    HW231617   5.976   3.217   4.788
10240SOL     OW31618   5.084   4.040   3.267
10240SOL    HW131619   5.130   4.077   3.187
10240SOL    HW231620   5.148   3.983   3.319
10241SOL     OW31621   1.267   2.553   2.747
10241SOL    HW131622   1.314   2.617   2.808
10241SOL    HW231623   1.169   2.568   2.751
10242SOL     OW31624   1.274   5.223   5.888
10242SOL    HW131625   1.305   5.199   5.796
10242SOL    HW231626   1.322   5.167   5.955
10243SOL     OW31627   0.547   5.869   2.875
10243SOL    HW131628   0.476   5.810   2.912
10243SOL    HW231629   0.615   5.889   2.946
10244SOL     OW31630   2.174   5.846   6.932
10244SOL    HW131631   2.257   5.858   6.877
10244SOL    HW231632   2.126   5.933   6.939
10245SOL     OW31633   2.592   3.019   1.060
10245SOL    HW131634   2.627   3.018   0.967
10245SOL    HW231635   2.514   3.081   1.066
10246SOL     OW31636   3.168   3.536   4.626
10246SOL    HW131637   3.234   3.461   4.633
10246SOL    HW231638   3.103   3.530   4.702
10247SOL     OW31639   0.761   6.241   6.127
10247SOL    HW131640   0.849   6.284   6.143
10247SOL    HW231641   0.768   6.143   6.147
10248SOL     OW31642   5.990   0.998   3.401
10248SOL    HW131643   6.004   0.903   3.371
10248SOL    HW231644   6.066   1.054   3.369
10249SOL     OW31645   5.274   0.699   6.071
10249SOL    HW131646   5.207   0.702   6.145
10249SOL    HW231647   5.318   0.609   6.069
10250SOL     OW31648   4.514   5.566   0.822
10250SOL    HW131649   4.495   5.590   0.727
10250SOL    HW231650   4.432   5.525   0.863
10251SOL     OW31651   4.104   4.453   1.653
10251SOL    HW131652   4.071   4.524   1.590
10251SOL    HW231653   4.031   4.387   1.670
10252SOL     OW31654   0.020   3.662   0.904
10252SOL    HW131655   0.064   3.579   0.937
10252SOL    HW231656   6.950   3.642   0.876
10253SOL     OW31657   3.867   4.538   0.689
10253SOL    HW131658   3.789   4.478   0.709
10253SOL    HW231659   3.949   4.482   0.676
10254SOL     OW31660   2.519   1.664   4.951
10254SOL    HW131661   2.472   1.726   5.012
10254SOL    HW231662   2.618   1.666   4.970
10255SOL     OW31663   3.195   5.563   3.702
10255SOL    HW131664   3.273   5.513   3.740
10255SOL    HW231665   3.228   5.631   3.636
10256SOL     OW31666   5.187   6.190   0.863
10256SOL    HW131667   5.193   6.111   0.803
10256SOL    HW231668   5.119   6.254   0.827
10257SOL     OW31669   1.485   5.512   5.639
10257SOL    HW131670   1.569   5.478   5.681
10257SOL    HW231671   1.470   5.607   5.665
10258SOL     OW31672   4.352   0.854   3.245
10258SOL    HW131673   4.339   0.802   3.160
10258SOL    HW231674   4.447   0.849   3.273
10259SOL     OW31675   0.200   2.935   3.839
10259SOL    HW131676   0.225   3.011   3.779
10259SOL    HW231677   0.103   2.913   3.826
10260SOL     OW31678   0.224   5.791   2.177
10260SOL    HW131679   0.281   5.869   2.202
10260SOL    HW231680   0.135   5.799   2.221
10261SOL     OW31681   2.342   0.331   2.015
10261SOL    HW131682   2.430   0.285   2.010
10261SOL    HW231683   2.332   0.374   2.105
10262SOL     OW31684   1.052   6.673   3.832
10262SOL    HW131685   1.151   6.664   3.823
10262SOL    HW231686   1.029   6.693   3.927
10263SOL     OW31687   6.765   3.458   4.752
10263SOL    HW131688   6.738   3.418   4.840
10263SOL    HW231689   6.846   3.410   4.718
10264SOL     OW31690   0.361   6.709   0.303
10264SOL    HW131691   0.344   6.633   0.240
10264SOL    HW231692   0.275   6.737   0.346
10265SOL     OW31693   4.496   2.152   3.534
10265SOL    HW131694   4.416   2.203   3.565
10265SOL    HW231695   4.519   2.081   3.601
10266SOL     OW31696   3.652   3.515   6.725
10266SOL    HW131697   3.655   3.567   6.811
10266SOL    HW231698   3.609   3.570   6.654
10267SOL     OW31699   6.370   1.176   6.503
10267SOL    HW131700   6.467   1.166   6.525
10267SOL    HW231701   6.316   1.114   6.560
10268SOL     OW31702   6.626   3.684   0.617
10268SOL    HW131703   6.582   3.718   0.701
10268SOL    HW231704   6.570   3.611   0.578
10269SOL     OW31705   4.198   1.478   6.305
10269SOL    HW131706   4.211   1.450   6.400
10269SOL    HW231707   4.112   1.440   6.271
10270SOL     OW31708   3.262   5.878   2.414
10270SOL    HW131709   3.198   5.858   2.339
10270SOL    HW231710   3.347   5.828   2.399
10271SOL     OW31711   2.127   4.675   1.699
10271SOL    HW131712   2.110   4.680   1.798
10271SOL    HW231713   2.175   4.758   1.670
10272SOL     OW31714   1.549   1.988   4.068
10272SOL    HW131715   1.483   2.013   3.998
10272SOL    HW231716   1.549   2.057   4.140
10273SOL     OW31717   4.169   6.447   3.885
10273SOL    HW131718   4.117   6.364   3.903
10273SOL    HW231719   4.138   6.487   3.798
10274SOL     OW31720   2.702   4.857   6.437
10274SOL    HW131721   2.788   4.825   6.400
10274SOL    HW231722   2.647   4.779   6.466
10275SOL     OW31723   0.636   6.401   1.678
10275SOL    HW131724   0.732   6.380   1.698
10275SOL    HW231725   0.588   6.423   1.763
10276SOL     OW31726   0.943   6.765   0.607
10276SOL    HW131727   0.981   6.691   0.551
10276SOL    HW231728   0.912   6.727   0.694
10277SOL     OW31729   0.253   6.177   2.118
10277SOL    HW131730   0.267   6.180   2.019
10277SOL    HW231731   0.236   6.270   2.151
10278SOL     OW31732   6.536   1.004   5.816
10278SOL    HW131733   6.617   1.062   5.811
10278SOL    HW231734   6.557   0.924   5.872
10279SOL     OW31735   3.291   6.362   4.678
10279SOL    HW131736   3.206   6.323   4.641
10279SOL    HW231737   3.368   6.334   4.621
10280SOL     OW31738   2.640   2.914   0.363
10280SOL    HW131739   2.654   2.932   0.266
10280SOL    HW231740   2.723   2.937   0.414
10281SOL     OW31741   5.045   0.843   4.335
10281SOL    HW131742   4.971   0.909   4.342
10281SOL    HW231743   5.058   0.816   4.240
10282SOL     OW31744   1.176   2.714   3.963
10282SOL    HW131745   1.209   2.808   3.962
10282SOL    HW231746   1.229   2.659   3.898
10283SOL     OW31747   1.731   4.643   6.033
10283SOL    HW131748   1.655   4.603   5.981
10283SOL    HW231749   1.814   4.589   6.017
10284SOL     OW31750   5.170   3.282   6.950
10284SOL    HW131751   5.221   3.295   6.865
10284SOL    HW231752   5.090   3.342   6.951
10285SOL     OW31753   5.396   1.872   1.261
10285SOL    HW131754   5.418   1.812   1.338
10285SOL    HW231755   5.309   1.844   1.220
10286SOL     OW31756   3.911   0.448   4.357
10286SOL    HW131757   3.976   0.390   4.309
10286SOL    HW231758   3.928   0.444   4.455
10287SOL     OW31759   1.777   4.385   1.865
10287SOL    HW131760   1.786   4.483   1.880
10287SOL    HW231761   1.864   4.340   1.885
10288SOL     OW31762   4.228   6.480   4.283
10288SOL    HW131763   4.274   6.494   4.371
10288SOL    HW231764   4.196   6.386   4.276
10289SOL     OW31765   3.043   1.655   1.766
10289SOL    HW131766   3.098   1.719   1.820
10289SOL    HW231767   3.104   1.592   1.717
10290SOL     OW31768   3.268   3.156   3.276
10290SOL    HW131769   3.319   3.071   3.263
10290SOL    HW231770   3.331   3.230   3.297
10291SOL     OW31771   3.732   0.545   4.779
10291SOL    HW131772   3.797   0.578   4.847
10291SOL    HW231773   3.677   0.472   4.819
10292SOL     OW31774   6.771   2.129   4.310
10292SOL    HW131775   6.687   2.124   4.256
10292SOL    HW231776   6.850   2.122   4.250
10293SOL     OW31777   2.882   4.984   2.964
10293SOL    HW131778   2.833   4.901   2.989
10293SOL    HW231779   2.824   5.064   2.981
10294SOL     OW31780   6.268   1.018   3.121
10294SOL    HW131781   6.266   1.090   3.191
10294SOL    HW231782   6.315   0.938   3.158
10295SOL     OW31783   1.836   4.091   4.217
10295SOL    HW131784   1.878   4.095   4.308
10295SOL    HW231785   1.789   4.177   4.199
10296SOL     OW31786   6.565   3.056   2.086
10296SOL    HW131787   6.618   2.973   2.074
10296SOL    HW231788   6.492   3.060   2.018
10297SOL     OW31789   3.158   5.006   5.331
10297SOL    HW131790   3.146   5.102   5.307
10297SOL    HW231791   3.156   4.951   5.247
10298SOL     OW31792   6.407   3.011   2.830
10298SOL    HW131793   6.362   3.053   2.909
10298SOL    HW231794   6.480   2.951   2.862
10299SOL     OW31795   4.732   4.523   2.340
10299SOL    HW131796   4.694   4.431   2.329
10299SOL    HW231797   4.658   4.590   2.337
10300SOL     OW31798   0.816   6.354   1.968
10300SOL    HW131799   0.845   6.258   1.966
10300SOL    HW231800   0.726   6.361   2.011
10301SOL     OW31801   4.779   0.358   1.741
10301SOL    HW131802   4.850   0.426   1.760
10301SOL    HW231803   4.790   0.280   1.802
10302SOL     OW31804   1.611   3.969   3.388
10302SOL    HW131805   1.659   3.998   3.305
10302SOL    HW231806   1.564   3.882   3.369
10303SOL     OW31807   4.457   2.854   1.141
10303SOL    HW131808   4.420   2.783   1.202
10303SOL    HW231809   4.396   2.866   1.063
10304SOL     OW31810   5.782   6.056   3.220
10304SOL    HW131811   5.691   6.038   3.256
10304SOL    HW231812   5.776   6.122   3.145
10305SOL     OW31813   1.939   5.349   1.240
10305SOL    HW131814   1.991   5.270   1.274
10305SOL    HW231815   1.932   5.418   1.311
10306SOL     OW31816   4.069   4.318   0.223
10306SOL    HW131817   4.006   4.372   0.280
10306SOL    HW231818   4.017   4.252   0.169
10307SOL     OW31819   2.142   2.072   5.682
10307SOL    HW131820   2.147   1.992   5.622
10307SOL    HW231821   2.226   2.078   5.736
10308SOL     OW31822   2.730   4.946   3.963
10308SOL    HW131823   2.717   4.852   3.992
10308SOL    HW231824   2.784   4.948   3.878
10309SOL     OW31825   0.290   6.298   3.637
10309SOL    HW131826   0.246   6.215   3.604
10309SOL    HW231827   0.269   6.374   3.576
10310SOL     OW31828   2.968   3.760   4.298
10310SOL    HW131829   2.903   3.699   4.345
10310SOL    HW231830   2.966   3.740   4.200
10311SOL     OW31831   0.925   0.851   1.315
10311SOL    HW131832   0.851   0.813   1.369
10311SOL    HW231833   0.889   0.919   1.251
10312SOL     OW31834   2.424   4.993   0.856
10312SOL    HW131835   2.508   4.943   0.837
10312SOL    HW231836   2.361   4.983   0.779
10313SOL     OW31837   6.966   5.620   4.076
10313SOL    HW131838   6.921   5.659   3.995
10313SOL    HW231839   6.954   5.682   4.154
10314SOL     OW31840   7.023   6.049   5.299
10314SOL    HW131841   0.043   6.114   5.362
10314SOL    HW231842   0.060   6.032   5.221
10315SOL     OW31843   4.404   6.476   5.981
10315SOL    HW131844   4.487   6.430   5.950
10315SOL    HW231845   4.330   6.409   5.990
10316SOL     OW31846   0.661   4.373   3.308
10316SOL    HW131847   0.597   4.438   3.268
10316SOL    HW231848   0.664   4.384   3.407
10317SOL     OW31849   5.153   3.926   6.594
10317SOL    HW131850   5.231   3.974   6.634
10317SOL    HW231851   5.155   3.830   6.623
10318SOL     OW31852   5.552   4.928   3.010
10318SOL    HW131853   5.460   4.889   3.011
10318SOL    HW231854   5.580   4.947   2.916
10319SOL     OW31855   4.927   6.545   3.827
10319SOL    HW131856   4.983   6.552   3.909
10319SOL    HW231857   4.836   6.583   3.846
10320SOL     OW31858   4.378   6.598   2.203
10320SOL    HW131859   4.367   6.671   2.135
10320SOL    HW231860   4.476   6.579   2.216
10321SOL     OW31861   4.612   6.386   4.562
10321SOL    HW131862   4.540   6.319   4.547
10321SOL    HW231863   4.697   6.340   4.586
10322SOL     OW31864   0.276   1.935   0.121
10322SOL    HW131865   0.335   1.998   0.072
10322SOL    HW231866   0.181   1.967   0.116
10323SOL     OW31867   0.954   2.211   5.106
10323SOL    HW131868   0.968   2.128   5.052
10323SOL    HW231869   0.874   2.260   5.072
10324SOL     OW31870   3.522   2.904   4.044
10324SOL    HW131871   3.447   2.864   4.097
10324SOL    HW231872   3.497   2.909   3.948
10325SOL     OW31873   0.266   3.782   3.511
10325SOL    HW131874   0.234   3.742   3.425
10325SOL    HW231875   0.263   3.882   3.504
10326SOL     OW31876   5.902   2.046   1.395
10326SOL    HW131877   5.821   2.047   1.453
10326SOL    HW231878   5.877   2.014   1.303
10327SOL     OW31879   6.325   1.608   3.474
10327SOL    HW131880   6.262   1.603   3.552
10327SOL    HW231881   6.306   1.533   3.410
10328SOL     OW31882   6.443   3.837   2.762
10328SOL    HW131883   6.506   3.828   2.685
10328SOL    HW231884   6.348   3.837   2.728
10329SOL     OW31885   3.620   5.680   3.224
10329SOL    HW131886   3.668   5.609   3.172
10329SOL    HW231887   3.522   5.671   3.211
10330SOL     OW31888   3.468   3.904   0.946
10330SOL    HW131889   3.433   3.824   0.995
10330SOL    HW231890   3.548   3.878   0.893
10331SOL     OW31891   5.619   1.447   4.357
10331SOL    HW131892   5.683   1.501   4.301
10331SOL    HW231893   5.572   1.381   4.299
10332SOL     OW31894   1.231   2.217   6.089
10332SOL    HW131895   1.208   2.156   6.164
10332SOL    HW231896   1.262   2.305   6.125
10333SOL     OW31897   6.734   4.535   5.333
10333SOL    HW131898   6.780   4.493   5.411
10333SOL    HW231899   6.640   4.558   5.358
10334SOL     OW31900   0.481   5.221   5.122
10334SOL    HW131901   0.499   5.150   5.054
10334SOL    HW231902   0.383   5.241   5.124
10335SOL     OW31903   3.304   5.100   3.117
10335SOL    HW131904   3.393   5.141   3.098
10335SOL    HW231905   3.231   5.161   3.085
10336SOL     OW31906   4.937   6.611   3.116
10336SOL    HW131907   4.919   6.706   3.092
10336SOL    HW231908   4.927   6.599   3.215
10337SOL     OW31909   1.084   4.231   6.282
10337SOL    HW131910   1.127   4.221   6.372
10337SOL    HW231911   1.116   4.316   6.239
10338SOL     OW31912   2.843   4.963   2.409
10338SOL    HW131913   2.845   4.917   2.321
10338SOL    HW231914   2.881   4.903   2.479
10339SOL     OW31915   2.810   5.784   0.345
10339SOL    HW131916   2.844   5.730   0.268
10339SOL    HW231917   2.791   5.724   0.422
10340SOL     OW31918   1.587   6.689   0.690
10340SOL    HW131919   1.600   6.652   0.782
10340SOL    HW231920   1.658   6.755   0.670
10341SOL     OW31921   0.882   2.486   1.627
10341SOL    HW131922   0.865   2.504   1.724
10341SOL    HW231923   0.975   2.517   1.604
10342SOL     OW31924   3.217   5.728   4.345
10342SOL    HW131925   3.305   5.689   4.373
10342SOL    HW231926   3.158   5.655   4.311
10343SOL     OW31927   2.320   2.656   4.744
10343SOL    HW131928   2.256   2.732   4.731
10343SOL    HW231929   2.367   2.637   4.658
10344SOL     OW31930   4.497   3.584   1.670
10344SOL    HW131931   4.495   3.682   1.690
10344SOL    HW231932   4.585   3.547   1.698
10345SOL     OW31933   3.268   1.739   6.526
10345SOL    HW131934   3.352   1.755   6.578
10345SOL    HW231935   3.243   1.642   6.531
10346SOL     OW31936   6.342   5.285   0.504
10346SOL    HW131937   6.426   5.240   0.535
10346SOL    HW231938   6.311   5.349   0.574
10347SOL     OW31939   4.343   0.117   1.716
10347SOL    HW131940   4.399   0.137   1.796
10347SOL    HW231941   4.336   0.018   1.705
10348SOL     OW31942   6.730   4.627   5.732
10348SOL    HW131943   6.712   4.726   5.732
10348SOL    HW231944   6.808   4.607   5.791
10349SOL     OW31945   6.317   1.882   0.124
10349SOL    HW131946   6.381   1.856   0.051
10349SOL    HW231947   6.224   1.882   0.088
10350SOL     OW31948   1.581   4.827   4.301
10350SOL    HW131949   1.661   4.766   4.301
10350SOL    HW231950   1.588   4.891   4.225
10351SOL     OW31951   3.866   5.047   5.060
10351SOL    HW131952   3.945   4.993   5.088
10351SOL    HW231953   3.806   4.992   5.002
10352SOL     OW31954   0.351   0.922   1.178
10352SOL    HW131955   0.353   0.865   1.261
10352SOL    HW231956   0.331   1.017   1.203
10353SOL     OW31957   5.958   2.730   3.678
10353SOL    HW131958   5.982   2.685   3.764
10353SOL    HW231959   5.870   2.694   3.646
10354SOL     OW31960   6.734   3.194   1.202
10354SOL    HW131961   6.774   3.108   1.235
10354SOL    HW231962   6.657   3.219   1.260
10355SOL     OW31963   0.477   1.918   0.818
10355SOL    HW131964   0.543   1.991   0.837
10355SOL    HW231965   0.492   1.882   0.726
10356SOL     OW31966   5.649   2.554   6.979
10356SOL    HW131967   5.636   2.467   6.931
10356SOL    HW231968   5.736   2.552   0.004
10357SOL     OW31969   0.823   0.626   6.161
10357SOL    HW131970   0.772   0.564   6.221
10357SOL    HW231971   0.858   0.575   6.082
10358SOL     OW31972   0.802   2.624   3.612
10358SOL    HW131973   0.858   2.570   3.549
10358SOL    HW231974   0.849   2.632   3.700
10359SOL     OW31975   0.827   2.522   2.224
10359SOL    HW131976   0.887   2.533   2.144
10359SOL    HW231977   0.878   2.482   2.299
10360SOL     OW31978   6.096   4.324   1.090
10360SOL    HW131979   6.152   4.318   1.173
10360SOL    HW231980   6.052   4.236   1.073
10361SOL     OW31981   6.249   1.569   2.377
10361SOL    HW131982   6.207   1.649   2.420
10361SOL    HW231983   6.280   1.593   2.285
10362SOL     OW31984   0.660   5.906   1.539
10362SOL    HW131985   0.756   5.884   1.558
10362SOL    HW231986   0.616   5.828   1.493
10363SOL     OW31987   5.307   4.736   6.436
10363SOL    HW131988   5.246   4.690   6.500
10363SOL    HW231989   5.379   4.672   6.406
10364SOL     OW31990   5.645   5.169   1.823
10364SOL    HW131991   5.683   5.260   1.806
10364SOL    HW231992   5.612   5.131   1.737
10365SOL     OW31993   6.160   5.648   6.926
10365SOL    HW131994   6.245   5.699   6.938
10365SOL    HW231995   6.087   5.709   6.896
10366SOL     OW31996   2.980   6.938   3.658
10366SOL    HW131997   3.019   6.939   3.751
10366SOL    HW231998   2.947   6.847   3.637
10367SOL     OW31999   5.582   6.509   1.792
10367SOL    HW132000   5.541   6.442   1.730
10367SOL    HW232001   5.581   6.472   1.885
10368SOL     OW32002   0.945   6.537   1.809
10368SOL    HW132003   0.933   6.636   1.815
10368SOL    HW232004   0.895   6.493   1.885
10369SOL     OW32005   2.443   0.530   5.614
10369SOL    HW132006   2.463   0.474   5.695
10369SOL    HW232007   2.500   0.612   5.616
10370SOL     OW32008   2.201   2.295   5.887
10370SOL    HW132009   2.293   2.270   5.917
10370SOL    HW232010   2.206   2.335   5.796
10371SOL     OW32011   4.315   5.500   3.348
10371SOL    HW132012   4.375   5.431   3.307
10371SOL    HW232013   4.360   5.538   3.429
10372SOL     OW32014   1.848   6.405   0.450
10372SOL    HW132015   1.933   6.399   0.501
10372SOL    HW232016   1.792   6.478   0.488
10373SOL     OW32017   6.589   0.356   6.818
10373SOL    HW132018   6.618   0.449   6.793
10373SOL    HW232019   6.574   0.352   6.917
10374SOL     OW32020   2.675   4.632   3.369
10374SOL    HW132021   2.595   4.573   3.364
10374SOL    HW232022   2.696   4.651   3.466
10375SOL     OW32023   2.296   5.412   6.866
10375SOL    HW132024   2.284   5.423   6.965
10375SOL    HW232025   2.207   5.392   6.824
10376SOL     OW32026   2.369   4.943   3.691
10376SOL    HW132027   2.378   4.876   3.765
10376SOL    HW232028   2.393   5.034   3.725
10377SOL     OW32029   2.420   0.686   3.443
10377SOL    HW132030   2.409   0.599   3.490
10377SOL    HW232031   2.508   0.726   3.467
10378SOL     OW32032   0.540   6.503   5.294
10378SOL    HW132033   0.530   6.598   5.321
10378SOL    HW232034   0.560   6.498   5.196
10379SOL     OW32035   1.668   6.587   3.537
10379SOL    HW132036   1.577   6.574   3.497
10379SOL    HW232037   1.700   6.501   3.577
10380SOL     OW32038   3.273   1.144   3.930
10380SOL    HW132039   3.293   1.209   3.857
10380SOL    HW232040   3.255   1.054   3.889
10381SOL     OW32041   3.819   0.109   2.876
10381SOL    HW132042   3.784   0.197   2.845
10381SOL    HW232043   3.775   0.084   2.962
10382SOL     OW32044   4.055   5.653   1.831
10382SOL    HW132045   3.964   5.634   1.794
10382SOL    HW232046   4.112   5.571   1.824
10383SOL     OW32047   0.343   6.504   0.108
10383SOL    HW132048   0.264   6.545   0.063
10383SOL    HW232049   0.426   6.554   0.081
10384SOL     OW32050   4.931   5.191   1.348
10384SOL    HW132051   5.009   5.135   1.375
10384SOL    HW232052   4.851   5.132   1.333
10385SOL     OW32053   4.071   4.472   6.910
10385SOL    HW132054   4.153   4.508   6.955
10385SOL    HW232055   3.995   4.471   6.974
10386SOL     OW32056   0.195   0.559   2.006
10386SOL    HW132057   0.147   0.531   2.089
10386SOL    HW232058   0.143   0.531   1.926
10387SOL     OW32059   5.352   2.783   2.123
10387SOL    HW132060   5.290   2.715   2.162
10387SOL    HW232061   5.408   2.740   2.053
10388SOL     OW32062   1.601   0.546   4.605
10388SOL    HW132063   1.598   0.449   4.626
10388SOL    HW232064   1.508   0.582   4.600
10389SOL     OW32065   0.487   3.606   7.004
10389SOL    HW132066   0.387   3.597   7.010
10389SOL    HW232067   0.527   3.590   0.071
10390SOL     OW32068   2.315   1.952   2.025
10390SOL    HW132069   2.372   1.874   1.998
10390SOL    HW232070   2.374   2.029   2.047
10391SOL     OW32071   6.344   6.802   3.201
10391SOL    HW132072   6.367   6.815   3.297
10391SOL    HW232073   6.410   6.739   3.159
10392SOL     OW32074   6.737   4.060   3.897
10392SOL    HW132075   6.807   3.989   3.903
10392SOL    HW232076   6.708   4.086   3.989
10393SOL     OW32077   2.126   2.554   2.501
10393SOL    HW132078   2.093   2.480   2.443
10393SOL    HW232079   2.215   2.585   2.467
10394SOL     OW32080   3.286   6.306   4.082
10394SOL    HW132081   3.215   6.316   4.151
10394SOL    HW232082   3.286   6.213   4.046
10395SOL     OW32083   1.389   0.810   1.112
10395SOL    HW132084   1.344   0.870   1.045
10395SOL    HW232085   1.378   0.715   1.084
10396SOL     OW32086   3.133   2.073   5.271
10396SOL    HW132087   3.118   2.155   5.216
10396SOL    HW232088   3.051   2.054   5.325
10397SOL     OW32089   5.163   1.435   3.823
10397SOL    HW132090   5.191   1.516   3.876
10397SOL    HW232091   5.064   1.435   3.814
10398SOL     OW32092   5.726   1.972   2.241
10398SOL    HW132093   5.675   1.959   2.156
10398SOL    HW232094   5.705   1.898   2.304
10399SOL     OW32095   0.550   3.941   2.302
10399SOL    HW132096   0.502   4.019   2.343
10399SOL    HW232097   0.581   3.965   2.210
10400SOL     OW32098   1.915   6.420   0.994
10400SOL    HW132099   1.876   6.397   0.905
10400SOL    HW232100   1.850   6.397   1.066
10401SOL     OW32101   0.151   0.563   5.745
10401SOL    HW132102   0.227   0.628   5.754
10401SOL    HW232103   0.089   0.594   5.673
10402SOL     OW32104   6.727   4.264   4.900
10402SOL    HW132105   6.800   4.224   4.844
10402SOL    HW232106   6.764   4.340   4.954
10403SOL     OW32107   3.162   0.201   1.046
10403SOL    HW132108   3.188   0.164   0.957
10403SOL    HW232109   3.119   0.290   1.034
10404SOL     OW32110   6.891   6.409   6.042
10404SOL    HW132111   6.871   6.324   6.090
10404SOL    HW232112   6.988   6.432   6.053
10405SOL     OW32113   0.287   2.566   6.614
10405SOL    HW132114   0.273   2.561   6.713
10405SOL    HW232115   0.290   2.473   6.577
10406SOL     OW32116   1.658   5.833   1.138
10406SOL    HW132117   1.643   5.757   1.075
10406SOL    HW232118   1.698   5.910   1.089
10407SOL     OW32119   2.134   6.170   6.000
10407SOL    HW132120   2.060   6.109   5.973
10407SOL    HW232121   2.096   6.247   6.052
10408SOL     OW32122   4.703   0.908   0.332
10408SOL    HW132123   4.667   0.829   0.381
10408SOL    HW232124   4.732   0.880   0.240
10409SOL     OW32125   6.086   3.767   0.966
10409SOL    HW132126   6.001   3.749   0.917
10409SOL    HW232127   6.106   3.865   0.964
10410SOL     OW32128   4.420   0.280   0.138
10410SOL    HW132129   4.461   0.273   0.229
10410SOL    HW232130   4.320   0.283   0.147
10411SOL     OW32131   1.839   4.750   4.354
10411SOL    HW132132   1.924   4.702   4.336
10411SOL    HW232133   1.799   4.716   4.439
10412SOL     OW32134   4.990   6.895   0.837
10412SOL    HW132135   4.910   6.948   0.809
10412SOL    HW232136   5.069   6.922   0.781
10413SOL     OW32137   6.176   2.998   2.678
10413SOL    HW132138   6.173   3.095   2.652
10413SOL    HW232139   6.267   2.977   2.715
10414SOL     OW32140   4.987   2.789   4.529
10414SOL    HW132141   4.976   2.850   4.450
10414SOL    HW232142   5.051   2.829   4.594
10415SOL     OW32143   0.526   0.713   6.146
10415SOL    HW132144   0.487   0.802   6.123
10415SOL    HW232145   0.625   0.717   6.141
10416SOL     OW32146   5.508   2.889   4.114
10416SOL    HW132147   5.419   2.864   4.152
10416SOL    HW232148   5.506   2.984   4.084
10417SOL     OW32149   1.947   3.926   2.998
10417SOL    HW132150   1.980   3.956   3.087
10417SOL    HW232151   2.021   3.934   2.931
10418SOL     OW32152   1.608   5.863   5.563
10418SOL    HW132153   1.650   5.921   5.493
10418SOL    HW232154   1.546   5.798   5.519
10419SOL     OW32155   0.875   1.186   0.331
10419SOL    HW132156   0.879   1.270   0.386
10419SOL    HW232157   0.850   1.208   0.237
10420SOL     OW32158   0.386   2.656   3.141
10420SOL    HW132159   0.301   2.664   3.089
10420SOL    HW232160   0.412   2.560   3.147
10421SOL     OW32161   0.407   1.634   2.990
10421SOL    HW132162   0.394   1.566   3.063
10421SOL    HW232163   0.440   1.588   2.907
10422SOL     OW32164   5.273   3.943   6.070
10422SOL    HW132165   5.326   3.949   6.155
10422SOL    HW232166   5.272   4.032   6.025
10423SOL     OW32167   4.939   4.104   2.815
10423SOL    HW132168   4.970   4.012   2.838
10423SOL    HW232169   4.879   4.139   2.887
10424SOL     OW32170   4.929   1.255   6.382
10424SOL    HW132171   5.025   1.259   6.409
10424SOL    HW232172   4.900   1.344   6.347
10425SOL     OW32173   1.785   6.606   1.574
10425SOL    HW132174   1.722   6.559   1.635
10425SOL    HW232175   1.845   6.666   1.626
10426SOL     OW32176   6.273   4.339   0.423
10426SOL    HW132177   6.226   4.377   0.502
10426SOL    HW232178   6.287   4.241   0.437
10427SOL     OW32179   4.803   0.849   1.005
10427SOL    HW132180   4.742   0.878   1.079
10427SOL    HW232181   4.891   0.819   1.043
10428SOL     OW32182   4.428   0.867   3.670
10428SOL    HW132183   4.403   0.895   3.762
10428SOL    HW232184   4.495   0.932   3.633
10429SOL     OW32185   5.738   5.906   1.605
10429SOL    HW132186   5.771   5.834   1.544
10429SOL    HW232187   5.714   5.866   1.693
10430SOL     OW32188   4.243   6.297   3.271
10430SOL    HW132189   4.322   6.350   3.238
10430SOL    HW232190   4.185   6.272   3.193
10431SOL     OW32191   2.150   1.157   4.909
10431SOL    HW132192   2.175   1.105   4.827
10431SOL    HW232193   2.197   1.245   4.907
10432SOL     OW32194   4.999   1.491   5.152
10432SOL    HW132195   4.975   1.404   5.194
10432SOL    HW232196   5.047   1.475   5.066
10433SOL     OW32197   3.139   6.912   1.165
10433SOL    HW132198   3.077   6.990   1.175
10433SOL    HW232199   3.184   6.894   1.253
10434SOL     OW32200   2.483   2.255   4.702
10434SOL    HW132201   2.555   2.301   4.754
10434SOL    HW232202   2.498   2.269   4.605
10435SOL     OW32203   5.612   5.531   6.709
10435SOL    HW132204   5.550   5.583   6.768
10435SOL    HW232205   5.594   5.433   6.719
10436SOL     OW32206   1.021   0.027   2.347
10436SOL    HW132207   1.070   0.009   2.261
10436SOL    HW232208   1.026   0.124   2.369
10437SOL     OW32209   6.984   4.560   5.781
10437SOL    HW132210   0.002   4.545   5.692
10437SOL    HW232211   7.023   4.497   5.848
10438SOL     OW32212   3.560   0.265   5.977
10438SOL    HW132213   3.535   0.341   6.036
10438SOL    HW232214   3.656   0.242   5.990
10439SOL     OW32215   3.903   1.051   5.417
10439SOL    HW132216   3.868   1.143   5.431
10439SOL    HW232217   3.874   0.991   5.492
10440SOL     OW32218   1.770   5.995   0.965
10440SOL    HW132219   1.809   5.964   0.878
10440SOL    HW232220   1.844   6.022   1.027
10441SOL     OW32221   4.026   0.290   0.456
10441SOL    HW132222   3.978   0.340   0.384
10441SOL    HW232223   4.096   0.349   0.496
10442SOL     OW32224   4.714   6.085   5.294
10442SOL    HW132225   4.694   6.176   5.258
10442SOL    HW232226   4.630   6.042   5.327
10443SOL     OW32227   6.319   3.009   4.885
10443SOL    HW132228   6.238   2.957   4.914
10443SOL    HW232229   6.292   3.101   4.857
10444SOL     OW32230   3.613   5.120   4.624
10444SOL    HW132231   3.694   5.063   4.634
10444SOL    HW232232   3.530   5.064   4.632
10445SOL     OW32233   6.201   6.254   2.863
10445SOL    HW132234   6.277   6.291   2.917
10445SOL    HW232235   6.238   6.210   2.781
10446SOL     OW32236   0.841   6.188   6.731
10446SOL    HW132237   0.777   6.255   6.691
10446SOL    HW232238   0.788   6.117   6.777
10447SOL     OW32239   5.987   2.026   0.719
10447SOL    HW132240   5.908   2.080   0.748
10447SOL    HW232241   6.040   2.000   0.799
10448SOL     OW32242   3.539   3.820   2.033
10448SOL    HW132243   3.618   3.784   2.084
10448SOL    HW232244   3.505   3.902   2.080
10449SOL     OW32245   1.456   5.589   4.534
10449SOL    HW132246   1.514   5.525   4.483
10449SOL    HW232247   1.479   5.585   4.631
10450SOL     OW32248   6.974   3.296   0.804
10450SOL    HW132249   7.006   3.338   0.889
10450SOL    HW232250   0.008   3.218   0.781
10451SOL     OW32251   2.372   4.300   2.705
10451SOL    HW132252   2.440   4.373   2.712
10451SOL    HW232253   2.306   4.310   2.780
10452SOL     OW32254   1.445   3.486   5.029
10452SOL    HW132255   1.469   3.450   5.119
10452SOL    HW232256   1.346   3.486   5.018
10453SOL     OW32257   5.198   0.770   1.358
10453SOL    HW132258   5.173   0.683   1.400
10453SOL    HW232259   5.136   0.841   1.390
10454SOL     OW32260   4.898   3.685   2.165
10454SOL    HW132261   4.865   3.758   2.105
10454SOL    HW232262   4.880   3.596   2.122
10455SOL     OW32263   0.401   4.786   2.640
10455SOL    HW132264   0.304   4.759   2.645
10455SOL    HW232265   0.417   4.864   2.700
10456SOL     OW32266   3.812   5.962   1.700
10456SOL    HW132267   3.730   5.965   1.642
10456SOL    HW232268   3.862   5.877   1.684
10457SOL     OW32269   3.603   3.161   3.751
10457SOL    HW132270   3.645   3.073   3.773
10457SOL    HW232271   3.570   3.159   3.656
10458SOL     OW32272   6.854   6.381   1.944
10458SOL    HW132273   6.755   6.368   1.933
10458SOL    HW232274   6.891   6.307   2.000
10459SOL     OW32275   6.980   5.205   2.045
10459SOL    HW132276   6.906   5.180   1.982
10459SOL    HW232277   6.956   5.289   2.093
10460SOL     OW32278   1.586   4.219   2.171
10460SOL    HW132279   1.589   4.317   2.191
10460SOL    HW232280   1.512   4.201   2.105
10461SOL     OW32281   2.879   1.242   6.520
10461SOL    HW132282   2.791   1.201   6.498
10461SOL    HW232283   2.898   1.317   6.458
10462SOL     OW32284   5.146   6.643   0.789
10462SOL    HW132285   5.067   6.690   0.828
10462SOL    HW232286   5.116   6.565   0.734
10463SOL     OW32287   3.311   3.260   1.467
10463SOL    HW132288   3.358   3.341   1.433
10463SOL    HW232289   3.326   3.183   1.405
10464SOL     OW32290   5.432   6.482   1.392
10464SOL    HW132291   5.425   6.562   1.332
10464SOL    HW232292   5.507   6.424   1.361
10465SOL     OW32293   6.932   5.223   4.793
10465SOL    HW132294   6.987   5.204   4.712
10465SOL    HW232295   6.981   5.194   4.875
10466SOL     OW32296   5.072   6.072   6.264
10466SOL    HW132297   5.154   6.117   6.228
10466SOL    HW232298   5.004   6.064   6.191
10467SOL     OW32299   4.550   1.584   3.700
10467SOL    HW132300   4.540   1.486   3.715
10467SOL    HW232301   4.510   1.608   3.612
10468SOL     OW32302   3.259   5.186   3.593
10468SOL    HW132303   3.269   5.107   3.532
10468SOL    HW232304   3.344   5.239   3.592
10469SOL     OW32305   1.056   5.356   6.757
10469SOL    HW132306   1.054   5.259   6.780
10469SOL    HW232307   1.088   5.367   6.662
10470SOL     OW32308   2.666   1.828   4.421
10470SOL    HW132309   2.644   1.849   4.326
10470SOL    HW232310   2.677   1.913   4.472
10471SOL     OW32311   3.966   3.929   0.410
10471SOL    HW132312   4.011   3.929   0.499
10471SOL    HW232313   4.011   3.864   0.349
10472SOL     OW32314   4.407   1.552   3.454
10472SOL    HW132315   4.308   1.563   3.462
10472SOL    HW232316   4.429   1.455   3.446
10473SOL     OW32317   4.636   5.230   6.907
10473SOL    HW132318   4.582   5.154   6.942
10473SOL    HW232319   4.634   5.229   6.807
10474SOL     OW32320   5.109   1.378   3.098
10474SOL    HW132321   5.190   1.325   3.072
10474SOL    HW232322   5.056   1.327   3.167
10475SOL     OW32323   4.812   6.291   1.629
10475SOL    HW132324   4.791   6.218   1.564
10475SOL    HW232325   4.780   6.378   1.592
10476SOL     OW32326   0.382   4.845   6.779
10476SOL    HW132327   0.379   4.753   6.740
10476SOL    HW232328   0.326   4.848   6.862
10477SOL     OW32329   4.618   4.386   5.139
10477SOL    HW132330   4.701   4.441   5.153
10477SOL    HW232331   4.634   4.320   5.066
10478SOL     OW32332   0.439   6.542   2.832
10478SOL    HW132333   0.477   6.450   2.843
10478SOL    HW232334   0.341   6.534   2.813
10479SOL     OW32335   1.031   4.598   2.058
10479SOL    HW132336   1.015   4.538   2.136
10479SOL    HW232337   0.959   4.667   2.054
10480SOL     OW32338   5.696   0.694   1.564
10480SOL    HW132339   5.684   0.646   1.477
10480SOL    HW232340   5.683   0.631   1.640
10481SOL     OW32341   2.482   1.217   4.358
10481SOL    HW132342   2.414   1.145   4.369
10481SOL    HW232343   2.457   1.296   4.415
10482SOL     OW32344   0.414   5.886   6.477
10482SOL    HW132345   0.502   5.841   6.467
10482SOL    HW232346   0.345   5.818   6.504
10483SOL     OW32347   6.617   5.641   1.011
10483SOL    HW132348   6.548   5.668   0.944
10483SOL    HW232349   6.612   5.543   1.027
10484SOL     OW32350   6.253   2.045   1.476
10484SOL    HW132351   6.183   1.990   1.522
10484SOL    HW232352   6.340   2.036   1.524
10485SOL     OW32353   3.401   4.170   4.015
10485SOL    HW132354   3.364   4.258   3.985
10485SOL    HW232355   3.382   4.157   4.112
10486SOL     OW32356   6.133   5.561   5.591
10486SOL    HW132357   6.148   5.484   5.529
10486SOL    HW232358   6.206   5.628   5.578
10487SOL     OW32359   5.307   3.208   2.848
10487SOL    HW132360   5.401   3.180   2.866
10487SOL    HW232361   5.274   3.161   2.766
10488SOL     OW32362   0.278   2.516   4.917
10488SOL    HW132363   0.199   2.525   4.856
10488SOL    HW232364   0.266   2.435   4.975
10489SOL     OW32365   5.796   4.695   3.801
10489SOL    HW132366   5.819   4.642   3.882
10489SOL    HW232367   5.879   4.719   3.752
10490SOL     OW32368   5.533   6.316   6.675
10490SOL    HW132369   5.542   6.236   6.733
10490SOL    HW232370   5.595   6.388   6.708
10491SOL     OW32371   2.030   3.346   5.800
10491SOL    HW132372   2.129   3.332   5.800
10491SOL    HW232373   1.993   3.319   5.711
10492SOL     OW32374   2.895   6.202   0.518
10492SOL    HW132375   2.887   6.105   0.539
10492SOL    HW232376   2.868   6.256   0.598
10493SOL     OW32377   3.974   5.421   0.956
10493SOL    HW132378   3.978   5.456   0.863
10493SOL    HW232379   4.000   5.493   1.020
10494SOL     OW32380   0.415   4.722   4.033
10494SOL    HW132381   0.389   4.743   4.127
10494SOL    HW232382   0.409   4.624   4.018
10495SOL     OW32383   6.932   0.120   0.686
10495SOL    HW132384   6.976   0.210   0.685
10495SOL    HW232385   6.834   0.130   0.700
10496SOL     OW32386   0.459   4.681   6.364
10496SOL    HW132387   0.372   4.725   6.339
10496SOL    HW232388   0.529   4.752   6.374
10497SOL     OW32389   3.283   6.945   1.617
10497SOL    HW132390   3.321   6.877   1.555
10497SOL    HW232391   3.351   6.968   1.686
10498SOL     OW32392   3.896   3.354   6.738
10498SOL    HW132393   3.830   3.424   6.713
10498SOL    HW232394   3.984   3.397   6.759
10499SOL     OW32395   4.559   4.503   2.640
10499SOL    HW132396   4.478   4.500   2.581
10499SOL    HW232397   4.622   4.430   2.615
10500SOL     OW32398   1.694   3.259   5.044
10500SOL    HW132399   1.665   3.236   4.951
10500SOL    HW232400   1.614   3.288   5.097
10501SOL     OW32401   3.850   4.849   3.488
10501SOL    HW132402   3.787   4.887   3.556
10501SOL    HW232403   3.797   4.819   3.409
10502SOL     OW32404   2.967   3.685   2.565
10502SOL    HW132405   2.946   3.591   2.593
10502SOL    HW232406   2.983   3.687   2.466
10503SOL     OW32407   6.662   1.315   0.070
10503SOL    HW132408   6.597   1.247   0.037
10503SOL    HW232409   6.744   1.269   0.104
10504SOL     OW32410   1.485   3.940   5.581
10504SOL    HW132411   1.514   4.022   5.631
10504SOL    HW232412   1.385   3.938   5.577
10505SOL     OW32413   6.256   6.589   0.752
10505SOL    HW132414   6.187   6.661   0.747
10505SOL    HW232415   6.285   6.565   0.659
10506SOL     OW32416   1.534   4.571   5.865
10506SOL    HW132417   1.535   4.549   5.768
10506SOL    HW232418   1.440   4.569   5.899
10507SOL     OW32419   1.081   6.244   5.995
10507SOL    HW132420   1.094   6.157   5.948
10507SOL    HW232421   1.145   6.312   5.960
10508SOL     OW32422   1.679   6.312   0.847
10508SOL    HW132423   1.669   6.360   0.760
10508SOL    HW232424   1.666   6.214   0.832
10509SOL     OW32425   4.770   2.904   2.762
10509SOL    HW132426   4.777   2.991   2.811
10509SOL    HW232427   4.734   2.834   2.823
10510SOL     OW32428   5.502   5.761   2.974
10510SOL    HW132429   5.430   5.822   2.939
10510SOL    HW232430   5.533   5.793   3.063
10511SOL     OW32431   4.167   1.412   1.081
10511SOL    HW132432   4.147   1.355   1.161
10511SOL    HW232433   4.097   1.484   1.073
10512SOL     OW32434   4.260   1.350   5.816
10512SOL    HW132435   4.292   1.398   5.898
10512SOL    HW232436   4.309   1.383   5.736
10513SOL     OW32437   3.230   3.662   0.855
10513SOL    HW132438   3.285   3.681   0.937
10513SOL    HW232439   3.139   3.633   0.882
10514SOL     OW32440   1.426   5.418   1.493
10514SOL    HW132441   1.363   5.480   1.446
10514SOL    HW232442   1.394   5.404   1.587
10515SOL     OW32443   2.126   3.587   4.880
10515SOL    HW132444   2.159   3.493   4.882
10515SOL    HW232445   2.153   3.630   4.794
10516SOL     OW32446   5.620   1.539   2.019
10516SOL    HW132447   5.581   1.450   1.996
10516SOL    HW232448   5.619   1.597   1.937
10517SOL     OW32449   0.674   2.209   2.130
10517SOL    HW132450   0.677   2.305   2.104
10517SOL    HW232451   0.580   2.175   2.122
10518SOL     OW32452   0.564   6.327   2.081
10518SOL    HW132453   0.537   6.235   2.053
10518SOL    HW232454   0.500   6.360   2.151
10519SOL     OW32455   3.343   6.683   1.301
10519SOL    HW132456   3.391   6.646   1.221
10519SOL    HW232457   3.405   6.742   1.352
10520SOL     OW32458   1.833   2.445   6.411
10520SOL    HW132459   1.843   2.466   6.314
10520SOL    HW232460   1.858   2.350   6.427
10521SOL     OW32461   6.256   2.328   3.024
10521SOL    HW132462   6.156   2.323   3.024
10521SOL    HW232463   6.291   2.290   3.109
10522SOL     OW32464   5.416   1.266   3.811
10522SOL    HW132465   5.320   1.295   3.810
10522SOL    HW232466   5.422   1.176   3.854
10523SOL     OW32467   0.547   3.977   1.653
10523SOL    HW132468   0.645   3.997   1.647
10523SOL    HW232469   0.497   4.061   1.673
10524SOL     OW32470   6.792   5.902   4.830
10524SOL    HW132471   6.831   5.916   4.920
10524SOL    HW232472   6.853   5.845   4.775
10525SOL     OW32473   4.524   1.225   3.888
10525SOL    HW132474   4.606   1.168   3.877
10525SOL    HW232475   4.532   1.279   3.971
10526SOL     OW32476   1.120   5.692   5.950
10526SOL    HW132477   1.086   5.615   6.004
10526SOL    HW232478   1.220   5.688   5.944
10527SOL     OW32479   6.920   6.233   5.770
10527SOL    HW132480   6.883   6.272   5.854
10527SOL    HW232481   6.863   6.260   5.693
10528SOL     OW32482   1.655   4.981   5.109
10528SOL    HW132483   1.755   4.983   5.112
10528SOL    HW232484   1.619   5.069   5.140
10529SOL     OW32485   7.015   4.999   0.718
10529SOL    HW132486   6.934   4.973   0.770
10529SOL    HW232487   0.066   4.936   0.738
10530SOL     OW32488   6.791   0.397   0.987
10530SOL    HW132489   6.886   0.431   0.985
10530SOL    HW232490   6.789   0.303   0.955
10531SOL     OW32491   3.491   2.361   6.187
10531SOL    HW132492   3.483   2.348   6.088
10531SOL    HW232493   3.493   2.458   6.209
10532SOL     OW32494   4.746   6.115   5.584
10532SOL    HW132495   4.755   6.112   5.485
10532SOL    HW232496   4.718   6.024   5.618
10533SOL     OW32497   4.214   6.911   3.465
10533SOL    HW132498   4.199   7.007   3.442
10533SOL    HW232499   4.227   6.859   3.380
10534SOL     OW32500   1.367   6.698   3.896
10534SOL    HW132501   1.386   6.695   3.994
10534SOL    HW232502   1.404   6.616   3.852
10535SOL     OW32503   3.846   1.974   2.610
10535SOL    HW132504   3.899   2.053   2.578
10535SOL    HW232505   3.897   1.890   2.591
10536SOL     OW32506   6.003   3.993   4.740
10536SOL    HW132507   5.940   3.950   4.675
10536SOL    HW232508   5.953   4.016   4.824
10537SOL     OW32509   3.585   1.097   3.510
10537SOL    HW132510   3.523   1.047   3.448
10537SOL    HW232511   3.663   1.132   3.458
10538SOL     OW32512   6.549   2.524   3.433
10538SOL    HW132513   6.550   2.624   3.436
10538SOL    HW232514   6.609   2.492   3.360
10539SOL     OW32515   6.748   6.464   3.400
10539SOL    HW132516   6.667   6.492   3.350
10539SOL    HW232517   6.741   6.494   3.495
10540SOL     OW32518   1.886   4.121   6.932
10540SOL    HW132519   1.983   4.118   6.954
10540SOL    HW232520   1.838   4.048   6.980
10541SOL     OW32521   3.371   2.498   5.531
10541SOL    HW132522   3.354   2.404   5.503
10541SOL    HW232523   3.307   2.523   5.604
10542SOL     OW32524   4.012   6.454   2.415
10542SOL    HW132525   3.932   6.400   2.440
10542SOL    HW232526   4.034   6.518   2.488
10543SOL     OW32527   2.386   2.683   4.222
10543SOL    HW132528   2.373   2.754   4.153
10543SOL    HW232529   2.465   2.706   4.279
10544SOL     OW32530   3.045   1.709   2.521
10544SOL    HW132531   2.952   1.718   2.557
10544SOL    HW232532   3.052   1.629   2.463
10545SOL     OW32533   1.904   3.194   1.826
10545SOL    HW132534   1.931   3.105   1.863
10545SOL    HW232535   1.847   3.181   1.745
10546SOL     OW32536   2.511   0.121   5.559
10546SOL    HW132537   2.589   0.172   5.596
10546SOL    HW232538   2.539   0.027   5.541
10547SOL     OW32539   3.655   6.337   6.038
10547SOL    HW132540   3.665   6.240   6.061
10547SOL    HW232541   3.720   6.361   5.966
10548SOL     OW32542   0.747   5.929   3.077
10548SOL    HW132543   0.723   6.024   3.055
10548SOL    HW232544   0.709   5.906   3.167
10549SOL     OW32545   0.171   0.805   2.773
10549SOL    HW132546   0.270   0.801   2.782
10549SOL    HW232547   0.139   0.726   2.721
10550SOL     OW32548   5.540   5.878   3.211
10550SOL    HW132549   5.514   5.973   3.197
10550SOL    HW232550   5.520   5.851   3.305
10551SOL     OW32551   4.304   0.820   4.660
10551SOL    HW132552   4.258   0.744   4.616
10551SOL    HW232553   4.276   0.825   4.756
10552SOL     OW32554   2.941   6.559   3.367
10552SOL    HW132555   3.006   6.611   3.422
10552SOL    HW232556   2.849   6.573   3.403
10553SOL     OW32557   5.564   5.561   1.189
10553SOL    HW132558   5.493   5.543   1.257
10553SOL    HW232559   5.587   5.477   1.141
10554SOL     OW32560   5.954   6.133   1.794
10554SOL    HW132561   5.998   6.086   1.717
10554SOL    HW232562   5.998   6.222   1.808
10555SOL     OW32563   3.670   3.364   1.572
10555SOL    HW132564   3.590   3.390   1.517
10555SOL    HW232565   3.644   3.364   1.669
10556SOL     OW32566   2.821   1.662   1.938
10556SOL    HW132567   2.751   1.608   1.890
10556SOL    HW232568   2.886   1.699   1.872
10557SOL     OW32569   0.966   4.332   3.056
10557SOL    HW132570   1.026   4.339   3.135
10557SOL    HW232571   0.872   4.313   3.087
10558SOL     OW32572   4.326   4.793   4.466
10558SOL    HW132573   4.247   4.839   4.427
10558SOL    HW232574   4.331   4.811   4.564
10559SOL     OW32575   3.648   5.801   1.459
10559SOL    HW132576   3.567   5.743   1.473
10559SOL    HW232577   3.729   5.742   1.447
10560SOL     OW32578   5.778   0.031   3.592
10560SOL    HW132579   5.855   7.018   3.540
10560SOL    HW232580   5.812   0.099   3.657
10561SOL     OW32581   0.984   5.490   6.131
10561SOL    HW132582   0.988   5.416   6.198
10561SOL    HW232583   0.902   5.479   6.074
10562SOL     OW32584   3.961   6.039   2.315
10562SOL    HW132585   4.053   6.008   2.290
10562SOL    HW232586   3.901   6.032   2.236
10563SOL     OW32587   1.367   6.576   1.933
10563SOL    HW132588   1.312   6.536   2.007
10563SOL    HW232589   1.412   6.659   1.967
10564SOL     OW32590   5.466   4.513   3.447
10564SOL    HW132591   5.368   4.495   3.454
10564SOL    HW232592   5.482   4.611   3.439
10565SOL     OW32593   0.482   1.217   4.964
10565SOL    HW132594   0.383   1.203   4.968
10565SOL    HW232595   0.523   1.145   4.908
10566SOL     OW32596   3.805   1.966   1.207
10566SOL    HW132597   3.761   2.012   1.283
10566SOL    HW232598   3.740   1.956   1.131
10567SOL     OW32599   2.443   2.726   6.353
10567SOL    HW132600   2.513   2.765   6.413
10567SOL    HW232601   2.462   2.630   6.336
10568SOL     OW32602   5.236   2.307   6.027
10568SOL    HW132603   5.201   2.371   6.095
10568SOL    HW232604   5.327   2.277   6.054
10569SOL     OW32605   5.353   0.242   0.857
10569SOL    HW132606   5.425   0.310   0.846
10569SOL    HW232607   5.367   0.190   0.941
10570SOL     OW32608   1.407   3.767   3.316
10570SOL    HW132609   1.339   3.694   3.310
10570SOL    HW232610   1.432   3.797   3.224
10571SOL     OW32611   0.122   4.302   5.839
10571SOL    HW132612   0.171   4.356   5.770
10571SOL    HW232613   0.187   4.265   5.905
10572SOL     OW32614   6.305   4.420   0.786
10572SOL    HW132615   6.215   4.434   0.827
10572SOL    HW232616   6.309   4.328   0.747
10573SOL     OW32617   6.956   2.146   3.454
10573SOL    HW132618   6.894   2.076   3.489
10573SOL    HW232619   6.908   2.233   3.449
10574SOL     OW32620   5.765   2.350   2.498
10574SOL    HW132621   5.744   2.258   2.465
10574SOL    HW232622   5.708   2.370   2.577
10575SOL     OW32623   5.607   6.719   2.887
10575SOL    HW132624   5.585   6.749   2.794
10575SOL    HW232625   5.546   6.763   2.952
10576SOL     OW32626   1.164   3.183   4.866
10576SOL    HW132627   1.182   3.171   4.964
10576SOL    HW232628   1.105   3.263   4.853
10577SOL     OW32629   3.748   4.202   0.373
10577SOL    HW132630   3.681   4.185   0.446
10577SOL    HW232631   3.766   4.117   0.324
10578SOL     OW32632   0.951   3.441   2.751
10578SOL    HW132633   1.037   3.449   2.699
10578SOL    HW232634   0.887   3.512   2.721
10579SOL     OW32635   0.107   3.093   6.808
10579SOL    HW132636   0.079   3.109   6.713
10579SOL    HW232637   0.175   3.162   6.834
10580SOL     OW32638   5.489   6.457   6.999
10580SOL    HW132639   5.550   6.479   6.923
10580SOL    HW232640   5.541   6.414   0.049
10581SOL     OW32641   4.619   0.806   3.275
10581SOL    HW132642   4.686   0.759   3.218
10581SOL    HW232643   4.618   0.764   3.366
10582SOL     OW32644   6.617   3.472   0.224
10582SOL    HW132645   6.519   3.486   0.236
10582SOL    HW232646   6.638   3.457   0.128
10583SOL     OW32647   4.491   2.013   5.603
10583SOL    HW132648   4.431   1.943   5.563
10583SOL    HW232649   4.545   2.055   5.531
10584SOL     OW32650   0.284   0.663   3.557
10584SOL    HW132651   0.333   0.671   3.470
10584SOL    HW232652   0.320   0.729   3.622
10585SOL     OW32653   1.455   0.893   5.677
10585SOL    HW132654   1.419   0.885   5.584
10585SOL    HW232655   1.497   0.983   5.690
10586SOL     OW32656   4.364   4.089   5.660
10586SOL    HW132657   4.294   4.018   5.668
10586SOL    HW232658   4.454   4.048   5.669
10587SOL     OW32659   1.983   4.992   4.896
10587SOL    HW132660   1.931   5.076   4.907
10587SOL    HW232661   1.939   4.919   4.948
10588SOL     OW32662   1.626   4.105   3.857
10588SOL    HW132663   1.567   4.088   3.936
10588SOL    HW232664   1.709   4.049   3.866
10589SOL     OW32665   6.398   6.798   3.500
10589SOL    HW132666   6.414   6.704   3.530
10589SOL    HW232667   6.474   6.856   3.530
10590SOL     OW32668   1.059   5.827   2.477
10590SOL    HW132669   0.988   5.893   2.501
10590SOL    HW232670   1.051   5.802   2.381
10591SOL     OW32671   6.542   4.305   2.604
10591SOL    HW132672   6.554   4.280   2.700
10591SOL    HW232673   6.631   4.304   2.558
10592SOL     OW32674   7.021   2.499   4.620
10592SOL    HW132675   0.023   2.579   4.674
10592SOL    HW232676   6.988   2.527   4.531
10593SOL     OW32677   3.481   5.926   3.740
10593SOL    HW132678   3.512   5.911   3.834
10593SOL    HW232679   3.399   5.983   3.741
10594SOL     OW32680   3.501   5.832   4.133
10594SOL    HW132681   3.466   5.874   4.216
10594SOL    HW232682   3.575   5.888   4.096
10595SOL     OW32683   4.715   6.514   0.992
10595SOL    HW132684   4.644   6.461   1.039
10595SOL    HW232685   4.805   6.477   1.015
10596SOL     OW32686   5.086   3.841   0.613
10596SOL    HW132687   5.109   3.751   0.651
10596SOL    HW232688   5.159   3.906   0.632
10597SOL     OW32689   1.992   6.940   4.902
10597SOL    HW132690   1.958   6.887   4.979
10597SOL    HW232691   1.970   6.892   4.817
10598SOL     OW32692   3.119   1.164   0.437
10598SOL    HW132693   3.068   1.103   0.376
10598SOL    HW232694   3.217   1.143   0.433
10599SOL     OW32695   0.685   2.288   0.505
10599SOL    HW132696   0.708   2.322   0.596
10599SOL    HW232697   0.611   2.221   0.512
10600SOL     OW32698   4.405   1.187   1.841
10600SOL    HW132699   4.345   1.212   1.916
10600SOL    HW232700   4.374   1.101   1.800
10601SOL     OW32701   1.861   1.203   4.974
10601SOL    HW132702   1.948   1.168   4.939
10601SOL    HW232703   1.795   1.128   4.980
10602SOL     OW32704   6.534   6.585   1.345
10602SOL    HW132705   6.621   6.563   1.390
10602SOL    HW232706   6.459   6.556   1.404
10603SOL     OW32707   6.062   0.394   3.051
10603SOL    HW132708   5.984   0.436   3.003
10603SOL    HW232709   6.085   0.448   3.131
10604SOL     OW32710   5.229   2.003   5.363
10604SOL    HW132711   5.256   2.035   5.453
10604SOL    HW232712   5.211   1.904   5.367
10605SOL     OW32713   3.787   1.825   1.828
10605SOL    HW132714   3.728   1.868   1.897
10605SOL    HW232715   3.881   1.823   1.860
10606SOL     OW32716   6.502   1.790   6.907
10606SOL    HW132717   6.508   1.778   6.808
10606SOL    HW232718   6.534   1.706   6.953
10607SOL     OW32719   3.204   4.592   0.768
10607SOL    HW132720   3.241   4.581   0.861
10607SOL    HW232721   3.111   4.630   0.774
10608SOL     OW32722   5.737   3.886   3.157
10608SOL    HW132723   5.701   3.977   3.135
10608SOL    HW232724   5.663   3.819   3.151
10609SOL     OW32725   6.088   6.859   6.400
10609SOL    HW132726   6.025   6.922   6.357
10609SOL    HW232727   6.171   6.908   6.428
10610SOL     OW32728   0.639   1.444   2.956
10610SOL    HW132729   0.667   1.486   2.870
10610SOL    HW232730   0.645   1.511   3.030
10611SOL     OW32731   4.380   5.053   5.066
10611SOL    HW132732   4.334   4.965   5.072
10611SOL    HW232733   4.315   5.127   5.083
10612SOL     OW32734   6.464   2.800   3.402
10612SOL    HW132735   6.370   2.785   3.371
10612SOL    HW232736   6.526   2.797   3.323
10613SOL     OW32737   4.955   5.605   4.641
10613SOL    HW132738   4.885   5.630   4.574
10613SOL    HW232739   4.915   5.607   4.733
10614SOL     OW32740   3.989   2.206   6.902
10614SOL    HW132741   4.051   2.249   6.969
10614SOL    HW232742   3.909   2.169   6.948
10615SOL     OW32743   2.595   2.608   5.316
10615SOL    HW132744   2.539   2.688   5.294
10615SOL    HW232745   2.605   2.551   5.235
10616SOL     OW32746   1.430   5.763   0.095
10616SOL    HW132747   1.344   5.766   0.147
10616SOL    HW232748   1.450   5.855   0.059
10617SOL     OW32749   1.476   2.556   0.928
10617SOL    HW132750   1.379   2.576   0.944
10617SOL    HW232751   1.529   2.640   0.933
10618SOL     OW32752   0.613   5.158   4.260
10618SOL    HW132753   0.648   5.152   4.167
10618SOL    HW232754   0.642   5.077   4.312
10619SOL     OW32755   1.101   2.920   0.874
10619SOL    HW132756   1.086   2.872   0.960
10619SOL    HW232757   1.192   2.898   0.839
10620SOL     OW32758   3.416   0.814   5.768
10620SOL    HW132759   3.322   0.812   5.735
10620SOL    HW232760   3.424   0.881   5.841
10621SOL     OW32761   0.945   3.867   3.389
10621SOL    HW132762   0.902   3.780   3.413
10621SOL    HW232763   1.024   3.851   3.330
10622SOL     OW32764   3.987   2.204   5.945
10622SOL    HW132765   4.055   2.269   5.979
10622SOL    HW232766   4.002   2.189   5.847
10623SOL     OW32767   5.276   5.339   5.702
10623SOL    HW132768   5.244   5.340   5.797
10623SOL    HW232769   5.367   5.380   5.698
10624SOL     OW32770   0.349   1.834   6.382
10624SOL    HW132771   0.412   1.868   6.313
10624SOL    HW232772   0.255   1.842   6.349
10625SOL     OW32773   6.344   5.812   0.634
10625SOL    HW132774   6.246   5.806   0.653
10625SOL    HW232775   6.358   5.836   0.538
10626SOL     OW32776   5.874   2.952   1.984
10626SOL    HW132777   5.784   2.973   2.022
10626SOL    HW232778   5.878   2.856   1.960
10627SOL     OW32779   5.593   4.845   5.460
10627SOL    HW132780   5.604   4.842   5.361
10627SOL    HW232781   5.545   4.763   5.492
10628SOL     OW32782   2.807   6.349   0.784
10628SOL    HW132783   2.708   6.363   0.786
10628SOL    HW232784   2.852   6.427   0.827
10629SOL     OW32785   4.540   5.030   3.966
10629SOL    HW132786   4.545   5.063   4.060
10629SOL    HW232787   4.508   4.935   3.965
10630SOL     OW32788   4.038   0.636   1.447
10630SOL    HW132789   4.115   0.646   1.509
10630SOL    HW232790   4.053   0.691   1.365
10631SOL     OW32791   3.556   5.591   1.693
10631SOL    HW132792   3.495   5.626   1.764
10631SOL    HW232793   3.525   5.500   1.664
10632SOL     OW32794   5.919   6.946   4.028
10632SOL    HW132795   5.859   6.924   3.952
10632SOL    HW232796   5.876   7.016   4.086
10633SOL     OW32797   2.381   3.330   0.260
10633SOL    HW132798   2.405   3.326   0.163
10633SOL    HW232799   2.389   3.239   0.301
10634SOL     OW32800   1.070   4.555   6.728
10634SOL    HW132801   1.099   4.476   6.780
10634SOL    HW232802   1.146   4.619   6.718
10635SOL     OW32803   3.142   5.091   6.450
10635SOL    HW132804   3.226   5.118   6.496
10635SOL    HW232805   3.163   5.025   6.378
10636SOL     OW32806   6.003   2.952   0.568
10636SOL    HW132807   6.057   2.872   0.593
10636SOL    HW232808   5.991   2.954   0.468
10637SOL     OW32809   2.790   0.952   6.296
10637SOL    HW132810   2.805   0.988   6.204
10637SOL    HW232811   2.763   0.856   6.289
10638SOL     OW32812   5.108   4.815   0.416
10638SOL    HW132813   5.094   4.773   0.506
10638SOL    HW232814   5.150   4.749   0.354
10639SOL     OW32815   6.266   4.826   0.595
10639SOL    HW132816   6.223   4.863   0.677
10639SOL    HW232817   6.201   4.764   0.549
10640SOL     OW32818   3.972   6.545   4.277
10640SOL    HW132819   3.954   6.634   4.320
10640SOL    HW232820   4.066   6.516   4.299
10641SOL     OW32821   1.177   1.439   3.407
10641SOL    HW132822   1.126   1.402   3.330
10641SOL    HW232823   1.274   1.442   3.385
10642SOL     OW32824   6.948   2.294   6.148
10642SOL    HW132825   6.993   2.329   6.230
10642SOL    HW232826   6.849   2.300   6.159
10643SOL     OW32827   2.780   5.440   5.975
10643SOL    HW132828   2.716   5.434   6.052
10643SOL    HW232829   2.748   5.383   5.900
10644SOL     OW32830   0.180   3.604   2.876
10644SOL    HW132831   0.173   3.523   2.935
10644SOL    HW232832   0.243   3.585   2.801
10645SOL     OW32833   2.396   2.545   3.068
10645SOL    HW132834   2.323   2.501   3.121
10645SOL    HW232835   2.376   2.642   3.058
10646SOL     OW32836   4.804   0.633   3.651
10646SOL    HW132837   4.818   0.729   3.625
10646SOL    HW232838   4.792   0.627   3.750
10647SOL     OW32839   3.918   5.331   5.107
10647SOL    HW132840   3.836   5.383   5.082
10647SOL    HW232841   3.904   5.234   5.086
10648SOL     OW32842   4.897   4.044   5.420
10648SOL    HW132843   4.831   4.109   5.382
10648SOL    HW232844   4.853   3.956   5.434
10649SOL     OW32845   5.845   3.218   3.516
10649SOL    HW132846   5.883   3.134   3.555
10649SOL    HW232847   5.920   3.274   3.480
10650SOL     OW32848   0.430   6.933   2.752
10650SOL    HW132849   0.503   6.866   2.763
10650SOL    HW232850   0.470   0.000   2.741
10651SOL     OW32851   2.409   6.164   6.058
10651SOL    HW132852   2.313   6.191   6.057
10651SOL    HW232853   2.419   6.074   6.015
10652SOL     OW32854   2.191   0.603   0.085
10652SOL    HW132855   2.156   0.641   7.023
10652SOL    HW232856   2.116   0.570   0.141
10653SOL     OW32857   5.643   6.572   4.505
10653SOL    HW132858   5.565   6.521   4.469
10653SOL    HW232859   5.611   6.659   4.543
10654SOL     OW32860   6.663   1.633   3.858
10654SOL    HW132861   6.636   1.698   3.929
10654SOL    HW232862   6.751   1.661   3.819
10655SOL     OW32863   6.873   4.671   0.699
10655SOL    HW132864   6.864   4.747   0.763
10655SOL    HW232865   6.838   4.698   0.609
10656SOL     OW32866   5.815   1.677   5.422
10656SOL    HW132867   5.838   1.774   5.418
10656SOL    HW232868   5.871   1.627   5.356
10657SOL     OW32869   4.697   6.997   5.469
10657SOL    HW132870   4.754   0.040   5.517
10657SOL    HW232871   4.756   6.932   5.420
10658SOL     OW32872   0.493   1.763   5.549
10658SOL    HW132873   0.536   1.676   5.572
10658SOL    HW232874   0.559   1.822   5.503
10659SOL     OW32875   6.815   5.337   0.542
10659SOL    HW132876   6.771   5.396   0.609
10659SOL    HW232877   6.785   5.361   0.450
10660SOL     OW32878   5.711   2.957   6.733
10660SOL    HW132879   5.621   2.947   6.690
10660SOL    HW232880   5.767   2.877   6.712
10661SOL     OW32881   3.460   5.362   5.474
10661SOL    HW132882   3.478   5.294   5.545
10661SOL    HW232883   3.516   5.342   5.393
10662SOL     OW32884   3.166   1.637   1.270
10662SOL    HW132885   3.186   1.587   1.186
10662SOL    HW232886   3.109   1.581   1.330
10663SOL     OW32887   0.023   2.755   3.413
10663SOL    HW132888   0.023   2.855   3.415
10663SOL    HW232889   0.117   2.722   3.405
10664SOL     OW32890   1.405   6.214   4.441
10664SOL    HW132891   1.501   6.211   4.467
10664SOL    HW232892   1.348   6.192   4.520
10665SOL     OW32893   2.999   3.521   0.469
10665SOL    HW132894   3.006   3.471   0.556
10665SOL    HW232895   3.035   3.464   0.395
10666SOL     OW32896   3.997   3.780   1.094
10666SOL    HW132897   3.977   3.780   1.192
10666SOL    HW232898   3.916   3.750   1.044
10667SOL     OW32899   5.622   2.344   4.411
10667SOL    HW132900   5.582   2.293   4.487
10667SOL    HW232901   5.583   2.436   4.407
10668SOL     OW32902   3.400   3.024   6.016
10668SOL    HW132903   3.447   2.973   5.944
10668SOL    HW232904   3.443   3.004   6.104
10669SOL     OW32905   6.143   1.967   1.232
10669SOL    HW132906   6.181   1.875   1.239
10669SOL    HW232907   6.180   2.023   1.307
10670SOL     OW32908   4.795   4.357   3.699
10670SOL    HW132909   4.705   4.365   3.743
10670SOL    HW232910   4.836   4.448   3.690
10671SOL     OW32911   1.661   3.164   4.763
10671SOL    HW132912   1.751   3.123   4.781
10671SOL    HW232913   1.664   3.213   4.675
10672SOL     OW32914   6.412   4.056   1.856
10672SOL    HW132915   6.376   4.110   1.932
10672SOL    HW232916   6.460   3.976   1.892
10673SOL     OW32917   2.814   1.605   1.186
10673SOL    HW132918   2.833   1.568   1.094
10673SOL    HW232919   2.774   1.696   1.177
10674SOL     OW32920   3.809   3.694   4.347
10674SOL    HW132921   3.809   3.698   4.247
10674SOL    HW232922   3.784   3.601   4.376
10675SOL     OW32923   3.243   6.641   5.625
10675SOL    HW132924   3.294   6.631   5.711
10675SOL    HW232925   3.173   6.569   5.620
10676SOL     OW32926   1.638   0.328   5.400
10676SOL    HW132927   1.703   0.402   5.382
10676SOL    HW232928   1.577   0.317   5.322
10677SOL     OW32929   0.625   2.423   6.864
10677SOL    HW132930   0.562   2.384   6.932
10677SOL    HW232931   0.708   2.455   6.910
10678SOL     OW32932   4.183   5.417   2.631
10678SOL    HW132933   4.138   5.361   2.562
10678SOL    HW232934   4.120   5.432   2.707
10679SOL     OW32935   4.688   4.218   0.356
10679SOL    HW132936   4.721   4.128   0.385
10679SOL    HW232937   4.654   4.213   0.262
10680SOL     OW32938   4.200   1.073   6.111
10680SOL    HW132939   4.289   1.082   6.154
10680SOL    HW232940   4.184   0.977   6.088
10681SOL     OW32941   2.478   3.278   5.381
10681SOL    HW132942   2.517   3.360   5.339
10681SOL    HW232943   2.490   3.200   5.320
10682SOL     OW32944   4.731   3.682   6.884
10682SOL    HW132945   4.696   3.715   6.796
10682SOL    HW232946   4.710   3.584   6.892
10683SOL     OW32947   2.841   0.428   3.408
10683SOL    HW132948   2.743   0.422   3.395
10683SOL    HW232949   2.881   0.337   3.405
10684SOL     OW32950   4.643   4.583   1.636
10684SOL    HW132951   4.707   4.657   1.658
10684SOL    HW232952   4.560   4.622   1.596
10685SOL     OW32953   0.882   6.572   2.275
10685SOL    HW132954   0.910   6.562   2.180
10685SOL    HW232955   0.803   6.514   2.293
10686SOL     OW32956   2.786   0.799   6.977
10686SOL    HW132957   2.720   0.855   6.927
10686SOL    HW232958   2.754   0.704   6.980
10687SOL     OW32959   0.867   3.618   3.505
10687SOL    HW132960   0.894   3.610   3.601
10687SOL    HW232961   0.834   3.529   3.472
10688SOL     OW32962   5.426   0.963   2.902
10688SOL    HW132963   5.352   0.935   2.840
10688SOL    HW232964   5.436   0.895   2.974
10689SOL     OW32965   0.894   0.927   2.694
10689SOL    HW132966   0.933   0.908   2.604
10689SOL    HW232967   0.825   1.000   2.685
10690SOL     OW32968   0.940   6.455   4.242
10690SOL    HW132969   0.965   6.545   4.208
10690SOL    HW232970   0.918   6.395   4.164
10691SOL     OW32971   3.326   6.781   2.175
10691SOL    HW132972   3.291   6.846   2.243
10691SOL    HW232973   3.425   6.792   2.166
10692SOL     OW32974   2.784   1.585   4.306
10692SOL    HW132975   2.760   1.659   4.369
10692SOL    HW232976   2.704   1.559   4.252
10693SOL     OW32977   1.359   5.596   0.384
10693SOL    HW132978   1.336   5.651   0.465
10693SOL    HW232979   1.433   5.533   0.406
10694SOL     OW32980   4.858   0.211   5.535
10694SOL    HW132981   4.799   0.290   5.522
10694SOL    HW232982   4.944   0.226   5.485
10695SOL     OW32983   5.396   4.449   2.066
10695SOL    HW132984   5.458   4.412   1.996
10695SOL    HW232985   5.352   4.373   2.114
10696SOL     OW32986   6.109   4.825   3.949
10696SOL    HW132987   6.177   4.834   4.022
10696SOL    HW232988   6.089   4.728   3.935
10697SOL     OW32989   2.604   5.258   5.131
10697SOL    HW132990   2.521   5.221   5.173
10697SOL    HW232991   2.599   5.358   5.131
10698SOL     OW32992   3.135   3.378   0.277
10698SOL    HW132993   3.099   3.425   0.196
10698SOL    HW232994   3.235   3.382   0.276
10699SOL     OW32995   3.727   3.157   0.678
10699SOL    HW132996   3.809   3.203   0.644
10699SOL    HW232997   3.715   3.176   0.776
10700SOL     OW32998   4.864   0.763   1.282
10700SOL    HW132999   4.843   0.666   1.281
10700SOL    HW233000   4.845   0.801   1.372
10701SOL     OW33001   3.244   6.514   6.539
10701SOL    HW133002   3.184   6.578   6.589
10701SOL    HW233003   3.261   6.434   6.596
10702SOL     OW33004   5.501   2.105   1.917
10702SOL    HW133005   5.504   2.011   1.953
10702SOL    HW233006   5.419   2.116   1.860
10703SOL     OW33007   0.243   2.602   5.205
10703SOL    HW133008   0.291   2.687   5.226
10703SOL    HW233009   0.262   2.575   5.111
10704SOL     OW33010   5.342   6.839   2.509
10704SOL    HW133011   5.249   6.856   2.541
10704SOL    HW233012   5.392   6.926   2.505
10705SOL     OW33013   4.874   3.221   0.955
10705SOL    HW133014   4.857   3.124   0.939
10705SOL    HW233015   4.971   3.235   0.975
10706SOL     OW33016   3.470   0.601   1.401
10706SOL    HW133017   3.536   0.583   1.474
10706SOL    HW233018   3.449   0.698   1.398
10707SOL     OW33019   4.961   6.806   3.709
10707SOL    HW133020   5.046   6.805   3.657
10707SOL    HW233021   4.938   6.713   3.738
10708SOL     OW33022   4.360   0.789   2.054
10708SOL    HW133023   4.268   0.815   2.083
10708SOL    HW233024   4.355   0.738   1.968
10709SOL     OW33025   6.159   4.633   3.065
10709SOL    HW133026   6.207   4.616   2.979
10709SOL    HW233027   6.060   4.622   3.050
10710SOL     OW33028   4.649   2.157   4.111
10710SOL    HW133029   4.709   2.173   4.033
10710SOL    HW233030   4.630   2.059   4.118
10711SOL     OW33031   3.306   6.701   2.511
10711SOL    HW133032   3.239   6.694   2.437
10711SOL    HW233033   3.305   6.617   2.565
10712SOL     OW33034   5.210   0.099   3.622
10712SOL    HW133035   5.162   0.062   3.542
10712SOL    HW233036   5.247   0.023   3.677
10713SOL     OW33037   1.952   3.927   1.907
10713SOL    HW133038   2.002   3.853   1.952
10713SOL    HW233039   1.917   3.990   1.977
10714SOL     OW33040   2.999   3.689   4.880
10714SOL    HW133041   3.078   3.628   4.892
10714SOL    HW233042   2.968   3.721   4.969
10715SOL     OW33043   5.895   0.573   1.880
10715SOL    HW133044   5.832   0.545   1.808
10715SOL    HW233045   5.862   0.540   1.968
10716SOL     OW33046   5.249   0.818   3.272
10716SOL    HW133047   5.240   0.750   3.345
10716SOL    HW233048   5.284   0.904   3.311
10717SOL     OW33049   1.990   3.018   6.579
10717SOL    HW133050   2.087   2.995   6.589
10717SOL    HW233051   1.965   3.016   6.483
10718SOL     OW33052   1.624   5.323   5.419
10718SOL    HW133053   1.604   5.406   5.470
10718SOL    HW233054   1.699   5.274   5.463
10719SOL     OW33055   0.405   5.693   4.445
10719SOL    HW133056   0.364   5.778   4.411
10719SOL    HW233057   0.370   5.616   4.393
10720SOL     OW33058   0.266   4.710   3.269
10720SOL    HW133059   0.306   4.663   3.348
10720SOL    HW233060   0.168   4.720   3.282
10721SOL     OW33061   5.319   3.592   5.697
10721SOL    HW133062   5.415   3.587   5.671
10721SOL    HW233063   5.307   3.656   5.773
10722SOL     OW33064   6.912   3.939   6.026
10722SOL    HW133065   6.952   3.911   5.938
10722SOL    HW233066   6.850   3.868   6.058
10723SOL     OW33067   5.811   6.661   0.926
10723SOL    HW133068   5.830   6.672   1.023
10723SOL    HW233069   5.786   6.566   0.907
10724SOL     OW33070   6.723   6.418   6.763
10724SOL    HW133071   6.724   6.431   6.664
10724SOL    HW233072   6.735   6.506   6.808
10725SOL     OW33073   2.016   5.914   5.738
10725SOL    HW133074   2.006   5.964   5.652
10725SOL    HW233075   1.975   5.967   5.812
10726SOL     OW33076   5.218   1.362   4.137
10726SOL    HW133077   5.152   1.298   4.098
10726SOL    HW233078   5.215   1.448   4.086
10727SOL     OW33079   2.538   6.595   5.672
10727SOL    HW133080   2.459   6.536   5.657
10727SOL    HW233081   2.511   6.673   5.729
10728SOL     OW33082   4.836   6.125   0.788
10728SOL    HW133083   4.902   6.086   0.852
10728SOL    HW233084   4.744   6.089   0.807
10729SOL     OW33085   6.505   2.777   1.329
10729SOL    HW133086   6.459   2.821   1.252
10729SOL    HW233087   6.444   2.777   1.409
10730SOL     OW33088   4.814   7.022   2.589
10730SOL    HW133089   4.875   0.047   2.651
10730SOL    HW233090   4.867   6.984   2.513
10731SOL     OW33091   4.365   0.168   0.989
10731SOL    HW133092   4.299   0.144   0.917
10731SOL    HW233093   4.440   0.101   0.988
10732SOL     OW33094   0.748   4.036   6.116
10732SOL    HW133095   0.732   3.960   6.179
10732SOL    HW233096   0.773   4.001   6.026
10733SOL     OW33097   6.558   2.201   0.031
10733SOL    HW133098   6.613   2.125   7.022
10733SOL    HW233099   6.495   2.169   0.102
10734SOL     OW33100   6.689   2.821   2.077
10734SOL    HW133101   6.632   2.794   2.155
10734SOL    HW233102   6.783   2.835   2.108
10735SOL     OW33103   0.244   5.031   3.227
10735SOL    HW133104   0.169   4.986   3.177
10735SOL    HW233105   0.238   5.007   3.324
10736SOL     OW33106   2.684   0.683   3.908
10736SOL    HW133107   2.642   0.660   3.995
10736SOL    HW233108   2.690   0.601   3.851
10737SOL     OW33109   6.900   2.551   1.585
10737SOL    HW133110   6.973   2.590   1.529
10737SOL    HW233111   6.938   2.481   1.645
10738SOL     OW33112   4.469   0.264   3.688
10738SOL    HW133113   4.376   0.300   3.695
10738SOL    HW233114   4.467   0.165   3.695
10739SOL     OW33115   2.540   1.443   2.100
10739SOL    HW133116   2.472   1.507   2.136
10739SOL    HW233117   2.588   1.399   2.176
10740SOL     OW33118   4.826   5.031   3.094
10740SOL    HW133119   4.812   5.129   3.076
10740SOL    HW233120   4.749   4.980   3.057
10741SOL     OW33121   3.605   0.788   2.940
10741SOL    HW133122   3.680   0.854   2.950
10741SOL    HW233123   3.642   0.696   2.932
10742SOL     OW33124   6.736   5.504   0.721
10742SOL    HW133125   6.717   5.602   0.729
10742SOL    HW233126   6.744   5.464   0.813
10743SOL     OW33127   2.448   2.428   5.088
10743SOL    HW133128   2.381   2.370   5.042
10743SOL    HW233129   2.439   2.522   5.055
10744SOL     OW33130   4.848   1.626   0.499
10744SOL    HW133131   4.818   1.710   0.453
10744SOL    HW233132   4.827   1.633   0.597
10745SOL     OW33133   6.620   5.500   5.970
10745SOL    HW133134   6.592   5.550   6.052
10745SOL    HW233135   6.712   5.462   5.984
10746SOL     OW33136   0.590   4.241   6.028
10746SOL    HW133137   0.627   4.162   6.076
10746SOL    HW233138   0.637   4.253   5.941
10747SOL     OW33139   3.051   2.084   4.503
10747SOL    HW133140   3.038   1.989   4.532
10747SOL    HW233141   2.982   2.141   4.546
10748SOL     OW33142   5.027   1.461   2.206
10748SOL    HW133143   4.942   1.493   2.164
10748SOL    HW233144   5.005   1.408   2.288
10749SOL     OW33145   2.308   6.728   6.188
10749SOL    HW133146   2.222   6.762   6.150
10749SOL    HW233147   2.381   6.740   6.122
10750SOL     OW33148   4.057   0.008   6.546
10750SOL    HW133149   3.962   0.039   6.551
10750SOL    HW233150   4.117   0.088   6.536
10751SOL     OW33151   2.513   5.139   3.814
10751SOL    HW133152   2.594   5.193   3.791
10751SOL    HW233153   2.522   5.103   3.906
10752SOL     OW33154   4.823   4.928   3.839
10752SOL    HW133155   4.760   4.979   3.781
10752SOL    HW233156   4.795   4.832   3.842
10753SOL     OW33157   6.742   3.269   4.315
10753SOL    HW133158   6.817   3.219   4.358
10753SOL    HW233159   6.765   3.287   4.219
10754SOL     OW33160   1.812   0.636   2.259
10754SOL    HW133161   1.756   0.718   2.274
10754SOL    HW233162   1.881   0.655   2.189
10755SOL     OW33163   6.210   5.429   2.151
10755SOL    HW133164   6.274   5.352   2.159
10755SOL    HW233165   6.218   5.487   2.232
10756SOL     OW33166   0.278   0.304   4.914
10756SOL    HW133167   0.344   0.228   4.916
10756SOL    HW233168   0.249   0.324   5.007
10757SOL     OW33169   2.829   3.205   1.343
10757SOL    HW133170   2.809   3.261   1.263
10757SOL    HW233171   2.923   3.222   1.373
10758SOL     OW33172   0.719   5.469   4.002
10758SOL    HW133173   0.763   5.384   4.030
10758SOL    HW233174   0.780   5.546   4.020
10759SOL     OW33175   7.013   2.663   6.479
10759SOL    HW133176   6.914   2.665   6.475
10759SOL    HW233177   0.019   2.681   6.573
10760SOL     OW33178   5.854   1.302   4.261
10760SOL    HW133179   5.904   1.346   4.335
10760SOL    HW233180   5.782   1.244   4.300
10761SOL     OW33181   2.576   4.723   5.490
10761SOL    HW133182   2.631   4.639   5.484
10761SOL    HW233183   2.611   4.780   5.564
10762SOL     OW33184   3.407   0.950   4.679
10762SOL    HW133185   3.311   0.930   4.658
10762SOL    HW233186   3.450   0.868   4.718
10763SOL     OW33187   4.284   6.774   3.749
10763SOL    HW133188   4.341   6.695   3.726
10763SOL    HW233189   4.191   6.759   3.717
10764SOL     OW33190   5.425   0.349   5.123
10764SOL    HW133191   5.348   0.410   5.139
10764SOL    HW233192   5.398   0.255   5.146
10765SOL     OW33193   5.418   3.733   0.766
10765SOL    HW133194   5.478   3.761   0.691
10765SOL    HW233195   5.365   3.654   0.739
10766SOL     OW33196   4.302   3.218   1.328
10766SOL    HW133197   4.295   3.196   1.231
10766SOL    HW233198   4.275   3.313   1.342
10767SOL     OW33199   4.187   1.457   2.437
10767SOL    HW133200   4.223   1.546   2.409
10767SOL    HW233201   4.167   1.458   2.535
10768SOL     OW33202   6.078   4.659   0.533
10768SOL    HW133203   6.046   4.581   0.587
10768SOL    HW233204   6.035   4.656   0.442
10769SOL     OW33205   1.827   4.085   5.531
10769SOL    HW133206   1.822   3.987   5.549
10769SOL    HW233207   1.880   4.101   5.447
10770SOL     OW33208   4.127   6.152   3.880
10770SOL    HW133209   4.186   6.171   3.802
10770SOL    HW233210   4.097   6.057   3.877
10771SOL     OW33211   2.539   1.612   3.608
10771SOL    HW133212   2.464   1.599   3.544
10771SOL    HW233213   2.607   1.540   3.595
10772SOL     OW33214   5.398   5.383   3.836
10772SOL    HW133215   5.443   5.335   3.912
10772SOL    HW233216   5.340   5.319   3.786
10773SOL     OW33217   5.737   4.947   3.490
10773SOL    HW133218   5.731   4.975   3.586
10773SOL    HW233219   5.834   4.937   3.464
10774SOL     OW33220   0.746   0.697   3.462
10774SOL    HW133221   0.702   0.781   3.430
10774SOL    HW233222   0.719   0.679   3.557
10775SOL     OW33223   0.571   3.461   1.768
10775SOL    HW133224   0.483   3.414   1.761
10775SOL    HW233225   0.582   3.525   1.692
10776SOL     OW33226   1.457   0.115   6.581
10776SOL    HW133227   1.443   0.190   6.516
10776SOL    HW233228   1.552   0.114   6.612
10777SOL     OW33229   2.450   5.690   0.949
10777SOL    HW133230   2.454   5.600   0.907
10777SOL    HW233231   2.393   5.687   1.031
10778SOL     OW33232   5.803   5.663   2.648
10778SOL    HW133233   5.800   5.601   2.727
10778SOL    HW233234   5.721   5.720   2.647
10779SOL     OW33235   5.402   2.432   3.284
10779SOL    HW133236   5.398   2.531   3.276
10779SOL    HW233237   5.435   2.408   3.376
10780SOL     OW33238   6.858   0.288   2.387
10780SOL    HW133239   6.837   0.284   2.484
10780SOL    HW233240   6.823   0.205   2.342
10781SOL     OW33241   3.550   0.187   4.482
10781SOL    HW133242   3.534   0.283   4.506
10781SOL    HW233243   3.602   0.182   4.397
10782SOL     OW33244   6.087   5.482   4.340
10782SOL    HW133245   6.121   5.529   4.258
10782SOL    HW233246   6.060   5.389   4.315
10783SOL     OW33247   0.072   1.693   3.324
10783SOL    HW133248   7.001   1.661   3.321
10783SOL    HW233249   0.075   1.784   3.365
10784SOL     OW33250   2.971   1.826   4.592
10784SOL    HW133251   3.007   1.791   4.506
10784SOL    HW233252   3.040   1.815   4.664
10785SOL     OW33253   1.192   3.988   6.220
10785SOL    HW133254   1.153   4.064   6.271
10785SOL    HW233255   1.258   4.022   6.153
10786SOL     OW33256   0.870   5.289   3.365
10786SOL    HW133257   0.805   5.363   3.380
10786SOL    HW233258   0.840   5.235   3.286
10787SOL     OW33259   1.513   1.992   6.453
10787SOL    HW133260   1.606   2.030   6.450
10787SOL    HW233261   1.448   2.058   6.417
10788SOL     OW33262   5.840   3.805   6.116
10788SOL    HW133263   5.907   3.733   6.132
10788SOL    HW233264   5.878   3.875   6.056
10789SOL     OW33265   6.037   1.983   0.438
10789SOL    HW133266   6.092   1.902   0.419
10789SOL    HW233267   6.016   1.988   0.535
10790SOL     OW33268   0.113   5.955   3.021
10790SOL    HW133269   0.048   5.947   3.096
10790SOL    HW233270   0.104   5.875   2.961
10791SOL     OW33271   0.600   6.962   3.104
10791SOL    HW133272   0.584   0.024   3.054
10791SOL    HW233273   0.693   6.929   3.084
10792SOL     OW33274   3.882   4.207   5.075
10792SOL    HW133275   3.900   4.174   4.982
10792SOL    HW233276   3.818   4.284   5.071
10793SOL     OW33277   5.820   3.410   4.587
10793SOL    HW133278   5.806   3.482   4.655
10793SOL    HW233279   5.862   3.450   4.505
10794SOL     OW33280   3.149   4.048   3.575
10794SOL    HW133281   3.210   4.085   3.645
10794SOL    HW233282   3.064   4.019   3.618
10795SOL     OW33283   0.276   4.210   3.354
10795SOL    HW133284   0.322   4.219   3.266
10795SOL    HW233285   0.344   4.198   3.427
10796SOL     OW33286   1.308   6.294   5.205
10796SOL    HW133287   1.395   6.308   5.251
10796SOL    HW233288   1.320   6.310   5.107
10797SOL     OW33289   3.779   2.493   0.148
10797SOL    HW133290   3.739   2.402   0.146
10797SOL    HW233291   3.858   2.496   0.087
10798SOL     OW33292   6.729   1.646   1.173
10798SOL    HW133293   6.730   1.591   1.257
10798SOL    HW233294   6.643   1.631   1.124
10799SOL     OW33295   3.937   1.952   1.613
10799SOL    HW133296   3.936   2.037   1.665
10799SOL    HW233297   3.859   1.896   1.640
10800SOL     OW33298   1.331   0.218   1.582
10800SOL    HW133299   1.366   0.200   1.674
10800SOL    HW233300   1.381   0.294   1.541
10801SOL     OW33301   1.849   0.520   1.417
10801SOL    HW133302   1.884   0.585   1.484
10801SOL    HW233303   1.848   0.562   1.327
10802SOL     OW33304   6.421   0.812   3.242
10802SOL    HW133305   6.498   0.802   3.305
10802SOL    HW233306   6.378   0.723   3.227
10803SOL     OW33307   1.895   6.068   6.613
10803SOL    HW133308   1.994   6.059   6.621
10803SOL    HW233309   1.867   6.046   6.520
10804SOL     OW33310   6.902   3.122   4.475
10804SOL    HW133311   6.884   3.059   4.551
10804SOL    HW233312   6.997   3.114   4.447
10805SOL     OW33313   6.284   1.419   6.404
10805SOL    HW133314   6.326   1.338   6.444
10805SOL    HW233315   6.355   1.481   6.372
10806SOL     OW33316   1.814   4.986   6.995
10806SOL    HW133317   1.811   4.956   6.900
10806SOL    HW233318   1.901   4.957   0.013
10807SOL     OW33319   2.864   6.175   5.035
10807SOL    HW133320   2.962   6.189   5.018
10807SOL    HW233321   2.816   6.166   4.948
10808SOL     OW33322   0.793   3.226   6.173
10808SOL    HW133323   0.824   3.239   6.078
10808SOL    HW233324   0.848   3.154   6.216
10809SOL     OW33325   1.853   0.098   4.509
10809SOL    HW133326   1.832   0.174   4.448
10809SOL    HW233327   1.853   0.013   4.456
10810SOL     OW33328   6.818   0.132   4.199
10810SOL    HW133329   6.887   0.158   4.132
10810SOL    HW233330   6.761   0.212   4.221
10811SOL     OW33331   5.293   4.901   4.866
10811SOL    HW133332   5.223   4.954   4.818
10811SOL    HW233333   5.360   4.963   4.906
10812SOL     OW33334   5.972   2.793   0.341
10812SOL    HW133335   5.985   2.724   0.413
10812SOL    HW233336   6.025   2.767   0.261
10813SOL     OW33337   0.386   3.831   6.131
10813SOL    HW133338   0.319   3.804   6.062
10813SOL    HW233339   0.339   3.868   6.211
10814SOL     OW33340   3.281   1.141   1.284
10814SOL    HW133341   3.267   1.231   1.243
10814SOL    HW233342   3.285   1.151   1.384
10815SOL     OW33343   5.448   0.891   4.647
10815SOL    HW133344   5.500   0.812   4.615
10815SOL    HW233345   5.489   0.975   4.611
10816SOL     OW33346   3.954   3.276   4.437
10816SOL    HW133347   4.030   3.321   4.482
10816SOL    HW233348   3.989   3.208   4.372
10817SOL     OW33349   1.872   6.116   3.538
10817SOL    HW133350   1.951   6.165   3.575
10817SOL    HW233351   1.789   6.171   3.550
10818SOL     OW33352   3.712   4.443   6.962
10818SOL    HW133353   3.613   4.457   6.972
10818SOL    HW233354   3.728   4.361   6.907
10819SOL     OW33355   6.465   6.398   5.384
10819SOL    HW133356   6.392   6.443   5.436
10819SOL    HW233357   6.441   6.303   5.369
10820SOL     OW33358   2.420   4.446   6.110
10820SOL    HW133359   2.412   4.536   6.069
10820SOL    HW233360   2.352   4.436   6.183
10821SOL     OW33361   4.758   5.697   2.969
10821SOL    HW133362   4.843   5.649   2.948
10821SOL    HW233363   4.768   5.746   3.056
10822SOL     OW33364   5.659   0.970   2.051
10822SOL    HW133365   5.695   0.982   1.958
10822SOL    HW233366   5.697   1.039   2.111
10823SOL     OW33367   5.418   6.708   1.226
10823SOL    HW133368   5.388   6.653   1.147
10823SOL    HW233369   5.438   6.801   1.196
10824SOL     OW33370   0.821   2.869   3.796
10824SOL    HW133371   0.825   2.782   3.844
10824SOL    HW233372   0.899   2.877   3.734
10825SOL     OW33373   0.749   2.451   0.287
10825SOL    HW133374   0.665   2.503   0.267
10825SOL    HW233375   0.733   2.392   0.366
10826SOL     OW33376   0.364   3.572   2.670
10826SOL    HW133377   0.434   3.504   2.647
10826SOL    HW233378   0.406   3.648   2.718
10827SOL     OW33379   6.568   4.392   4.426
10827SOL    HW133380   6.619   4.470   4.463
10827SOL    HW233381   6.622   4.309   4.435
10828SOL     OW33382   6.362   4.382   5.525
10828SOL    HW133383   6.424   4.412   5.597
10828SOL    HW233384   6.376   4.284   5.509
10829SOL     OW33385   3.526   2.889   4.724
10829SOL    HW133386   3.600   2.878   4.658
10829SOL    HW233387   3.439   2.864   4.683
10830SOL     OW33388   4.043   2.234   3.406
10830SOL    HW133389   4.122   2.277   3.363
10830SOL    HW233390   4.072   2.187   3.489
10831SOL     OW33391   4.117   0.042   3.956
10831SOL    HW133392   4.141   6.989   3.897
10831SOL    HW233393   4.084   0.118   3.900
10832SOL     OW33394   6.574   2.843   7.022
10832SOL    HW133395   6.603   2.773   0.064
10832SOL    HW233396   6.475   2.854   0.003
10833SOL     OW33397   0.802   1.418   6.909
10833SOL    HW133398   0.864   1.345   6.880
10833SOL    HW233399   0.769   1.468   6.829
10834SOL     OW33400   6.234   6.319   1.429
10834SOL    HW133401   6.280   6.320   1.340
10834SOL    HW233402   6.137   6.340   1.417
10835SOL     OW33403   0.353   2.223   5.416
10835SOL    HW133404   0.278   2.286   5.400
10835SOL    HW233405   0.410   2.257   5.491
10836SOL     OW33406   6.980   1.152   3.466
10836SOL    HW133407   0.025   1.157   3.539
10836SOL    HW233408   6.892   1.184   3.501
10837SOL     OW33409   0.483   3.339   2.564
10837SOL    HW133410   0.401   3.284   2.549
10837SOL    HW233411   0.558   3.279   2.594
10838SOL     OW33412   0.518   6.077   1.996
10838SOL    HW133413   0.451   6.111   1.930
10838SOL    HW233414   0.598   6.043   1.947
10839SOL     OW33415   4.714   2.712   0.616
10839SOL    HW133416   4.720   2.686   0.520
10839SOL    HW233417   4.801   2.692   0.661
10840SOL     OW33418   2.565   0.208   1.656
10840SOL    HW133419   2.630   0.276   1.623
10840SOL    HW233420   2.484   0.208   1.598
10841SOL     OW33421   2.164   5.204   4.640
10841SOL    HW133422   2.129   5.113   4.664
10841SOL    HW233423   2.088   5.269   4.636
10842SOL     OW33424   5.346   4.223   1.753
10842SOL    HW133425   5.435   4.240   1.795
10842SOL    HW233426   5.348   4.137   1.703
10843SOL     OW33427   2.972   2.188   1.346
10843SOL    HW133428   2.890   2.141   1.314
10843SOL    HW233429   3.034   2.202   1.269
10844SOL     OW33430   1.224   5.295   5.296
10844SOL    HW133431   1.158   5.361   5.331
10844SOL    HW233432   1.225   5.215   5.356
10845SOL     OW33433   3.549   0.456   4.556
10845SOL    HW133434   3.573   0.511   4.476
10845SOL    HW233435   3.610   0.479   4.631
10846SOL     OW33436   5.457   0.188   6.353
10846SOL    HW133437   5.512   0.141   6.283
10846SOL    HW233438   5.372   0.221   6.312
10847SOL     OW33439   3.246   0.814   6.285
10847SOL    HW133440   3.340   0.797   6.255
10847SOL    HW233441   3.191   0.841   6.207
10848SOL     OW33442   1.827   5.158   1.964
10848SOL    HW133443   1.788   5.070   1.936
10848SOL    HW233444   1.767   5.200   2.032
10849SOL     OW33445   2.431   6.609   3.239
10849SOL    HW133446   2.518   6.578   3.277
10849SOL    HW233447   2.403   6.546   3.166
10850SOL     OW33448   3.979   4.434   1.185
10850SOL    HW133449   3.942   4.511   1.134
10850SOL    HW233450   4.008   4.362   1.122
10851SOL     OW33451   1.678   4.746   0.240
10851SOL    HW133452   1.751   4.724   0.175
10851SOL    HW233453   1.690   4.691   0.323
10852SOL     OW33454   2.417   1.753   2.708
10852SOL    HW133455   2.339   1.761   2.646
10852SOL    HW233456   2.447   1.844   2.737
10853SOL     OW33457   2.953   1.443   6.350
10853SOL    HW133458   3.017   1.477   6.282
10853SOL    HW233459   2.860   1.472   6.326
10854SOL     OW33460   3.025   6.540   5.096
10854SOL    HW133461   3.035   6.640   5.095
10854SOL    HW233462   2.979   6.512   5.180
10855SOL     OW33463   3.803   1.509   6.936
10855SOL    HW133464   3.859   1.490   6.856
10855SOL    HW233465   3.862   1.524   7.016
10856SOL     OW33466   0.577   1.195   0.811
10856SOL    HW133467   0.532   1.220   0.725
10856SOL    HW233468   0.558   1.265   0.880
10857SOL     OW33469   6.393   2.680   2.537
10857SOL    HW133470   6.305   2.651   2.573
10857SOL    HW233471   6.389   2.686   2.437
10858SOL     OW33472   3.039   6.402   2.217
10858SOL    HW133473   3.000   6.313   2.241
10858SOL    HW233474   3.006   6.429   2.127
10859SOL     OW33475   1.357   5.606   3.481
10859SOL    HW133476   1.432   5.565   3.534
10859SOL    HW233477   1.313   5.535   3.426
10860SOL     OW33478   0.037   3.633   3.387
10860SOL    HW133479   0.105   3.562   3.403
10860SOL    HW233480   6.989   3.598   3.326
10861SOL     OW33481   3.490   2.931   5.008
10861SOL    HW133482   3.401   2.919   5.051
10861SOL    HW233483   3.478   2.934   4.908
10862SOL     OW33484   1.104   0.310   4.931
10862SOL    HW133485   1.180   0.257   4.894
10862SOL    HW233486   1.077   0.380   4.864
10863SOL     OW33487   2.450   6.101   4.267
10863SOL    HW133488   2.509   6.083   4.188
10863SOL    HW233489   2.367   6.045   4.259
10864SOL     OW33490   3.954   6.058   3.444
10864SOL    HW133491   3.946   6.077   3.346
10864SOL    HW233492   3.865   6.029   3.479
10865SOL     OW33493   6.369   1.696   5.831
10865SOL    HW133494   6.418   1.725   5.749
10865SOL    HW233495   6.434   1.675   5.904
10866SOL     OW33496   5.101   4.848   0.721
10866SOL    HW133497   5.031   4.904   0.764
10866SOL    HW233498   5.122   4.770   0.780
10867SOL     OW33499   2.907   1.856   6.957
10867SOL    HW133500   2.992   1.819   6.995
10867SOL    HW233501   2.854   1.781   6.917
10868SOL     OW33502   3.045   2.201   3.013
10868SOL    HW133503   3.006   2.289   3.040
10868SOL    HW233504   3.142   2.199   3.039
10869NA      NA33505   6.454   2.499   5.779
10870NA      NA33506   4.426   4.507   5.247
10871NA      NA33507   2.245   3.539   1.657
10872NA      NA33508   4.828   3.758   5.227
10873NA      NA33509   4.317   2.409   5.347
10874NA      NA33510   3.792   4.727   1.786
10875NA      NA33511   6.488   6.097   4.665
10876NA      NA33512   3.684   3.574   4.886
10877NA      NA33513   4.575   0.010   6.707
10878NA      NA33514   3.020   0.296   4.981
10879NA      NA33515   0.498   5.279   2.477
10880NA      NA33516   2.968   0.478   2.730
10881NA      NA33517   3.631   4.048   1.399
10882NA      NA33518   3.833   3.332   2.949
   7.02383   7.02383   7.02383
