Generated by trjconv : CNT in water t= 512.00000
33518
    1C        C    1   2.846   2.767   4.749
    1C        C    2   2.900   2.715   4.868
    1C        C    3   2.846   2.776   4.983
    1C        C    4   2.850   2.773   4.262
    1C        C    5   2.904   2.730   4.385
    1C        C    6   2.845   2.772   4.506
    1C        C    7   3.013   2.639   4.625
    1C        C    8   2.898   2.721   4.626
    1C        C    9   3.076   2.600   4.746
    1C        C   10   3.010   2.627   4.868
    1C        C   11   3.185   2.496   4.977
    1C        C   12   3.062   2.563   4.981
    1C        C   13   2.846   2.766   3.773
    1C        C   14   2.900   2.722   3.895
    1C        C   15   2.849   2.770   4.018
    1C        C   16   3.019   2.644   4.138
    1C        C   17   2.902   2.723   4.140
    1C        C   18   3.080   2.611   4.261
    1C        C   19   3.019   2.648   4.383
    1C        C   20   3.210   2.553   4.504
    1C        C   21   3.079   2.607   4.504
    1C        C   22   3.279   2.532   4.625
    1C        C   23   3.206   2.543   4.746
    1C        C   24   3.412   2.479   4.863
    1C        C   25   3.269   2.489   4.861
    1C        C   26   3.488   2.476   4.980
    1C        C   27   2.847   2.766   3.283
    1C        C   28   2.903   2.723   3.405
    1C        C   29   2.853   2.773   3.528
    1C        C   30   3.013   2.635   3.649
    1C        C   31   2.901   2.721   3.650
    1C        C   32   3.076   2.605   3.772
    1C        C   33   3.016   2.641   3.895
    1C        C   34   3.209   2.549   4.017
    1C        C   35   3.079   2.605   4.017
    1C        C   36   3.279   2.533   4.138
    1C        C   37   3.212   2.560   4.260
    1C        C   38   3.417   2.508   4.383
    1C        C   39   3.279   2.536   4.382
    1C        C   40   3.490   2.504   4.503
    1C        C   41   3.418   2.508   4.625
    1C        C   42   3.632   2.490   4.747
    1C        C   43   3.490   2.483   4.744
    1C        C   44   3.709   2.492   4.865
    1C        C   45   3.627   2.488   4.979
    1C        C   46   2.833   2.749   2.796
    1C        C   47   2.893   2.711   2.918
    1C        C   48   2.840   2.761   3.039
    1C        C   49   3.017   2.641   3.162
    1C        C   50   2.900   2.719   3.160
    1C        C   51   3.076   2.603   3.284
    1C        C   52   3.016   2.639   3.407
    1C        C   53   3.207   2.544   3.528
    1C        C   54   3.077   2.600   3.528
    1C        C   55   3.274   2.526   3.652
    1C        C   56   3.206   2.550   3.773
    1C        C   57   3.415   2.507   3.896
    1C        C   58   3.276   2.530   3.894
    1C        C   59   3.489   2.499   4.016
    1C        C   60   3.417   2.505   4.138
    1C        C   61   3.629   2.502   4.260
    1C        C   62   3.488   2.501   4.260
    1C        C   63   3.703   2.505   4.380
    1C        C   64   3.631   2.500   4.502
    1C        C   65   3.837   2.544   4.622
    1C        C   66   3.701   2.505   4.625
    1C        C   67   3.910   2.558   4.742
    1C        C   68   3.845   2.528   4.864
    1C        C   69   4.050   2.596   4.984
    1C        C   70   3.922   2.539   4.980
    1C        C   71   2.826   2.739   2.311
    1C        C   72   2.888   2.697   2.431
    1C        C   73   2.834   2.748   2.551
    1C        C   74   3.004   2.623   2.675
    1C        C   75   2.886   2.701   2.674
    1C        C   76   3.072   2.596   2.796
    1C        C   77   3.011   2.633   2.918
    1C        C   78   3.207   2.547   3.038
    1C        C   79   3.076   2.602   3.040
    1C        C   80   3.275   2.530   3.160
    1C        C   81   3.208   2.550   3.283
    1C        C   82   3.414   2.508   3.406
    1C        C   83   3.274   2.526   3.405
    1C        C   84   3.484   2.505   3.528
    1C        C   85   3.414   2.509   3.650
    1C        C   86   3.625   2.505   3.770
    1C        C   87   3.484   2.505   3.773
    1C        C   88   3.697   2.515   3.891
    1C        C   89   3.630   2.509   4.015
    1C        C   90   3.836   2.550   4.138
    1C        C   91   3.700   2.513   4.138
    1C        C   92   3.905   2.570   4.260
    1C        C   93   3.840   2.536   4.381
    1C        C   94   4.030   2.635   4.499
    1C        C   95   3.907   2.567   4.502
    1C        C   96   4.094   2.668   4.621
    1C        C   97   4.036   2.624   4.742
    1C        C   98   4.192   2.766   4.861
    1C        C   99   4.102   2.654   4.864
    1C        C  100   4.215   2.843   4.976
    1C        C  101   2.820   2.730   2.073
    1C        C  102   2.995   2.599   2.189
    1C        C  103   2.878   2.682   2.191
    1C        C  104   3.064   2.575   2.311
    1C        C  105   3.006   2.620   2.432
    1C        C  106   3.201   2.538   2.552
    1C        C  107   3.070   2.592   2.555
    1C        C  108   3.271   2.518   2.673
    1C        C  109   3.203   2.543   2.794
    1C        C  110   3.412   2.499   2.915
    1C        C  111   3.274   2.527   2.915
    1C        C  112   3.483   2.497   3.038
    1C        C  113   3.414   2.506   3.161
    1C        C  114   3.626   2.506   3.281
    1C        C  115   3.485   2.501   3.283
    1C        C  116   3.697   2.513   3.403
    1C        C  117   3.626   2.506   3.525
    1C        C  118   3.834   2.545   3.649
    1C        C  119   3.696   2.514   3.648
    1C        C  120   3.900   2.572   3.771
    1C        C  121   3.834   2.550   3.894
    1C        C  122   4.026   2.643   4.014
    1C        C  123   3.902   2.575   4.016
    1C        C  124   4.089   2.675   4.136
    1C        C  125   4.032   2.630   4.258
    1C        C  126   4.202   2.762   4.377
    1C        C  127   4.093   2.672   4.378
    1C        C  128   4.249   2.817   4.498
    1C        C  129   4.200   2.761   4.618
    1C        C  130   4.324   2.935   4.737
    1C        C  131   4.247   2.815   4.740
    1C        C  132   4.356   3.002   4.857
    1C        C  133   4.286   2.963   4.972
    1C        C  134   3.172   2.467   2.082
    1C        C  135   3.039   2.512   2.085
    1C        C  136   3.260   2.480   2.190
    1C        C  137   3.194   2.517   2.309
    1C        C  138   3.404   2.480   2.427
    1C        C  139   3.264   2.501   2.431
    1C        C  140   3.478   2.486   2.547
    1C        C  141   3.410   2.494   2.670
    1C        C  142   3.622   2.502   2.791
    1C        C  143   3.481   2.492   2.792
    1C        C  144   3.692   2.510   2.913
    1C        C  145   3.624   2.505   3.037
    1C        C  146   3.834   2.541   3.158
    1C        C  147   3.696   2.511   3.159
    1C        C  148   3.901   2.564   3.280
    1C        C  149   3.834   2.547   3.403
    1C        C  150   4.026   2.632   3.525
    1C        C  151   3.899   2.570   3.526
    1C        C  152   4.086   2.671   3.646
    1C        C  153   4.025   2.638   3.770
    1C        C  154   4.202   2.759   3.890
    1C        C  155   4.086   2.678   3.891
    1C        C  156   4.251   2.809   4.013
    1C        C  157   4.200   2.762   4.136
    1C        C  158   4.346   2.920   4.253
    1C        C  159   4.255   2.811   4.256
    1C        C  160   4.384   2.981   4.375
    1C        C  161   4.333   2.931   4.497
    1C        C  162   4.445   3.114   4.618
    1C        C  163   4.369   2.995   4.618
    1C        C  164   4.471   3.184   4.738
    1C        C  165   4.430   3.122   4.858
    1C        C  166   4.512   3.321   4.975
    1C        C  167   4.473   3.187   4.974
    1C        C  168   3.476   2.435   2.072
    1C        C  169   3.398   2.454   2.187
    1C        C  170   3.616   2.469   2.307
    1C        C  171   3.474   2.462   2.306
    1C        C  172   3.692   2.489   2.424
    1C        C  173   3.620   2.491   2.546
    1C        C  174   3.825   2.547   2.665
    1C        C  175   3.690   2.506   2.667
    1C        C  176   3.895   2.566   2.787
    1C        C  177   3.829   2.545   2.910
    1C        C  178   4.024   2.624   3.033
    1C        C  179   3.895   2.565   3.033
    1C        C  180   4.087   2.658   3.154
    1C        C  181   4.029   2.625   3.279
    1C        C  182   4.197   2.752   3.398
    1C        C  183   4.087   2.664   3.402
    1C        C  184   4.247   2.803   3.521
    1C        C  185   4.198   2.757   3.645
    1C        C  186   4.338   2.918   3.765
    1C        C  187   4.248   2.809   3.766
    1C        C  188   4.381   2.976   3.886
    1C        C  189   4.336   2.922   4.009
    1C        C  190   4.445   3.105   4.128
    1C        C  191   4.380   2.980   4.130
    1C        C  192   4.470   3.172   4.250
    1C        C  193   4.443   3.109   4.373
    1C        C  194   4.500   3.315   4.494
    1C        C  195   4.467   3.178   4.494
    1C        C  196   4.514   3.389   4.613
    1C        C  197   4.510   3.321   4.737
    1C        C  198   4.552   3.536   4.854
    1C        C  199   4.530   3.394   4.857
    1C        C  200   4.583   3.621   4.964
    1C        C  201   3.615   2.421   2.072
    1C        C  202   3.824   2.516   2.183
    1C        C  203   3.690   2.466   2.185
    1C        C  204   3.897   2.545   2.301
    1C        C  205   3.828   2.529   2.423
    1C        C  206   4.024   2.617   2.543
    1C        C  207   3.896   2.558   2.544
    1C        C  208   4.082   2.659   2.664
    1C        C  209   4.021   2.629   2.788
    1C        C  210   4.195   2.748   2.908
    1C        C  211   4.082   2.664   2.911
    1C        C  212   4.245   2.796   3.031
    1C        C  213   4.199   2.745   3.154
    1C        C  214   4.336   2.909   3.273
    1C        C  215   4.249   2.798   3.275
    1C        C  216   4.372   2.969   3.396
    1C        C  217   4.333   2.915   3.520
    1C        C  218   4.431   3.105   3.639
    1C        C  219   4.373   2.976   3.641
    1C        C  220   4.459   3.171   3.761
    1C        C  221   4.444   3.102   3.883
    1C        C  222   4.501   3.307   4.004
    1C        C  223   4.471   3.169   4.004
    1C        C  224   4.507   3.380   4.125
    1C        C  225   4.499   3.310   4.248
    1C        C  226   4.519   3.522   4.369
    1C        C  227   4.512   3.381   4.369
    1C        C  228   4.516   3.598   4.488
    1C        C  229   4.525   3.530   4.612
    1C        C  230   4.505   3.744   4.730
    1C        C  231   4.535   3.606   4.731
    1C        C  232   4.493   3.820   4.849
    1C        C  233   4.546   3.756   4.962
    1C        C  234   4.012   2.614   2.062
    1C        C  235   3.889   2.548   2.063
    1C        C  236   4.085   2.646   2.177
    1C        C  237   4.024   2.609   2.299
    1C        C  238   4.200   2.734   2.420
    1C        C  239   4.085   2.650   2.420
    1C        C  240   4.252   2.784   2.542
    1C        C  241   4.199   2.738   2.665
    1C        C  242   4.334   2.906   2.783
    1C        C  243   4.250   2.792   2.785
    1C        C  244   4.376   2.962   2.906
    1C        C  245   4.335   2.904   3.028
    1C        C  246   4.435   3.094   3.148
    1C        C  247   4.375   2.966   3.149
    1C        C  248   4.454   3.162   3.270
    1C        C  249   4.430   3.098   3.394
    1C        C  250   4.493   3.304   3.515
    1C        C  251   4.454   3.168   3.515
    1C        C  252   4.506   3.375   3.636
    1C        C  253   4.493   3.309   3.760
    1C        C  254   4.516   3.519   3.879
    1C        C  255   4.511   3.378   3.882
    1C        C  256   4.516   3.590   4.002
    1C        C  257   4.518   3.521   4.125
    1C        C  258   4.486   3.732   4.244
    1C        C  259   4.513   3.593   4.247
    1C        C  260   4.469   3.803   4.364
    1C        C  261   4.487   3.736   4.487
    1C        C  262   4.428   3.942   4.605
    1C        C  263   4.475   3.809   4.608
    1C        C  264   4.400   4.012   4.725
    1C        C  265   4.436   3.949   4.846
    1C        C  266   4.320   4.132   4.959
    1C        C  267   4.397   4.016   4.963
    1C        C  268   4.262   2.778   2.064
    1C        C  269   4.201   2.727   2.179
    1C        C  270   4.346   2.889   2.298
    1C        C  271   4.255   2.780   2.299
    1C        C  272   4.380   2.955   2.419
    1C        C  273   4.340   2.894   2.540
    1C        C  274   4.443   3.084   2.661
    1C        C  275   4.376   2.960   2.660
    1C        C  276   4.472   3.153   2.781
    1C        C  277   4.445   3.085   2.903
    1C        C  278   4.500   3.291   3.024
    1C        C  279   4.468   3.153   3.024
    1C        C  280   4.506   3.364   3.145
    1C        C  281   4.490   3.298   3.269
    1C        C  282   4.513   3.511   3.391
    1C        C  283   4.501   3.370   3.390
    1C        C  284   4.512   3.584   3.512
    1C        C  285   4.514   3.516   3.636
    1C        C  286   4.488   3.728   3.754
    1C        C  287   4.511   3.588   3.757
    1C        C  288   4.474   3.795   3.878
    1C        C  289   4.491   3.729   4.001
    1C        C  290   4.428   3.934   4.117
    1C        C  291   4.477   3.802   4.121
    1C        C  292   4.397   3.999   4.239
    1C        C  293   4.424   3.937   4.363
    1C        C  294   4.329   4.130   4.479
    1C        C  295   4.398   4.007   4.484
    1C        C  296   4.290   4.193   4.600
    1C        C  297   4.333   4.137   4.722
    1C        C  298   4.199   4.313   4.839
    1C        C  299   4.284   4.198   4.841
    1C        C  300   4.171   4.400   4.949
    1C        C  301   4.353   2.883   2.060
    1C        C  302   4.468   3.070   2.175
    1C        C  303   4.395   2.946   2.178
    1C        C  304   4.482   3.141   2.298
    1C        C  305   4.448   3.078   2.419
    1C        C  306   4.501   3.287   2.537
    1C        C  307   4.473   3.149   2.539
    1C        C  308   4.506   3.359   2.658
    1C        C  309   4.504   3.290   2.781
    1C        C  310   4.524   3.503   2.901
    1C        C  311   4.515   3.362   2.902
    1C        C  312   4.518   3.574   3.023
    1C        C  313   4.514   3.505   3.146
    1C        C  314   4.489   3.717   3.265
    1C        C  315   4.513   3.578   3.267
    1C        C  316   4.477   3.791   3.384
    1C        C  317   4.489   3.723   3.508
    1C        C  318   4.424   3.926   3.629
    1C        C  319   4.470   3.792   3.630
    1C        C  320   4.395   3.989   3.752
    1C        C  321   4.428   3.929   3.875
    1C        C  322   4.321   4.116   3.992
    1C        C  323   4.398   3.998   3.995
    1C        C  324   4.280   4.173   4.114
    1C        C  325   4.327   4.121   4.237
    1C        C  326   4.188   4.287   4.354
    1C        C  327   4.286   4.185   4.357
    1C        C  328   4.142   4.343   4.474
    1C        C  329   4.193   4.295   4.597
    1C        C  330   4.027   4.438   4.714
    1C        C  331   4.142   4.353   4.715
    1C        C  332   3.970   4.488   4.833
    1C        C  333   4.052   4.473   4.946
    1C        C  334   4.557   3.269   2.063
    1C        C  335   4.535   3.131   2.064
    1C        C  336   4.540   3.349   2.177
    1C        C  337   4.515   3.280   2.298
    1C        C  338   4.525   3.499   2.412
    1C        C  339   4.518   3.358   2.415
    1C        C  340   4.522   3.570   2.534
    1C        C  341   4.520   3.500   2.656
    1C        C  342   4.498   3.711   2.773
    1C        C  343   4.520   3.572   2.778
    1C        C  344   4.481   3.781   2.895
    1C        C  345   4.494   3.713   3.018
    1C        C  346   4.430   3.916   3.138
    1C        C  347   4.476   3.782   3.140
    1C        C  348   4.397   3.981   3.259
    1C        C  349   4.434   3.926   3.383
    1C        C  350   4.326   4.109   3.506
    1C        C  351   4.402   3.990   3.505
    1C        C  352   4.280   4.169   3.625
    1C        C  353   4.321   4.109   3.746
    1C        C  354   4.180   4.270   3.866
    1C        C  355   4.277   4.167   3.867
    1C        C  356   4.126   4.319   3.987
    1C        C  357   4.179   4.271   4.109
    1C        C  358   4.013   4.404   4.232
    1C        C  359   4.129   4.323   4.231
    1C        C  360   3.951   4.442   4.353
    1C        C  361   4.023   4.420   4.473
    1C        C  362   3.829   4.512   4.593
    1C        C  363   3.962   4.466   4.592
    1C        C  364   3.764   4.544   4.714
    1C        C  365   3.839   4.542   4.833
    1C        C  366   3.629   4.589   4.947
    1C        C  367   3.766   4.568   4.950
    1C        C  368   4.509   3.568   2.055
    1C        C  369   4.526   3.489   2.170
    1C        C  370   4.512   3.707   2.290
    1C        C  371   4.524   3.567   2.288
    1C        C  372   4.495   3.781   2.409
    1C        C  373   4.509   3.711   2.531
    1C        C  374   4.435   3.912   2.649
    1C        C  375   4.490   3.782   2.652
    1C        C  376   4.404   3.976   2.772
    1C        C  377   4.431   3.913   2.895
    1C        C  378   4.321   4.097   3.014
    1C        C  379   4.403   3.982   3.016
    1C        C  380   4.281   4.155   3.136
    1C        C  381   4.323   4.101   3.260
    1C        C  382   4.180   4.257   3.376
    1C        C  383   4.282   4.160   3.381
    1C        C  384   4.127   4.309   3.497
    1C        C  385   4.181   4.270   3.622
    1C        C  386   4.006   4.390   3.743
    1C        C  387   4.125   4.313   3.744
    1C        C  388   3.943   4.427   3.864
    1C        C  389   4.005   4.392   3.986
    1C        C  390   3.817   4.485   4.110
    1C        C  391   3.948   4.431   4.109
    1C        C  392   3.749   4.510   4.231
    1C        C  393   3.822   4.498   4.352
    1C        C  394   3.616   4.549   4.472
    1C        C  395   3.756   4.530   4.473
    1C        C  396   3.546   4.561   4.594
    1C        C  397   3.624   4.563   4.712
    1C        C  398   3.410   4.557   4.838
    1C        C  399   3.550   4.576   4.831
    1C        C  400   3.341   4.522   4.955
    1C        C  401   4.507   3.707   2.051
    1C        C  402   4.464   3.917   2.167
    1C        C  403   4.502   3.781   2.170
    1C        C  404   4.422   3.982   2.285
    1C        C  405   4.448   3.914   2.406
    1C        C  406   4.329   4.094   2.527
    1C        C  407   4.405   3.975   2.526
    1C        C  408   4.279   4.146   2.649
    1C        C  409   4.322   4.091   2.772
    1C        C  410   4.175   4.250   2.888
    1C        C  411   4.275   4.150   2.891
    1C        C  412   4.123   4.294   3.012
    1C        C  413   4.180   4.254   3.135
    1C        C  414   4.003   4.375   3.254
    1C        C  415   4.124   4.303   3.255
    1C        C  416   3.943   4.413   3.376
    1C        C  417   4.008   4.385   3.498
    1C        C  418   3.814   4.473   3.619
    1C        C  419   3.944   4.419   3.620
    1C        C  420   3.746   4.500   3.740
    1C        C  421   3.812   4.479   3.863
    1C        C  422   3.610   4.527   3.985
    1C        C  423   3.749   4.500   3.987
    1C        C  424   3.540   4.534   4.108
    1C        C  425   3.610   4.535   4.231
    1C        C  426   3.400   4.547   4.357
    1C        C  427   3.541   4.552   4.352
    1C        C  428   3.330   4.546   4.480
    1C        C  429   3.405   4.554   4.599
    1C        C  430   3.194   4.516   4.722
    1C        C  431   3.333   4.548   4.721
    1C        C  432   3.125   4.489   4.843
    1C        C  433   3.204   4.497   4.959
    1C        C  434   4.385   4.122   2.051
    1C        C  435   4.446   3.996   2.053
    1C        C  436   4.306   4.163   2.162
    1C        C  437   4.340   4.099   2.284
    1C        C  438   4.186   4.248   2.402
    1C        C  439   4.290   4.153   2.405
    1C        C  440   4.128   4.294   2.522
    1C        C  441   4.179   4.245   2.645
    1C        C  442   4.007   4.374   2.766
    1C        C  443   4.123   4.294   2.765
    1C        C  444   3.944   4.409   2.888
    1C        C  445   4.006   4.372   3.010
    1C        C  446   3.811   4.462   3.131
    1C        C  447   3.941   4.406   3.131
    1C        C  448   3.745   4.485   3.253
    1C        C  449   3.812   4.467   3.376
    1C        C  450   3.608   4.525   3.497
    1C        C  451   3.746   4.499   3.497
    1C        C  452   3.536   4.533   3.619
    1C        C  453   3.607   4.528   3.741
    1C        C  454   3.397   4.541   3.867
    1C        C  455   3.538   4.540   3.864
    1C        C  456   3.328   4.531   3.990
    1C        C  457   3.399   4.528   4.111
    1C        C  458   3.191   4.504   4.238
    1C        C  459   3.330   4.530   4.235
    1C        C  460   3.123   4.491   4.361
    1C        C  461   3.193   4.512   4.482
    1C        C  462   2.992   4.437   4.603
    1C        C  463   3.121   4.494   4.603
    1C        C  464   2.926   4.404   4.724
    1C        C  465   2.990   4.443   4.845
    1C        C  466   2.801   4.340   4.960
    1C        C  467   2.907   4.432   4.961
    1C        C  468   4.130   4.288   2.040
    1C        C  469   4.192   4.250   2.160
    1C        C  470   4.010   4.370   2.280
    1C        C  471   4.130   4.294   2.280
    1C        C  472   3.942   4.396   2.400
    1C        C  473   4.008   4.368   2.522
    1C        C  474   3.815   4.460   2.644
    1C        C  475   3.946   4.407   2.642
    1C        C  476   3.746   4.485   2.765
    1C        C  477   3.812   4.458   2.887
    1C        C  478   3.605   4.511   3.009
    1C        C  479   3.742   4.478   3.008
    1C        C  480   3.535   4.526   3.131
    1C        C  481   3.608   4.520   3.252
    1C        C  482   3.397   4.532   3.375
    1C        C  483   3.538   4.531   3.374
    1C        C  484   3.325   4.526   3.497
    1C        C  485   3.395   4.538   3.620
    1C        C  486   3.189   4.503   3.745
    1C        C  487   3.328   4.531   3.744
    1C        C  488   3.127   4.476   3.869
    1C        C  489   3.189   4.503   3.993
    1C        C  490   2.996   4.423   4.113
    1C        C  491   3.122   4.489   4.116
    1C        C  492   2.940   4.386   4.237
    1C        C  493   2.996   4.431   4.359
    1C        C  494   2.824   4.308   4.482
    1C        C  495   2.933   4.397   4.481
    1C        C  496   2.767   4.263   4.604
    1C        C  497   2.811   4.321   4.725
    1C        C  498   2.663   4.167   4.845
    1C        C  499   2.751   4.277   4.845
    1C        C  500   2.593   4.122   4.958
    1C        C  501   4.009   4.356   2.042
    1C        C  502   3.815   4.457   2.154
    1C        C  503   3.944   4.399   2.158
    1C        C  504   3.745   4.476   2.276
    1C        C  505   3.811   4.449   2.398
    1C        C  506   3.607   4.500   2.520
    1C        C  507   3.745   4.471   2.521
    1C        C  508   3.536   4.513   2.642
    1C        C  509   3.608   4.513   2.764
    1C        C  510   3.395   4.524   2.885
    1C        C  511   3.536   4.522   2.886
    1C        C  512   3.323   4.521   3.006
    1C        C  513   3.393   4.530   3.129
    1C        C  514   3.189   4.498   3.256
    1C        C  515   3.326   4.531   3.253
    1C        C  516   3.119   4.474   3.377
    1C        C  517   3.187   4.496   3.499
    1C        C  518   2.997   4.414   3.624
    1C        C  519   3.122   4.479   3.623
    1C        C  520   2.938   4.377   3.747
    1C        C  521   3.001   4.412   3.869
    1C        C  522   2.827   4.294   3.997
    1C        C  523   2.937   4.383   3.992
    1C        C  524   2.778   4.247   4.121
    1C        C  525   2.829   4.298   4.242
    1C        C  526   2.690   4.137   4.363
    1C        C  527   2.773   4.251   4.363
    1C        C  528   2.648   4.081   4.486
    1C        C  529   2.683   4.150   4.604
    1C        C  530   2.587   3.962   4.730
    1C        C  531   2.639   4.095   4.726
    1C        C  532   2.546   3.904   4.853
    1C        C  533   2.529   3.998   4.960
    1C        C  534   3.622   4.561   2.040
    1C        C  535   3.755   4.516   2.043
    1C        C  536   3.539   4.534   2.153
    1C        C  537   3.607   4.508   2.275
    1C        C  538   3.397   4.515   2.400
    1C        C  539   3.538   4.514   2.398
    1C        C  540   3.323   4.512   2.520
    1C        C  541   3.395   4.517   2.642
    1C        C  542   3.186   4.483   2.764
    1C        C  543   3.323   4.517   2.763
    1C        C  544   3.121   4.468   2.888
    1C        C  545   3.185   4.491   3.012
    1C        C  546   2.994   4.409   3.133
    1C        C  547   3.120   4.473   3.135
    1C        C  548   2.936   4.371   3.256
    1C        C  549   2.992   4.411   3.378
    1C        C  550   2.827   4.286   3.504
    1C        C  551   2.933   4.380   3.503
    1C        C  552   2.780   4.235   3.627
    1C        C  553   2.833   4.284   3.749
    1C        C  554   2.701   4.125   3.875
    1C        C  555   2.787   4.237   3.874
    1C        C  556   2.657   4.070   3.998
    1C        C  557   2.697   4.131   4.119
    1C        C  558   2.600   3.945   4.247
    1C        C  559   2.657   4.074   4.241
    1C        C  560   2.571   3.879   4.368
    1C        C  561   2.591   3.951   4.488
    1C        C  562   2.533   3.751   4.616
    1C        C  563   2.564   3.888   4.612
    1C        C  564   2.518   3.684   4.739
    1C        C  565   2.526   3.762   4.858
    1C        C  566   2.542   3.548   4.980
    1C        C  567   2.536   3.687   4.975
    1C        C  568   3.327   4.481   2.042
    1C        C  569   3.398   4.513   2.158
    1C        C  570   3.186   4.477   2.277
    1C        C  571   3.324   4.512   2.279
    1C        C  572   3.120   4.451   2.399
    1C        C  573   3.185   4.482   2.521
    1C        C  574   2.987   4.405   2.646
    1C        C  575   3.115   4.465   2.642
    1C        C  576   2.932   4.364   2.769
    1C        C  577   2.994   4.407   2.889
    1C        C  578   2.828   4.274   3.015
    1C        C  579   2.934   4.367   3.011
    1C        C  580   2.778   4.224   3.137
    1C        C  581   2.827   4.280   3.257
    1C        C  582   2.697   4.118   3.387
    1C        C  583   2.782   4.231   3.382
    1C        C  584   2.659   4.057   3.509
    1C        C  585   2.698   4.120   3.629
    1C        C  586   2.598   3.937   3.758
    1C        C  587   2.661   4.064   3.754
    1C        C  588   2.572   3.873   3.881
    1C        C  589   2.598   3.942   4.001
    1C        C  590   2.549   3.738   4.128
    1C        C  591   2.579   3.876   4.125
    1C        C  592   2.532   3.672   4.251
    1C        C  593   2.538   3.742   4.373
    1C        C  594   2.518   3.534   4.499
    1C        C  595   2.523   3.675   4.497
    1C        C  596   2.517   3.466   4.623
    1C        C  597   2.521   3.542   4.743
    1C        C  598   2.537   3.329   4.865
    1C        C  599   2.538   3.470   4.863
    1C        C  600   2.533   3.248   4.980
    1C        C  601   3.197   4.435   2.044
    1C        C  602   2.984   4.387   2.155
    1C        C  603   3.116   4.441   2.158
    1C        C  604   2.926   4.361   2.282
    1C        C  605   2.991   4.395   2.403
    1C        C  606   2.820   4.272   2.528
    1C        C  607   2.928   4.364   2.525
    1C        C  608   2.768   4.225   2.650
    1C        C  609   2.821   4.276   2.771
    1C        C  610   2.689   4.113   2.896
    1C        C  611   2.773   4.227   2.894
    1C        C  612   2.652   4.056   3.020
    1C        C  613   2.689   4.114   3.143
    1C        C  614   2.591   3.931   3.269
    1C        C  615   2.652   4.058   3.268
    1C        C  616   2.571   3.864   3.392
    1C        C  617   2.600   3.929   3.514
    1C        C  618   2.535   3.731   3.640
    1C        C  619   2.574   3.867   3.638
    1C        C  620   2.523   3.664   3.764
    1C        C  621   2.534   3.737   3.885
    1C        C  622   2.519   3.525   4.011
    1C        C  623   2.531   3.666   4.008
    1C        C  624   2.522   3.457   4.135
    1C        C  625   2.523   3.531   4.255
    1C        C  626   2.546   3.322   4.381
    1C        C  627   2.522   3.462   4.378
    1C        C  628   2.563   3.255   4.505
    1C        C  629   2.544   3.327   4.625
    1C        C  630   2.598   3.120   4.746
    1C        C  631   2.554   3.256   4.746
    1C        C  632   2.619   3.050   4.868
    1C        C  633   2.564   3.112   4.984
    1C        C  634   2.784   4.301   2.053
    1C        C  635   2.890   4.391   2.046
    1C        C  636   2.747   4.231   2.169
    1C        C  637   2.810   4.279   2.285
    1C        C  638   2.675   4.115   2.410
    1C        C  639   2.766   4.223   2.407
    1C        C  640   2.638   4.053   2.532
    1C        C  641   2.684   4.111   2.652
    1C        C  642   2.586   3.925   2.778
    1C        C  643   2.648   4.052   2.776
    1C        C  644   2.567   3.861   2.902
    1C        C  645   2.595   3.927   3.024
    1C        C  646   2.533   3.726   3.151
    1C        C  647   2.568   3.863   3.147
    1C        C  648   2.520   3.657   3.273
    1C        C  649   2.538   3.726   3.396
    1C        C  650   2.516   3.518   3.520
    1C        C  651   2.522   3.659   3.519
    1C        C  652   2.519   3.452   3.645
    1C        C  653   2.510   3.524   3.766
    1C        C  654   2.533   3.314   3.890
    1C        C  655   2.513   3.454   3.889
    1C        C  656   2.550   3.247   4.014
    1C        C  657   2.539   3.316   4.136
    1C        C  658   2.611   3.119   4.261
    1C        C  659   2.563   3.252   4.260
    1C        C  660   2.636   3.054   4.384
    1C        C  661   2.607   3.121   4.504
    1C        C  662   2.709   2.936   4.629
    1C        C  663   2.634   3.055   4.626
    1C        C  664   2.754   2.875   4.749
    1C        C  665   2.702   2.933   4.869
    1C        C  666   2.737   2.863   4.985
    1C        C  667   2.680   4.023   2.055
    1C        C  668   2.683   4.105   2.169
    1C        C  669   2.593   3.913   2.292
    1C        C  670   2.644   4.046   2.291
    1C        C  671   2.564   3.850   2.415
    1C        C  672   2.588   3.922   2.534
    1C        C  673   2.527   3.719   2.661
    1C        C  674   2.563   3.856   2.657
    1C        C  675   2.517   3.653   2.785
    1C        C  676   2.537   3.723   2.906
    1C        C  677   2.513   3.514   3.028
    1C        C  678   2.529   3.654   3.029
    1C        C  679   2.512   3.446   3.152
    1C        C  680   2.508   3.517   3.274
    1C        C  681   2.535   3.308   3.400
    1C        C  682   2.511   3.447   3.398
    1C        C  683   2.556   3.243   3.523
    1C        C  684   2.540   3.313   3.645
    1C        C  685   2.611   3.116   3.773
    1C        C  686   2.556   3.246   3.769
    1C        C  687   2.646   3.057   3.896
    1C        C  688   2.609   3.119   4.017
    1C        C  689   2.714   2.933   4.140
    1C        C  690   2.645   3.056   4.139
    1C        C  691   2.756   2.878   4.263
    1C        C  692   2.711   2.935   4.385
    1C        C  693   2.751   2.877   4.508
    1C        C  694   2.629   3.893   2.055
    1C        C  695   2.526   3.707   2.175
    1C        C  696   2.579   3.838   2.174
    1C        C  697   2.506   3.643   2.299
    1C        C  698   2.522   3.715   2.419
    1C        C  699   2.494   3.506   2.542
    1C        C  700   2.508   3.646   2.542
    1C        C  701   2.508   3.439   2.666
    1C        C  702   2.508   3.512   2.788
    1C        C  703   2.530   3.299   2.911
    1C        C  704   2.514   3.439   2.908
    1C        C  705   2.545   3.234   3.035
    1C        C  706   2.535   3.306   3.156
    1C        C  707   2.598   3.105   3.279
    1C        C  708   2.546   3.236   3.278
    1C        C  709   2.634   3.046   3.402
    1C        C  710   2.608   3.112   3.524
    1C        C  711   2.714   2.934   3.651
    1C        C  712   2.638   3.053   3.649
    1C        C  713   2.757   2.876   3.773
    1C        C  714   2.720   2.936   3.895
    1C        C  715   2.758   2.878   4.018
    1C        C  716   2.448   3.504   2.062
    1C        C  717   2.502   3.633   2.058
    1C        C  718   2.466   3.427   2.182
    1C        C  719   2.485   3.502   2.301
    1C        C  720   2.516   3.292   2.426
    1C        C  721   2.486   3.430   2.423
    1C        C  722   2.539   3.225   2.548
    1C        C  723   2.528   3.299   2.668
    1C        C  724   2.593   3.096   2.792
    1C        C  725   2.546   3.229   2.789
    1C        C  726   2.625   3.034   2.915
    1C        C  727   2.592   3.100   3.036
    1C        C  728   2.700   2.918   3.161
    1C        C  729   2.624   3.036   3.158
    1C        C  730   2.749   2.868   3.284
    1C        C  731   2.710   2.927   3.407
    1C        C  732   2.757   2.876   3.530
    1C        C  733   2.491   3.203   2.073
    1C        C  734   2.486   3.286   2.186
    1C        C  735   2.582   3.089   2.304
    1C        C  736   2.524   3.219   2.306
    1C        C  737   2.614   3.024   2.425
    1C        C  738   2.590   3.093   2.546
    1C        C  739   2.699   2.913   2.670
    1C        C  740   2.621   3.031   2.669
    1C        C  741   2.740   2.855   2.792
    1C        C  742   2.696   2.912   2.914
    1C        C  743   2.743   2.864   3.038
    1C        C  744   2.544   3.075   2.075
    1C        C  745   2.679   2.895   2.186
    1C        C  746   2.606   3.016   2.186
    1C        C  747   2.731   2.845   2.307
    1C        C  748   2.688   2.904   2.428
    1C        C  749   2.736   2.849   2.550
    1C        C  750   2.735   2.840   2.071
    1C        C  751   3.660   2.315   1.979
    1C        O  752   3.715   2.211   2.025
    1C        O  753   3.680   2.324   1.841
    1C        C  754   4.641   3.053   1.997
    1C        O  755   4.651   3.067   1.872
    1C        O  756   4.762   3.014   2.054
    1C        C  757   4.452   4.231   1.977
    1C        O  758   4.517   4.331   2.018
    1C        O  759   4.441   4.234   1.837
    1C        C  760   3.570   4.626   1.917
    1C        O  761   3.520   4.741   1.912
    1C        O  762   3.594   4.590   1.784
    1C        C  763   2.850   4.513   1.972
    1C        O  764   2.828   4.502   1.848
    1C        O  765   2.781   4.615   2.039
    1C        C  766   2.326   3.494   1.979
    1C        O  767   2.328   3.490   1.853
    1C        O  768   2.200   3.535   2.026
    1C        C  769   4.679   3.583   5.070
    1C        O  770   4.640   3.599   5.189
    1C        O  771   4.815   3.598   5.040
    1C        C  772   4.282   4.429   5.043
    1C        O  773   4.269   4.413   5.167
    1C        O  774   4.339   4.556   5.027
    1C        C  775   4.133   2.549   5.097
    1C        O  776   4.164   2.427   5.093
    1C        O  777   4.095   2.590   5.226
    1C        C  778   2.879   4.544   5.053
    1C        O  779   2.808   4.638   5.009
    1C        O  780   2.854   4.522   5.189
    1C        C  781   2.472   3.024   5.059
    1C        O  782   2.378   2.957   5.008
    1C        O  783   2.450   3.047   5.194
    1C        C  784   2.411   4.001   5.049
    1C        O  785   2.292   4.028   5.017
    1C        O  786   2.420   3.985   5.188
    1C        C  787   2.940   2.417   2.029
    1C        O  788   2.904   2.431   1.909
    1C        O  789   2.915   2.287   2.072
    1C        C  790   3.195   2.398   5.088
    1C        O  791   3.141   2.285   5.072
    1C        O  792   3.206   2.433   5.223
    1C        H  793   4.248   3.040   5.036
    1C        H  794   4.207   2.790   5.069
    1C        H  795   4.515   3.126   5.051
    1C        H  796   4.490   3.375   5.065
    1C        H  797   4.548   3.811   5.054
    1C        H  798   4.408   3.967   5.057
    1C        H  799   4.253   4.145   5.042
    1C        H  800   4.043   4.545   5.024
    1C        H  801   3.810   4.540   5.043
    1C        H  802   3.582   4.622   5.037
    1C        H  803   3.391   4.515   5.049
    1C        H  804   3.160   4.529   5.051
    1C        H  805   3.893   2.476   5.062
    1C        H  806   3.665   2.513   5.076
    1C        H  807   3.012   2.572   5.075
    1C        H  808   3.437   2.480   5.074
    1C        H  809   2.886   2.751   5.079
    1C        H  810   2.662   2.850   5.059
    1C        H  811   2.500   3.290   5.073
    1C        H  812   2.574   3.505   5.073
    1C        H  813   2.536   3.736   5.071
    1C        H  814   2.593   4.181   5.047
    1C        H  815   2.773   4.300   5.055
    1C        H  816   2.734   2.888   1.975
    1C        H  817   2.830   2.676   1.981
    1C        H  818   3.189   2.389   2.011
    1C        H  819   3.427   2.451   1.978
    1C        H  820   3.860   2.495   1.975
    1C        H  821   4.053   2.633   1.965
    1C        H  822   4.254   2.722   1.973
    1C        H  823   4.347   2.940   1.970
    1C        H  824   4.536   3.317   1.970
    1C        H  825   4.521   3.521   1.960
    1C        H  826   4.537   3.753   1.959
    1C        H  827   3.817   4.547   1.961
    1C        H  828   3.940   4.323   1.967
    1C        H  829   4.184   4.277   1.948
    1C        H  830   4.526   3.989   1.982
    1C        H  831   2.674   3.825   1.986
    1C        H  832   2.768   4.031   1.995
    1C        H  833   2.700   4.324   1.990
    1C        H  834   3.385   4.446   1.959
    1C        H  835   3.171   4.361   1.970
    1C        H  836   2.485   3.010   2.013
    1C        H  837   2.437   3.227   1.983
    1C        H  838   2.523   3.671   1.960
    2V3OU   H29  839   2.802   3.543   5.702
    2V3OU   C27  840   2.780   3.502   5.803
    2V3OU   H27  841   2.728   3.579   5.866
    2V3OU   H28  842   2.720   3.409   5.789
    2V3OU   O11  843   2.907   3.479   5.866
    2V3OU   C15  844   2.919   3.398   5.977
    2V3OU   C13  845   3.050   3.381   6.026
    2V3OU   C14  846   3.075   3.267   6.104
    2V3OU   C16  847   2.972   3.186   6.149
    2V3OU    H6  848   2.994   3.103   6.218
    2V3OU   C12  849   3.216   3.240   6.141
    2V3OU    O2  850   3.241   3.128   6.191
    2V3OU   C10  851   3.329   3.313   6.083
    2V3OU    C8  852   3.461   3.271   6.093
    2V3OU   O10  853   3.493   3.154   6.155
    2V3OU   H26  854   3.407   3.114   6.178
    2V3OU    C6  855   3.566   3.346   6.030
    2V3OU    C5  856   3.539   3.464   5.963
    2V3OU    C4  857   3.706   3.294   6.036
    2V3OU    H4  858   3.726   3.230   6.127
    2V3OU    H5  859   3.715   3.227   5.946
    2V3OU    C2  860   3.817   3.399   6.033
    2V3OU    O6  861   3.804   3.475   6.154
    2V3OU   H21  862   3.758   3.559   6.136
    2V3OU    C3  863   3.783   3.499   5.922
    2V3OU    H2  864   3.866   3.575   5.921
    2V3OU    H3  865   3.784   3.445   5.824
    2V3OU   C25  866   3.951   3.330   6.008
    2V3OU    O7  867   3.999   3.303   5.898
    2V3OU   C26  868   4.031   3.292   6.133
    2V3OU   H22  869   4.067   3.384   6.186
    2V3OU   H23  870   4.115   3.223   6.106
    2V3OU    O8  871   3.959   3.213   6.225
    2V3OU   H24  872   3.921   3.269   6.294
    2V3OU    C1  873   3.646   3.564   5.931
    2V3OU    H1  874   3.627   3.618   5.834
    2V3OU    O3  875   3.657   3.653   6.042
    2V3OU   C19  876   3.615   3.788   6.025
    2V3OU    H9  877   3.522   3.798   5.963
    2V3OU    O4  878   3.715   3.845   5.943
    2V3OU   C20  879   3.845   3.875   5.994
    2V3OU   H10  880   3.897   3.775   6.006
    2V3OU   C24  881   3.610   3.853   6.164
    2V3OU   H16  882   3.545   3.794   6.233
    2V3OU   H17  883   3.565   3.955   6.153
    2V3OU   C23  884   3.749   3.875   6.224
    2V3OU   H15  885   3.795   3.772   6.239
    2V3OU    N1  886   3.740   3.952   6.347
    2V3OU   H19  887   3.811   3.923   6.412
    2V3OU   H20  888   3.651   3.946   6.391
    2V3OU   C21  889   3.845   3.950   6.127
    2V3OU   H11  890   3.950   3.928   6.164
    2V3OU    O5  891   3.822   4.090   6.120
    2V3OU   H18  892   3.784   4.105   6.209
    2V3OU   C22  893   3.910   3.951   5.880
    2V3OU   H12  894   3.858   4.049   5.863
    2V3OU   H13  895   3.910   3.889   5.787
    2V3OU   H14  896   4.019   3.962   5.903
    2V3OU   C11  897   3.159   3.475   5.997
    2V3OU    O1  898   3.140   3.587   5.946
    2V3OU    C9  899   3.300   3.427   6.004
    2V3OU    C7  900   3.402   3.500   5.944
    2V3OU    O9  901   3.383   3.614   5.869
    2V3OU   H25  902   3.288   3.630   5.856
    2V3OU   C17  903   2.816   3.312   6.020
    2V3OU    H7  904   2.717   3.335   5.982
    2V3OU   C18  905   2.841   3.206   6.106
    2V3OU    H8  906   2.753   3.149   6.138
    3SOL     OW  907   4.074   3.415   4.024
    3SOL    HW1  908   4.125   3.418   3.938
    3SOL    HW2  909   4.076   3.322   4.061
    4SOL     OW  910   6.931   5.735   0.885
    4SOL    HW1  911   6.880   5.820   0.875
    4SOL    HW2  912   6.982   5.717   0.801
    5SOL     OW  913   5.022   2.203   1.032
    5SOL    HW1  914   4.998   2.300   1.042
    5SOL    HW2  915   5.047   2.165   1.121
    6SOL     OW  916   4.379   1.442   2.027
    6SOL    HW1  917   4.449   1.377   2.059
    6SOL    HW2  918   4.424   1.522   1.988
    7SOL     OW  919   2.174   3.462   4.632
    7SOL    HW1  920   2.257   3.490   4.679
    7SOL    HW2  921   2.187   3.372   4.590
    8SOL     OW  922   0.927   2.225   5.202
    8SOL    HW1  923   0.925   2.209   5.103
    8SOL    HW2  924   0.994   2.164   5.244
    9SOL     OW  925   0.235   1.338   5.989
    9SOL    HW1  926   0.253   1.351   5.891
    9SOL    HW2  927   0.164   1.403   6.018
   10SOL     OW  928   5.135   4.834   1.719
   10SOL    HW1  929   5.139   4.931   1.744
   10SOL    HW2  930   5.100   4.782   1.797
   11SOL     OW  931   2.315   2.483   1.024
   11SOL    HW1  932   2.382   2.442   0.962
   11SOL    HW2  933   2.347   2.573   1.054
   12SOL     OW  934   4.294   5.367   2.388
   12SOL    HW1  935   4.377   5.331   2.345
   12SOL    HW2  936   4.242   5.419   2.321
   13SOL     OW  937   6.221   5.878   1.496
   13SOL    HW1  938   6.197   5.894   1.401
   13SOL    HW2  939   6.320   5.863   1.504
   14SOL     OW  940   4.631   7.008   6.362
   14SOL    HW1  941   4.637   0.063   6.422
   14SOL    HW2  942   4.719   6.962   6.358
   15SOL     OW  943   1.021   5.854   6.255
   15SOL    HW1  944   0.979   5.904   6.331
   15SOL    HW2  945   0.950   5.816   6.196
   16SOL     OW  946   2.081   4.903   5.209
   16SOL    HW1  947   2.144   4.967   5.165
   16SOL    HW2  948   2.117   4.810   5.202
   17SOL     OW  949   6.669   1.103   5.122
   17SOL    HW1  950   6.609   1.135   5.196
   17SOL    HW2  951   6.653   1.005   5.107
   18SOL     OW  952   3.414   0.945   5.840
   18SOL    HW1  953   3.406   1.044   5.829
   18SOL    HW2  954   3.324   0.902   5.828
   19SOL     OW  955   3.229   6.716   2.822
   19SOL    HW1  956   3.269   6.745   2.735
   19SOL    HW2  957   3.133   6.693   2.809
   20SOL     OW  958   6.400   1.610   5.753
   20SOL    HW1  959   6.475   1.638   5.812
   20SOL    HW2  960   6.382   1.513   5.766
   21SOL     OW  961   2.037   4.066   2.559
   21SOL    HW1  962   2.070   3.980   2.519
   21SOL    HW2  963   2.001   4.048   2.650
   22SOL     OW  964   0.913   1.215   0.120
   22SOL    HW1  965   0.873   1.163   0.197
   22SOL    HW2  966   0.983   1.160   0.076
   23SOL     OW  967   6.390   4.627   0.616
   23SOL    HW1  968   6.446   4.669   0.545
   23SOL    HW2  969   6.440   4.626   0.702
   24SOL     OW  970   5.247   1.686   0.237
   24SOL    HW1  971   5.246   1.597   0.281
   24SOL    HW2  972   5.334   1.698   0.188
   25SOL     OW  973   1.521   0.515   4.556
   25SOL    HW1  974   1.504   0.453   4.480
   25SOL    HW2  975   1.575   0.467   4.626
   26SOL     OW  976   1.850   1.637   6.071
   26SOL    HW1  977   1.885   1.673   5.984
   26SOL    HW2  978   1.925   1.633   6.138
   27SOL     OW  979   0.161   7.006   2.590
   27SOL    HW1  980   0.247   0.029   2.611
   27SOL    HW2  981   0.101   0.043   2.540
   28SOL     OW  982   2.229   0.106   5.768
   28SOL    HW1  983   2.252   0.145   5.857
   28SOL    HW2  984   2.288   0.146   5.698
   29SOL     OW  985   5.615   6.939   1.254
   29SOL    HW1  986   5.617   0.014   1.242
   29SOL    HW2  987   5.539   6.914   1.314
   30SOL     OW  988   4.787   0.133   5.160
   30SOL    HW1  989   4.868   0.159   5.107
   30SOL    HW2  990   4.811   0.128   5.257
   31SOL     OW  991   0.143   4.631   4.773
   31SOL    HW1  992   0.110   4.569   4.702
   31SOL    HW2  993   0.214   4.585   4.826
   32SOL     OW  994   3.489   0.537   0.862
   32SOL    HW1  995   3.564   0.519   0.926
   32SOL    HW2  996   3.472   0.635   0.858
   33SOL     OW  997   2.329   5.423   6.032
   33SOL    HW1  998   2.384   5.506   6.025
   33SOL    HW2  999   2.259   5.423   5.961
   34SOL     OW 1000   2.637   6.016   5.556
   34SOL    HW1 1001   2.659   6.113   5.550
   34SOL    HW2 1002   2.572   5.992   5.484
   35SOL     OW 1003   1.035   3.075   6.112
   35SOL    HW1 1004   0.993   3.073   6.021
   35SOL    HW2 1005   0.966   3.102   6.180
   36SOL     OW 1006   5.458   0.922   3.250
   36SOL    HW1 1007   5.491   1.010   3.284
   36SOL    HW2 1008   5.457   0.855   3.325
   37SOL     OW 1009   2.337   6.432   4.094
   37SOL    HW1 1010   2.410   6.364   4.089
   37SOL    HW2 1011   2.262   6.395   4.148
   38SOL     OW 1012   1.521   4.374   2.573
   38SOL    HW1 1013   1.478   4.438   2.636
   38SOL    HW2 1014   1.451   4.312   2.536
   39SOL     OW 1015   6.851   4.852   1.513
   39SOL    HW1 1016   6.891   4.825   1.425
   39SOL    HW2 1017   6.829   4.949   1.512
   40SOL     OW 1018   4.592   1.685   0.292
   40SOL    HW1 1019   4.625   1.643   0.377
   40SOL    HW2 1020   4.580   1.783   0.306
   41SOL     OW 1021   5.073   3.955   1.514
   41SOL    HW1 1022   5.091   3.996   1.603
   41SOL    HW2 1023   5.092   3.857   1.519
   42SOL     OW 1024   1.934   4.487   6.790
   42SOL    HW1 1025   1.900   4.555   6.724
   42SOL    HW2 1026   1.876   4.406   6.785
   43SOL     OW 1027   5.056   7.008   5.014
   43SOL    HW1 1028   5.027   6.917   4.985
   43SOL    HW2 1029   5.089   7.004   5.109
   44SOL     OW 1030   0.357   1.048   6.809
   44SOL    HW1 1031   0.398   1.137   6.790
   44SOL    HW2 1032   0.379   1.020   6.903
   45SOL     OW 1033   1.849   4.920   6.204
   45SOL    HW1 1034   1.825   4.843   6.145
   45SOL    HW2 1035   1.896   4.990   6.151
   46SOL     OW 1036   1.324   4.130   5.007
   46SOL    HW1 1037   1.285   4.039   4.994
   46SOL    HW2 1038   1.413   4.135   4.962
   47SOL     OW 1039   5.914   3.523   6.925
   47SOL    HW1 1040   6.000   3.474   6.915
   47SOL    HW2 1041   5.844   3.481   6.867
   48SOL     OW 1042   6.411   4.254   0.855
   48SOL    HW1 1043   6.458   4.169   0.882
   48SOL    HW2 1044   6.330   4.232   0.802
   49SOL     OW 1045   2.992   3.493   6.361
   49SOL    HW1 1046   2.997   3.571   6.423
   49SOL    HW2 1047   2.899   3.485   6.325
   50SOL     OW 1048   5.504   2.330   6.814
   50SOL    HW1 1049   5.411   2.295   6.826
   50SOL    HW2 1050   5.568   2.253   6.807
   51SOL     OW 1051   1.001   5.477   2.059
   51SOL    HW1 1052   1.088   5.507   2.097
   51SOL    HW2 1053   1.015   5.444   1.966
   52SOL     OW 1054   5.329   2.609   2.385
   52SOL    HW1 1055   5.352   2.663   2.304
   52SOL    HW2 1056   5.257   2.544   2.362
   53SOL     OW 1057   3.695   0.635   1.015
   53SOL    HW1 1058   3.674   0.709   0.951
   53SOL    HW2 1059   3.727   0.674   1.101
   54SOL     OW 1060   6.561   0.414   6.504
   54SOL    HW1 1061   6.514   0.335   6.544
   54SOL    HW2 1062   6.538   0.421   6.407
   55SOL     OW 1063   1.603   3.784   6.220
   55SOL    HW1 1064   1.578   3.711   6.283
   55SOL    HW2 1065   1.587   3.754   6.126
   56SOL     OW 1066   1.172   2.575   6.830
   56SOL    HW1 1067   1.139   2.546   6.740
   56SOL    HW2 1068   1.193   2.495   6.885
   57SOL     OW 1069   4.090   6.249   0.406
   57SOL    HW1 1070   4.148   6.324   0.439
   57SOL    HW2 1071   4.111   6.166   0.457
   58SOL     OW 1072   1.117   1.075   7.011
   58SOL    HW1 1073   1.114   0.986   6.965
   58SOL    HW2 1074   1.172   1.068   0.070
   59SOL     OW 1075   4.112   3.056   5.774
   59SOL    HW1 1076   4.080   3.144   5.809
   59SOL    HW2 1077   4.207   3.065   5.743
   60SOL     OW 1078   6.394   2.698   2.195
   60SOL    HW1 1079   6.335   2.744   2.262
   60SOL    HW2 1080   6.342   2.682   2.110
   61SOL     OW 1081   1.191   5.899   3.552
   61SOL    HW1 1082   1.268   5.938   3.501
   61SOL    HW2 1083   1.111   5.895   3.493
   62SOL     OW 1084   5.829   2.426   3.370
   62SOL    HW1 1085   5.861   2.376   3.289
   62SOL    HW2 1086   5.875   2.390   3.451
   63SOL     OW 1087   3.770   6.991   6.083
   63SOL    HW1 1088   3.712   6.984   6.002
   63SOL    HW2 1089   3.850   0.022   6.062
   64SOL     OW 1090   1.228   2.041   5.689
   64SOL    HW1 1091   1.155   1.983   5.652
   64SOL    HW2 1092   1.316   1.994   5.681
   65SOL     OW 1093   0.830   5.155   4.589
   65SOL    HW1 1094   0.907   5.148   4.525
   65SOL    HW2 1095   0.857   5.115   4.677
   66SOL     OW 1096   4.600   1.766   1.402
   66SOL    HW1 1097   4.576   1.789   1.497
   66SOL    HW2 1098   4.609   1.850   1.349
   67SOL     OW 1099   0.106   3.622   1.779
   67SOL    HW1 1100   0.069   3.675   1.856
   67SOL    HW2 1101   0.031   3.578   1.730
   68SOL     OW 1102   0.356   1.246   0.075
   68SOL    HW1 1103   0.272   1.201   0.046
   68SOL    HW2 1104   0.368   1.331   0.025
   69SOL     OW 1105   1.589   5.602   6.859
   69SOL    HW1 1106   1.673   5.557   6.887
   69SOL    HW2 1107   1.563   5.571   6.767
   70SOL     OW 1108   5.055   4.374   3.787
   70SOL    HW1 1109   5.020   4.281   3.771
   70SOL    HW2 1110   5.070   4.419   3.699
   71SOL     OW 1111   4.463   1.608   5.064
   71SOL    HW1 1112   4.455   1.588   5.161
   71SOL    HW2 1113   4.559   1.622   5.040
   72SOL     OW 1114   0.048   0.373   3.344
   72SOL    HW1 1115   0.010   0.460   3.312
   72SOL    HW2 1116   0.119   0.342   3.281
   73SOL     OW 1117   2.414   0.600   1.668
   73SOL    HW1 1118   2.454   0.577   1.756
   73SOL    HW2 1119   2.317   0.619   1.679
   74SOL     OW 1120   3.410   1.836   0.281
   74SOL    HW1 1121   3.503   1.835   0.319
   74SOL    HW2 1122   3.394   1.924   0.235
   75SOL     OW 1123   2.510   3.305   0.472
   75SOL    HW1 1124   2.607   3.301   0.449
   75SOL    HW2 1125   2.455   3.296   0.389
   76SOL     OW 1126   3.585   5.110   5.597
   76SOL    HW1 1127   3.643   5.043   5.552
   76SOL    HW2 1128   3.488   5.089   5.579
   77SOL     OW 1129   0.829   5.441   4.624
   77SOL    HW1 1130   0.923   5.454   4.658
   77SOL    HW2 1131   0.811   5.343   4.613
   78SOL     OW 1132   4.766   2.106   1.015
   78SOL    HW1 1133   4.714   2.113   0.930
   78SOL    HW2 1134   4.856   2.149   1.003
   79SOL     OW 1135   1.816   4.544   3.746
   79SOL    HW1 1136   1.830   4.496   3.659
   79SOL    HW2 1137   1.902   4.544   3.798
   80SOL     OW 1138   3.459   1.966   4.906
   80SOL    HW1 1139   3.500   2.057   4.912
   80SOL    HW2 1140   3.366   1.969   4.944
   81SOL     OW 1141   3.487   5.127   1.838
   81SOL    HW1 1142   3.580   5.142   1.871
   81SOL    HW2 1143   3.422   5.151   1.910
   82SOL     OW 1144   2.698   0.171   2.187
   82SOL    HW1 1145   2.738   0.206   2.102
   82SOL    HW2 1146   2.663   0.079   2.172
   83SOL     OW 1147   5.016   1.436   4.021
   83SOL    HW1 1148   5.024   1.506   4.093
   83SOL    HW2 1149   5.073   1.463   3.943
   84SOL     OW 1150   5.978   2.846   2.819
   84SOL    HW1 1151   5.888   2.878   2.851
   84SOL    HW2 1152   6.030   2.811   2.897
   85SOL     OW 1153   2.635   6.490   3.307
   85SOL    HW1 1154   2.537   6.475   3.294
   85SOL    HW2 1155   2.680   6.402   3.322
   86SOL     OW 1156   5.245   0.036   1.058
   86SOL    HW1 1157   5.318   0.103   1.072
   86SOL    HW2 1158   5.157   0.082   1.057
   87SOL     OW 1159   2.986   3.676   6.608
   87SOL    HW1 1160   3.054   3.666   6.680
   87SOL    HW2 1161   2.945   3.767   6.613
   88SOL     OW 1162   2.415   3.043   1.262
   88SOL    HW1 1163   2.473   3.069   1.339
   88SOL    HW2 1164   2.326   3.014   1.296
   89SOL     OW 1165   3.328   3.640   4.735
   89SOL    HW1 1166   3.310   3.544   4.754
   89SOL    HW2 1167   3.263   3.697   4.785
   90SOL     OW 1168   5.859   3.629   2.246
   90SOL    HW1 1169   5.943   3.576   2.243
   90SOL    HW2 1170   5.879   3.726   2.229
   91SOL     OW 1171   4.599   6.300   6.992
   91SOL    HW1 1172   4.648   6.229   0.017
   91SOL    HW2 1173   4.516   6.262   6.952
   92SOL     OW 1174   5.866   4.639   0.013
   92SOL    HW1 1175   5.939   4.582   7.000
   92SOL    HW2 1176   5.877   4.644   0.113
   93SOL     OW 1177   3.028   4.086   1.595
   93SOL    HW1 1178   3.007   4.060   1.501
   93SOL    HW2 1179   2.951   4.137   1.634
   94SOL     OW 1180   3.574   2.134   4.014
   94SOL    HW1 1181   3.505   2.184   3.961
   94SOL    HW2 1182   3.584   2.176   4.104
   95SOL     OW 1183   0.468   0.181   4.547
   95SOL    HW1 1184   0.549   0.124   4.560
   95SOL    HW2 1185   0.425   0.199   4.636
   96SOL     OW 1186   0.279   5.558   6.721
   96SOL    HW1 1187   0.200   5.620   6.724
   96SOL    HW2 1188   0.363   5.612   6.727
   97SOL     OW 1189   2.283   4.334   5.709
   97SOL    HW1 1190   2.308   4.421   5.666
   97SOL    HW2 1191   2.296   4.259   5.644
   98SOL     OW 1192   7.021   1.729   4.477
   98SOL    HW1 1193   7.013   1.705   4.380
   98SOL    HW2 1194   0.065   1.671   4.521
   99SOL     OW 1195   3.905   4.322   5.304
   99SOL    HW1 1196   3.991   4.271   5.311
   99SOL    HW2 1197   3.912   4.389   5.230
  100SOL     OW 1198   1.097   0.474   5.569
  100SOL    HW1 1199   1.139   0.390   5.533
  100SOL    HW2 1200   1.024   0.503   5.508
  101SOL     OW 1201   5.197   3.184   2.817
  101SOL    HW1 1202   5.229   3.094   2.788
  101SOL    HW2 1203   5.259   3.255   2.784
  102SOL     OW 1204   4.137   0.579   6.814
  102SOL    HW1 1205   4.174   0.599   6.724
  102SOL    HW2 1206   4.057   0.636   6.831
  103SOL     OW 1207   0.912   1.738   2.138
  103SOL    HW1 1208   0.987   1.720   2.074
  103SOL    HW2 1209   0.920   1.676   2.216
  104SOL     OW 1210   6.118   4.478   2.015
  104SOL    HW1 1211   6.115   4.392   2.066
  104SOL    HW2 1212   6.175   4.544   2.064
  105SOL     OW 1213   0.599   0.255   5.220
  105SOL    HW1 1214   0.636   0.293   5.305
  105SOL    HW2 1215   0.664   0.189   5.182
  106SOL     OW 1216   4.389   3.072   1.718
  106SOL    HW1 1217   4.400   3.038   1.625
  106SOL    HW2 1218   4.463   3.039   1.776
  107SOL     OW 1219   5.674   6.570   1.382
  107SOL    HW1 1220   5.773   6.554   1.391
  107SOL    HW2 1221   5.645   6.636   1.452
  108SOL     OW 1222   3.390   1.495   4.703
  108SOL    HW1 1223   3.487   1.479   4.681
  108SOL    HW2 1224   3.340   1.517   4.619
  109SOL     OW 1225   2.344   0.846   5.330
  109SOL    HW1 1226   2.265   0.882   5.281
  109SOL    HW2 1227   2.325   0.754   5.362
  110SOL     OW 1228   3.601   3.991   5.638
  110SOL    HW1 1229   3.680   3.960   5.584
  110SOL    HW2 1230   3.630   4.065   5.699
  111SOL     OW 1231   5.998   2.976   1.026
  111SOL    HW1 1232   5.978   3.050   1.090
  111SOL    HW2 1233   5.963   2.999   0.936
  112SOL     OW 1234   5.245   6.278   6.065
  112SOL    HW1 1235   5.336   6.312   6.041
  112SOL    HW2 1236   5.177   6.316   6.002
  113SOL     OW 1237   0.282   5.033   3.021
  113SOL    HW1 1238   0.382   5.032   3.029
  113SOL    HW2 1239   0.247   5.120   3.055
  114SOL     OW 1240   0.059   2.324   1.799
  114SOL    HW1 1241   7.015   2.298   1.732
  114SOL    HW2 1242   0.141   2.355   1.752
  115SOL     OW 1243   4.480   0.071   2.576
  115SOL    HW1 1244   4.578   0.087   2.583
  115SOL    HW2 1245   4.460   7.000   2.594
  116SOL     OW 1246   6.940   5.151   0.493
  116SOL    HW1 1247   6.896   5.224   0.545
  116SOL    HW2 1248   6.894   5.064   0.511
  117SOL     OW 1249   3.131   2.355   0.101
  117SOL    HW1 1250   3.163   2.321   0.013
  117SOL    HW2 1251   3.039   2.393   0.090
  118SOL     OW 1252   0.382   1.696   2.570
  118SOL    HW1 1253   0.379   1.796   2.575
  118SOL    HW2 1254   0.329   1.657   2.645
  119SOL     OW 1255   6.265   7.009   5.550
  119SOL    HW1 1256   6.191   0.025   5.497
  119SOL    HW2 1257   6.295   6.924   5.506
  120SOL     OW 1258   4.438   0.812   4.533
  120SOL    HW1 1259   4.530   0.838   4.505
  120SOL    HW2 1260   4.416   0.854   4.622
  121SOL     OW 1261   0.423   5.426   6.279
  121SOL    HW1 1262   0.370   5.489   6.336
  121SOL    HW2 1263   0.462   5.476   6.202
  122SOL     OW 1264   6.797   4.342   5.693
  122SOL    HW1 1265   6.759   4.302   5.777
  122SOL    HW2 1266   6.762   4.292   5.614
  123SOL     OW 1267   0.583   2.958   1.693
  123SOL    HW1 1268   0.494   2.912   1.698
  123SOL    HW2 1269   0.630   2.950   1.782
  124SOL     OW 1270   1.696   3.525   0.348
  124SOL    HW1 1271   1.664   3.617   0.327
  124SOL    HW2 1272   1.694   3.511   0.447
  125SOL     OW 1273   4.307   2.730   0.779
  125SOL    HW1 1274   4.214   2.721   0.815
  125SOL    HW2 1275   4.354   2.642   0.785
  126SOL     OW 1276   3.685   3.454   3.736
  126SOL    HW1 1277   3.778   3.486   3.755
  126SOL    HW2 1278   3.682   3.410   3.646
  127SOL     OW 1279   0.450   4.505   5.343
  127SOL    HW1 1280   0.386   4.495   5.419
  127SOL    HW2 1281   0.433   4.592   5.296
  128SOL     OW 1282   4.786   3.807   6.228
  128SOL    HW1 1283   4.732   3.886   6.258
  128SOL    HW2 1284   4.727   3.728   6.217
  129SOL     OW 1285   0.449   5.800   2.327
  129SOL    HW1 1286   0.471   5.885   2.375
  129SOL    HW2 1287   0.473   5.809   2.230
  130SOL     OW 1288   6.005   3.455   4.163
  130SOL    HW1 1289   6.047   3.382   4.218
  130SOL    HW2 1290   5.975   3.528   4.224
  131SOL     OW 1291   0.516   3.612   3.462
  131SOL    HW1 1292   0.494   3.516   3.448
  131SOL    HW2 1293   0.571   3.645   3.385
  132SOL     OW 1294   4.403   2.495   0.730
  132SOL    HW1 1295   4.502   2.509   0.724
  132SOL    HW2 1296   4.384   2.401   0.756
  133SOL     OW 1297   4.213   5.019   6.708
  133SOL    HW1 1298   4.247   5.074   6.631
  133SOL    HW2 1299   4.242   5.060   6.794
  134SOL     OW 1300   5.435   2.098   1.065
  134SOL    HW1 1301   5.366   2.070   1.132
  134SOL    HW2 1302   5.524   2.104   1.109
  135SOL     OW 1303   4.899   3.915   3.895
  135SOL    HW1 1304   4.823   3.969   3.859
  135SOL    HW2 1305   4.986   3.955   3.866
  136SOL     OW 1306   4.227   0.758   6.513
  136SOL    HW1 1307   4.154   0.691   6.524
  136SOL    HW2 1308   4.197   0.831   6.452
  137SOL     OW 1309   2.425   3.925   6.222
  137SOL    HW1 1310   2.391   4.019   6.219
  137SOL    HW2 1311   2.479   3.912   6.304
  138SOL     OW 1312   0.727   5.667   6.624
  138SOL    HW1 1313   0.723   5.576   6.664
  138SOL    HW2 1314   0.821   5.701   6.627
  139SOL     OW 1315   0.961   6.790   1.384
  139SOL    HW1 1316   1.046   6.791   1.331
  139SOL    HW2 1317   0.919   6.881   1.380
  140SOL     OW 1318   3.956   0.900   1.547
  140SOL    HW1 1319   3.858   0.897   1.530
  140SOL    HW2 1320   3.990   0.807   1.564
  141SOL     OW 1321   0.191   2.331   0.550
  141SOL    HW1 1322   0.235   2.419   0.567
  141SOL    HW2 1323   0.239   2.284   0.475
  142SOL     OW 1324   2.245   4.098   0.573
  142SOL    HW1 1325   2.168   4.146   0.531
  142SOL    HW2 1326   2.322   4.162   0.584
  143SOL     OW 1327   4.292   6.466   2.307
  143SOL    HW1 1328   4.360   6.521   2.355
  143SOL    HW2 1329   4.208   6.520   2.297
  144SOL     OW 1330   3.213   5.385   2.556
  144SOL    HW1 1331   3.252   5.457   2.613
  144SOL    HW2 1332   3.179   5.311   2.614
  145SOL     OW 1333   6.879   5.569   4.239
  145SOL    HW1 1334   6.802   5.524   4.192
  145SOL    HW2 1335   6.863   5.567   4.338
  146SOL     OW 1336   6.120   0.478   6.321
  146SOL    HW1 1337   6.045   0.538   6.293
  146SOL    HW2 1338   6.191   0.532   6.365
  147SOL     OW 1339   5.860   1.482   5.356
  147SOL    HW1 1340   5.845   1.527   5.444
  147SOL    HW2 1341   5.866   1.550   5.284
  148SOL     OW 1342   2.228   6.446   1.222
  148SOL    HW1 1343   2.284   6.521   1.258
  148SOL    HW2 1344   2.195   6.471   1.130
  149SOL     OW 1345   1.883   2.940   4.373
  149SOL    HW1 1346   1.824   2.915   4.450
  149SOL    HW2 1347   1.954   3.003   4.404
  150SOL     OW 1348   4.133   1.985   5.189
  150SOL    HW1 1349   4.222   1.947   5.164
  150SOL    HW2 1350   4.068   1.911   5.204
  151SOL     OW 1351   5.982   3.340   0.833
  151SOL    HW1 1352   6.058   3.304   0.887
  151SOL    HW2 1353   5.956   3.430   0.868
  152SOL     OW 1354   0.983   2.612   1.468
  152SOL    HW1 1355   0.972   2.526   1.518
  152SOL    HW2 1356   0.896   2.661   1.466
  153SOL     OW 1357   2.030   1.814   3.648
  153SOL    HW1 1358   2.011   1.743   3.716
  153SOL    HW2 1359   2.064   1.896   3.694
  154SOL     OW 1360   6.593   1.425   3.224
  154SOL    HW1 1361   6.686   1.435   3.260
  154SOL    HW2 1362   6.592   1.450   3.128
  155SOL     OW 1363   6.469   4.816   3.192
  155SOL    HW1 1364   6.560   4.787   3.163
  155SOL    HW2 1365   6.462   4.915   3.184
  156SOL     OW 1366   5.132   1.454   0.671
  156SOL    HW1 1367   5.183   1.470   0.586
  156SOL    HW2 1368   5.167   1.372   0.716
  157SOL     OW 1369   4.982   6.846   1.448
  157SOL    HW1 1370   4.889   6.807   1.443
  157SOL    HW2 1371   5.029   6.830   1.362
  158SOL     OW 1372   0.561   2.837   4.618
  158SOL    HW1 1373   0.502   2.794   4.686
  158SOL    HW2 1374   0.593   2.925   4.653
  159SOL     OW 1375   6.136   5.572   0.188
  159SOL    HW1 1376   6.234   5.566   0.202
  159SOL    HW2 1377   6.088   5.520   0.258
  160SOL     OW 1378   5.311   0.521   0.920
  160SOL    HW1 1379   5.276   0.527   1.013
  160SOL    HW2 1380   5.331   0.612   0.885
  161SOL     OW 1381   6.562   6.051   0.483
  161SOL    HW1 1382   6.645   6.027   0.534
  161SOL    HW2 1383   6.578   6.041   0.385
  162SOL     OW 1384   4.599   6.950   5.752
  162SOL    HW1 1385   4.529   7.013   5.717
  162SOL    HW2 1386   4.557   6.881   5.810
  163SOL     OW 1387   0.404   3.024   2.846
  163SOL    HW1 1388   0.321   3.075   2.867
  163SOL    HW2 1389   0.382   2.948   2.785
  164SOL     OW 1390   2.669   2.385   3.268
  164SOL    HW1 1391   2.595   2.439   3.230
  164SOL    HW2 1392   2.662   2.290   3.235
  165SOL     OW 1393   0.080   6.839   3.673
  165SOL    HW1 1394   0.140   6.886   3.737
  165SOL    HW2 1395   0.086   6.740   3.689
  166SOL     OW 1396   6.745   4.793   4.336
  166SOL    HW1 1397   6.839   4.770   4.361
  166SOL    HW2 1398   6.741   4.887   4.302
  167SOL     OW 1399   2.241   1.221   4.759
  167SOL    HW1 1400   2.254   1.126   4.730
  167SOL    HW2 1401   2.161   1.227   4.819
  168SOL     OW 1402   3.736   3.619   2.152
  168SOL    HW1 1403   3.700   3.560   2.080
  168SOL    HW2 1404   3.727   3.715   2.125
  169SOL     OW 1405   5.455   2.849   0.531
  169SOL    HW1 1406   5.554   2.832   0.530
  169SOL    HW2 1407   5.407   2.770   0.492
  170SOL     OW 1408   6.134   5.393   1.367
  170SOL    HW1 1409   6.222   5.372   1.410
  170SOL    HW2 1410   6.092   5.472   1.413
  171SOL     OW 1411   3.464   3.140   1.227
  171SOL    HW1 1412   3.384   3.098   1.183
  171SOL    HW2 1413   3.464   3.117   1.324
  172SOL     OW 1414   1.779   0.872   5.951
  172SOL    HW1 1415   1.687   0.862   5.989
  172SOL    HW2 1416   1.837   0.924   6.014
  173SOL     OW 1417   5.867   1.242   4.352
  173SOL    HW1 1418   5.856   1.204   4.260
  173SOL    HW2 1419   5.810   1.324   4.361
  174SOL     OW 1420   5.379   4.267   4.315
  174SOL    HW1 1421   5.459   4.230   4.361
  174SOL    HW2 1422   5.386   4.248   4.217
  175SOL     OW 1423   0.533   6.378   2.502
  175SOL    HW1 1424   0.630   6.377   2.525
  175SOL    HW2 1425   0.500   6.472   2.499
  176SOL     OW 1426   6.703   3.570   1.720
  176SOL    HW1 1427   6.631   3.503   1.735
  176SOL    HW2 1428   6.741   3.559   1.628
  177SOL     OW 1429   6.141   2.049   3.232
  177SOL    HW1 1430   6.217   1.999   3.190
  177SOL    HW2 1431   6.064   1.987   3.247
  178SOL     OW 1432   2.217   5.695   4.259
  178SOL    HW1 1433   2.229   5.604   4.299
  178SOL    HW2 1434   2.180   5.757   4.327
  179SOL     OW 1435   2.972   4.512   1.312
  179SOL    HW1 1436   3.063   4.477   1.334
  179SOL    HW2 1437   2.914   4.510   1.394
  180SOL     OW 1438   5.068   1.391   6.414
  180SOL    HW1 1439   5.165   1.374   6.396
  180SOL    HW2 1440   5.040   1.476   6.371
  181SOL     OW 1441   3.434   1.253   6.127
  181SOL    HW1 1442   3.360   1.266   6.192
  181SOL    HW2 1443   3.496   1.332   6.129
  182SOL     OW 1444   2.816   3.271   5.555
  182SOL    HW1 1445   2.901   3.293   5.508
  182SOL    HW2 1446   2.747   3.340   5.532
  183SOL     OW 1447   2.938   0.586   3.102
  183SOL    HW1 1448   2.885   0.532   3.037
  183SOL    HW2 1449   2.935   0.683   3.076
  184SOL     OW 1450   5.577   5.869   3.572
  184SOL    HW1 1451   5.661   5.900   3.616
  184SOL    HW2 1452   5.581   5.889   3.474
  185SOL     OW 1453   0.680   6.994   5.079
  185SOL    HW1 1454   0.757   0.005   5.132
  185SOL    HW2 1455   0.710   6.913   5.028
  186SOL     OW 1456   3.112   6.099   4.437
  186SOL    HW1 1457   3.036   6.078   4.499
  186SOL    HW2 1458   3.198   6.074   4.480
  187SOL     OW 1459   4.243   5.756   1.127
  187SOL    HW1 1460   4.163   5.798   1.170
  187SOL    HW2 1461   4.293   5.825   1.075
  188SOL     OW 1462   0.972   3.731   3.546
  188SOL    HW1 1463   0.972   3.666   3.470
  188SOL    HW2 1464   1.041   3.802   3.529
  189SOL     OW 1465   5.467   4.730   5.204
  189SOL    HW1 1466   5.367   4.724   5.196
  189SOL    HW2 1467   5.505   4.767   5.120
  190SOL     OW 1468   6.217   6.882   0.590
  190SOL    HW1 1469   6.196   6.784   0.588
  190SOL    HW2 1470   6.244   6.911   0.498
  191SOL     OW 1471   1.542   1.951   5.199
  191SOL    HW1 1472   1.507   2.039   5.166
  191SOL    HW2 1473   1.630   1.932   5.156
  192SOL     OW 1474   0.688   5.867   1.522
  192SOL    HW1 1475   0.737   5.782   1.543
  192SOL    HW2 1476   0.650   5.905   1.606
  193SOL     OW 1477   2.439   0.576   2.005
  193SOL    HW1 1478   2.483   0.486   2.000
  193SOL    HW2 1479   2.477   0.628   2.081
  194SOL     OW 1480   3.751   6.005   2.466
  194SOL    HW1 1481   3.721   5.920   2.510
  194SOL    HW2 1482   3.697   6.021   2.383
  195SOL     OW 1483   3.610   6.966   0.547
  195SOL    HW1 1484   3.512   6.959   0.563
  195SOL    HW2 1485   3.635   0.037   0.535
  196SOL     OW 1486   3.815   2.407   0.873
  196SOL    HW1 1487   3.784   2.324   0.919
  196SOL    HW2 1488   3.767   2.486   0.911
  197SOL     OW 1489   1.622   5.594   0.374
  197SOL    HW1 1490   1.583   5.508   0.341
  197SOL    HW2 1491   1.555   5.667   0.363
  198SOL     OW 1492   4.371   6.922   6.455
  198SOL    HW1 1493   4.389   6.827   6.481
  198SOL    HW2 1494   4.451   6.960   6.409
  199SOL     OW 1495   1.006   0.583   3.416
  199SOL    HW1 1496   0.975   0.677   3.405
  199SOL    HW2 1497   0.943   0.533   3.475
  200SOL     OW 1498   1.149   3.896   3.666
  200SOL    HW1 1499   1.149   3.994   3.688
  200SOL    HW2 1500   1.107   3.845   3.741
  201SOL     OW 1501   4.780   1.448   6.302
  201SOL    HW1 1502   4.703   1.435   6.364
  201SOL    HW2 1503   4.832   1.363   6.295
  202SOL     OW 1504   3.829   1.209   2.395
  202SOL    HW1 1505   3.748   1.237   2.446
  202SOL    HW2 1506   3.908   1.207   2.456
  203SOL     OW 1507   6.301   2.699   0.045
  203SOL    HW1 1508   6.349   2.745   0.120
  203SOL    HW2 1509   6.303   2.758   6.988
  204SOL     OW 1510   2.249   0.301   1.344
  204SOL    HW1 1511   2.335   0.288   1.395
  204SOL    HW2 1512   2.182   0.234   1.375
  205SOL     OW 1513   5.807   0.539   1.697
  205SOL    HW1 1514   5.824   0.636   1.687
  205SOL    HW2 1515   5.876   0.487   1.648
  206SOL     OW 1516   0.068   5.910   1.729
  206SOL    HW1 1517   0.159   5.918   1.688
  206SOL    HW2 1518   0.044   5.997   1.772
  207SOL     OW 1519   5.049   1.676   5.587
  207SOL    HW1 1520   5.086   1.749   5.645
  207SOL    HW2 1521   4.963   1.707   5.545
  208SOL     OW 1522   3.541   4.419   6.043
  208SOL    HW1 1523   3.498   4.335   6.010
  208SOL    HW2 1524   3.606   4.396   6.116
  209SOL     OW 1525   6.857   5.595   4.535
  209SOL    HW1 1526   6.949   5.599   4.574
  209SOL    HW2 1527   6.840   5.503   4.499
  210SOL     OW 1528   3.889   1.994   0.963
  210SOL    HW1 1529   3.960   1.974   1.030
  210SOL    HW2 1530   3.929   2.047   0.888
  211SOL     OW 1531   0.726   3.093   2.169
  211SOL    HW1 1532   0.655   3.082   2.238
  211SOL    HW2 1533   0.813   3.115   2.214
  212SOL     OW 1534   6.788   5.343   4.420
  212SOL    HW1 1535   6.696   5.369   4.391
  212SOL    HW2 1536   6.836   5.300   4.344
  213SOL     OW 1537   3.879   2.366   6.025
  213SOL    HW1 1538   3.912   2.446   5.975
  213SOL    HW2 1539   3.781   2.376   6.044
  214SOL     OW 1540   1.459   6.793   3.380
  214SOL    HW1 1541   1.557   6.774   3.392
  214SOL    HW2 1542   1.415   6.798   3.469
  215SOL     OW 1543   4.028   3.734   2.695
  215SOL    HW1 1544   3.997   3.828   2.684
  215SOL    HW2 1545   4.127   3.732   2.708
  216SOL     OW 1546   1.797   7.002   5.698
  216SOL    HW1 1547   1.841   6.920   5.735
  216SOL    HW2 1548   1.800   0.050   5.766
  217SOL     OW 1549   6.742   2.688   4.224
  217SOL    HW1 1550   6.777   2.768   4.173
  217SOL    HW2 1551   6.654   2.661   4.185
  218SOL     OW 1552   1.967   3.482   5.488
  218SOL    HW1 1553   1.952   3.512   5.582
  218SOL    HW2 1554   1.997   3.560   5.432
  219SOL     OW 1555   3.390   5.313   0.409
  219SOL    HW1 1556   3.408   5.410   0.391
  219SOL    HW2 1557   3.365   5.268   0.323
  220SOL     OW 1558   1.070   4.445   0.720
  220SOL    HW1 1559   1.072   4.356   0.765
  220SOL    HW2 1560   1.159   4.489   0.731
  221SOL     OW 1561   6.381   2.953   4.334
  221SOL    HW1 1562   6.341   2.889   4.269
  221SOL    HW2 1563   6.398   2.906   4.421
  222SOL     OW 1564   1.205   6.394   4.381
  222SOL    HW1 1565   1.230   6.483   4.342
  222SOL    HW2 1566   1.253   6.381   4.468
  223SOL     OW 1567   6.285   4.601   2.230
  223SOL    HW1 1568   6.356   4.556   2.283
  223SOL    HW2 1569   6.204   4.616   2.287
  224SOL     OW 1570   3.922   2.148   2.186
  224SOL    HW1 1571   3.864   2.169   2.107
  224SOL    HW2 1572   3.895   2.204   2.264
  225SOL     OW 1573   6.496   0.159   1.342
  225SOL    HW1 1574   6.585   0.189   1.307
  225SOL    HW2 1575   6.423   0.205   1.292
  226SOL     OW 1576   6.830   5.938   1.623
  226SOL    HW1 1577   6.841   5.981   1.534
  226SOL    HW2 1578   6.920   5.919   1.662
  227SOL     OW 1579   1.020   3.207   2.969
  227SOL    HW1 1580   0.964   3.140   2.920
  227SOL    HW2 1581   0.963   3.283   2.998
  228SOL     OW 1582   3.660   6.347   2.829
  228SOL    HW1 1583   3.620   6.259   2.855
  228SOL    HW2 1584   3.590   6.405   2.790
  229SOL     OW 1585   5.968   5.405   3.583
  229SOL    HW1 1586   5.906   5.337   3.547
  229SOL    HW2 1587   5.947   5.495   3.544
  230SOL     OW 1588   1.201   4.016   6.349
  230SOL    HW1 1589   1.213   4.006   6.251
  230SOL    HW2 1590   1.182   4.112   6.370
  231SOL     OW 1591   0.848   1.704   0.080
  231SOL    HW1 1592   0.873   1.608   0.065
  231SOL    HW2 1593   0.856   1.725   0.177
  232SOL     OW 1594   1.636   4.319   6.695
  232SOL    HW1 1595   1.547   4.305   6.651
  232SOL    HW2 1596   1.698   4.363   6.631
  233SOL     OW 1597   3.405   0.425   6.093
  233SOL    HW1 1598   3.342   0.348   6.100
  233SOL    HW2 1599   3.465   0.428   6.173
  234SOL     OW 1600   2.913   5.928   6.168
  234SOL    HW1 1601   2.965   5.962   6.090
  234SOL    HW2 1602   2.815   5.941   6.152
  235SOL     OW 1603   3.558   3.648   4.918
  235SOL    HW1 1604   3.521   3.715   4.982
  235SOL    HW2 1605   3.488   3.623   4.851
  236SOL     OW 1606   0.238   2.343   6.130
  236SOL    HW1 1607   0.268   2.267   6.071
  236SOL    HW2 1608   0.289   2.426   6.105
  237SOL     OW 1609   6.591   6.546   1.756
  237SOL    HW1 1610   6.541   6.626   1.725
  237SOL    HW2 1611   6.655   6.572   1.829
  238SOL     OW 1612   6.653   1.380   2.454
  238SOL    HW1 1613   6.605   1.458   2.494
  238SOL    HW2 1614   6.722   1.347   2.518
  239SOL     OW 1615   0.540   5.623   1.032
  239SOL    HW1 1616   0.568   5.587   1.121
  239SOL    HW2 1617   0.582   5.568   0.959
  240SOL     OW 1618   6.769   3.139   5.495
  240SOL    HW1 1619   6.782   3.121   5.593
  240SOL    HW2 1620   6.809   3.228   5.472
  241SOL     OW 1621   6.063   1.752   4.619
  241SOL    HW1 1622   6.049   1.684   4.548
  241SOL    HW2 1623   5.994   1.741   4.691
  242SOL     OW 1624   2.594   2.397   3.990
  242SOL    HW1 1625   2.496   2.374   3.990
  242SOL    HW2 1626   2.609   2.480   4.044
  243SOL     OW 1627   4.540   1.431   6.428
  243SOL    HW1 1628   4.566   1.480   6.511
  243SOL    HW2 1629   4.442   1.439   6.413
  244SOL     OW 1630   0.055   0.465   6.011
  244SOL    HW1 1631   0.052   0.565   6.017
  244SOL    HW2 1632   7.016   0.434   5.940
  245SOL     OW 1633   4.919   2.452   3.869
  245SOL    HW1 1634   4.902   2.475   3.965
  245SOL    HW2 1635   4.917   2.536   3.814
  246SOL     OW 1636   5.021   3.067   3.592
  246SOL    HW1 1637   5.086   3.119   3.648
  246SOL    HW2 1638   5.068   2.990   3.549
  247SOL     OW 1639   2.767   0.219   3.609
  247SOL    HW1 1640   2.753   0.141   3.547
  247SOL    HW2 1641   2.808   0.295   3.560
  248SOL     OW 1642   6.731   1.534   1.825
  248SOL    HW1 1643   6.810   1.535   1.886
  248SOL    HW2 1644   6.757   1.571   1.735
  249SOL     OW 1645   1.942   6.128   5.155
  249SOL    HW1 1646   2.036   6.096   5.144
  249SOL    HW2 1647   1.880   6.064   5.110
  250SOL     OW 1648   5.058   2.572   6.680
  250SOL    HW1 1649   4.970   2.542   6.717
  250SOL    HW2 1650   5.113   2.612   6.754
  251SOL     OW 1651   1.950   2.361   0.363
  251SOL    HW1 1652   1.977   2.310   0.445
  251SOL    HW2 1653   2.030   2.376   0.305
  252SOL     OW 1654   0.834   1.435   0.933
  252SOL    HW1 1655   0.741   1.456   0.901
  252SOL    HW2 1656   0.865   1.506   0.995
  253SOL     OW 1657   1.795   4.196   6.215
  253SOL    HW1 1658   1.770   4.137   6.137
  253SOL    HW2 1659   1.873   4.253   6.189
  254SOL     OW 1660   4.812   3.602   6.503
  254SOL    HW1 1661   4.847   3.679   6.557
  254SOL    HW2 1662   4.889   3.548   6.469
  255SOL     OW 1663   3.785   2.048   2.488
  255SOL    HW1 1664   3.695   2.070   2.451
  255SOL    HW2 1665   3.797   2.094   2.576
  256SOL     OW 1666   6.649   5.562   2.136
  256SOL    HW1 1667   6.649   5.589   2.039
  256SOL    HW2 1668   6.562   5.518   2.158
  257SOL     OW 1669   2.733   5.864   6.793
  257SOL    HW1 1670   2.730   5.869   6.693
  257SOL    HW2 1671   2.793   5.937   6.828
  258SOL     OW 1672   4.925   4.642   4.650
  258SOL    HW1 1673   5.024   4.647   4.664
  258SOL    HW2 1674   4.905   4.655   4.553
  259SOL     OW 1675   0.666   2.051   3.080
  259SOL    HW1 1676   0.720   2.043   3.163
  259SOL    HW2 1677   0.649   2.148   3.061
  260SOL     OW 1678   0.005   6.634   5.754
  260SOL    HW1 1679   6.942   6.624   5.707
  260SOL    HW2 1680   0.052   6.546   5.756
  261SOL     OW 1681   0.314   1.159   3.218
  261SOL    HW1 1682   0.395   1.213   3.195
  261SOL    HW2 1683   0.318   1.071   3.172
  262SOL     OW 1684   1.869   5.258   2.895
  262SOL    HW1 1685   1.830   5.189   2.956
  262SOL    HW2 1686   1.797   5.293   2.834
  263SOL     OW 1687   6.967   3.055   5.159
  263SOL    HW1 1688   7.022   3.117   5.215
  263SOL    HW2 1689   7.011   2.965   5.157
  264SOL     OW 1690   3.391   4.160   6.675
  264SOL    HW1 1691   3.377   4.076   6.622
  264SOL    HW2 1692   3.311   4.176   6.733
  265SOL     OW 1693   4.975   5.468   4.372
  265SOL    HW1 1694   4.997   5.372   4.360
  265SOL    HW2 1695   4.912   5.497   4.300
  266SOL     OW 1696   4.222   3.191   6.652
  266SOL    HW1 1697   4.190   3.278   6.615
  266SOL    HW2 1698   4.243   3.128   6.577
  267SOL     OW 1699   2.359   1.780   6.401
  267SOL    HW1 1700   2.300   1.754   6.477
  267SOL    HW2 1701   2.397   1.871   6.418
  268SOL     OW 1702   2.758   4.804   3.873
  268SOL    HW1 1703   2.722   4.724   3.922
  268SOL    HW2 1704   2.814   4.859   3.935
  269SOL     OW 1705   2.020   1.237   4.957
  269SOL    HW1 1706   1.984   1.144   4.965
  269SOL    HW2 1707   1.992   1.290   5.036
  270SOL     OW 1708   4.974   6.747   4.445
  270SOL    HW1 1709   5.015   6.807   4.514
  270SOL    HW2 1710   4.904   6.689   4.488
  271SOL     OW 1711   1.616   1.381   0.646
  271SOL    HW1 1712   1.706   1.415   0.673
  271SOL    HW2 1713   1.573   1.447   0.584
  272SOL     OW 1714   4.397   5.994   1.089
  272SOL    HW1 1715   4.445   5.939   1.158
  272SOL    HW2 1716   4.329   6.052   1.133
  273SOL     OW 1717   2.401   6.681   4.176
  273SOL    HW1 1718   2.487   6.702   4.129
  273SOL    HW2 1719   2.377   6.586   4.161
  274SOL     OW 1720   5.512   1.751   1.248
  274SOL    HW1 1721   5.431   1.728   1.301
  274SOL    HW2 1722   5.579   1.677   1.257
  275SOL     OW 1723   5.800   5.512   5.870
  275SOL    HW1 1724   5.829   5.553   5.957
  275SOL    HW2 1725   5.795   5.413   5.881
  276SOL     OW 1726   7.019   6.661   4.812
  276SOL    HW1 1727   0.085   6.701   4.798
  276SOL    HW2 1728   7.018   6.611   4.898
  277SOL     OW 1729   4.394   2.892   5.569
  277SOL    HW1 1730   4.465   2.881   5.499
  277SOL    HW2 1731   4.306   2.866   5.532
  278SOL     OW 1732   5.683   3.994   2.918
  278SOL    HW1 1733   5.634   3.927   2.974
  278SOL    HW2 1734   5.780   3.970   2.914
  279SOL     OW 1735   6.667   3.504   3.880
  279SOL    HW1 1736   6.605   3.436   3.839
  279SOL    HW2 1737   6.656   3.503   3.979
  280SOL     OW 1738   4.501   1.322   3.557
  280SOL    HW1 1739   4.492   1.279   3.647
  280SOL    HW2 1740   4.593   1.358   3.546
  281SOL     OW 1741   5.311   6.066   5.197
  281SOL    HW1 1742   5.375   6.017   5.256
  281SOL    HW2 1743   5.321   6.035   5.103
  282SOL     OW 1744   1.070   2.951   0.195
  282SOL    HW1 1745   1.136   2.877   0.181
  282SOL    HW2 1746   1.040   2.987   0.107
  283SOL     OW 1747   6.059   3.880   4.363
  283SOL    HW1 1748   6.151   3.846   4.346
  283SOL    HW2 1749   6.061   3.947   4.438
  284SOL     OW 1750   4.938   5.979   2.484
  284SOL    HW1 1751   4.888   5.972   2.398
  284SOL    HW2 1752   4.873   5.977   2.560
  285SOL     OW 1753   3.949   6.863   5.608
  285SOL    HW1 1754   4.004   6.845   5.690
  285SOL    HW2 1755   3.854   6.880   5.635
  286SOL     OW 1756   2.688   5.151   5.184
  286SOL    HW1 1757   2.716   5.055   5.182
  286SOL    HW2 1758   2.761   5.206   5.226
  287SOL     OW 1759   3.831   6.237   6.805
  287SOL    HW1 1760   3.906   6.170   6.809
  287SOL    HW2 1761   3.773   6.228   6.886
  288SOL     OW 1762   5.011   1.804   0.105
  288SOL    HW1 1763   5.100   1.766   0.130
  288SOL    HW2 1764   5.010   1.826   0.008
  289SOL     OW 1765   5.862   5.098   4.140
  289SOL    HW1 1766   5.916   5.022   4.176
  289SOL    HW2 1767   5.844   5.083   4.042
  290SOL     OW 1768   4.116   0.476   5.706
  290SOL    HW1 1769   4.118   0.510   5.612
  290SOL    HW2 1770   4.092   0.379   5.705
  291SOL     OW 1771   4.351   0.405   5.431
  291SOL    HW1 1772   4.374   0.412   5.528
  291SOL    HW2 1773   4.292   0.481   5.405
  292SOL     OW 1774   3.097   0.176   3.849
  292SOL    HW1 1775   3.088   0.077   3.854
  292SOL    HW2 1776   3.103   0.204   3.753
  293SOL     OW 1777   5.233   6.234   2.811
  293SOL    HW1 1778   5.177   6.252   2.892
  293SOL    HW2 1779   5.225   6.310   2.747
  294SOL     OW 1780   6.622   1.334   0.001
  294SOL    HW1 1781   6.604   1.396   6.949
  294SOL    HW2 1782   6.589   1.376   0.086
  295SOL     OW 1783   1.068   0.869   4.751
  295SOL    HW1 1784   1.106   0.929   4.680
  295SOL    HW2 1785   1.107   0.894   4.840
  296SOL     OW 1786   0.654   2.263   2.092
  296SOL    HW1 1787   0.645   2.231   2.186
  296SOL    HW2 1788   0.629   2.360   2.086
  297SOL     OW 1789   5.685   3.260   3.518
  297SOL    HW1 1790   5.712   3.325   3.588
  297SOL    HW2 1791   5.655   3.174   3.561
  298SOL     OW 1792   4.129   1.096   5.558
  298SOL    HW1 1793   4.150   1.177   5.613
  298SOL    HW2 1794   4.146   1.014   5.612
  299SOL     OW 1795   0.820   1.088   6.785
  299SOL    HW1 1796   0.773   1.145   6.718
  299SOL    HW2 1797   0.814   1.130   6.876
  300SOL     OW 1798   4.835   6.980   3.534
  300SOL    HW1 1799   4.747   6.987   3.486
  300SOL    HW2 1800   4.849   0.038   3.588
  301SOL     OW 1801   6.780   5.130   6.399
  301SOL    HW1 1802   6.775   5.031   6.406
  301SOL    HW2 1803   6.852   5.165   6.460
  302SOL     OW 1804   0.167   6.399   2.744
  302SOL    HW1 1805   0.168   6.478   2.805
  302SOL    HW2 1806   0.078   6.353   2.748
  303SOL     OW 1807   5.917   5.844   3.126
  303SOL    HW1 1808   5.858   5.818   3.051
  303SOL    HW2 1809   5.912   5.943   3.140
  304SOL     OW 1810   2.417   6.442   4.713
  304SOL    HW1 1811   2.382   6.403   4.628
  304SOL    HW2 1812   2.340   6.471   4.770
  305SOL     OW 1813   0.892   2.365   1.580
  305SOL    HW1 1814   0.881   2.311   1.663
  305SOL    HW2 1815   0.808   2.415   1.561
  306SOL     OW 1816   0.465   6.678   3.329
  306SOL    HW1 1817   0.556   6.720   3.321
  306SOL    HW2 1818   0.423   6.708   3.415
  307SOL     OW 1819   3.609   3.828   3.824
  307SOL    HW1 1820   3.626   3.731   3.839
  307SOL    HW2 1821   3.576   3.870   3.909
  308SOL     OW 1822   6.591   1.857   2.380
  308SOL    HW1 1823   6.661   1.917   2.342
  308SOL    HW2 1824   6.502   1.882   2.343
  309SOL     OW 1825   2.021   5.756   0.278
  309SOL    HW1 1826   1.935   5.790   0.239
  309SOL    HW2 1827   2.009   5.661   0.307
  310SOL     OW 1828   5.667   6.448   4.933
  310SOL    HW1 1829   5.730   6.442   4.855
  310SOL    HW2 1830   5.588   6.504   4.908
  311SOL     OW 1831   1.745   5.933   1.727
  311SOL    HW1 1832   1.817   5.987   1.772
  311SOL    HW2 1833   1.769   5.836   1.732
  312SOL     OW 1834   2.960   0.393   4.133
  312SOL    HW1 1835   2.956   0.491   4.111
  312SOL    HW2 1836   3.045   0.355   4.096
  313SOL     OW 1837   2.967   3.256   2.862
  313SOL    HW1 1838   2.984   3.194   2.786
  313SOL    HW2 1839   2.973   3.206   2.948
  314SOL     OW 1840   2.764   5.633   5.855
  314SOL    HW1 1841   2.856   5.594   5.853
  314SOL    HW2 1842   2.708   5.589   5.785
  315SOL     OW 1843   5.557   0.917   4.783
  315SOL    HW1 1844   5.575   1.008   4.820
  315SOL    HW2 1845   5.640   0.862   4.788
  316SOL     OW 1846   4.143   0.586   6.214
  316SOL    HW1 1847   4.066   0.530   6.185
  316SOL    HW2 1848   4.133   0.679   6.179
  317SOL     OW 1849   0.459   2.665   1.555
  317SOL    HW1 1850   0.415   2.594   1.500
  317SOL    HW2 1851   0.394   2.739   1.572
  318SOL     OW 1852   0.915   0.567   5.350
  318SOL    HW1 1853   0.824   0.533   5.328
  318SOL    HW2 1854   0.973   0.562   5.269
  319SOL     OW 1855   0.183   0.739   3.885
  319SOL    HW1 1856   0.132   0.654   3.875
  319SOL    HW2 1857   0.200   0.779   3.795
  320SOL     OW 1858   5.746   2.110   6.766
  320SOL    HW1 1859   5.726   2.015   6.741
  320SOL    HW2 1860   5.726   2.125   6.863
  321SOL     OW 1861   4.876   2.764   0.762
  321SOL    HW1 1862   4.813   2.797   0.832
  321SOL    HW2 1863   4.845   2.794   0.672
  322SOL     OW 1864   3.426   2.995   6.703
  322SOL    HW1 1865   3.441   3.093   6.711
  322SOL    HW2 1866   3.508   2.951   6.666
  323SOL     OW 1867   1.440   3.920   2.535
  323SOL    HW1 1868   1.472   3.834   2.576
  323SOL    HW2 1869   1.519   3.972   2.502
  324SOL     OW 1870   0.529   0.123   3.092
  324SOL    HW1 1871   0.448   0.112   3.150
  324SOL    HW2 1872   0.556   0.034   3.055
  325SOL     OW 1873   6.801   3.953   0.616
  325SOL    HW1 1874   6.794   3.867   0.566
  325SOL    HW2 1875   6.864   3.942   0.693
  326SOL     OW 1876   0.736   6.202   6.976
  326SOL    HW1 1877   0.739   6.104   6.996
  326SOL    HW2 1878   0.670   6.219   6.902
  327SOL     OW 1879   4.322   5.678   5.551
  327SOL    HW1 1880   4.252   5.667   5.481
  327SOL    HW2 1881   4.319   5.771   5.587
  328SOL     OW 1882   1.386   4.834   3.029
  328SOL    HW1 1883   1.333   4.839   3.114
  328SOL    HW2 1884   1.427   4.923   3.011
  329SOL     OW 1885   3.090   3.146   1.539
  329SOL    HW1 1886   3.024   3.221   1.539
  329SOL    HW2 1887   3.143   3.148   1.624
  330SOL     OW 1888   3.240   3.574   0.294
  330SOL    HW1 1889   3.322   3.632   0.290
  330SOL    HW2 1890   3.160   3.629   0.269
  331SOL     OW 1891   5.324   5.404   4.967
  331SOL    HW1 1892   5.255   5.438   4.903
  331SOL    HW2 1893   5.336   5.305   4.953
  332SOL     OW 1894   5.419   2.408   2.934
  332SOL    HW1 1895   5.439   2.506   2.930
  332SOL    HW2 1896   5.495   2.357   2.895
  333SOL     OW 1897   3.213   0.211   4.582
  333SOL    HW1 1898   3.307   0.177   4.590
  333SOL    HW2 1899   3.170   0.171   4.501
  334SOL     OW 1900   3.680   4.094   3.501
  334SOL    HW1 1901   3.672   4.128   3.408
  334SOL    HW2 1902   3.592   4.057   3.531
  335SOL     OW 1903   4.042   1.607   1.222
  335SOL    HW1 1904   3.959   1.661   1.240
  335SOL    HW2 1905   4.036   1.520   1.270
  336SOL     OW 1906   3.478   1.847   4.561
  336SOL    HW1 1907   3.495   1.755   4.595
  336SOL    HW2 1908   3.397   1.885   4.606
  337SOL     OW 1909   0.383   1.001   5.096
  337SOL    HW1 1910   0.365   0.984   5.193
  337SOL    HW2 1911   0.330   0.937   5.040
  338SOL     OW 1912   4.284   1.746   1.245
  338SOL    HW1 1913   4.308   1.749   1.342
  338SOL    HW2 1914   4.206   1.685   1.232
  339SOL     OW 1915   4.135   5.325   5.543
  339SOL    HW1 1916   4.061   5.281   5.490
  339SOL    HW2 1917   4.193   5.255   5.584
  340SOL     OW 1918   6.134   2.293   4.221
  340SOL    HW1 1919   6.057   2.233   4.198
  340SOL    HW2 1920   6.218   2.239   4.226
  341SOL     OW 1921   0.079   6.495   3.205
  341SOL    HW1 1922   0.019   6.565   3.168
  341SOL    HW2 1923   0.174   6.523   3.194
  342SOL     OW 1924   5.025   2.031   2.515
  342SOL    HW1 1925   4.934   2.048   2.477
  342SOL    HW2 1926   5.093   2.076   2.458
  343SOL     OW 1927   6.432   6.740   1.634
  343SOL    HW1 1928   6.415   6.827   1.679
  343SOL    HW2 1929   6.351   6.712   1.583
  344SOL     OW 1930   0.093   2.358   1.077
  344SOL    HW1 1931   0.183   2.398   1.057
  344SOL    HW2 1932   0.064   2.385   1.168
  345SOL     OW 1933   6.337   2.525   4.567
  345SOL    HW1 1934   6.252   2.481   4.538
  345SOL    HW2 1935   6.378   2.471   4.641
  346SOL     OW 1936   2.499   6.371   3.651
  346SOL    HW1 1937   2.473   6.388   3.556
  346SOL    HW2 1938   2.454   6.437   3.711
  347SOL     OW 1939   2.003   4.248   0.470
  347SOL    HW1 1940   1.961   4.255   0.560
  347SOL    HW2 1941   1.947   4.295   0.402
  348SOL     OW 1942   3.735   5.227   1.550
  348SOL    HW1 1943   3.688   5.305   1.592
  348SOL    HW2 1944   3.805   5.260   1.486
  349SOL     OW 1945   5.791   4.372   0.642
  349SOL    HW1 1946   5.739   4.353   0.559
  349SOL    HW2 1947   5.772   4.466   0.671
  350SOL     OW 1948   3.437   2.200   6.832
  350SOL    HW1 1949   3.342   2.226   6.850
  350SOL    HW2 1950   3.495   2.281   6.837
  351SOL     OW 1951   3.581   4.458   0.669
  351SOL    HW1 1952   3.539   4.367   0.670
  351SOL    HW2 1953   3.678   4.450   0.647
  352SOL     OW 1954   4.364   0.309   2.536
  352SOL    HW1 1955   4.359   0.349   2.628
  352SOL    HW2 1956   4.419   0.226   2.539
  353SOL     OW 1957   1.761   0.671   0.664
  353SOL    HW1 1958   1.836   0.620   0.623
  353SOL    HW2 1959   1.719   0.616   0.737
  354SOL     OW 1960   1.006   2.595   0.260
  354SOL    HW1 1961   1.018   2.625   0.165
  354SOL    HW2 1962   1.096   2.585   0.303
  355SOL     OW 1963   1.273   2.466   3.109
  355SOL    HW1 1964   1.192   2.500   3.062
  355SOL    HW2 1965   1.246   2.405   3.184
  356SOL     OW 1966   2.701   0.268   5.345
  356SOL    HW1 1967   2.700   0.169   5.363
  356SOL    HW2 1968   2.790   0.294   5.309
  357SOL     OW 1969   5.460   0.048   4.721
  357SOL    HW1 1970   5.389   0.116   4.701
  357SOL    HW2 1971   5.529   0.089   4.780
  358SOL     OW 1972   3.416   6.086   6.245
  358SOL    HW1 1973   3.416   6.054   6.340
  358SOL    HW2 1974   3.460   6.017   6.187
  359SOL     OW 1975   1.288   1.913   2.283
  359SOL    HW1 1976   1.212   1.905   2.348
  359SOL    HW2 1977   1.253   1.927   2.191
  360SOL     OW 1978   1.886   4.287   4.109
  360SOL    HW1 1979   1.836   4.201   4.103
  360SOL    HW2 1980   1.978   4.270   4.146
  361SOL     OW 1981   6.598   1.224   2.248
  361SOL    HW1 1982   6.625   1.285   2.323
  361SOL    HW2 1983   6.625   1.265   2.161
  362SOL     OW 1984   3.787   3.482   1.289
  362SOL    HW1 1985   3.738   3.415   1.235
  362SOL    HW2 1986   3.748   3.486   1.381
  363SOL     OW 1987   5.074   5.379   1.789
  363SOL    HW1 1988   5.115   5.295   1.824
  363SOL    HW2 1989   5.139   5.427   1.730
  364SOL     OW 1990   0.798   6.716   7.013
  364SOL    HW1 1991   0.752   6.662   0.060
  364SOL    HW2 1992   0.789   6.668   6.926
  365SOL     OW 1993   5.435   1.368   3.685
  365SOL    HW1 1994   5.506   1.436   3.662
  365SOL    HW2 1995   5.406   1.322   3.601
  366SOL     OW 1996   5.775   1.576   6.480
  366SOL    HW1 1997   5.800   1.646   6.414
  366SOL    HW2 1998   5.837   1.578   6.558
  367SOL     OW 1999   5.886   1.254   6.857
  367SOL    HW1 2000   5.858   1.159   6.842
  367SOL    HW2 2001   5.861   1.282   6.950
  368SOL     OW 2002   0.590   2.375   5.691
  368SOL    HW1 2003   0.612   2.289   5.645
  368SOL    HW2 2004   0.608   2.451   5.629
  369SOL     OW 2005   6.235   3.928   1.036
  369SOL    HW1 2006   6.242   3.828   1.044
  369SOL    HW2 2007   6.312   3.962   0.981
  370SOL     OW 2008   1.588   2.492   3.690
  370SOL    HW1 2009   1.530   2.537   3.758
  370SOL    HW2 2010   1.531   2.447   3.621
  371SOL     OW 2011   1.135   4.876   6.734
  371SOL    HW1 2012   1.231   4.850   6.738
  371SOL    HW2 2013   1.099   4.886   6.826
  372SOL     OW 2014   3.025   6.179   6.259
  372SOL    HW1 2015   2.945   6.205   6.206
  372SOL    HW2 2016   3.108   6.208   6.210
  373SOL     OW 2017   6.141   4.445   3.302
  373SOL    HW1 2018   6.043   4.448   3.285
  373SOL    HW2 2019   6.158   4.455   3.400
  374SOL     OW 2020   2.840   1.439   2.761
  374SOL    HW1 2021   2.763   1.388   2.722
  374SOL    HW2 2022   2.920   1.429   2.702
  375SOL     OW 2023   0.802   5.884   4.281
  375SOL    HW1 2024   0.772   5.809   4.339
  375SOL    HW2 2025   0.883   5.927   4.322
  376SOL     OW 2026   3.745   0.714   3.432
  376SOL    HW1 2027   3.827   0.665   3.403
  376SOL    HW2 2028   3.721   0.685   3.525
  377SOL     OW 2029   1.770   2.156   0.119
  377SOL    HW1 2030   1.744   2.240   0.167
  377SOL    HW2 2031   1.825   2.179   0.039
  378SOL     OW 2032   4.559   1.576   2.618
  378SOL    HW1 2033   4.466   1.599   2.646
  378SOL    HW2 2034   4.561   1.559   2.520
  379SOL     OW 2035   4.799   1.767   6.017
  379SOL    HW1 2036   4.746   1.817   5.949
  379SOL    HW2 2037   4.813   1.826   6.097
  380SOL     OW 2038   4.381   2.724   6.823
  380SOL    HW1 2039   4.337   2.784   6.757
  380SOL    HW2 2040   4.347   2.744   6.915
  381SOL     OW 2041   2.009   3.994   2.826
  381SOL    HW1 2042   2.040   3.905   2.860
  381SOL    HW2 2043   1.909   3.999   2.831
  382SOL     OW 2044   5.616   0.313   6.340
  382SOL    HW1 2045   5.676   0.237   6.364
  382SOL    HW2 2046   5.521   0.282   6.337
  383SOL     OW 2047   5.303   2.257   0.631
  383SOL    HW1 2048   5.238   2.301   0.692
  383SOL    HW2 2049   5.364   2.198   0.684
  384SOL     OW 2050   6.398   3.827   4.915
  384SOL    HW1 2051   6.430   3.888   4.842
  384SOL    HW2 2052   6.378   3.737   4.876
  385SOL     OW 2053   4.678   3.374   0.367
  385SOL    HW1 2054   4.753   3.378   0.300
  385SOL    HW2 2055   4.614   3.303   0.341
  386SOL     OW 2056   3.803   6.239   4.095
  386SOL    HW1 2057   3.774   6.287   4.178
  386SOL    HW2 2058   3.877   6.176   4.118
  387SOL     OW 2059   2.457   5.796   4.155
  387SOL    HW1 2060   2.442   5.809   4.057
  387SOL    HW2 2061   2.381   5.745   4.194
  388SOL     OW 2062   1.067   4.415   7.002
  388SOL    HW1 2063   1.076   4.498   0.032
  388SOL    HW2 2064   1.104   4.431   6.910
  389SOL     OW 2065   2.881   3.544   2.175
  389SOL    HW1 2066   2.814   3.612   2.145
  389SOL    HW2 2067   2.869   3.526   2.272
  390SOL     OW 2068   2.585   1.515   4.274
  390SOL    HW1 2069   2.504   1.569   4.254
  390SOL    HW2 2070   2.561   1.436   4.331
  391SOL     OW 2071   1.317   2.467   6.245
  391SOL    HW1 2072   1.274   2.404   6.310
  391SOL    HW2 2073   1.333   2.418   6.159
  392SOL     OW 2074   2.972   5.598   3.550
  392SOL    HW1 2075   2.996   5.639   3.638
  392SOL    HW2 2076   2.945   5.670   3.486
  393SOL     OW 2077   6.214   4.073   4.901
  393SOL    HW1 2078   6.188   4.081   4.805
  393SOL    HW2 2079   6.243   3.979   4.920
  394SOL     OW 2080   2.744   0.218   6.714
  394SOL    HW1 2081   2.791   0.304   6.695
  394SOL    HW2 2082   2.775   0.183   6.803
  395SOL     OW 2083   6.215   3.640   1.068
  395SOL    HW1 2084   6.222   3.568   0.998
  395SOL    HW2 2085   6.227   3.599   1.159
  396SOL     OW 2086   3.404   3.026   4.332
  396SOL    HW1 2087   3.407   3.075   4.419
  396SOL    HW2 2088   3.411   3.091   4.257
  397SOL     OW 2089   4.064   2.006   6.236
  397SOL    HW1 2090   4.022   2.088   6.197
  397SOL    HW2 2091   4.068   1.934   6.166
  398SOL     OW 2092   0.848   4.662   2.474
  398SOL    HW1 2093   0.840   4.733   2.543
  398SOL    HW2 2094   0.757   4.632   2.446
  399SOL     OW 2095   4.815   5.081   2.965
  399SOL    HW1 2096   4.749   5.038   3.027
  399SOL    HW2 2097   4.894   5.113   3.017
  400SOL     OW 2098   1.586   5.090   4.403
  400SOL    HW1 2099   1.575   5.068   4.500
  400SOL    HW2 2100   1.501   5.130   4.369
  401SOL     OW 2101   5.553   1.266   6.640
  401SOL    HW1 2102   5.507   1.181   6.615
  401SOL    HW2 2103   5.544   1.333   6.567
  402SOL     OW 2104   6.021   4.863   1.406
  402SOL    HW1 2105   5.942   4.838   1.462
  402SOL    HW2 2106   6.089   4.909   1.463
  403SOL     OW 2107   5.227   3.697   6.876
  403SOL    HW1 2108   5.215   3.689   6.975
  403SOL    HW2 2109   5.143   3.669   6.830
  404SOL     OW 2110   0.522   6.910   4.833
  404SOL    HW1 2111   0.619   6.888   4.833
  404SOL    HW2 2112   0.510   7.010   4.829
  405SOL     OW 2113   1.245   2.358   0.588
  405SOL    HW1 2114   1.296   2.376   0.672
  405SOL    HW2 2115   1.270   2.268   0.553
  406SOL     OW 2116   1.292   3.291   3.006
  406SOL    HW1 2117   1.204   3.252   2.981
  406SOL    HW2 2118   1.362   3.264   2.940
  407SOL     OW 2119   2.400   1.469   3.532
  407SOL    HW1 2120   2.500   1.465   3.543
  407SOL    HW2 2121   2.368   1.561   3.558
  408SOL     OW 2122   1.848   0.309   3.399
  408SOL    HW1 2123   1.786   0.246   3.352
  408SOL    HW2 2124   1.934   0.262   3.419
  409SOL     OW 2125   5.902   3.175   3.973
  409SOL    HW1 2126   5.942   3.223   3.894
  409SOL    HW2 2127   5.813   3.215   3.994
  410SOL     OW 2128   3.433   0.884   6.136
  410SOL    HW1 2129   3.523   0.927   6.148
  410SOL    HW2 2130   3.410   0.883   6.038
  411SOL     OW 2131   6.974   3.710   5.340
  411SOL    HW1 2132   6.881   3.680   5.320
  411SOL    HW2 2133   6.974   3.767   5.422
  412SOL     OW 2134   3.273   6.915   2.299
  412SOL    HW1 2135   3.363   6.957   2.299
  412SOL    HW2 2136   3.280   6.818   2.275
  413SOL     OW 2137   2.634   0.545   1.557
  413SOL    HW1 2138   2.638   0.555   1.458
  413SOL    HW2 2139   2.543   0.568   1.590
  414SOL     OW 2140   4.585   3.969   0.166
  414SOL    HW1 2141   4.574   3.992   0.262
  414SOL    HW2 2142   4.553   3.875   0.150
  415SOL     OW 2143   3.151   6.609   1.726
  415SOL    HW1 2144   3.176   6.706   1.720
  415SOL    HW2 2145   3.198   6.558   1.653
  416SOL     OW 2146   3.653   5.854   5.569
  416SOL    HW1 2147   3.747   5.877   5.593
  416SOL    HW2 2148   3.607   5.811   5.647
  417SOL     OW 2149   4.168   5.911   0.816
  417SOL    HW1 2150   4.180   5.968   0.897
  417SOL    HW2 2151   4.213   5.823   0.830
  418SOL     OW 2152   5.656   4.599   0.691
  418SOL    HW1 2153   5.671   4.691   0.726
  418SOL    HW2 2154   5.589   4.602   0.617
  419SOL     OW 2155   6.374   6.371   1.007
  419SOL    HW1 2156   6.409   6.366   0.914
  419SOL    HW2 2157   6.288   6.320   1.013
  420SOL     OW 2158   4.337   4.133   6.948
  420SOL    HW1 2159   4.404   4.059   6.951
  420SOL    HW2 2160   4.383   4.221   6.958
  421SOL     OW 2161   1.387   5.699   6.492
  421SOL    HW1 2162   1.324   5.737   6.559
  421SOL    HW2 2163   1.455   5.642   6.538
  422SOL     OW 2164   5.874   3.041   6.593
  422SOL    HW1 2165   5.940   3.019   6.521
  422SOL    HW2 2166   5.847   2.957   6.641
  423SOL     OW 2167   0.804   2.732   6.075
  423SOL    HW1 2168   0.749   2.663   6.122
  423SOL    HW2 2169   0.877   2.765   6.136
  424SOL     OW 2170   2.446   4.143   6.943
  424SOL    HW1 2171   2.387   4.063   6.952
  424SOL    HW2 2172   2.537   4.122   6.981
  425SOL     OW 2173   3.158   0.947   0.571
  425SOL    HW1 2174   3.140   0.871   0.633
  425SOL    HW2 2175   3.083   1.013   0.577
  426SOL     OW 2176   5.540   4.155   5.849
  426SOL    HW1 2177   5.468   4.103   5.803
  426SOL    HW2 2178   5.498   4.226   5.907
  427SOL     OW 2179   5.236   3.767   0.850
  427SOL    HW1 2180   5.174   3.690   0.864
  427SOL    HW2 2181   5.314   3.739   0.796
  428SOL     OW 2182   3.795   1.286   4.905
  428SOL    HW1 2183   3.745   1.281   4.819
  428SOL    HW2 2184   3.875   1.226   4.901
  429SOL     OW 2185   2.236   5.300   6.927
  429SOL    HW1 2186   2.166   5.252   6.874
  429SOL    HW2 2187   2.295   5.352   6.866
  430SOL     OW 2188   1.418   6.521   5.071
  430SOL    HW1 2189   1.404   6.592   5.140
  430SOL    HW2 2190   1.420   6.431   5.116
  431SOL     OW 2191   3.753   1.795   6.932
  431SOL    HW1 2192   3.839   1.772   6.887
  431SOL    HW2 2193   3.691   1.717   6.926
  432SOL     OW 2194   0.337   2.108   1.062
  432SOL    HW1 2195   0.415   2.094   1.001
  432SOL    HW2 2196   0.329   2.205   1.083
  433SOL     OW 2197   2.950   5.824   4.864
  433SOL    HW1 2198   2.950   5.868   4.774
  433SOL    HW2 2199   2.925   5.727   4.853
  434SOL     OW 2200   6.970   3.766   1.034
  434SOL    HW1 2201   7.022   3.684   1.060
  434SOL    HW2 2202   6.886   3.738   0.987
  435SOL     OW 2203   3.580   4.075   0.421
  435SOL    HW1 2204   3.671   4.074   0.463
  435SOL    HW2 2205   3.587   4.113   0.328
  436SOL     OW 2206   2.900   1.023   6.879
  436SOL    HW1 2207   2.804   1.037   6.853
  436SOL    HW2 2208   2.958   1.087   6.829
  437SOL     OW 2209   0.175   6.802   6.423
  437SOL    HW1 2210   0.112   6.859   6.369
  437SOL    HW2 2211   0.234   6.860   6.478
  438SOL     OW 2212   1.601   2.798   2.100
  438SOL    HW1 2213   1.519   2.822   2.152
  438SOL    HW2 2214   1.673   2.769   2.163
  439SOL     OW 2215   5.908   4.832   2.673
  439SOL    HW1 2216   5.857   4.918   2.678
  439SOL    HW2 2217   5.887   4.787   2.586
  440SOL     OW 2218   1.241   3.286   3.809
  440SOL    HW1 2219   1.264   3.232   3.890
  440SOL    HW2 2220   1.241   3.227   3.728
  441SOL     OW 2221   0.887   1.084   3.807
  441SOL    HW1 2222   0.920   1.141   3.732
  441SOL    HW2 2223   0.832   1.009   3.770
  442SOL     OW 2224   0.014   4.363   0.325
  442SOL    HW1 2225   6.945   4.391   0.345
  442SOL    HW2 2226   0.051   4.312   0.403
  443SOL     OW 2227   0.552   4.213   5.849
  443SOL    HW1 2228   0.546   4.250   5.942
  443SOL    HW2 2229   0.536   4.286   5.783
  444SOL     OW 2230   4.362   3.502   5.975
  444SOL    HW1 2231   4.306   3.495   5.892
  444SOL    HW2 2232   4.344   3.590   6.019
  445SOL     OW 2233   1.736   4.663   2.786
  445SOL    HW1 2234   1.787   4.737   2.830
  445SOL    HW2 2235   1.799   4.593   2.753
  446SOL     OW 2236   4.791   4.591   3.884
  446SOL    HW1 2237   4.821   4.530   3.812
  446SOL    HW2 2238   4.843   4.573   3.968
  447SOL     OW 2239   6.911   5.560   0.465
  447SOL    HW1 2240   6.977   5.547   0.539
  447SOL    HW2 2241   6.819   5.568   0.503
  448SOL     OW 2242   4.997   0.619   5.486
  448SOL    HW1 2243   5.085   0.590   5.448
  448SOL    HW2 2244   4.924   0.599   5.420
  449SOL     OW 2245   6.091   0.733   4.827
  449SOL    HW1 2246   6.061   0.639   4.810
  449SOL    HW2 2247   6.106   0.780   4.740
  450SOL     OW 2248   6.450   6.309   3.884
  450SOL    HW1 2249   6.442   6.219   3.927
  450SOL    HW2 2250   6.469   6.377   3.955
  451SOL     OW 2251   0.671   2.841   3.331
  451SOL    HW1 2252   0.623   2.884   3.255
  451SOL    HW2 2253   0.609   2.833   3.409
  452SOL     OW 2254   0.078   4.771   6.548
  452SOL    HW1 2255   0.066   4.787   6.450
  452SOL    HW2 2256   0.031   4.842   6.600
  453SOL     OW 2257   3.189   0.824   5.812
  453SOL    HW1 2258   3.117   0.809   5.879
  453SOL    HW2 2259   3.155   0.799   5.721
  454SOL     OW 2260   1.045   6.247   6.877
  454SOL    HW1 2261   1.058   6.209   6.968
  454SOL    HW2 2262   1.065   6.345   6.879
  455SOL     OW 2263   5.384   1.072   5.703
  455SOL    HW1 2264   5.366   0.974   5.719
  455SOL    HW2 2265   5.377   1.092   5.606
  456SOL     OW 2266   4.529   5.694   6.623
  456SOL    HW1 2267   4.440   5.725   6.590
  456SOL    HW2 2268   4.582   5.656   6.548
  457SOL     OW 2269   1.662   5.125   2.629
  457SOL    HW1 2270   1.677   5.216   2.668
  457SOL    HW2 2271   1.589   5.079   2.680
  458SOL     OW 2272   6.463   5.492   6.574
  458SOL    HW1 2273   6.475   5.457   6.481
  458SOL    HW2 2274   6.447   5.590   6.571
  459SOL     OW 2275   2.152   0.804   2.674
  459SOL    HW1 2276   2.152   0.903   2.659
  459SOL    HW2 2277   2.093   0.783   2.751
  460SOL     OW 2278   6.356   1.785   3.358
  460SOL    HW1 2279   6.344   1.827   3.268
  460SOL    HW2 2280   6.391   1.692   3.346
  461SOL     OW 2281   4.641   6.449   5.420
  461SOL    HW1 2282   4.733   6.487   5.423
  461SOL    HW2 2283   4.580   6.503   5.479
  462SOL     OW 2284   2.712   3.345   6.383
  462SOL    HW1 2285   2.694   3.433   6.340
  462SOL    HW2 2286   2.775   3.357   6.460
  463SOL     OW 2287   6.502   5.560   1.580
  463SOL    HW1 2288   6.578   5.568   1.645
  463SOL    HW2 2289   6.442   5.640   1.589
  464SOL     OW 2290   2.150   1.049   5.500
  464SOL    HW1 2291   2.102   0.992   5.433
  464SOL    HW2 2292   2.181   1.133   5.456
  465SOL     OW 2293   6.264   2.520   4.133
  465SOL    HW1 2294   6.221   2.434   4.160
  465SOL    HW2 2295   6.239   2.541   4.038
  466SOL     OW 2296   1.618   0.059   3.362
  466SOL    HW1 2297   1.614   0.113   3.446
  466SOL    HW2 2298   1.646   6.991   3.384
  467SOL     OW 2299   1.757   0.519   5.091
  467SOL    HW1 2300   1.855   0.501   5.097
  467SOL    HW2 2301   1.741   0.617   5.079
  468SOL     OW 2302   3.184   4.474   0.819
  468SOL    HW1 2303   3.161   4.378   0.836
  468SOL    HW2 2304   3.153   4.530   0.896
  469SOL     OW 2305   2.244   5.239   0.443
  469SOL    HW1 2306   2.186   5.317   0.420
  469SOL    HW2 2307   2.300   5.262   0.522
  470SOL     OW 2308   3.803   1.194   2.747
  470SOL    HW1 2309   3.764   1.285   2.734
  470SOL    HW2 2310   3.731   1.131   2.777
  471SOL     OW 2311   2.450   2.321   5.239
  471SOL    HW1 2312   2.366   2.314   5.186
  471SOL    HW2 2313   2.468   2.233   5.283
  472SOL     OW 2314   3.369   4.233   5.884
  472SOL    HW1 2315   3.351   4.197   5.792
  472SOL    HW2 2316   3.438   4.177   5.928
  473SOL     OW 2317   0.934   4.233   2.590
  473SOL    HW1 2318   1.004   4.162   2.589
  473SOL    HW2 2319   0.978   4.323   2.580
  474SOL     OW 2320   3.978   4.842   4.432
  474SOL    HW1 2321   3.968   4.859   4.334
  474SOL    HW2 2322   3.892   4.863   4.479
  475SOL     OW 2323   0.615   6.760   6.332
  475SOL    HW1 2324   0.580   6.836   6.388
  475SOL    HW2 2325   0.652   6.689   6.392
  476SOL     OW 2326   6.891   4.614   2.627
  476SOL    HW1 2327   6.878   4.517   2.646
  476SOL    HW2 2328   6.989   4.634   2.623
  477SOL     OW 2329   1.473   5.369   4.223
  477SOL    HW1 2330   1.517   5.435   4.284
  477SOL    HW2 2331   1.486   5.397   4.128
  478SOL     OW 2332   2.107   5.072   3.356
  478SOL    HW1 2333   2.149   5.096   3.444
  478SOL    HW2 2334   2.168   5.012   3.305
  479SOL     OW 2335   3.545   2.191   0.798
  479SOL    HW1 2336   3.603   2.207   0.718
  479SOL    HW2 2337   3.602   2.190   0.881
  480SOL     OW 2338   0.903   0.139   2.608
  480SOL    HW1 2339   0.990   0.125   2.560
  480SOL    HW2 2340   0.914   0.212   2.675
  481SOL     OW 2341   4.244   0.008   1.097
  481SOL    HW1 2342   4.310   0.080   1.119
  481SOL    HW2 2343   4.292   6.955   1.055
  482SOL     OW 2344   5.501   4.250   2.004
  482SOL    HW1 2345   5.576   4.311   2.026
  482SOL    HW2 2346   5.420   4.275   2.058
  483SOL     OW 2347   5.583   1.725   1.547
  483SOL    HW1 2348   5.501   1.689   1.501
  483SOL    HW2 2349   5.664   1.702   1.493
  484SOL     OW 2350   6.424   2.093   5.082
  484SOL    HW1 2351   6.502   2.131   5.132
  484SOL    HW2 2352   6.347   2.156   5.086
  485SOL     OW 2353   3.704   5.114   2.385
  485SOL    HW1 2354   3.665   5.147   2.299
  485SOL    HW2 2355   3.655   5.156   2.461
  486SOL     OW 2356   0.696   0.643   0.735
  486SOL    HW1 2357   0.736   0.649   0.644
  486SOL    HW2 2358   0.635   0.722   0.749
  487SOL     OW 2359   0.094   2.576   6.729
  487SOL    HW1 2360   0.014   2.517   6.723
  487SOL    HW2 2361   0.072   2.665   6.687
  488SOL     OW 2362   0.248   2.131   2.526
  488SOL    HW1 2363   0.269   2.216   2.478
  488SOL    HW2 2364   0.155   2.102   2.502
  489SOL     OW 2365   3.539   5.864   6.792
  489SOL    HW1 2366   3.489   5.788   6.752
  489SOL    HW2 2367   3.636   5.840   6.797
  490SOL     OW 2368   5.729   6.226   4.683
  490SOL    HW1 2369   5.743   6.245   4.586
  490SOL    HW2 2370   5.809   6.259   4.735
  491SOL     OW 2371   7.008   2.852   2.899
  491SOL    HW1 2372   0.062   2.870   2.958
  491SOL    HW2 2373   6.952   2.935   2.892
  492SOL     OW 2374   2.060   0.619   5.300
  492SOL    HW1 2375   2.135   0.622   5.366
  492SOL    HW2 2376   2.021   0.527   5.297
  493SOL     OW 2377   6.681   4.243   4.706
  493SOL    HW1 2378   6.645   4.239   4.799
  493SOL    HW2 2379   6.688   4.151   4.668
  494SOL     OW 2380   6.776   0.589   0.981
  494SOL    HW1 2381   6.719   0.662   0.942
  494SOL    HW2 2382   6.741   0.500   0.951
  495SOL     OW 2383   4.414   4.383   1.651
  495SOL    HW1 2384   4.500   4.349   1.614
  495SOL    HW2 2385   4.403   4.348   1.744
  496SOL     OW 2386   5.629   3.111   3.733
  496SOL    HW1 2387   5.628   3.186   3.799
  496SOL    HW2 2388   5.668   3.030   3.776
  497SOL     OW 2389   4.269   0.913   4.356
  497SOL    HW1 2390   4.326   0.863   4.421
  497SOL    HW2 2391   4.189   0.949   4.403
  498SOL     OW 2392   1.097   3.109   2.615
  498SOL    HW1 2393   1.089   3.056   2.700
  498SOL    HW2 2394   1.010   3.106   2.566
  499SOL     OW 2395   3.276   1.311   4.937
  499SOL    HW1 2396   3.178   1.331   4.943
  499SOL    HW2 2397   3.312   1.344   4.850
  500SOL     OW 2398   0.583   3.997   2.535
  500SOL    HW1 2399   0.483   4.004   2.540
  500SOL    HW2 2400   0.617   3.948   2.615
  501SOL     OW 2401   0.762   3.693   6.252
  501SOL    HW1 2402   0.668   3.726   6.250
  501SOL    HW2 2403   0.825   3.771   6.254
  502SOL     OW 2404   3.360   4.940   6.475
  502SOL    HW1 2405   3.366   4.850   6.519
  502SOL    HW2 2406   3.372   5.012   6.544
  503SOL     OW 2407   5.292   5.228   5.208
  503SOL    HW1 2408   5.344   5.195   5.287
  503SOL    HW2 2409   5.316   5.174   5.127
  504SOL     OW 2410   2.107   5.976   4.394
  504SOL    HW1 2411   2.016   5.947   4.423
  504SOL    HW2 2412   2.149   6.031   4.466
  505SOL     OW 2413   4.033   7.002   6.035
  505SOL    HW1 2414   4.117   0.031   6.042
  505SOL    HW2 2415   4.017   6.977   5.940
  506SOL     OW 2416   1.914   4.224   6.544
  506SOL    HW1 2417   1.997   4.201   6.493
  506SOL    HW2 2418   1.894   4.153   6.611
  507SOL     OW 2419   3.219   1.491   3.949
  507SOL    HW1 2420   3.200   1.557   3.877
  507SOL    HW2 2421   3.299   1.521   4.002
  508SOL     OW 2422   6.633   3.808   3.974
  508SOL    HW1 2423   6.541   3.768   3.967
  508SOL    HW2 2424   6.692   3.745   4.025
  509SOL     OW 2425   4.570   2.136   1.411
  509SOL    HW1 2426   4.648   2.091   1.454
  509SOL    HW2 2427   4.530   2.075   1.344
  510SOL     OW 2428   0.410   3.807   4.093
  510SOL    HW1 2429   0.372   3.848   4.010
  510SOL    HW2 2430   0.495   3.853   4.117
  511SOL     OW 2431   0.117   6.850   0.747
  511SOL    HW1 2432   0.047   6.903   0.699
  511SOL    HW2 2433   0.208   6.885   0.722
  512SOL     OW 2434   0.186   3.755   6.487
  512SOL    HW1 2435   0.237   3.670   6.495
  512SOL    HW2 2436   0.095   3.744   6.528
  513SOL     OW 2437   6.463   5.809   4.205
  513SOL    HW1 2438   6.522   5.824   4.126
  513SOL    HW2 2439   6.516   5.824   4.289
  514SOL     OW 2440   5.656   1.697   3.911
  514SOL    HW1 2441   5.624   1.623   3.969
  514SOL    HW2 2442   5.585   1.768   3.906
  515SOL     OW 2443   2.280   6.181   6.822
  515SOL    HW1 2444   2.370   6.192   6.781
  515SOL    HW2 2445   2.229   6.267   6.815
  516SOL     OW 2446   1.870   4.977   1.695
  516SOL    HW1 2447   1.909   4.931   1.774
  516SOL    HW2 2448   1.896   5.073   1.695
  517SOL     OW 2449   4.776   0.298   1.134
  517SOL    HW1 2450   4.702   0.355   1.168
  517SOL    HW2 2451   4.753   0.201   1.146
  518SOL     OW 2452   2.227   2.721   0.557
  518SOL    HW1 2453   2.262   2.746   0.467
  518SOL    HW2 2454   2.272   2.775   0.628
  519SOL     OW 2455   0.878   6.277   0.163
  519SOL    HW1 2456   0.976   6.257   0.158
  519SOL    HW2 2457   0.832   6.237   0.083
  520SOL     OW 2458   5.510   4.859   5.478
  520SOL    HW1 2459   5.445   4.875   5.404
  520SOL    HW2 2460   5.525   4.761   5.489
  521SOL     OW 2461   6.739   1.373   0.856
  521SOL    HW1 2462   6.760   1.463   0.818
  521SOL    HW2 2463   6.784   1.303   0.802
  522SOL     OW 2464   4.104   3.553   4.265
  522SOL    HW1 2465   4.088   3.638   4.215
  522SOL    HW2 2466   4.110   3.477   4.200
  523SOL     OW 2467   0.266   6.855   5.202
  523SOL    HW1 2468   0.203   6.895   5.135
  523SOL    HW2 2469   0.317   6.928   5.247
  524SOL     OW 2470   3.059   0.667   5.545
  524SOL    HW1 2471   3.018   0.756   5.527
  524SOL    HW2 2472   3.042   0.606   5.467
  525SOL     OW 2473   2.273   3.528   7.002
  525SOL    HW1 2474   2.215   3.506   6.924
  525SOL    HW2 2475   2.368   3.506   6.982
  526SOL     OW 2476   3.388   6.001   4.547
  526SOL    HW1 2477   3.439   6.004   4.461
  526SOL    HW2 2478   3.342   5.913   4.555
  527SOL     OW 2479   1.001   1.674   6.567
  527SOL    HW1 2480   0.915   1.656   6.520
  527SOL    HW2 2481   1.063   1.723   6.505
  528SOL     OW 2482   2.449   0.139   5.249
  528SOL    HW1 2483   2.505   0.085   5.312
  528SOL    HW2 2484   2.455   0.236   5.273
  529SOL     OW 2485   0.002   4.811   3.744
  529SOL    HW1 2486   0.078   4.755   3.710
  529SOL    HW2 2487   7.022   4.803   3.843
  530SOL     OW 2488   2.202   3.079   5.394
  530SOL    HW1 2489   2.160   2.989   5.406
  530SOL    HW2 2490   2.282   3.071   5.334
  531SOL     OW 2491   0.289   0.269   1.112
  531SOL    HW1 2492   0.227   0.242   1.039
  531SOL    HW2 2493   0.300   0.192   1.175
  532SOL     OW 2494   2.059   0.590   5.624
  532SOL    HW1 2495   1.988   0.657   5.647
  532SOL    HW2 2496   2.015   0.505   5.592
  533SOL     OW 2497   5.298   6.983   4.418
  533SOL    HW1 2498   5.345   6.930   4.489
  533SOL    HW2 2499   5.366   0.001   4.359
  534SOL     OW 2500   3.895   5.883   2.004
  534SOL    HW1 2501   3.974   5.822   2.009
  534SOL    HW2 2502   3.813   5.833   2.034
  535SOL     OW 2503   6.863   3.389   3.558
  535SOL    HW1 2504   6.924   3.369   3.635
  535SOL    HW2 2505   6.888   3.477   3.519
  536SOL     OW 2506   1.119   5.552   0.928
  536SOL    HW1 2507   1.090   5.645   0.952
  536SOL    HW2 2508   1.139   5.501   1.011
  537SOL     OW 2509   1.909   0.404   2.514
  537SOL    HW1 2510   1.995   0.400   2.565
  537SOL    HW2 2511   1.849   0.330   2.544
  538SOL     OW 2512   1.112   5.419   3.428
  538SOL    HW1 2513   1.178   5.365   3.480
  538SOL    HW2 2514   1.128   5.408   3.330
  539SOL     OW 2515   1.660   4.880   1.961
  539SOL    HW1 2516   1.585   4.865   2.025
  539SOL    HW2 2517   1.678   4.795   1.910
  540SOL     OW 2518   0.904   2.198   2.189
  540SOL    HW1 2519   0.894   2.123   2.255
  540SOL    HW2 2520   0.851   2.178   2.107
  541SOL     OW 2521   3.020   5.744   5.733
  541SOL    HW1 2522   3.027   5.795   5.647
  541SOL    HW2 2523   3.002   5.808   5.808
  542SOL     OW 2524   6.090   5.457   6.594
  542SOL    HW1 2525   5.990   5.464   6.590
  542SOL    HW2 2526   6.116   5.397   6.668
  543SOL     OW 2527   0.432   5.775   0.075
  543SOL    HW1 2528   0.372   5.835   0.022
  543SOL    HW2 2529   0.453   5.818   0.163
  544SOL     OW 2530   1.213   5.532   0.559
  544SOL    HW1 2531   1.266   5.515   0.643
  544SOL    HW2 2532   1.256   5.484   0.483
  545SOL     OW 2533   3.923   1.792   3.376
  545SOL    HW1 2534   3.932   1.693   3.384
  545SOL    HW2 2535   3.886   1.815   3.286
  546SOL     OW 2536   0.736   3.850   0.332
  546SOL    HW1 2537   0.836   3.857   0.324
  546SOL    HW2 2538   0.694   3.889   0.250
  547SOL     OW 2539   2.946   3.209   0.202
  547SOL    HW1 2540   3.012   3.262   0.255
  547SOL    HW2 2541   2.983   3.191   0.111
  548SOL     OW 2542   3.475   3.141   3.816
  548SOL    HW1 2543   3.414   3.064   3.796
  548SOL    HW2 2544   3.510   3.179   3.731
  549SOL     OW 2545   6.534   3.276   1.425
  549SOL    HW1 2546   6.558   3.366   1.388
  549SOL    HW2 2547   6.435   3.272   1.439
  550SOL     OW 2548   0.367   4.005   2.101
  550SOL    HW1 2549   0.376   3.914   2.143
  550SOL    HW2 2550   0.394   4.000   2.005
  551SOL     OW 2551   0.174   2.116   0.043
  551SOL    HW1 2552   0.149   2.035   7.014
  551SOL    HW2 2553   0.236   2.089   0.116
  552SOL     OW 2554   4.493   6.231   0.525
  552SOL    HW1 2555   4.525   6.230   0.620
  552SOL    HW2 2556   4.422   6.300   0.515
  553SOL     OW 2557   1.594   2.319   1.600
  553SOL    HW1 2558   1.613   2.239   1.543
  553SOL    HW2 2559   1.678   2.372   1.612
  554SOL     OW 2560   5.758   6.121   5.048
  554SOL    HW1 2561   5.767   6.156   5.141
  554SOL    HW2 2562   5.668   6.146   5.012
  555SOL     OW 2563   1.475   4.309   4.679
  555SOL    HW1 2564   1.539   4.334   4.607
  555SOL    HW2 2565   1.486   4.370   4.757
  556SOL     OW 2566   5.328   3.474   3.176
  556SOL    HW1 2567   5.275   3.538   3.232
  556SOL    HW2 2568   5.391   3.423   3.234
  557SOL     OW 2569   0.544   6.301   6.142
  557SOL    HW1 2570   0.526   6.262   6.052
  557SOL    HW2 2571   0.457   6.326   6.186
  558SOL     OW 2572   4.005   4.068   5.112
  558SOL    HW1 2573   4.049   4.111   5.191
  558SOL    HW2 2574   3.930   4.127   5.080
  559SOL     OW 2575   6.445   5.809   6.541
  559SOL    HW1 2576   6.477   5.821   6.447
  559SOL    HW2 2577   6.432   5.898   6.584
  560SOL     OW 2578   4.028   6.618   6.428
  560SOL    HW1 2579   4.050   6.714   6.413
  560SOL    HW2 2580   3.980   6.608   6.516
  561SOL     OW 2581   5.557   6.503   1.127
  561SOL    HW1 2582   5.481   6.561   1.156
  561SOL    HW2 2583   5.637   6.520   1.185
  562SOL     OW 2584   6.367   1.216   6.036
  562SOL    HW1 2585   6.301   1.150   6.072
  562SOL    HW2 2586   6.460   1.179   6.045
  563SOL     OW 2587   3.162   5.957   4.077
  563SOL    HW1 2588   3.065   5.967   4.102
  563SOL    HW2 2589   3.206   5.894   4.140
  564SOL     OW 2590   0.733   1.515   6.465
  564SOL    HW1 2591   0.727   1.569   6.549
  564SOL    HW2 2592   0.707   1.572   6.387
  565SOL     OW 2593   4.954   4.166   5.142
  565SOL    HW1 2594   4.886   4.202   5.079
  565SOL    HW2 2595   4.963   4.227   5.220
  566SOL     OW 2596   5.004   5.208   3.135
  566SOL    HW1 2597   5.038   5.137   3.197
  566SOL    HW2 2598   4.955   5.278   3.187
  567SOL     OW 2599   4.038   3.177   4.699
  567SOL    HW1 2600   4.065   3.082   4.712
  567SOL    HW2 2601   4.064   3.207   4.607
  568SOL     OW 2602   2.291   1.282   6.897
  568SOL    HW1 2603   2.317   1.363   6.844
  568SOL    HW2 2604   2.258   1.310   6.987
  569SOL     OW 2605   2.591   3.565   0.276
  569SOL    HW1 2606   2.629   3.482   0.317
  569SOL    HW2 2607   2.491   3.558   0.275
  570SOL     OW 2608   6.693   5.980   1.020
  570SOL    HW1 2609   6.617   6.021   1.070
  570SOL    HW2 2610   6.775   5.984   1.077
  571SOL     OW 2611   4.276   5.622   2.885
  571SOL    HW1 2612   4.193   5.568   2.899
  571SOL    HW2 2613   4.325   5.588   2.805
  572SOL     OW 2614   1.739   3.934   5.275
  572SOL    HW1 2615   1.657   3.881   5.295
  572SOL    HW2 2616   1.788   3.893   5.198
  573SOL     OW 2617   3.907   2.122   5.916
  573SOL    HW1 2618   3.873   2.208   5.954
  573SOL    HW2 2619   3.903   2.127   5.816
  574SOL     OW 2620   2.677   1.932   4.208
  574SOL    HW1 2621   2.774   1.957   4.210
  574SOL    HW2 2622   2.659   1.863   4.278
  575SOL     OW 2623   5.606   2.491   7.012
  575SOL    HW1 2624   5.706   2.496   7.014
  575SOL    HW2 2625   5.577   2.442   6.931
  576SOL     OW 2626   0.483   1.995   2.573
  576SOL    HW1 2627   0.392   2.038   2.571
  576SOL    HW2 2628   0.540   2.043   2.640
  577SOL     OW 2629   3.420   2.021   3.489
  577SOL    HW1 2630   3.423   1.924   3.512
  577SOL    HW2 2631   3.325   2.053   3.493
  578SOL     OW 2632   0.472   3.350   4.230
  578SOL    HW1 2633   0.558   3.388   4.265
  578SOL    HW2 2634   0.400   3.418   4.237
  579SOL     OW 2635   4.382   3.368   0.529
  579SOL    HW1 2636   4.396   3.290   0.468
  579SOL    HW2 2637   4.309   3.346   0.594
  580SOL     OW 2638   0.464   5.897   0.316
  580SOL    HW1 2639   0.522   5.975   0.337
  580SOL    HW2 2640   0.369   5.921   0.333
  581SOL     OW 2641   3.785   3.603   2.750
  581SOL    HW1 2642   3.869   3.656   2.734
  581SOL    HW2 2643   3.792   3.516   2.701
  582SOL     OW 2644   5.871   3.909   2.206
  582SOL    HW1 2645   5.779   3.934   2.175
  582SOL    HW2 2646   5.889   3.951   2.295
  583SOL     OW 2647   1.876   5.196   6.919
  583SOL    HW1 2648   1.944   5.182   6.847
  583SOL    HW2 2649   1.791   5.150   6.894
  584SOL     OW 2650   0.471   5.259   4.322
  584SOL    HW1 2651   0.561   5.227   4.293
  584SOL    HW2 2652   0.473   5.278   4.420
  585SOL     OW 2653   0.078   1.501   6.340
  585SOL    HW1 2654   0.018   1.442   6.394
  585SOL    HW2 2655   0.070   1.595   6.372
  586SOL     OW 2656   2.280   6.097   0.319
  586SOL    HW1 2657   2.367   6.057   0.289
  586SOL    HW2 2658   2.282   6.196   0.306
  587SOL     OW 2659   1.014   3.413   5.422
  587SOL    HW1 2660   1.058   3.367   5.344
  587SOL    HW2 2661   1.084   3.446   5.485
  588SOL     OW 2662   2.869   6.811   1.496
  588SOL    HW1 2663   2.875   6.891   1.437
  588SOL    HW2 2664   2.914   6.830   1.583
  589SOL     OW 2665   4.564   5.446   2.664
  589SOL    HW1 2666   4.584   5.351   2.644
  589SOL    HW2 2667   4.465   5.458   2.675
  590SOL     OW 2668   6.745   2.118   1.856
  590SOL    HW1 2669   6.759   2.122   1.757
  590SOL    HW2 2670   6.710   2.206   1.888
  591SOL     OW 2671   3.642   0.240   2.874
  591SOL    HW1 2672   3.666   0.242   2.971
  591SOL    HW2 2673   3.590   0.157   2.854
  592SOL     OW 2674   5.475   0.703   6.941
  592SOL    HW1 2675   5.423   0.785   6.918
  592SOL    HW2 2676   5.557   0.698   6.884
  593SOL     OW 2677   6.150   1.694   4.063
  593SOL    HW1 2678   6.177   1.678   3.969
  593SOL    HW2 2679   6.062   1.742   4.065
  594SOL     OW 2680   4.785   2.900   1.205
  594SOL    HW1 2681   4.781   2.999   1.222
  594SOL    HW2 2682   4.816   2.853   1.288
  595SOL     OW 2683   3.707   6.664   4.017
  595SOL    HW1 2684   3.634   6.623   3.963
  595SOL    HW2 2685   3.796   6.634   3.981
  596SOL     OW 2686   1.026   4.491   2.561
  596SOL    HW1 2687   0.954   4.555   2.533
  596SOL    HW2 2688   1.108   4.543   2.588
  597SOL     OW 2689   3.867   1.693   5.509
  597SOL    HW1 2690   3.798   1.625   5.483
  597SOL    HW2 2691   3.909   1.666   5.595
  598SOL     OW 2692   3.531   4.063   0.993
  598SOL    HW1 2693   3.525   3.985   1.056
  598SOL    HW2 2694   3.496   4.036   0.903
  599SOL     OW 2695   6.682   6.128   2.786
  599SOL    HW1 2696   6.768   6.175   2.806
  599SOL    HW2 2697   6.653   6.076   2.866
  600SOL     OW 2698   2.465   0.789   0.818
  600SOL    HW1 2699   2.457   0.763   0.721
  600SOL    HW2 2700   2.401   0.735   0.872
  601SOL     OW 2701   2.535   5.049   3.372
  601SOL    HW1 2702   2.591   5.049   3.289
  601SOL    HW2 2703   2.474   5.128   3.371
  602SOL     OW 2704   1.117   0.359   1.510
  602SOL    HW1 2705   1.104   0.262   1.530
  602SOL    HW2 2706   1.141   0.370   1.413
  603SOL     OW 2707   3.981   2.163   3.523
  603SOL    HW1 2708   4.008   2.190   3.615
  603SOL    HW2 2709   3.922   2.082   3.528
  604SOL     OW 2710   0.865   4.046   5.454
  604SOL    HW1 2711   0.863   4.134   5.501
  604SOL    HW2 2712   0.794   4.044   5.384
  605SOL     OW 2713   5.848   0.584   4.728
  605SOL    HW1 2714   5.818   0.521   4.657
  605SOL    HW2 2715   5.810   0.556   4.817
  606SOL     OW 2716   3.752   0.211   3.169
  606SOL    HW1 2717   3.716   0.285   3.226
  606SOL    HW2 2718   3.852   0.218   3.164
  607SOL     OW 2719   4.841   0.959   3.867
  607SOL    HW1 2720   4.934   0.994   3.852
  607SOL    HW2 2721   4.844   0.859   3.869
  608SOL     OW 2722   4.832   1.658   1.253
  608SOL    HW1 2723   4.837   1.579   1.192
  608SOL    HW2 2724   4.742   1.660   1.297
  609SOL     OW 2725   2.936   3.735   4.238
  609SOL    HW1 2726   2.902   3.646   4.270
  609SOL    HW2 2727   2.944   3.797   4.316
  610SOL     OW 2728   5.480   2.181   5.057
  610SOL    HW1 2729   5.423   2.155   5.135
  610SOL    HW2 2730   5.452   2.129   4.976
  611SOL     OW 2731   6.921   0.126   0.847
  611SOL    HW1 2732   6.843   0.163   0.898
  611SOL    HW2 2733   6.906   0.138   0.749
  612SOL     OW 2734   3.258   5.645   5.611
  612SOL    HW1 2735   3.237   5.548   5.602
  612SOL    HW2 2736   3.197   5.686   5.678
  613SOL     OW 2737   3.702   2.275   6.657
  613SOL    HW1 2738   3.650   2.343   6.604
  613SOL    HW2 2739   3.665   2.269   6.749
  614SOL     OW 2740   5.161   4.255   0.764
  614SOL    HW1 2741   5.099   4.185   0.730
  614SOL    HW2 2742   5.220   4.216   0.835
  615SOL     OW 2743   6.137   6.262   1.040
  615SOL    HW1 2744   6.044   6.297   1.029
  615SOL    HW2 2745   6.166   6.215   0.957
  616SOL     OW 2746   5.839   0.849   4.870
  616SOL    HW1 2747   5.813   0.789   4.946
  616SOL    HW2 2748   5.913   0.807   4.818
  617SOL     OW 2749   6.938   5.326   5.668
  617SOL    HW1 2750   6.963   5.376   5.750
  617SOL    HW2 2751   6.936   5.228   5.688
  618SOL     OW 2752   6.228   3.610   0.313
  618SOL    HW1 2753   6.290   3.546   0.360
  618SOL    HW2 2754   6.158   3.641   0.378
  619SOL     OW 2755   2.932   0.409   6.217
  619SOL    HW1 2756   2.867   0.463   6.270
  619SOL    HW2 2757   2.947   0.321   6.262
  620SOL     OW 2758   5.738   1.668   2.397
  620SOL    HW1 2759   5.752   1.701   2.304
  620SOL    HW2 2760   5.798   1.590   2.415
  621SOL     OW 2761   3.103   0.569   6.480
  621SOL    HW1 2762   3.107   0.636   6.554
  621SOL    HW2 2763   3.109   0.616   6.392
  622SOL     OW 2764   0.968   2.114   4.839
  622SOL    HW1 2765   0.950   2.026   4.883
  622SOL    HW2 2766   0.885   2.170   4.840
  623SOL     OW 2767   5.993   0.399   4.146
  623SOL    HW1 2768   6.082   0.418   4.187
  623SOL    HW2 2769   5.923   0.454   4.191
  624SOL     OW 2770   6.763   0.369   6.674
  624SOL    HW1 2771   6.732   0.327   6.759
  624SOL    HW2 2772   6.685   0.409   6.626
  625SOL     OW 2773   2.866   1.971   0.408
  625SOL    HW1 2774   2.828   1.950   0.499
  625SOL    HW2 2775   2.878   1.886   0.357
  626SOL     OW 2776   6.880   6.349   4.144
  626SOL    HW1 2777   6.844   6.262   4.178
  626SOL    HW2 2778   6.914   6.404   4.220
  627SOL     OW 2779   6.703   6.932   0.088
  627SOL    HW1 2780   6.750   6.977   0.164
  627SOL    HW2 2781   6.647   6.857   0.124
  628SOL     OW 2782   4.126   4.735   6.117
  628SOL    HW1 2783   4.195   4.702   6.182
  628SOL    HW2 2784   4.090   4.823   6.148
  629SOL     OW 2785   1.422   6.784   6.623
  629SOL    HW1 2786   1.343   6.845   6.617
  629SOL    HW2 2787   1.391   6.690   6.638
  630SOL     OW 2788   6.143   1.428   1.414
  630SOL    HW1 2789   6.135   1.396   1.508
  630SOL    HW2 2790   6.108   1.522   1.408
  631SOL     OW 2791   1.675   2.227   3.846
  631SOL    HW1 2792   1.625   2.196   3.765
  631SOL    HW2 2793   1.667   2.326   3.854
  632SOL     OW 2794   2.635   3.913   0.105
  632SOL    HW1 2795   2.542   3.878   0.119
  632SOL    HW2 2796   2.674   3.871   0.023
  633SOL     OW 2797   1.879   5.842   1.018
  633SOL    HW1 2798   1.883   5.846   0.918
  633SOL    HW2 2799   1.823   5.765   1.046
  634SOL     OW 2800   2.892   3.475   4.303
  634SOL    HW1 2801   2.869   3.459   4.400
  634SOL    HW2 2802   2.835   3.417   4.246
  635SOL     OW 2803   5.710   0.448   6.696
  635SOL    HW1 2804   5.793   0.426   6.647
  635SOL    HW2 2805   5.709   0.546   6.717
  636SOL     OW 2806   2.862   0.555   5.714
  636SOL    HW1 2807   2.953   0.590   5.694
  636SOL    HW2 2808   2.865   0.496   5.795
  637SOL     OW 2809   6.677   0.481   2.780
  637SOL    HW1 2810   6.588   0.437   2.769
  637SOL    HW2 2811   6.675   0.571   2.736
  638SOL     OW 2812   6.496   2.745   5.027
  638SOL    HW1 2813   6.424   2.678   5.005
  638SOL    HW2 2814   6.509   2.806   4.949
  639SOL     OW 2815   5.653   4.346   2.309
  639SOL    HW1 2816   5.688   4.300   2.391
  639SOL    HW2 2817   5.556   4.325   2.298
  640SOL     OW 2818   0.661   2.541   2.114
  640SOL    HW1 2819   0.726   2.615   2.095
  640SOL    HW2 2820   0.584   2.578   2.167
  641SOL     OW 2821   2.456   4.942   4.345
  641SOL    HW1 2822   2.367   4.907   4.317
  641SOL    HW2 2823   2.528   4.887   4.304
  642SOL     OW 2824   0.860   4.084   4.695
  642SOL    HW1 2825   0.854   4.162   4.758
  642SOL    HW2 2826   0.918   4.108   4.617
  643SOL     OW 2827   4.678   4.878   0.830
  643SOL    HW1 2828   4.629   4.897   0.745
  643SOL    HW2 2829   4.723   4.961   0.862
  644SOL     OW 2830   0.305   6.729   5.468
  644SOL    HW1 2831   0.315   6.798   5.540
  644SOL    HW2 2832   0.243   6.764   5.397
  645SOL     OW 2833   3.624   5.284   2.176
  645SOL    HW1 2834   3.549   5.324   2.123
  645SOL    HW2 2835   3.679   5.357   2.216
  646SOL     OW 2836   3.843   1.883   4.331
  646SOL    HW1 2837   3.926   1.878   4.276
  646SOL    HW2 2838   3.849   1.818   4.407
  647SOL     OW 2839   3.671   2.681   6.119
  647SOL    HW1 2840   3.589   2.648   6.072
  647SOL    HW2 2841   3.749   2.678   6.057
  648SOL     OW 2842   6.289   1.002   3.117
  648SOL    HW1 2843   6.297   1.059   3.035
  648SOL    HW2 2844   6.333   0.914   3.100
  649SOL     OW 2845   2.154   5.128   0.961
  649SOL    HW1 2846   2.210   5.049   0.985
  649SOL    HW2 2847   2.059   5.110   0.985
  650SOL     OW 2848   6.790   3.660   0.839
  650SOL    HW1 2849   6.783   3.656   0.739
  650SOL    HW2 2850   6.731   3.591   0.880
  651SOL     OW 2851   0.936   0.599   4.023
  651SOL    HW1 2852   0.949   0.668   4.095
  651SOL    HW2 2853   0.965   0.637   3.936
  652SOL     OW 2854   4.028   6.265   1.363
  652SOL    HW1 2855   4.012   6.345   1.307
  652SOL    HW2 2856   3.942   6.235   1.405
  653SOL     OW 2857   1.156   0.063   2.402
  653SOL    HW1 2858   1.213   0.145   2.404
  653SOL    HW2 2859   1.212   7.007   2.419
  654SOL     OW 2860   1.143   0.197   5.549
  654SOL    HW1 2861   1.238   0.171   5.569
  654SOL    HW2 2862   1.116   0.156   5.462
  655SOL     OW 2863   0.472   3.950   1.859
  655SOL    HW1 2864   0.439   3.863   1.821
  655SOL    HW2 2865   0.486   4.015   1.784
  656SOL     OW 2866   3.433   6.434   0.421
  656SOL    HW1 2867   3.441   6.532   0.434
  656SOL    HW2 2868   3.514   6.388   0.458
  657SOL     OW 2869   3.759   3.889   3.144
  657SOL    HW1 2870   3.678   3.845   3.180
  657SOL    HW2 2871   3.825   3.905   3.218
  658SOL     OW 2872   1.742   1.353   4.742
  658SOL    HW1 2873   1.758   1.367   4.644
  658SOL    HW2 2874   1.729   1.441   4.787
  659SOL     OW 2875   1.793   5.771   6.233
  659SOL    HW1 2876   1.892   5.784   6.233
  659SOL    HW2 2877   1.772   5.680   6.270
  660SOL     OW 2878   4.324   5.061   3.053
  660SOL    HW1 2879   4.268   5.035   2.975
  660SOL    HW2 2880   4.308   4.997   3.128
  661SOL     OW 2881   4.657   4.665   4.202
  661SOL    HW1 2882   4.731   4.658   4.269
  661SOL    HW2 2883   4.651   4.759   4.169
  662SOL     OW 2884   4.957   3.632   6.822
  662SOL    HW1 2885   4.889   3.661   6.890
  662SOL    HW2 2886   4.939   3.538   6.795
  663SOL     OW 2887   6.738   4.157   7.022
  663SOL    HW1 2888   6.815   4.219   7.006
  663SOL    HW2 2889   6.671   4.202   0.057
  664SOL     OW 2890   1.885   7.013   6.534
  664SOL    HW1 2891   1.844   0.067   6.488
  664SOL    HW2 2892   1.917   6.948   6.465
  665SOL     OW 2893   3.497   4.891   1.708
  665SOL    HW1 2894   3.494   4.812   1.768
  665SOL    HW2 2895   3.488   4.975   1.762
  666SOL     OW 2896   2.944   0.625   0.437
  666SOL    HW1 2897   2.931   0.700   0.372
  666SOL    HW2 2898   2.868   0.561   0.429
  667SOL     OW 2899   0.812   3.640   2.773
  667SOL    HW1 2900   0.765   3.639   2.685
  667SOL    HW2 2901   0.892   3.580   2.767
  668SOL     OW 2902   5.198   0.251   0.532
  668SOL    HW1 2903   5.280   0.270   0.478
  668SOL    HW2 2904   5.218   0.182   0.601
  669SOL     OW 2905   1.779   5.934   2.553
  669SOL    HW1 2906   1.865   5.883   2.561
  669SOL    HW2 2907   1.749   5.964   2.643
  670SOL     OW 2908   3.583   3.025   3.377
  670SOL    HW1 2909   3.539   2.955   3.320
  670SOL    HW2 2910   3.593   3.109   3.325
  671SOL     OW 2911   1.305   0.004   6.418
  671SOL    HW1 2912   1.357   6.944   6.409
  671SOL    HW2 2913   1.358   0.081   6.381
  672SOL     OW 2914   1.606   1.552   3.124
  672SOL    HW1 2915   1.594   1.616   3.200
  672SOL    HW2 2916   1.703   1.531   3.114
  673SOL     OW 2917   4.969   7.006   0.610
  673SOL    HW1 2918   4.913   7.023   0.529
  673SOL    HW2 2919   5.055   0.031   0.602
  674SOL     OW 2920   6.918   1.683   3.956
  674SOL    HW1 2921   6.975   1.742   3.898
  674SOL    HW2 2922   6.851   1.635   3.899
  675SOL     OW 2923   5.777   0.804   4.460
  675SOL    HW1 2924   5.766   0.841   4.368
  675SOL    HW2 2925   5.689   0.772   4.494
  676SOL     OW 2926   2.167   4.616   4.061
  676SOL    HW1 2927   2.160   4.565   4.147
  676SOL    HW2 2928   2.190   4.711   4.080
  677SOL     OW 2929   5.163   6.398   1.157
  677SOL    HW1 2930   5.093   6.442   1.213
  677SOL    HW2 2931   5.134   6.396   1.062
  678SOL     OW 2932   2.337   1.239   6.142
  678SOL    HW1 2933   2.388   1.205   6.063
  678SOL    HW2 2934   2.245   1.201   6.140
  679SOL     OW 2935   6.296   6.797   2.418
  679SOL    HW1 2936   6.219   6.764   2.363
  679SOL    HW2 2937   6.283   6.769   2.513
  680SOL     OW 2938   5.613   4.311   5.332
  680SOL    HW1 2939   5.648   4.402   5.310
  680SOL    HW2 2940   5.552   4.281   5.258
  681SOL     OW 2941   1.429   6.990   1.804
  681SOL    HW1 2942   1.515   6.952   1.768
  681SOL    HW2 2943   1.445   0.059   1.835
  682SOL     OW 2944   0.704   6.576   6.562
  682SOL    HW1 2945   0.651   6.574   6.647
  682SOL    HW2 2946   0.698   6.488   6.516
  683SOL     OW 2947   5.540   1.999   0.144
  683SOL    HW1 2948   5.552   1.992   0.243
  683SOL    HW2 2949   5.449   2.036   0.125
  684SOL     OW 2950   0.243   6.319   6.257
  684SOL    HW1 2951   0.224   6.408   6.216
  684SOL    HW2 2952   0.165   6.290   6.312
  685SOL     OW 2953   5.662   1.091   6.028
  685SOL    HW1 2954   5.634   1.179   6.067
  685SOL    HW2 2955   5.762   1.083   6.033
  686SOL     OW 2956   5.093   4.729   3.108
  686SOL    HW1 2957   5.167   4.777   3.061
  686SOL    HW2 2958   5.065   4.650   3.054
  687SOL     OW 2959   6.042   2.353   5.473
  687SOL    HW1 2960   5.983   2.414   5.525
  687SOL    HW2 2961   5.997   2.328   5.387
  688SOL     OW 2962   0.348   3.469   4.579
  688SOL    HW1 2963   0.334   3.414   4.496
  688SOL    HW2 2964   0.261   3.509   4.607
  689SOL     OW 2965   6.167   4.223   5.126
  689SOL    HW1 2966   6.165   4.172   5.040
  689SOL    HW2 2967   6.106   4.302   5.120
  690SOL     OW 2968   0.673   3.073   3.853
  690SOL    HW1 2969   0.630   3.056   3.942
  690SOL    HW2 2970   0.704   2.986   3.814
  691SOL     OW 2971   0.099   3.090   6.543
  691SOL    HW1 2972   0.006   3.123   6.560
  691SOL    HW2 2973   0.165   3.151   6.589
  692SOL     OW 2974   1.986   0.067   3.056
  692SOL    HW1 2975   2.063   0.064   3.120
  692SOL    HW2 2976   2.016   0.108   2.970
  693SOL     OW 2977   6.715   0.985   2.590
  693SOL    HW1 2978   6.720   0.952   2.496
  693SOL    HW2 2979   6.744   1.080   2.594
  694SOL     OW 2980   1.688   0.429   2.172
  694SOL    HW1 2981   1.679   0.368   2.251
  694SOL    HW2 2982   1.598   0.464   2.146
  695SOL     OW 2983   4.504   5.465   6.207
  695SOL    HW1 2984   4.488   5.376   6.249
  695SOL    HW2 2985   4.432   5.483   6.140
  696SOL     OW 2986   4.644   5.699   2.705
  696SOL    HW1 2987   4.597   5.613   2.685
  696SOL    HW2 2988   4.720   5.711   2.642
  697SOL     OW 2989   1.281   3.652   3.832
  697SOL    HW1 2990   1.199   3.652   3.775
  697SOL    HW2 2991   1.285   3.737   3.885
  698SOL     OW 2992   4.314   6.611   3.533
  698SOL    HW1 2993   4.313   6.516   3.564
  698SOL    HW2 2994   4.242   6.625   3.466
  699SOL     OW 2995   1.687   4.584   6.954
  699SOL    HW1 2996   1.651   4.490   6.952
  699SOL    HW2 2997   1.785   4.582   6.969
  700SOL     OW 2998   2.331   1.447   4.065
  700SOL    HW1 2999   2.332   1.428   3.967
  700SOL    HW2 3000   2.342   1.545   4.080
  701SOL     OW 3001   0.792   4.430   5.815
  701SOL    HW1 3002   0.860   4.479   5.869
  701SOL    HW2 3003   0.710   4.486   5.804
  702SOL     OW 3004   5.509   5.470   4.766
  702SOL    HW1 3005   5.593   5.427   4.797
  702SOL    HW2 3006   5.451   5.490   4.845
  703SOL     OW 3007   4.747   4.165   0.077
  703SOL    HW1 3008   4.702   4.092   0.128
  703SOL    HW2 3009   4.695   4.184   7.018
  704SOL     OW 3010   2.586   0.561   1.300
  704SOL    HW1 3011   2.543   0.505   1.230
  704SOL    HW2 3012   2.601   0.653   1.265
  705SOL     OW 3013   6.827   2.129   3.578
  705SOL    HW1 3014   6.802   2.034   3.600
  705SOL    HW2 3015   6.749   2.189   3.598
  706SOL     OW 3016   4.896   1.929   3.869
  706SOL    HW1 3017   4.877   1.858   3.801
  706SOL    HW2 3018   4.834   1.919   3.946
  707SOL     OW 3019   5.059   1.892   1.519
  707SOL    HW1 3020   5.106   1.830   1.457
  707SOL    HW2 3021   5.045   1.846   1.607
  708SOL     OW 3022   4.101   0.546   1.955
  708SOL    HW1 3023   4.005   0.567   1.940
  708SOL    HW2 3024   4.145   0.624   2.000
  709SOL     OW 3025   0.991   5.026   6.944
  709SOL    HW1 3026   0.903   4.986   6.966
  709SOL    HW2 3027   0.984   5.077   6.858
  710SOL     OW 3028   3.303   3.523   2.355
  710SOL    HW1 3029   3.389   3.473   2.349
  710SOL    HW2 3030   3.237   3.470   2.408
  711SOL     OW 3031   0.872   0.223   4.475
  711SOL    HW1 3032   0.886   0.228   4.376
  711SOL    HW2 3033   0.846   0.131   4.501
  712SOL     OW 3034   1.304   4.058   1.664
  712SOL    HW1 3035   1.379   4.011   1.711
  712SOL    HW2 3036   1.313   4.046   1.565
  713SOL     OW 3037   4.108   3.234   3.107
  713SOL    HW1 3038   4.075   3.210   3.198
  713SOL    HW2 3039   4.095   3.332   3.091
  714SOL     OW 3040   4.974   5.232   5.520
  714SOL    HW1 3041   4.887   5.201   5.559
  714SOL    HW2 3042   4.959   5.314   5.466
  715SOL     OW 3043   4.738   0.936   6.771
  715SOL    HW1 3044   4.761   0.987   6.854
  715SOL    HW2 3045   4.719   1.001   6.697
  716SOL     OW 3046   6.651   5.152   1.931
  716SOL    HW1 3047   6.584   5.108   1.991
  716SOL    HW2 3048   6.679   5.240   1.971
  717SOL     OW 3049   5.976   2.621   0.407
  717SOL    HW1 3050   5.951   2.594   0.500
  717SOL    HW2 3051   6.074   2.638   0.402
  718SOL     OW 3052   3.284   3.607   6.362
  718SOL    HW1 3053   3.345   3.542   6.406
  718SOL    HW2 3054   3.198   3.561   6.339
  719SOL     OW 3055   5.245   4.837   0.015
  719SOL    HW1 3056   5.277   4.899   6.969
  719SOL    HW2 3057   5.282   4.865   0.104
  720SOL     OW 3058   2.292   0.147   6.659
  720SOL    HW1 3059   2.261   0.189   6.574
  720SOL    HW2 3060   2.392   0.148   6.663
  721SOL     OW 3061   1.216   6.302   5.780
  721SOL    HW1 3062   1.195   6.388   5.825
  721SOL    HW2 3063   1.275   6.247   5.838
  722SOL     OW 3064   5.007   0.011   6.176
  722SOL    HW1 3065   4.944   0.068   6.228
  722SOL    HW2 3066   4.955   6.972   6.119
  723SOL     OW 3067   1.917   3.139   2.296
  723SOL    HW1 3068   1.861   3.057   2.297
  723SOL    HW2 3069   1.859   3.219   2.285
  724SOL     OW 3070   0.038   0.631   4.897
  724SOL    HW1 3071   7.024   0.667   4.982
  724SOL    HW2 3072   6.988   0.608   4.834
  725SOL     OW 3073   2.328   4.860   0.742
  725SOL    HW1 3074   2.323   4.760   0.745
  725SOL    HW2 3075   2.280   4.894   0.661
  726SOL     OW 3076   4.573   0.117   6.111
  726SOL    HW1 3077   4.579   0.078   6.203
  726SOL    HW2 3078   4.643   0.076   6.053
  727SOL     OW 3079   2.580   4.610   3.986
  727SOL    HW1 3080   2.521   4.620   4.067
  727SOL    HW2 3081   2.525   4.583   3.907
  728SOL     OW 3082   6.838   3.296   5.029
  728SOL    HW1 3083   6.788   3.211   5.047
  728SOL    HW2 3084   6.812   3.331   4.939
  729SOL     OW 3085   2.705   0.486   0.401
  729SOL    HW1 3086   2.664   0.426   0.333
  729SOL    HW2 3087   2.644   0.564   0.418
  730SOL     OW 3088   6.323   0.269   5.388
  730SOL    HW1 3089   6.245   0.305   5.439
  730SOL    HW2 3090   6.381   0.345   5.359
  731SOL     OW 3091   6.312   3.074   3.489
  731SOL    HW1 3092   6.374   3.066   3.411
  731SOL    HW2 3093   6.338   3.007   3.559
  732SOL     OW 3094   6.768   2.725   2.063
  732SOL    HW1 3095   6.733   2.669   2.138
  732SOL    HW2 3096   6.867   2.713   2.055
  733SOL     OW 3097   4.591   4.616   3.698
  733SOL    HW1 3098   4.648   4.613   3.780
  733SOL    HW2 3099   4.618   4.694   3.641
  734SOL     OW 3100   7.008   4.617   0.726
  734SOL    HW1 3101   6.957   4.629   0.641
  734SOL    HW2 3102   6.958   4.660   0.801
  735SOL     OW 3103   1.462   4.537   6.380
  735SOL    HW1 3104   1.527   4.606   6.348
  735SOL    HW2 3105   1.465   4.533   6.480
  736SOL     OW 3106   6.149   1.236   3.228
  736SOL    HW1 3107   6.169   1.142   3.201
  736SOL    HW2 3108   6.234   1.281   3.256
  737SOL     OW 3109   5.688   3.365   0.427
  737SOL    HW1 3110   5.778   3.354   0.469
  737SOL    HW2 3111   5.699   3.378   0.328
  738SOL     OW 3112   0.575   3.998   3.295
  738SOL    HW1 3113   0.642   3.944   3.346
  738SOL    HW2 3114   0.544   3.946   3.215
  739SOL     OW 3115   4.861   5.616   6.845
  739SOL    HW1 3116   4.895   5.669   6.768
  739SOL    HW2 3117   4.851   5.520   6.819
  740SOL     OW 3118   5.382   6.794   0.977
  740SOL    HW1 3119   5.388   6.744   1.064
  740SOL    HW2 3120   5.354   6.888   0.995
  741SOL     OW 3121   2.787   1.036   3.645
  741SOL    HW1 3122   2.720   1.050   3.717
  741SOL    HW2 3123   2.879   1.048   3.681
  742SOL     OW 3124   1.461   0.891   3.317
  742SOL    HW1 3125   1.555   0.925   3.309
  742SOL    HW2 3126   1.463   0.792   3.330
  743SOL     OW 3127   2.143   3.757   4.167
  743SOL    HW1 3128   2.160   3.682   4.230
  743SOL    HW2 3129   2.185   3.737   4.079
  744SOL     OW 3130   0.329   6.324   1.287
  744SOL    HW1 3131   0.386   6.259   1.338
  744SOL    HW2 3132   0.311   6.288   1.195
  745SOL     OW 3133   1.250   6.449   3.090
  745SOL    HW1 3134   1.310   6.372   3.111
  745SOL    HW2 3135   1.220   6.492   3.176
  746SOL     OW 3136   2.715   0.651   4.667
  746SOL    HW1 3137   2.744   0.587   4.739
  746SOL    HW2 3138   2.785   0.722   4.656
  747SOL     OW 3139   5.578   4.612   2.319
  747SOL    HW1 3140   5.597   4.517   2.295
  747SOL    HW2 3141   5.512   4.615   2.395
  748SOL     OW 3142   4.195   2.770   1.693
  748SOL    HW1 3143   4.275   2.810   1.736
  748SOL    HW2 3144   4.215   2.677   1.663
  749SOL     OW 3145   0.100   1.394   5.478
  749SOL    HW1 3146   0.028   1.326   5.486
  749SOL    HW2 3147   0.121   1.409   5.381
  750SOL     OW 3148   2.418   4.546   0.382
  750SOL    HW1 3149   2.470   4.559   0.298
  750SOL    HW2 3150   2.476   4.572   0.460
  751SOL     OW 3151   5.027   0.999   0.453
  751SOL    HW1 3152   4.964   0.992   0.530
  751SOL    HW2 3153   5.013   1.085   0.405
  752SOL     OW 3154   5.095   1.105   2.052
  752SOL    HW1 3155   5.004   1.078   2.023
  752SOL    HW2 3156   5.088   1.161   2.135
  753SOL     OW 3157   2.499   2.138   3.089
  753SOL    HW1 3158   2.498   2.042   3.117
  753SOL    HW2 3159   2.559   2.149   3.010
  754SOL     OW 3160   5.097   5.502   6.983
  754SOL    HW1 3161   5.176   5.529   6.928
  754SOL    HW2 3162   5.015   5.548   6.948
  755SOL     OW 3163   0.110   6.412   2.244
  755SOL    HW1 3164   0.195   6.381   2.287
  755SOL    HW2 3165   0.126   6.501   2.201
  756SOL     OW 3166   3.990   0.579   3.382
  756SOL    HW1 3167   4.014   0.482   3.389
  756SOL    HW2 3168   4.029   0.617   3.298
  757SOL     OW 3169   0.163   0.487   4.554
  757SOL    HW1 3170   0.103   0.542   4.611
  757SOL    HW2 3171   0.122   0.397   4.540
  758SOL     OW 3172   4.480   2.386   1.473
  758SOL    HW1 3173   4.516   2.449   1.404
  758SOL    HW2 3174   4.520   2.295   1.459
  759SOL     OW 3175   1.733   1.194   0.080
  759SOL    HW1 3176   1.724   1.095   0.090
  759SOL    HW2 3177   1.649   1.232   0.043
  760SOL     OW 3178   4.607   1.369   5.993
  760SOL    HW1 3179   4.654   1.415   5.918
  760SOL    HW2 3180   4.589   1.435   6.066
  761SOL     OW 3181   6.504   2.627   6.743
  761SOL    HW1 3182   6.420   2.681   6.746
  761SOL    HW2 3183   6.502   2.560   6.818
  762SOL     OW 3184   1.972   5.444   3.885
  762SOL    HW1 3185   1.994   5.519   3.823
  762SOL    HW2 3186   1.918   5.376   3.837
  763SOL     OW 3187   5.887   5.257   5.991
  763SOL    HW1 3188   5.896   5.172   6.042
  763SOL    HW2 3189   5.977   5.288   5.961
  764SOL     OW 3190   4.349   1.143   2.183
  764SOL    HW1 3191   4.329   1.058   2.231
  764SOL    HW2 3192   4.264   1.185   2.151
  765SOL     OW 3193   0.330   0.025   3.575
  765SOL    HW1 3194   0.256   0.092   3.584
  765SOL    HW2 3195   0.407   0.053   3.632
  766SOL     OW 3196   0.466   6.498   7.021
  766SOL    HW1 3197   0.434   6.403   0.007
  766SOL    HW2 3198   0.521   6.523   0.076
  767SOL     OW 3199   5.979   0.026   2.104
  767SOL    HW1 3200   6.045   0.100   2.113
  767SOL    HW2 3201   5.888   0.063   2.084
  768SOL     OW 3202   3.350   6.753   3.384
  768SOL    HW1 3203   3.411   6.798   3.450
  768SOL    HW2 3204   3.404   6.715   3.309
  769SOL     OW 3205   3.965   0.966   5.807
  769SOL    HW1 3206   3.913   0.957   5.892
  769SOL    HW2 3207   3.903   0.976   5.730
  770SOL     OW 3208   3.495   5.054   3.868
  770SOL    HW1 3209   3.488   5.130   3.804
  770SOL    HW2 3210   3.403   5.031   3.902
  771SOL     OW 3211   0.362   5.790   3.360
  771SOL    HW1 3212   0.356   5.696   3.328
  771SOL    HW2 3213   0.270   5.826   3.373
  772SOL     OW 3214   6.778   4.473   5.271
  772SOL    HW1 3215   6.693   4.457   5.220
  772SOL    HW2 3216   6.838   4.531   5.217
  773SOL     OW 3217   0.016   4.119   2.500
  773SOL    HW1 3218   0.085   4.178   2.542
  773SOL    HW2 3219   0.030   4.117   2.401
  774SOL     OW 3220   1.497   0.836   1.773
  774SOL    HW1 3221   1.444   0.773   1.830
  774SOL    HW2 3222   1.553   0.783   1.709
  775SOL     OW 3223   1.079   2.215   4.278
  775SOL    HW1 3224   1.120   2.196   4.367
  775SOL    HW2 3225   1.016   2.292   4.287
  776SOL     OW 3226   2.412   0.793   6.219
  776SOL    HW1 3227   2.340   0.761   6.158
  776SOL    HW2 3228   2.383   0.778   6.314
  777SOL     OW 3229   4.546   0.676   0.745
  777SOL    HW1 3230   4.574   0.742   0.814
  777SOL    HW2 3231   4.458   0.704   0.705
  778SOL     OW 3232   4.317   6.965   3.971
  778SOL    HW1 3233   4.327   6.917   3.883
  778SOL    HW2 3234   4.225   6.950   4.007
  779SOL     OW 3235   1.094   1.056   2.359
  779SOL    HW1 3236   1.099   1.139   2.304
  779SOL    HW2 3237   1.016   1.062   2.421
  780SOL     OW 3238   5.209   3.497   5.105
  780SOL    HW1 3239   5.265   3.423   5.141
  780SOL    HW2 3240   5.123   3.461   5.069
  781SOL     OW 3241   0.737   1.476   5.685
  781SOL    HW1 3242   0.740   1.395   5.744
  781SOL    HW2 3243   0.665   1.537   5.716
  782SOL     OW 3244   0.277   3.456   0.685
  782SOL    HW1 3245   0.280   3.523   0.758
  782SOL    HW2 3246   0.210   3.484   0.616
  783SOL     OW 3247   2.894   4.052   0.333
  783SOL    HW1 3248   2.971   4.029   0.273
  783SOL    HW2 3249   2.844   3.969   0.356
  784SOL     OW 3250   5.256   0.261   4.378
  784SOL    HW1 3251   5.209   0.188   4.427
  784SOL    HW2 3252   5.249   0.346   4.430
  785SOL     OW 3253   6.577   2.278   3.634
  785SOL    HW1 3254   6.571   2.258   3.537
  785SOL    HW2 3255   6.562   2.376   3.649
  786SOL     OW 3256   6.750   0.125   6.912
  786SOL    HW1 3257   6.741   0.072   6.996
  786SOL    HW2 3258   6.728   0.221   6.931
  787SOL     OW 3259   3.739   1.079   6.418
  787SOL    HW1 3260   3.654   1.060   6.468
  787SOL    HW2 3261   3.725   1.066   6.320
  788SOL     OW 3262   1.146   4.192   3.970
  788SOL    HW1 3263   1.229   4.247   3.978
  788SOL    HW2 3264   1.137   4.132   4.051
  789SOL     OW 3265   5.695   3.832   1.066
  789SOL    HW1 3266   5.740   3.920   1.082
  789SOL    HW2 3267   5.739   3.761   1.120
  790SOL     OW 3268   3.048   1.057   3.693
  790SOL    HW1 3269   3.110   1.015   3.626
  790SOL    HW2 3270   3.091   1.138   3.732
  791SOL     OW 3271   4.076   1.819   4.241
  791SOL    HW1 3272   4.125   1.754   4.299
  791SOL    HW2 3273   4.117   1.910   4.251
  792SOL     OW 3274   6.052   0.359   3.546
  792SOL    HW1 3275   6.127   0.329   3.486
  792SOL    HW2 3276   6.089   0.417   3.619
  793SOL     OW 3277   6.458   0.151   6.586
  793SOL    HW1 3278   6.454   0.154   6.686
  793SOL    HW2 3279   6.534   0.094   6.557
  794SOL     OW 3280   2.359   5.492   5.162
  794SOL    HW1 3281   2.379   5.402   5.201
  794SOL    HW2 3282   2.277   5.529   5.205
  795SOL     OW 3283   4.810   4.848   5.951
  795SOL    HW1 3284   4.894   4.800   5.925
  795SOL    HW2 3285   4.832   4.921   6.016
  796SOL     OW 3286   0.905   2.277   5.935
  796SOL    HW1 3287   0.873   2.370   5.955
  796SOL    HW2 3288   0.827   2.221   5.906
  797SOL     OW 3289   5.722   2.696   4.568
  797SOL    HW1 3290   5.751   2.657   4.655
  797SOL    HW2 3291   5.796   2.751   4.530
  798SOL     OW 3292   6.277   0.748   6.039
  798SOL    HW1 3293   6.368   0.709   6.036
  798SOL    HW2 3294   6.225   0.719   5.958
  799SOL     OW 3295   6.529   3.310   3.065
  799SOL    HW1 3296   6.447   3.285   3.012
  799SOL    HW2 3297   6.507   3.385   3.126
  800SOL     OW 3298   6.603   1.713   2.039
  800SOL    HW1 3299   6.608   1.647   1.964
  800SOL    HW2 3300   6.619   1.805   2.003
  801SOL     OW 3301   0.520   2.734   3.557
  801SOL    HW1 3302   0.464   2.686   3.625
  801SOL    HW2 3303   0.598   2.777   3.602
  802SOL     OW 3304   6.043   0.770   0.821
  802SOL    HW1 3305   5.976   0.726   0.761
  802SOL    HW2 3306   6.033   0.869   0.816
  803SOL     OW 3307   1.046   6.865   5.563
  803SOL    HW1 3308   0.968   6.826   5.613
  803SOL    HW2 3309   1.125   6.871   5.623
  804SOL     OW 3310   6.663   0.526   0.592
  804SOL    HW1 3311   6.643   0.581   0.511
  804SOL    HW2 3312   6.762   0.510   0.597
  805SOL     OW 3313   1.758   3.367   6.361
  805SOL    HW1 3314   1.777   3.465   6.348
  805SOL    HW2 3315   1.724   3.328   6.275
  806SOL     OW 3316   5.500   0.765   0.857
  806SOL    HW1 3317   5.445   0.777   0.774
  806SOL    HW2 3318   5.452   0.804   0.935
  807SOL     OW 3319   1.554   0.343   3.196
  807SOL    HW1 3320   1.474   0.287   3.215
  807SOL    HW2 3321   1.572   0.343   3.097
  808SOL     OW 3322   5.554   3.494   4.840
  808SOL    HW1 3323   5.584   3.483   4.745
  808SOL    HW2 3324   5.462   3.534   4.842
  809SOL     OW 3325   0.187   4.652   6.000
  809SOL    HW1 3326   0.155   4.560   5.974
  809SOL    HW2 3327   0.116   4.719   5.978
  810SOL     OW 3328   6.148   4.600   6.672
  810SOL    HW1 3329   6.075   4.661   6.639
  810SOL    HW2 3330   6.211   4.651   6.730
  811SOL     OW 3331   4.914   5.171   4.103
  811SOL    HW1 3332   4.960   5.202   4.019
  811SOL    HW2 3333   4.832   5.119   4.078
  812SOL     OW 3334   0.364   0.173   2.615
  812SOL    HW1 3335   0.344   0.259   2.567
  812SOL    HW2 3336   0.459   0.175   2.648
  813SOL     OW 3337   6.042   5.431   2.578
  813SOL    HW1 3338   6.013   5.508   2.522
  813SOL    HW2 3339   5.980   5.354   2.564
  814SOL     OW 3340   5.071   5.909   1.072
  814SOL    HW1 3341   5.166   5.919   1.045
  814SOL    HW2 3342   5.064   5.848   1.151
  815SOL     OW 3343   0.724   1.911   0.591
  815SOL    HW1 3344   0.776   1.866   0.518
  815SOL    HW2 3345   0.727   2.010   0.577
  816SOL     OW 3346   6.284   0.512   1.057
  816SOL    HW1 3347   6.379   0.533   1.081
  816SOL    HW2 3348   6.223   0.557   1.122
  817SOL     OW 3349   1.884   2.202   2.943
  817SOL    HW1 3350   1.844   2.120   2.903
  817SOL    HW2 3351   1.913   2.264   2.870
  818SOL     OW 3352   6.666   1.930   1.210
  818SOL    HW1 3353   6.679   1.954   1.114
  818SOL    HW2 3354   6.572   1.897   1.224
  819SOL     OW 3355   0.406   4.062   3.486
  819SOL    HW1 3356   0.476   4.069   3.415
  819SOL    HW2 3357   0.362   4.151   3.499
  820SOL     OW 3358   1.009   3.324   4.325
  820SOL    HW1 3359   1.017   3.424   4.317
  820SOL    HW2 3360   1.020   3.282   4.235
  821SOL     OW 3361   1.183   3.322   6.908
  821SOL    HW1 3362   1.147   3.411   6.936
  821SOL    HW2 3363   1.231   3.279   6.984
  822SOL     OW 3364   1.576   3.593   4.706
  822SOL    HW1 3365   1.625   3.527   4.648
  822SOL    HW2 3366   1.478   3.576   4.699
  823SOL     OW 3367   3.104   3.471   1.134
  823SOL    HW1 3368   3.188   3.508   1.172
  823SOL    HW2 3369   3.110   3.372   1.129
  824SOL     OW 3370   6.311   2.343   5.970
  824SOL    HW1 3371   6.235   2.408   5.964
  824SOL    HW2 3372   6.380   2.378   6.032
  825SOL     OW 3373   1.845   4.126   2.203
  825SOL    HW1 3374   1.783   4.065   2.153
  825SOL    HW2 3375   1.826   4.221   2.178
  826SOL     OW 3376   0.542   4.029   6.050
  826SOL    HW1 3377   0.588   4.053   5.964
  826SOL    HW2 3378   0.536   4.109   6.109
  827SOL     OW 3379   4.262   5.952   0.305
  827SOL    HW1 3380   4.172   5.982   0.273
  827SOL    HW2 3381   4.333   6.009   0.264
  828SOL     OW 3382   6.220   6.547   6.875
  828SOL    HW1 3383   6.205   6.623   6.939
  828SOL    HW2 3384   6.295   6.569   6.813
  829SOL     OW 3385   3.649   2.940   4.473
  829SOL    HW1 3386   3.648   2.950   4.572
  829SOL    HW2 3387   3.564   2.977   4.435
  830SOL     OW 3388   4.623   4.084   5.471
  830SOL    HW1 3389   4.668   4.139   5.401
  830SOL    HW2 3390   4.651   4.116   5.562
  831SOL     OW 3391   6.570   0.841   5.139
  831SOL    HW1 3392   6.521   0.806   5.059
  831SOL    HW2 3393   6.616   0.766   5.186
  832SOL     OW 3394   2.969   1.056   5.825
  832SOL    HW1 3395   2.991   1.130   5.888
  832SOL    HW2 3396   3.045   1.044   5.760
  833SOL     OW 3397   0.710   0.074   5.983
  833SOL    HW1 3398   0.800   0.109   6.008
  833SOL    HW2 3399   0.683   0.003   6.048
  834SOL     OW 3400   3.161   4.291   5.578
  834SOL    HW1 3401   3.229   4.249   5.518
  834SOL    HW2 3402   3.078   4.309   5.526
  835SOL     OW 3403   4.161   0.446   2.906
  835SOL    HW1 3404   4.125   0.352   2.901
  835SOL    HW2 3405   4.245   0.452   2.852
  836SOL     OW 3406   2.529   0.745   0.475
  836SOL    HW1 3407   2.457   0.675   0.472
  836SOL    HW2 3408   2.546   0.778   0.382
  837SOL     OW 3409   4.404   0.482   5.902
  837SOL    HW1 3410   4.319   0.451   5.944
  837SOL    HW2 3411   4.450   0.545   5.965
  838SOL     OW 3412   2.336   4.621   2.845
  838SOL    HW1 3413   2.425   4.586   2.816
  838SOL    HW2 3414   2.272   4.545   2.856
  839SOL     OW 3415   3.253   1.570   1.819
  839SOL    HW1 3416   3.339   1.588   1.866
  839SOL    HW2 3417   3.271   1.521   1.734
  840SOL     OW 3418   1.145   1.394   6.409
  840SOL    HW1 3419   1.103   1.461   6.348
  840SOL    HW2 3420   1.244   1.409   6.411
  841SOL     OW 3421   0.391   3.737   0.124
  841SOL    HW1 3422   0.441   3.686   0.194
  841SOL    HW2 3423   0.383   3.681   0.041
  842SOL     OW 3424   3.599   5.245   3.703
  842SOL    HW1 3425   3.688   5.292   3.707
  842SOL    HW2 3426   3.526   5.313   3.694
  843SOL     OW 3427   6.554   2.714   1.871
  843SOL    HW1 3428   6.458   2.709   1.901
  843SOL    HW2 3429   6.613   2.727   1.950
  844SOL     OW 3430   5.045   5.520   0.623
  844SOL    HW1 3431   5.105   5.446   0.592
  844SOL    HW2 3432   4.949   5.491   0.612
  845SOL     OW 3433   0.974   4.603   4.605
  845SOL    HW1 3434   0.960   4.669   4.531
  845SOL    HW2 3435   0.927   4.517   4.582
  846SOL     OW 3436   5.724   2.148   0.009
  846SOL    HW1 3437   5.645   2.103   0.051
  846SOL    HW2 3438   5.756   2.223   0.068
  847SOL     OW 3439   5.270   3.535   1.995
  847SOL    HW1 3440   5.233   3.459   2.048
  847SOL    HW2 3441   5.343   3.580   2.047
  848SOL     OW 3442   6.854   0.012   5.931
  848SOL    HW1 3443   6.868   6.938   5.926
  848SOL    HW2 3444   6.941   0.057   5.946
  849SOL     OW 3445   0.250   5.220   3.990
  849SOL    HW1 3446   0.307   5.198   4.070
  849SOL    HW2 3447   0.269   5.314   3.961
  850SOL     OW 3448   3.592   0.997   2.529
  850SOL    HW1 3449   3.615   0.946   2.447
  850SOL    HW2 3450   3.660   0.977   2.601
  851SOL     OW 3451   0.600   0.615   6.164
  851SOL    HW1 3452   0.656   0.537   6.136
  851SOL    HW2 3453   0.564   0.662   6.083
  852SOL     OW 3454   2.120   4.447   6.322
  852SOL    HW1 3455   2.174   4.529   6.305
  852SOL    HW2 3456   2.132   4.417   6.416
  853SOL     OW 3457   1.660   3.485   1.442
  853SOL    HW1 3458   1.597   3.409   1.427
  853SOL    HW2 3459   1.671   3.501   1.540
  854SOL     OW 3460   5.190   5.120   1.815
  854SOL    HW1 3461   5.274   5.157   1.776
  854SOL    HW2 3462   5.196   5.118   1.914
  855SOL     OW 3463   5.677   0.248   1.702
  855SOL    HW1 3464   5.735   0.328   1.684
  855SOL    HW2 3465   5.732   0.165   1.697
  856SOL     OW 3466   1.649   6.758   4.806
  856SOL    HW1 3467   1.725   6.817   4.834
  856SOL    HW2 3468   1.671   6.663   4.826
  857SOL     OW 3469   6.484   3.614   2.003
  857SOL    HW1 3470   6.407   3.647   1.949
  857SOL    HW2 3471   6.456   3.603   2.098
  858SOL     OW 3472   3.181   4.089   1.252
  858SOL    HW1 3473   3.114   4.045   1.312
  858SOL    HW2 3474   3.145   4.092   1.158
  859SOL     OW 3475   6.636   5.011   0.260
  859SOL    HW1 3476   6.550   4.961   0.257
  859SOL    HW2 3477   6.675   5.003   0.352
  860SOL     OW 3478   1.672   4.849   1.575
  860SOL    HW1 3479   1.738   4.887   1.640
  860SOL    HW2 3480   1.720   4.810   1.497
  861SOL     OW 3481   3.426   5.350   5.626
  861SOL    HW1 3482   3.399   5.366   5.531
  861SOL    HW2 3483   3.503   5.286   5.628
  862SOL     OW 3484   4.442   4.547   4.399
  862SOL    HW1 3485   4.459   4.530   4.496
  862SOL    HW2 3486   4.517   4.509   4.345
  863SOL     OW 3487   5.965   1.167   0.961
  863SOL    HW1 3488   5.871   1.138   0.943
  863SOL    HW2 3489   5.974   1.192   1.058
  864SOL     OW 3490   5.949   4.381   2.477
  864SOL    HW1 3491   5.926   4.356   2.383
  864SOL    HW2 3492   5.869   4.368   2.536
  865SOL     OW 3493   1.491   0.319   4.381
  865SOL    HW1 3494   1.554   0.247   4.410
  865SOL    HW2 3495   1.397   0.291   4.401
  866SOL     OW 3496   3.587   1.546   1.388
  866SOL    HW1 3497   3.591   1.486   1.308
  866SOL    HW2 3498   3.504   1.602   1.384
  867SOL     OW 3499   1.664   2.490   6.175
  867SOL    HW1 3500   1.717   2.551   6.234
  867SOL    HW2 3501   1.650   2.533   6.085
  868SOL     OW 3502   5.372   2.905   3.417
  868SOL    HW1 3503   5.393   2.978   3.483
  868SOL    HW2 3504   5.408   2.930   3.327
  869SOL     OW 3505   6.177   4.215   2.459
  869SOL    HW1 3506   6.142   4.309   2.452
  869SOL    HW2 3507   6.262   4.215   2.511
  870SOL     OW 3508   6.947   2.847   1.029
  870SOL    HW1 3509   6.972   2.849   1.126
  870SOL    HW2 3510   0.005   2.855   0.973
  871SOL     OW 3511   5.627   3.656   0.873
  871SOL    HW1 3512   5.640   3.732   0.938
  871SOL    HW2 3513   5.716   3.630   0.835
  872SOL     OW 3514   5.413   2.701   2.883
  872SOL    HW1 3515   5.434   2.714   2.980
  872SOL    HW2 3516   5.485   2.743   2.828
  873SOL     OW 3517   4.559   6.463   5.798
  873SOL    HW1 3518   4.528   6.497   5.709
  873SOL    HW2 3519   4.566   6.363   5.795
  874SOL     OW 3520   6.814   3.762   6.064
  874SOL    HW1 3521   6.834   3.851   6.023
  874SOL    HW2 3522   6.737   3.771   6.127
  875SOL     OW 3523   6.190   4.899   6.329
  875SOL    HW1 3524   6.164   4.974   6.269
  875SOL    HW2 3525   6.287   4.907   6.353
  876SOL     OW 3526   0.992   3.173   1.547
  876SOL    HW1 3527   0.984   3.075   1.566
  876SOL    HW2 3528   0.904   3.217   1.566
  877SOL     OW 3529   5.672   5.992   0.495
  877SOL    HW1 3530   5.648   6.053   0.570
  877SOL    HW2 3531   5.727   6.041   0.428
  878SOL     OW 3532   3.302   3.067   0.211
  878SOL    HW1 3533   3.331   3.058   0.307
  878SOL    HW2 3534   3.211   3.027   0.200
  879SOL     OW 3535   4.258   1.965   2.692
  879SOL    HW1 3536   4.304   1.883   2.658
  879SOL    HW2 3537   4.181   1.939   2.749
  880SOL     OW 3538   4.132   4.991   0.720
  880SOL    HW1 3539   4.112   5.089   0.728
  880SOL    HW2 3540   4.170   4.972   0.630
  881SOL     OW 3541   4.223   5.109   4.930
  881SOL    HW1 3542   4.244   5.107   4.832
  881SOL    HW2 3543   4.262   5.028   4.974
  882SOL     OW 3544   1.164   1.491   3.980
  882SOL    HW1 3545   1.132   1.512   4.072
  882SOL    HW2 3546   1.196   1.575   3.936
  883SOL     OW 3547   2.728   4.707   7.025
  883SOL    HW1 3548   2.811   4.676   6.977
  883SOL    HW2 3549   2.719   4.806   7.015
  884SOL     OW 3550   4.528   3.874   1.453
  884SOL    HW1 3551   4.616   3.829   1.469
  884SOL    HW2 3552   4.540   3.973   1.456
  885SOL     OW 3553   4.982   5.798   6.697
  885SOL    HW1 3554   4.962   5.830   6.604
  885SOL    HW2 3555   5.080   5.777   6.704
  886SOL     OW 3556   4.568   1.136   6.294
  886SOL    HW1 3557   4.622   1.137   6.210
  886SOL    HW2 3558   4.545   1.230   6.319
  887SOL     OW 3559   5.322   0.144   6.529
  887SOL    HW1 3560   5.310   0.090   6.612
  887SOL    HW2 3561   5.248   0.124   6.465
  888SOL     OW 3562   6.408   6.490   3.692
  888SOL    HW1 3563   6.417   6.411   3.752
  888SOL    HW2 3564   6.316   6.491   3.653
  889SOL     OW 3565   1.011   6.637   4.736
  889SOL    HW1 3566   1.081   6.656   4.805
  889SOL    HW2 3567   1.047   6.657   4.645
  890SOL     OW 3568   2.308   5.005   2.523
  890SOL    HW1 3569   2.311   4.910   2.554
  890SOL    HW2 3570   2.214   5.029   2.498
  891SOL     OW 3571   5.702   3.698   6.302
  891SOL    HW1 3572   5.758   3.666   6.378
  891SOL    HW2 3573   5.678   3.794   6.317
  892SOL     OW 3574   2.565   5.545   1.805
  892SOL    HW1 3575   2.600   5.585   1.721
  892SOL    HW2 3576   2.636   5.488   1.847
  893SOL     OW 3577   1.952   6.903   0.555
  893SOL    HW1 3578   1.918   6.935   0.467
  893SOL    HW2 3579   2.049   6.926   0.564
  894SOL     OW 3580   1.680   5.296   3.475
  894SOL    HW1 3581   1.588   5.294   3.436
  894SOL    HW2 3582   1.737   5.227   3.430
  895SOL     OW 3583   1.895   0.173   4.864
  895SOL    HW1 3584   1.980   0.223   4.881
  895SOL    HW2 3585   1.845   0.162   4.950
  896SOL     OW 3586   5.599   0.308   3.685
  896SOL    HW1 3587   5.650   0.316   3.771
  896SOL    HW2 3588   5.601   0.213   3.654
  897SOL     OW 3589   5.295   2.427   6.139
  897SOL    HW1 3590   5.274   2.522   6.163
  897SOL    HW2 3591   5.393   2.411   6.150
  898SOL     OW 3592   6.031   6.424   4.196
  898SOL    HW1 3593   6.082   6.338   4.205
  898SOL    HW2 3594   6.085   6.489   4.142
  899SOL     OW 3595   0.956   4.683   6.685
  899SOL    HW1 3596   0.951   4.665   6.587
  899SOL    HW2 3597   1.030   4.747   6.704
  900SOL     OW 3598   0.496   5.556   3.549
  900SOL    HW1 3599   0.585   5.560   3.503
  900SOL    HW2 3600   0.495   5.622   3.624
  901SOL     OW 3601   5.646   2.265   3.264
  901SOL    HW1 3602   5.722   2.259   3.201
  901SOL    HW2 3603   5.679   2.297   3.353
  902SOL     OW 3604   0.576   6.181   0.268
  902SOL    HW1 3605   0.642   6.244   0.227
  902SOL    HW2 3606   0.523   6.229   0.338
  903SOL     OW 3607   0.477   4.886   7.024
  903SOL    HW1 3608   0.405   4.824   0.030
  903SOL    HW2 3609   0.446   4.981   0.011
  904SOL     OW 3610   1.688   1.443   3.508
  904SOL    HW1 3611   1.643   1.354   3.497
  904SOL    HW2 3612   1.623   1.508   3.548
  905SOL     OW 3613   6.316   1.874   5.813
  905SOL    HW1 3614   6.335   1.776   5.809
  905SOL    HW2 3615   6.354   1.912   5.897
  906SOL     OW 3616   6.241   4.014   5.286
  906SOL    HW1 3617   6.179   3.938   5.265
  906SOL    HW2 3618   6.212   4.095   5.236
  907SOL     OW 3619   0.271   3.469   1.609
  907SOL    HW1 3620   0.253   3.529   1.687
  907SOL    HW2 3621   0.299   3.524   1.530
  908SOL     OW 3622   1.753   0.991   3.259
  908SOL    HW1 3623   1.819   0.980   3.185
  908SOL    HW2 3624   1.753   0.910   3.317
  909SOL     OW 3625   4.379   0.434   0.991
  909SOL    HW1 3626   4.281   0.452   0.987
  909SOL    HW2 3627   4.425   0.511   1.035
  910SOL     OW 3628   2.018   2.001   1.686
  910SOL    HW1 3629   2.045   1.944   1.608
  910SOL    HW2 3630   1.940   1.959   1.732
  911SOL     OW 3631   0.402   4.463   0.861
  911SOL    HW1 3632   0.354   4.550   0.868
  911SOL    HW2 3633   0.463   4.464   0.782
  912SOL     OW 3634   1.098   0.561   6.225
  912SOL    HW1 3635   1.061   0.471   6.247
  912SOL    HW2 3636   1.113   0.613   6.309
  913SOL     OW 3637   2.385   1.474   1.774
  913SOL    HW1 3638   2.398   1.390   1.722
  913SOL    HW2 3639   2.293   1.510   1.756
  914SOL     OW 3640   2.750   6.280   2.951
  914SOL    HW1 3641   2.714   6.233   3.032
  914SOL    HW2 3642   2.682   6.278   2.878
  915SOL     OW 3643   1.485   2.470   6.726
  915SOL    HW1 3644   1.408   2.406   6.723
  915SOL    HW2 3645   1.511   2.495   6.633
  916SOL     OW 3646   1.019   3.458   2.688
  916SOL    HW1 3647   1.053   3.364   2.686
  916SOL    HW2 3648   1.077   3.515   2.631
  917SOL     OW 3649   3.493   2.443   6.544
  917SOL    HW1 3650   3.476   2.490   6.631
  917SOL    HW2 3651   3.423   2.469   6.478
  918SOL     OW 3652   1.305   0.662   5.479
  918SOL    HW1 3653   1.330   0.689   5.386
  918SOL    HW2 3654   1.362   0.585   5.508
  919SOL     OW 3655   2.493   0.417   1.077
  919SOL    HW1 3656   2.412   0.363   1.054
  919SOL    HW2 3657   2.508   0.487   1.006
  920SOL     OW 3658   2.400   0.807   3.993
  920SOL    HW1 3659   2.362   0.743   4.060
  920SOL    HW2 3660   2.403   0.763   3.904
  921SOL     OW 3661   4.645   4.736   6.267
  921SOL    HW1 3662   4.662   4.748   6.365
  921SOL    HW2 3663   4.701   4.660   6.233
  922SOL     OW 3664   2.122   4.126   6.415
  922SOL    HW1 3665   2.161   4.148   6.326
  922SOL    HW2 3666   2.077   4.037   6.411
  923SOL     OW 3667   4.459   1.362   6.867
  923SOL    HW1 3668   4.364   1.363   6.835
  923SOL    HW2 3669   4.479   1.275   6.911
  924SOL     OW 3670   6.343   4.102   2.969
  924SOL    HW1 3671   6.339   4.030   2.900
  924SOL    HW2 3672   6.390   4.182   2.931
  925SOL     OW 3673   6.505   2.068   2.983
  925SOL    HW1 3674   6.435   2.139   2.987
  925SOL    HW2 3675   6.513   2.034   2.889
  926SOL     OW 3676   5.641   6.180   1.218
  926SOL    HW1 3677   5.549   6.175   1.180
  926SOL    HW2 3678   5.680   6.270   1.202
  927SOL     OW 3679   4.753   5.224   5.020
  927SOL    HW1 3680   4.712   5.172   4.945
  927SOL    HW2 3681   4.817   5.165   5.070
  928SOL     OW 3682   0.495   1.514   1.292
  928SOL    HW1 3683   0.454   1.434   1.249
  928SOL    HW2 3684   0.571   1.485   1.350
  929SOL     OW 3685   0.523   2.424   2.495
  929SOL    HW1 3686   0.431   2.429   2.455
  929SOL    HW2 3687   0.566   2.338   2.469
  930SOL     OW 3688   5.482   5.644   2.840
  930SOL    HW1 3689   5.425   5.608   2.915
  930SOL    HW2 3690   5.475   5.583   2.761
  931SOL     OW 3691   1.576   3.174   2.444
  931SOL    HW1 3692   1.643   3.126   2.387
  931SOL    HW2 3693   1.493   3.189   2.391
  932SOL     OW 3694   4.464   6.419   1.085
  932SOL    HW1 3695   4.504   6.409   1.176
  932SOL    HW2 3696   4.372   6.456   1.093
  933SOL     OW 3697   1.603   5.734   3.908
  933SOL    HW1 3698   1.595   5.729   3.809
  933SOL    HW2 3699   1.700   5.736   3.933
  934SOL     OW 3700   3.342   0.693   5.463
  934SOL    HW1 3701   3.325   0.728   5.371
  934SOL    HW2 3702   3.255   0.662   5.502
  935SOL     OW 3703   2.246   2.950   6.166
  935SOL    HW1 3704   2.164   3.006   6.177
  935SOL    HW2 3705   2.231   2.860   6.208
  936SOL     OW 3706   0.100   2.110   1.964
  936SOL    HW1 3707   0.082   2.177   1.891
  936SOL    HW2 3708   0.070   2.020   1.934
  937SOL     OW 3709   5.435   2.230   3.805
  937SOL    HW1 3710   5.442   2.137   3.769
  937SOL    HW2 3711   5.342   2.264   3.793
  938SOL     OW 3712   6.858   1.556   0.013
  938SOL    HW1 3713   6.918   1.486   6.999
  938SOL    HW2 3714   6.800   1.514   0.084
  939SOL     OW 3715   6.512   0.626   5.903
  939SOL    HW1 3716   6.540   0.579   5.819
  939SOL    HW2 3717   6.515   0.562   5.980
  940SOL     OW 3718   0.643   0.826   4.084
  940SOL    HW1 3719   0.742   0.834   4.074
  940SOL    HW2 3720   0.601   0.916   4.074
  941SOL     OW 3721   5.323   3.078   5.328
  941SOL    HW1 3722   5.274   3.023   5.261
  941SOL    HW2 3723   5.328   3.173   5.295
  942SOL     OW 3724   5.041   0.290   5.393
  942SOL    HW1 3725   5.018   0.337   5.307
  942SOL    HW2 3726   4.988   0.331   5.467
  943SOL     OW 3727   6.021   1.925   0.119
  943SOL    HW1 3728   5.955   1.850   0.125
  943SOL    HW2 3729   6.053   1.935   0.025
  944SOL     OW 3730   5.461   3.968   4.744
  944SOL    HW1 3731   5.390   3.898   4.744
  944SOL    HW2 3732   5.534   3.942   4.808
  945SOL     OW 3733   5.410   3.662   5.419
  945SOL    HW1 3734   5.454   3.684   5.506
  945SOL    HW2 3735   5.323   3.712   5.412
  946SOL     OW 3736   5.724   2.977   6.243
  946SOL    HW1 3737   5.677   3.013   6.324
  946SOL    HW2 3738   5.674   3.003   6.161
  947SOL     OW 3739   0.921   2.627   5.470
  947SOL    HW1 3740   0.992   2.646   5.402
  947SOL    HW2 3741   0.889   2.533   5.459
  948SOL     OW 3742   4.161   2.069   0.553
  948SOL    HW1 3743   4.186   2.069   0.456
  948SOL    HW2 3744   4.103   1.990   0.572
  949SOL     OW 3745   5.808   5.705   6.764
  949SOL    HW1 3746   5.791   5.620   6.714
  949SOL    HW2 3747   5.906   5.714   6.781
  950SOL     OW 3748   4.201   5.059   0.264
  950SOL    HW1 3749   4.143   4.981   0.238
  950SOL    HW2 3750   4.294   5.027   0.279
  951SOL     OW 3751   0.909   2.536   3.710
  951SOL    HW1 3752   0.854   2.453   3.710
  951SOL    HW2 3753   0.891   2.588   3.626
  952SOL     OW 3754   5.248   1.011   1.587
  952SOL    HW1 3755   5.202   1.099   1.592
  952SOL    HW2 3756   5.207   0.956   1.513
  953SOL     OW 3757   3.553   6.211   5.912
  953SOL    HW1 3758   3.621   6.215   5.838
  953SOL    HW2 3759   3.600   6.199   5.999
  954SOL     OW 3760   0.577   6.654   1.517
  954SOL    HW1 3761   0.606   6.674   1.423
  954SOL    HW2 3762   0.488   6.609   1.516
  955SOL     OW 3763   6.615   6.694   2.548
  955SOL    HW1 3764   6.709   6.672   2.575
  955SOL    HW2 3765   6.614   6.777   2.493
  956SOL     OW 3766   0.964   2.625   7.025
  956SOL    HW1 3767   0.959   2.685   6.945
  956SOL    HW2 3768   0.965   2.530   6.994
  957SOL     OW 3769   2.528   6.531   5.047
  957SOL    HW1 3770   2.491   6.619   5.019
  957SOL    HW2 3771   2.568   6.540   5.138
  958SOL     OW 3772   4.986   2.270   0.546
  958SOL    HW1 3773   5.086   2.263   0.556
  958SOL    HW2 3774   4.944   2.267   0.636
  959SOL     OW 3775   1.692   3.947   2.053
  959SOL    HW1 3776   1.604   3.989   2.074
  959SOL    HW2 3777   1.689   3.908   1.961
  960SOL     OW 3778   1.348   5.601   5.625
  960SOL    HW1 3779   1.276   5.534   5.640
  960SOL    HW2 3780   1.426   5.581   5.685
  961SOL     OW 3781   3.496   0.012   1.130
  961SOL    HW1 3782   3.425   0.082   1.138
  961SOL    HW2 3783   3.545   0.005   1.217
  962SOL     OW 3784   1.785   6.298   3.941
  962SOL    HW1 3785   1.736   6.353   4.010
  962SOL    HW2 3786   1.718   6.247   3.887
  963SOL     OW 3787   6.215   0.252   2.593
  963SOL    HW1 3788   6.128   0.298   2.607
  963SOL    HW2 3789   6.241   0.257   2.496
  964SOL     OW 3790   5.156   3.392   1.075
  964SOL    HW1 3791   5.105   3.468   1.034
  964SOL    HW2 3792   5.218   3.353   1.006
  965SOL     OW 3793   1.597   2.411   0.645
  965SOL    HW1 3794   1.598   2.318   0.608
  965SOL    HW2 3795   1.588   2.407   0.744
  966SOL     OW 3796   6.925   2.196   1.612
  966SOL    HW1 3797   6.939   2.098   1.630
  966SOL    HW2 3798   6.870   2.207   1.530
  967SOL     OW 3799   0.961   5.996   2.463
  967SOL    HW1 3800   1.047   5.948   2.479
  967SOL    HW2 3801   0.975   6.072   2.401
  968SOL     OW 3802   6.369   4.446   1.796
  968SOL    HW1 3803   6.382   4.347   1.806
  968SOL    HW2 3804   6.283   4.474   1.839
  969SOL     OW 3805   4.078   6.034   6.567
  969SOL    HW1 3806   4.114   6.115   6.520
  969SOL    HW2 3807   4.054   6.058   6.661
  970SOL     OW 3808   4.306   2.436   5.498
  970SOL    HW1 3809   4.344   2.400   5.583
  970SOL    HW2 3810   4.381   2.467   5.438
  971SOL     OW 3811   0.722   2.670   1.345
  971SOL    HW1 3812   0.673   2.757   1.343
  971SOL    HW2 3813   0.699   2.621   1.429
  972SOL     OW 3814   6.511   6.438   1.484
  972SOL    HW1 3815   6.484   6.429   1.580
  972SOL    HW2 3816   6.551   6.529   1.469
  973SOL     OW 3817   5.759   3.942   5.602
  973SOL    HW1 3818   5.828   3.960   5.672
  973SOL    HW2 3819   5.705   4.025   5.585
  974SOL     OW 3820   3.062   1.339   4.129
  974SOL    HW1 3821   3.101   1.377   4.213
  974SOL    HW2 3822   3.076   1.404   4.053
  975SOL     OW 3823   3.553   6.521   5.362
  975SOL    HW1 3824   3.490   6.446   5.344
  975SOL    HW2 3825   3.503   6.599   5.397
  976SOL     OW 3826   6.978   6.371   3.876
  976SOL    HW1 3827   6.951   6.386   3.971
  976SOL    HW2 3828   6.897   6.360   3.819
  977SOL     OW 3829   1.396   2.423   2.658
  977SOL    HW1 3830   1.447   2.342   2.630
  977SOL    HW2 3831   1.422   2.449   2.751
  978SOL     OW 3832   5.905   3.267   4.714
  978SOL    HW1 3833   5.835   3.260   4.643
  978SOL    HW2 3834   5.966   3.187   4.709
  979SOL     OW 3835   5.553   1.552   3.410
  979SOL    HW1 3836   5.588   1.546   3.316
  979SOL    HW2 3837   5.489   1.629   3.417
  980SOL     OW 3838   6.467   0.951   4.714
  980SOL    HW1 3839   6.385   1.008   4.714
  980SOL    HW2 3840   6.544   1.004   4.680
  981SOL     OW 3841   6.940   3.395   5.454
  981SOL    HW1 3842   6.980   3.425   5.541
  981SOL    HW2 3843   6.970   3.456   5.381
  982SOL     OW 3844   1.637   2.943   1.418
  982SOL    HW1 3845   1.714   2.996   1.453
  982SOL    HW2 3846   1.584   2.906   1.495
  983SOL     OW 3847   5.894   1.678   2.758
  983SOL    HW1 3848   5.966   1.642   2.817
  983SOL    HW2 3849   5.899   1.635   2.668
  984SOL     OW 3850   4.851   1.524   4.483
  984SOL    HW1 3851   4.853   1.427   4.505
  984SOL    HW2 3852   4.833   1.536   4.385
  985SOL     OW 3853   3.002   5.007   0.745
  985SOL    HW1 3854   2.993   4.911   0.771
  985SOL    HW2 3855   2.967   5.065   0.818
  986SOL     OW 3856   3.929   5.243   6.611
  986SOL    HW1 3857   4.010   5.241   6.552
  986SOL    HW2 3858   3.927   5.329   6.662
  987SOL     OW 3859   3.246   6.694   2.062
  987SOL    HW1 3860   3.264   6.606   2.106
  987SOL    HW2 3861   3.333   6.738   2.039
  988SOL     OW 3862   3.483   3.929   2.153
  988SOL    HW1 3863   3.503   4.010   2.209
  988SOL    HW2 3864   3.567   3.897   2.111
  989SOL     OW 3865   0.978   0.033   4.807
  989SOL    HW1 3866   0.898   0.092   4.795
  989SOL    HW2 3867   1.016   0.010   4.718
  990SOL     OW 3868   4.976   6.252   3.590
  990SOL    HW1 3869   5.012   6.286   3.677
  990SOL    HW2 3870   4.970   6.152   3.593
  991SOL     OW 3871   6.533   1.164   5.350
  991SOL    HW1 3872   6.488   1.249   5.378
  991SOL    HW2 3873   6.495   1.088   5.403
  992SOL     OW 3874   0.158   3.045   0.892
  992SOL    HW1 3875   0.215   3.127   0.880
  992SOL    HW2 3876   0.107   3.052   0.977
  993SOL     OW 3877   3.303   5.339   3.886
  993SOL    HW1 3878   3.264   5.252   3.856
  993SOL    HW2 3879   3.292   5.407   3.814
  994SOL     OW 3880   3.219   3.948   2.243
  994SOL    HW1 3881   3.177   4.006   2.173
  994SOL    HW2 3882   3.318   3.942   2.226
  995SOL     OW 3883   0.570   0.963   4.892
  995SOL    HW1 3884   0.509   0.955   4.971
  995SOL    HW2 3885   0.517   0.949   4.808
  996SOL     OW 3886   1.150   3.869   1.980
  996SOL    HW1 3887   1.068   3.855   1.924
  996SOL    HW2 3888   1.128   3.927   2.058
  997SOL     OW 3889   0.080   1.238   1.434
  997SOL    HW1 3890   0.079   1.336   1.414
  997SOL    HW2 3891   0.088   1.186   1.349
  998SOL     OW 3892   4.682   0.165   3.358
  998SOL    HW1 3893   4.623   0.084   3.364
  998SOL    HW2 3894   4.631   0.241   3.316
  999SOL     OW 3895   7.024   5.626   1.593
  999SOL    HW1 3896   0.010   5.720   1.625
  999SOL    HW2 3897   0.008   5.623   1.494
 1000SOL     OW 3898   3.993   2.164   4.099
 1000SOL    HW1 3899   4.046   2.114   4.167
 1000SOL    HW2 3900   4.034   2.254   4.084
 1001SOL     OW 3901   4.356   0.058   5.655
 1001SOL    HW1 3902   4.278   0.038   5.596
 1001SOL    HW2 3903   4.368   0.158   5.662
 1002SOL     OW 3904   6.709   1.623   0.432
 1002SOL    HW1 3905   6.735   1.615   0.529
 1002SOL    HW2 3906   6.776   1.680   0.384
 1003SOL     OW 3907   4.464   4.836   2.812
 1003SOL    HW1 3908   4.400   4.829   2.736
 1003SOL    HW2 3909   4.467   4.750   2.862
 1004SOL     OW 3910   5.843   5.583   0.576
 1004SOL    HW1 3911   5.915   5.640   0.535
 1004SOL    HW2 3912   5.755   5.630   0.567
 1005SOL     OW 3913   6.590   6.182   3.487
 1005SOL    HW1 3914   6.646   6.198   3.406
 1005SOL    HW2 3915   6.493   6.194   3.464
 1006SOL     OW 3916   2.358   4.350   0.910
 1006SOL    HW1 3917   2.290   4.278   0.925
 1006SOL    HW2 3918   2.449   4.309   0.903
 1007SOL     OW 3919   0.933   0.265   3.773
 1007SOL    HW1 3920   1.028   0.235   3.767
 1007SOL    HW2 3921   0.923   0.354   3.729
 1008SOL     OW 3922   2.421   2.620   3.535
 1008SOL    HW1 3923   2.506   2.567   3.540
 1008SOL    HW2 3924   2.343   2.560   3.551
 1009SOL     OW 3925   1.443   5.608   5.062
 1009SOL    HW1 3926   1.461   5.539   4.992
 1009SOL    HW2 3927   1.443   5.564   5.152
 1010SOL     OW 3928   4.866   1.293   6.586
 1010SOL    HW1 3929   4.918   1.232   6.646
 1010SOL    HW2 3930   4.929   1.355   6.540
 1011SOL     OW 3931   3.653   5.870   3.554
 1011SOL    HW1 3932   3.682   5.820   3.473
 1011SOL    HW2 3933   3.656   5.809   3.633
 1012SOL     OW 3934   4.667   5.711   7.015
 1012SOL    HW1 3935   4.670   5.810   0.004
 1012SOL    HW2 3936   4.750   5.680   6.970
 1013SOL     OW 3937   0.342   1.746   1.335
 1013SOL    HW1 3938   0.339   1.799   1.250
 1013SOL    HW2 3939   0.392   1.661   1.320
 1014SOL     OW 3940   5.272   0.611   6.494
 1014SOL    HW1 3941   5.317   0.577   6.577
 1014SOL    HW2 3942   5.174   0.593   6.500
 1015SOL     OW 3943   2.944   5.985   4.250
 1015SOL    HW1 3944   2.929   5.892   4.284
 1015SOL    HW2 3945   3.005   6.034   4.312
 1016SOL     OW 3946   4.571   2.605   1.330
 1016SOL    HW1 3947   4.487   2.660   1.324
 1016SOL    HW2 3948   4.645   2.652   1.282
 1017SOL     OW 3949   4.670   1.981   6.975
 1017SOL    HW1 3950   4.711   1.936   6.895
 1017SOL    HW2 3951   4.575   2.005   6.955
 1018SOL     OW 3952   1.717   3.300   2.194
 1018SOL    HW1 3953   1.656   3.255   2.130
 1018SOL    HW2 3954   1.681   3.390   2.217
 1019SOL     OW 3955   6.310   0.671   0.302
 1019SOL    HW1 3956   6.269   0.707   0.386
 1019SOL    HW2 3957   6.317   0.744   0.234
 1020SOL     OW 3958   2.789   1.869   1.160
 1020SOL    HW1 3959   2.888   1.886   1.158
 1020SOL    HW2 3960   2.768   1.803   1.232
 1021SOL     OW 3961   6.252   1.719   1.088
 1021SOL    HW1 3962   6.301   1.760   1.165
 1021SOL    HW2 3963   6.302   1.736   1.003
 1022SOL     OW 3964   4.149   2.882   6.695
 1022SOL    HW1 3965   4.088   2.913   6.768
 1022SOL    HW2 3966   4.183   2.961   6.644
 1023SOL     OW 3967   5.434   1.127   4.143
 1023SOL    HW1 3968   5.386   1.041   4.129
 1023SOL    HW2 3969   5.371   1.196   4.178
 1024SOL     OW 3970   6.214   1.636   3.794
 1024SOL    HW1 3971   6.156   1.558   3.769
 1024SOL    HW2 3972   6.300   1.630   3.745
 1025SOL     OW 3973   3.134   4.242   0.980
 1025SOL    HW1 3974   3.055   4.295   1.012
 1025SOL    HW2 3975   3.110   4.145   0.977
 1026SOL     OW 3976   1.082   2.963   6.418
 1026SOL    HW1 3977   1.086   2.866   6.445
 1026SOL    HW2 3978   1.175   2.996   6.400
 1027SOL     OW 3979   2.389   5.458   2.199
 1027SOL    HW1 3980   2.460   5.403   2.155
 1027SOL    HW2 3981   2.299   5.422   2.174
 1028SOL     OW 3982   1.832   5.771   0.750
 1028SOL    HW1 3983   1.787   5.826   0.679
 1028SOL    HW2 3984   1.929   5.760   0.727
 1029SOL     OW 3985   3.371   0.273   5.693
 1029SOL    HW1 3986   3.322   0.254   5.778
 1029SOL    HW2 3987   3.443   0.340   5.709
 1030SOL     OW 3988   3.367   4.067   4.971
 1030SOL    HW1 3989   3.302   4.125   5.021
 1030SOL    HW2 3990   3.442   4.123   4.937
 1031SOL     OW 3991   2.400   5.513   1.450
 1031SOL    HW1 3992   2.452   5.443   1.499
 1031SOL    HW2 3993   2.428   5.514   1.354
 1032SOL     OW 3994   2.127   0.862   4.324
 1032SOL    HW1 3995   2.043   0.836   4.277
 1032SOL    HW2 3996   2.205   0.820   4.279
 1033SOL     OW 3997   1.920   6.197   2.997
 1033SOL    HW1 3998   1.957   6.222   2.907
 1033SOL    HW2 3999   1.973   6.121   3.034
 1034SOL     OW 4000   1.329   6.082   2.750
 1034SOL    HW1 4001   1.286   6.001   2.708
 1034SOL    HW2 4002   1.373   6.056   2.836
 1035SOL     OW 4003   3.000   0.989   4.212
 1035SOL    HW1 4004   3.007   0.960   4.117
 1035SOL    HW2 4005   3.046   0.923   4.271
 1036SOL     OW 4006   4.464   0.703   6.986
 1036SOL    HW1 4007   4.378   0.753   6.976
 1036SOL    HW2 4008   4.539   0.767   7.001
 1037SOL     OW 4009   3.141   1.877   6.466
 1037SOL    HW1 4010   3.104   1.787   6.490
 1037SOL    HW2 4011   3.129   1.940   6.543
 1038SOL     OW 4012   2.639   1.113   4.540
 1038SOL    HW1 4013   2.562   1.124   4.477
 1038SOL    HW2 4014   2.724   1.107   4.487
 1039SOL     OW 4015   4.244   1.277   3.499
 1039SOL    HW1 4016   4.340   1.266   3.525
 1039SOL    HW2 4017   4.207   1.189   3.468
 1040SOL     OW 4018   6.420   3.639   3.693
 1040SOL    HW1 4019   6.427   3.633   3.792
 1040SOL    HW2 4020   6.499   3.689   3.657
 1041SOL     OW 4021   0.784   6.822   4.782
 1041SOL    HW1 4022   0.859   6.878   4.817
 1041SOL    HW2 4023   0.798   6.727   4.809
 1042SOL     OW 4024   5.407   3.957   0.980
 1042SOL    HW1 4025   5.339   3.888   0.954
 1042SOL    HW2 4026   5.464   3.920   1.054
 1043SOL     OW 4027   3.432   1.054   6.502
 1043SOL    HW1 4028   3.389   1.080   6.589
 1043SOL    HW2 4029   3.362   1.047   6.432
 1044SOL     OW 4030   3.837   3.927   1.644
 1044SOL    HW1 4031   3.917   3.897   1.697
 1044SOL    HW2 4032   3.754   3.905   1.695
 1045SOL     OW 4033   3.684   1.459   3.441
 1045SOL    HW1 4034   3.771   1.504   3.461
 1045SOL    HW2 4035   3.619   1.527   3.408
 1046SOL     OW 4036   3.852   1.066   1.955
 1046SOL    HW1 4037   3.940   1.099   1.922
 1046SOL    HW2 4038   3.802   1.142   1.998
 1047SOL     OW 4039   0.545   5.163   2.016
 1047SOL    HW1 4040   0.488   5.152   1.935
 1047SOL    HW2 4041   0.641   5.169   1.988
 1048SOL     OW 4042   6.557   4.422   5.133
 1048SOL    HW1 4043   6.546   4.351   5.063
 1048SOL    HW2 4044   6.470   4.440   5.177
 1049SOL     OW 4045   0.914   3.168   5.178
 1049SOL    HW1 4046   0.929   3.074   5.147
 1049SOL    HW2 4047   0.999   3.220   5.170
 1050SOL     OW 4048   3.388   0.752   6.770
 1050SOL    HW1 4049   3.298   0.747   6.726
 1050SOL    HW2 4050   3.403   0.670   6.826
 1051SOL     OW 4051   4.839   5.220   2.139
 1051SOL    HW1 4052   4.823   5.122   2.150
 1051SOL    HW2 4053   4.807   5.268   2.221
 1052SOL     OW 4054   3.179   6.827   4.183
 1052SOL    HW1 4055   3.227   6.777   4.255
 1052SOL    HW2 4056   3.081   6.809   4.191
 1053SOL     OW 4057   4.263   4.889   3.254
 1053SOL    HW1 4058   4.322   4.812   3.277
 1053SOL    HW2 4059   4.171   4.855   3.233
 1054SOL     OW 4060   3.694   6.327   3.839
 1054SOL    HW1 4061   3.721   6.296   3.747
 1054SOL    HW2 4062   3.761   6.294   3.905
 1055SOL     OW 4063   4.674   5.436   4.523
 1055SOL    HW1 4064   4.696   5.342   4.547
 1055SOL    HW2 4065   4.737   5.467   4.452
 1056SOL     OW 4066   1.296   5.802   5.288
 1056SOL    HW1 4067   1.328   5.733   5.353
 1056SOL    HW2 4068   1.196   5.804   5.287
 1057SOL     OW 4069   3.617   4.412   1.176
 1057SOL    HW1 4070   3.625   4.344   1.249
 1057SOL    HW2 4071   3.548   4.382   1.110
 1058SOL     OW 4072   3.670   0.411   1.243
 1058SOL    HW1 4073   3.652   0.508   1.225
 1058SOL    HW2 4074   3.593   0.372   1.293
 1059SOL     OW 4075   3.288   1.401   1.164
 1059SOL    HW1 4076   3.277   1.438   1.072
 1059SOL    HW2 4077   3.381   1.366   1.175
 1060SOL     OW 4078   2.341   2.035   5.036
 1060SOL    HW1 4079   2.301   2.091   4.963
 1060SOL    HW2 4080   2.435   2.010   5.011
 1061SOL     OW 4081   3.229   6.042   1.249
 1061SOL    HW1 4082   3.324   6.062   1.225
 1061SOL    HW2 4083   3.226   6.009   1.344
 1062SOL     OW 4084   4.939   4.337   5.345
 1062SOL    HW1 4085   4.923   4.436   5.346
 1062SOL    HW2 4086   5.001   4.313   5.419
 1063SOL     OW 4087   2.138   2.777   5.690
 1063SOL    HW1 4088   2.190   2.693   5.705
 1063SOL    HW2 4089   2.158   2.842   5.763
 1064SOL     OW 4090   0.204   3.871   1.545
 1064SOL    HW1 4091   0.209   3.823   1.632
 1064SOL    HW2 4092   0.117   3.922   1.540
 1065SOL     OW 4093   5.187   5.469   5.227
 1065SOL    HW1 4094   5.253   5.521   5.172
 1065SOL    HW2 4095   5.206   5.372   5.217
 1066SOL     OW 4096   3.775   0.306   3.727
 1066SOL    HW1 4097   3.865   0.311   3.684
 1066SOL    HW2 4098   3.787   0.298   3.826
 1067SOL     OW 4099   1.773   3.172   1.517
 1067SOL    HW1 4100   1.682   3.209   1.499
 1067SOL    HW2 4101   1.789   3.169   1.615
 1068SOL     OW 4102   0.570   3.996   1.041
 1068SOL    HW1 4103   0.599   3.979   1.136
 1068SOL    HW2 4104   0.589   3.915   0.986
 1069SOL     OW 4105   3.702   3.942   1.370
 1069SOL    HW1 4106   3.682   4.032   1.408
 1069SOL    HW2 4107   3.800   3.936   1.352
 1070SOL     OW 4108   2.344   0.227   0.342
 1070SOL    HW1 4109   2.286   0.178   0.407
 1070SOL    HW2 4110   2.286   0.275   0.275
 1071SOL     OW 4111   4.537   6.350   3.802
 1071SOL    HW1 4112   4.524   6.251   3.807
 1071SOL    HW2 4113   4.563   6.375   3.708
 1072SOL     OW 4114   3.766   5.723   3.337
 1072SOL    HW1 4115   3.718   5.660   3.277
 1072SOL    HW2 4116   3.854   5.748   3.296
 1073SOL     OW 4117   2.830   5.124   2.875
 1073SOL    HW1 4118   2.892   5.060   2.831
 1073SOL    HW2 4119   2.852   5.130   2.972
 1074SOL     OW 4120   1.478   5.507   2.304
 1074SOL    HW1 4121   1.445   5.465   2.389
 1074SOL    HW2 4122   1.576   5.492   2.295
 1075SOL     OW 4123   0.198   4.105   2.831
 1075SOL    HW1 4124   0.286   4.125   2.874
 1075SOL    HW2 4125   0.131   4.174   2.859
 1076SOL     OW 4126   0.156   4.333   3.334
 1076SOL    HW1 4127   0.196   4.280   3.258
 1076SOL    HW2 4128   0.132   4.424   3.301
 1077SOL     OW 4129   4.677   0.889   1.129
 1077SOL    HW1 4130   4.751   0.833   1.091
 1077SOL    HW2 4131   4.643   0.951   1.058
 1078SOL     OW 4132   0.734   3.208   1.611
 1078SOL    HW1 4133   0.648   3.159   1.625
 1078SOL    HW2 4134   0.768   3.240   1.700
 1079SOL     OW 4135   2.508   5.353   2.567
 1079SOL    HW1 4136   2.510   5.288   2.491
 1079SOL    HW2 4137   2.414   5.361   2.601
 1080SOL     OW 4138   1.418   5.803   4.219
 1080SOL    HW1 4139   1.465   5.732   4.271
 1080SOL    HW2 4140   1.393   5.879   4.279
 1081SOL     OW 4141   0.978   1.426   0.405
 1081SOL    HW1 4142   1.072   1.441   0.438
 1081SOL    HW2 4143   0.916   1.486   0.456
 1082SOL     OW 4144   1.926   6.880   0.120
 1082SOL    HW1 4145   1.873   6.948   0.170
 1082SOL    HW2 4146   1.917   6.896   0.022
 1083SOL     OW 4147   3.863   2.533   1.505
 1083SOL    HW1 4148   3.810   2.450   1.520
 1083SOL    HW2 4149   3.828   2.607   1.562
 1084SOL     OW 4150   6.341   3.464   0.021
 1084SOL    HW1 4151   6.279   3.439   6.972
 1084SOL    HW2 4152   6.314   3.417   0.105
 1085SOL     OW 4153   2.217   4.567   3.272
 1085SOL    HW1 4154   2.135   4.617   3.299
 1085SOL    HW2 4155   2.264   4.616   3.199
 1086SOL     OW 4156   4.357   5.267   1.773
 1086SOL    HW1 4157   4.275   5.324   1.783
 1086SOL    HW2 4158   4.437   5.326   1.765
 1087SOL     OW 4159   3.689   3.337   5.264
 1087SOL    HW1 4160   3.603   3.342   5.214
 1087SOL    HW2 4161   3.718   3.241   5.271
 1088SOL     OW 4162   5.862   4.489   3.330
 1088SOL    HW1 4163   5.870   4.583   3.297
 1088SOL    HW2 4164   5.808   4.487   3.414
 1089SOL     OW 4165   5.910   0.297   3.188
 1089SOL    HW1 4166   5.848   0.263   3.258
 1089SOL    HW2 4167   5.945   0.220   3.134
 1090SOL     OW 4168   1.133   2.068   5.342
 1090SOL    HW1 4169   1.062   2.029   5.401
 1090SOL    HW2 4170   1.215   2.086   5.396
 1091SOL     OW 4171   0.848   2.544   5.057
 1091SOL    HW1 4172   0.763   2.596   5.067
 1091SOL    HW2 4173   0.909   2.592   4.994
 1092SOL     OW 4174   2.057   4.491   1.210
 1092SOL    HW1 4175   1.992   4.545   1.156
 1092SOL    HW2 4176   2.150   4.513   1.182
 1093SOL     OW 4177   0.652   1.796   2.409
 1093SOL    HW1 4178   0.591   1.820   2.485
 1093SOL    HW2 4179   0.607   1.727   2.351
 1094SOL     OW 4180   0.657   6.246   2.161
 1094SOL    HW1 4181   0.701   6.196   2.235
 1094SOL    HW2 4182   0.725   6.268   2.091
 1095SOL     OW 4183   5.710   3.481   6.107
 1095SOL    HW1 4184   5.682   3.541   6.032
 1095SOL    HW2 4185   5.707   3.532   6.193
 1096SOL     OW 4186   3.791   4.366   1.619
 1096SOL    HW1 4187   3.697   4.343   1.648
 1096SOL    HW2 4188   3.852   4.290   1.643
 1097SOL     OW 4189   1.973   4.657   5.487
 1097SOL    HW1 4190   1.881   4.680   5.457
 1097SOL    HW2 4191   2.001   4.719   5.561
 1098SOL     OW 4192   4.195   0.977   3.129
 1098SOL    HW1 4193   4.222   0.884   3.153
 1098SOL    HW2 4194   4.193   0.987   3.030
 1099SOL     OW 4195   3.774   1.788   2.536
 1099SOL    HW1 4196   3.762   1.724   2.459
 1099SOL    HW2 4197   3.798   1.878   2.501
 1100SOL     OW 4198   0.498   0.385   0.749
 1100SOL    HW1 4199   0.569   0.454   0.743
 1100SOL    HW2 4200   0.409   0.427   0.734
 1101SOL     OW 4201   5.918   2.463   0.928
 1101SOL    HW1 4202   5.827   2.505   0.923
 1101SOL    HW2 4203   5.980   2.510   0.865
 1102SOL     OW 4204   0.291   4.387   4.034
 1102SOL    HW1 4205   0.372   4.344   4.074
 1102SOL    HW2 4206   0.257   4.332   3.958
 1103SOL     OW 4207   0.388   3.282   1.259
 1103SOL    HW1 4208   0.436   3.257   1.175
 1103SOL    HW2 4209   0.455   3.309   1.329
 1104SOL     OW 4210   2.863   5.197   5.807
 1104SOL    HW1 4211   2.926   5.215   5.732
 1104SOL    HW2 4212   2.904   5.129   5.868
 1105SOL     OW 4213   4.330   5.427   0.375
 1105SOL    HW1 4214   4.406   5.490   0.355
 1105SOL    HW2 4215   4.311   5.430   0.473
 1106SOL     OW 4216   1.659   1.081   5.697
 1106SOL    HW1 4217   1.758   1.073   5.685
 1106SOL    HW2 4218   1.639   1.115   5.789
 1107SOL     OW 4219   1.016   0.122   1.658
 1107SOL    HW1 4220   0.977   0.205   1.699
 1107SOL    HW2 4221   0.998   0.044   1.717
 1108SOL     OW 4222   1.743   1.384   5.965
 1108SOL    HW1 4223   1.671   1.318   5.985
 1108SOL    HW2 4224   1.730   1.466   6.022
 1109SOL     OW 4225   4.513   1.238   3.822
 1109SOL    HW1 4226   4.558   1.154   3.790
 1109SOL    HW2 4227   4.578   1.293   3.874
 1110SOL     OW 4228   3.427   2.782   2.071
 1110SOL    HW1 4229   3.422   2.692   2.115
 1110SOL    HW2 4230   3.523   2.807   2.058
 1111SOL     OW 4231   5.555   6.956   6.784
 1111SOL    HW1 4232   5.464   6.959   6.743
 1111SOL    HW2 4233   5.601   0.019   6.767
 1112SOL     OW 4234   0.140   1.459   2.859
 1112SOL    HW1 4235   0.167   1.425   2.949
 1112SOL    HW2 4236   0.169   1.554   2.850
 1113SOL     OW 4237   6.288   3.713   1.838
 1113SOL    HW1 4238   6.206   3.768   1.847
 1113SOL    HW2 4239   6.265   3.616   1.847
 1114SOL     OW 4240   6.136   1.529   5.531
 1114SOL    HW1 4241   6.050   1.570   5.499
 1114SOL    HW2 4242   6.146   1.546   5.629
 1115SOL     OW 4243   3.026   3.708   0.234
 1115SOL    HW1 4244   2.932   3.727   0.262
 1115SOL    HW2 4245   3.067   3.790   0.196
 1116SOL     OW 4246   4.111   5.825   5.728
 1116SOL    HW1 4247   4.181   5.815   5.799
 1116SOL    HW2 4248   4.074   5.919   5.731
 1117SOL     OW 4249   2.660   3.193   0.711
 1117SOL    HW1 4250   2.626   3.266   0.770
 1117SOL    HW2 4251   2.601   3.184   0.631
 1118SOL     OW 4252   1.822   3.369   3.084
 1118SOL    HW1 4253   1.826   3.283   3.032
 1118SOL    HW2 4254   1.813   3.446   3.020
 1119SOL     OW 4255   2.889   3.502   2.459
 1119SOL    HW1 4256   2.847   3.522   2.548
 1119SOL    HW2 4257   2.979   3.462   2.474
 1120SOL     OW 4258   4.668   0.333   4.229
 1120SOL    HW1 4259   4.672   0.249   4.176
 1120SOL    HW2 4260   4.585   0.384   4.206
 1121SOL     OW 4261   5.153   3.082   2.348
 1121SOL    HW1 4262   5.136   3.135   2.265
 1121SOL    HW2 4263   5.068   3.072   2.400
 1122SOL     OW 4264   4.598   5.052   7.012
 1122SOL    HW1 4265   4.682   5.107   7.008
 1122SOL    HW2 4266   4.613   4.965   6.965
 1123SOL     OW 4267   3.882   0.798   2.076
 1123SOL    HW1 4268   3.922   0.751   1.997
 1123SOL    HW2 4269   3.854   0.890   2.049
 1124SOL     OW 4270   0.634   4.773   4.752
 1124SOL    HW1 4271   0.621   4.776   4.653
 1124SOL    HW2 4272   0.580   4.698   4.790
 1125SOL     OW 4273   3.783   3.434   4.757
 1125SOL    HW1 4274   3.805   3.451   4.853
 1125SOL    HW2 4275   3.780   3.520   4.707
 1126SOL     OW 4276   5.774   0.168   2.543
 1126SOL    HW1 4277   5.689   0.195   2.497
 1126SOL    HW2 4278   5.756   0.149   2.640
 1127SOL     OW 4279   1.367   5.100   6.482
 1127SOL    HW1 4280   1.368   5.001   6.470
 1127SOL    HW2 4281   1.383   5.122   6.578
 1128SOL     OW 4282   2.887   1.549   4.535
 1128SOL    HW1 4283   2.860   1.506   4.449
 1128SOL    HW2 4284   2.811   1.544   4.601
 1129SOL     OW 4285   5.318   0.156   6.976
 1129SOL    HW1 4286   5.218   0.159   6.977
 1129SOL    HW2 4287   5.349   0.116   6.890
 1130SOL     OW 4288   0.327   4.729   5.654
 1130SOL    HW1 4289   0.269   4.757   5.732
 1130SOL    HW2 4290   0.357   4.810   5.605
 1131SOL     OW 4291   0.627   5.107   5.658
 1131SOL    HW1 4292   0.626   5.207   5.655
 1131SOL    HW2 4293   0.623   5.076   5.753
 1132SOL     OW 4294   5.032   0.482   5.144
 1132SOL    HW1 4295   5.001   0.414   5.078
 1132SOL    HW2 4296   4.953   0.530   5.182
 1133SOL     OW 4297   0.809   2.374   0.835
 1133SOL    HW1 4298   0.878   2.391   0.766
 1133SOL    HW2 4299   0.839   2.298   0.894
 1134SOL     OW 4300   6.560   2.820   5.852
 1134SOL    HW1 4301   6.588   2.749   5.788
 1134SOL    HW2 4302   6.468   2.851   5.829
 1135SOL     OW 4303   5.310   1.886   2.982
 1135SOL    HW1 4304   5.286   1.938   2.900
 1135SOL    HW2 4305   5.400   1.916   3.016
 1136SOL     OW 4306   4.002   5.279   4.413
 1136SOL    HW1 4307   4.025   5.220   4.336
 1136SOL    HW2 4308   3.924   5.240   4.462
 1137SOL     OW 4309   1.965   1.065   5.725
 1137SOL    HW1 4310   1.978   0.987   5.786
 1137SOL    HW2 4311   2.018   1.050   5.642
 1138SOL     OW 4312   0.527   4.348   5.611
 1138SOL    HW1 4313   0.546   4.444   5.633
 1138SOL    HW2 4314   0.554   4.329   5.517
 1139SOL     OW 4315   1.061   6.146   1.128
 1139SOL    HW1 4316   0.967   6.181   1.135
 1139SOL    HW2 4317   1.096   6.165   1.036
 1140SOL     OW 4318   3.828   1.540   3.807
 1140SOL    HW1 4319   3.780   1.601   3.744
 1140SOL    HW2 4320   3.889   1.480   3.756
 1141SOL     OW 4321   6.465   6.230   5.982
 1141SOL    HW1 4322   6.510   6.171   6.049
 1141SOL    HW2 4323   6.373   6.252   6.014
 1142SOL     OW 4324   5.754   0.906   4.208
 1142SOL    HW1 4325   5.766   0.988   4.152
 1142SOL    HW2 4326   5.671   0.858   4.181
 1143SOL     OW 4327   4.178   2.216   2.384
 1143SOL    HW1 4328   4.158   2.119   2.394
 1143SOL    HW2 4329   4.194   2.238   2.288
 1144SOL     OW 4330   1.374   6.570   5.807
 1144SOL    HW1 4331   1.371   6.670   5.796
 1144SOL    HW2 4332   1.418   6.530   5.727
 1145SOL     OW 4333   1.562   5.096   5.252
 1145SOL    HW1 4334   1.561   5.004   5.290
 1145SOL    HW2 4335   1.525   5.160   5.320
 1146SOL     OW 4336   6.045   2.087   0.671
 1146SOL    HW1 4337   5.959   2.094   0.621
 1146SOL    HW2 4338   6.107   2.026   0.623
 1147SOL     OW 4339   5.958   2.595   1.679
 1147SOL    HW1 4340   5.982   2.685   1.642
 1147SOL    HW2 4341   5.868   2.569   1.646
 1148SOL     OW 4342   4.352   0.622   0.269
 1148SOL    HW1 4343   4.269   0.635   0.213
 1148SOL    HW2 4344   4.426   0.589   0.211
 1149SOL     OW 4345   6.796   2.941   2.665
 1149SOL    HW1 4346   6.714   2.951   2.722
 1149SOL    HW2 4347   6.861   3.013   2.688
 1150SOL     OW 4348   1.050   4.775   5.587
 1150SOL    HW1 4349   1.065   4.685   5.546
 1150SOL    HW2 4350   1.120   4.838   5.554
 1151SOL     OW 4351   4.350   5.867   6.887
 1151SOL    HW1 4352   4.385   5.790   6.834
 1151SOL    HW2 4353   4.278   5.835   6.948
 1152SOL     OW 4354   0.754   0.776   4.879
 1152SOL    HW1 4355   0.679   0.842   4.881
 1152SOL    HW2 4356   0.840   0.824   4.862
 1153SOL     OW 4357   2.320   5.181   2.078
 1153SOL    HW1 4358   2.352   5.150   1.988
 1153SOL    HW2 4359   2.246   5.248   2.066
 1154SOL     OW 4360   2.048   4.330   1.701
 1154SOL    HW1 4361   1.958   4.308   1.739
 1154SOL    HW2 4362   2.113   4.344   1.775
 1155SOL     OW 4363   3.207   5.528   1.962
 1155SOL    HW1 4364   3.189   5.588   1.884
 1155SOL    HW2 4365   3.173   5.571   2.045
 1156SOL     OW 4366   1.720   1.104   4.082
 1156SOL    HW1 4367   1.805   1.107   4.136
 1156SOL    HW2 4368   1.710   1.014   4.040
 1157SOL     OW 4369   0.832   2.737   4.205
 1157SOL    HW1 4370   0.824   2.834   4.180
 1157SOL    HW2 4371   0.801   2.725   4.299
 1158SOL     OW 4372   4.731   5.319   5.853
 1158SOL    HW1 4373   4.688   5.388   5.911
 1158SOL    HW2 4374   4.820   5.351   5.822
 1159SOL     OW 4375   5.129   5.486   3.510
 1159SOL    HW1 4376   5.181   5.548   3.451
 1159SOL    HW2 4377   5.182   5.403   3.526
 1160SOL     OW 4378   2.332   2.784   0.326
 1160SOL    HW1 4379   2.328   2.875   0.369
 1160SOL    HW2 4380   2.272   2.782   0.247
 1161SOL     OW 4381   4.115   0.183   4.535
 1161SOL    HW1 4382   4.196   0.234   4.506
 1161SOL    HW2 4383   4.107   0.099   4.482
 1162SOL     OW 4384   3.972   4.635   1.723
 1162SOL    HW1 4385   3.999   4.670   1.813
 1162SOL    HW2 4386   4.014   4.545   1.709
 1163SOL     OW 4387   4.752   2.036   2.444
 1163SOL    HW1 4388   4.689   2.113   2.454
 1163SOL    HW2 4389   4.720   1.959   2.499
 1164SOL     OW 4390   5.543   3.665   3.847
 1164SOL    HW1 4391   5.587   3.659   3.936
 1164SOL    HW2 4392   5.489   3.749   3.841
 1165SOL     OW 4393   1.538   4.720   2.143
 1165SOL    HW1 4394   1.466   4.670   2.094
 1165SOL    HW2 4395   1.594   4.657   2.195
 1166SOL     OW 4396   3.765   3.135   6.592
 1166SOL    HW1 4397   3.748   3.142   6.690
 1166SOL    HW2 4398   3.863   3.124   6.575
 1167SOL     OW 4399   4.686   1.915   4.563
 1167SOL    HW1 4400   4.719   1.892   4.655
 1167SOL    HW2 4401   4.609   1.979   4.571
 1168SOL     OW 4402   6.114   6.437   3.645
 1168SOL    HW1 4403   6.079   6.363   3.587
 1168SOL    HW2 4404   6.057   6.445   3.726
 1169SOL     OW 4405   0.646   3.970   1.568
 1169SOL    HW1 4406   0.718   4.039   1.568
 1169SOL    HW2 4407   0.686   3.879   1.580
 1170SOL     OW 4408   2.770   0.741   0.743
 1170SOL    HW1 4409   2.808   0.831   0.762
 1170SOL    HW2 4410   2.671   0.743   0.756
 1171SOL     OW 4411   2.462   6.894   0.667
 1171SOL    HW1 4412   2.532   6.906   0.737
 1171SOL    HW2 4413   2.476   6.962   0.595
 1172SOL     OW 4414   2.900   3.468   4.565
 1172SOL    HW1 4415   2.986   3.519   4.563
 1172SOL    HW2 4416   2.915   3.380   4.612
 1173SOL     OW 4417   5.364   0.501   6.144
 1173SOL    HW1 4418   5.348   0.498   6.243
 1173SOL    HW2 4419   5.463   0.495   6.126
 1174SOL     OW 4420   3.537   6.694   0.710
 1174SOL    HW1 4421   3.561   6.778   0.760
 1174SOL    HW2 4422   3.503   6.718   0.619
 1175SOL     OW 4423   6.751   5.452   4.891
 1175SOL    HW1 4424   6.831   5.427   4.945
 1175SOL    HW2 4425   6.745   5.393   4.811
 1176SOL     OW 4426   6.524   3.661   1.066
 1176SOL    HW1 4427   6.544   3.746   1.115
 1176SOL    HW2 4428   6.446   3.675   1.005
 1177SOL     OW 4429   6.132   3.353   6.886
 1177SOL    HW1 4430   6.120   3.312   6.796
 1177SOL    HW2 4431   6.128   3.281   6.956
 1178SOL     OW 4432   5.426   4.046   1.800
 1178SOL    HW1 4433   5.332   4.063   1.771
 1178SOL    HW2 4434   5.467   4.132   1.832
 1179SOL     OW 4435   2.512   5.738   6.259
 1179SOL    HW1 4436   2.430   5.743   6.316
 1179SOL    HW2 4437   2.550   5.829   6.248
 1180SOL     OW 4438   2.684   1.571   4.017
 1180SOL    HW1 4439   2.664   1.529   4.106
 1180SOL    HW2 4440   2.628   1.652   4.005
 1181SOL     OW 4441   2.156   4.382   2.964
 1181SOL    HW1 4442   2.230   4.330   2.921
 1181SOL    HW2 4443   2.156   4.365   3.063
 1182SOL     OW 4444   1.174   4.317   2.955
 1182SOL    HW1 4445   1.141   4.384   3.021
 1182SOL    HW2 4446   1.215   4.363   2.877
 1183SOL     OW 4447   4.504   5.745   0.675
 1183SOL    HW1 4448   4.411   5.730   0.707
 1183SOL    HW2 4449   4.564   5.763   0.754
 1184SOL     OW 4450   3.015   2.689   5.516
 1184SOL    HW1 4451   2.990   2.609   5.461
 1184SOL    HW2 4452   2.933   2.724   5.562
 1185SOL     OW 4453   2.562   1.759   0.248
 1185SOL    HW1 4454   2.599   1.670   0.273
 1185SOL    HW2 4455   2.479   1.776   0.301
 1186SOL     OW 4456   4.426   0.844   4.876
 1186SOL    HW1 4457   4.457   0.757   4.838
 1186SOL    HW2 4458   4.387   0.829   4.966
 1187SOL     OW 4459   0.545   0.926   5.552
 1187SOL    HW1 4460   0.641   0.944   5.576
 1187SOL    HW2 4461   0.535   0.926   5.452
 1188SOL     OW 4462   1.539   6.718   5.603
 1188SOL    HW1 4463   1.558   6.799   5.547
 1188SOL    HW2 4464   1.608   6.649   5.586
 1189SOL     OW 4465   6.737   1.053   1.429
 1189SOL    HW1 4466   6.783   0.995   1.362
 1189SOL    HW2 4467   6.682   0.996   1.490
 1190SOL     OW 4468   4.132   4.691   2.887
 1190SOL    HW1 4469   4.067   4.661   2.957
 1190SOL    HW2 4470   4.083   4.722   2.806
 1191SOL     OW 4471   3.216   4.710   0.475
 1191SOL    HW1 4472   3.140   4.669   0.525
 1191SOL    HW2 4473   3.222   4.808   0.498
 1192SOL     OW 4474   4.534   5.280   2.240
 1192SOL    HW1 4475   4.502   5.356   2.183
 1192SOL    HW2 4476   4.618   5.307   2.288
 1193SOL     OW 4477   3.952   6.888   3.852
 1193SOL    HW1 4478   3.887   6.934   3.912
 1193SOL    HW2 4479   3.905   6.816   3.800
 1194SOL     OW 4480   6.345   0.647   1.473
 1194SOL    HW1 4481   6.368   0.610   1.383
 1194SOL    HW2 4482   6.249   0.628   1.493
 1195SOL     OW 4483   3.705   6.881   6.987
 1195SOL    HW1 4484   3.721   6.978   6.970
 1195SOL    HW2 4485   3.620   6.854   6.942
 1196SOL     OW 4486   0.505   5.511   2.953
 1196SOL    HW1 4487   0.433   5.446   2.978
 1196SOL    HW2 4488   0.464   5.592   2.913
 1197SOL     OW 4489   3.240   5.336   6.582
 1197SOL    HW1 4490   3.264   5.248   6.623
 1197SOL    HW2 4491   3.321   5.373   6.536
 1198SOL     OW 4492   3.346   1.709   2.655
 1198SOL    HW1 4493   3.290   1.751   2.726
 1198SOL    HW2 4494   3.442   1.714   2.680
 1199SOL     OW 4495   3.149   4.014   3.383
 1199SOL    HW1 4496   3.229   4.011   3.443
 1199SOL    HW2 4497   3.074   3.963   3.424
 1200SOL     OW 4498   3.842   3.485   0.480
 1200SOL    HW1 4499   3.906   3.560   0.498
 1200SOL    HW2 4500   3.753   3.506   0.520
 1201SOL     OW 4501   1.480   0.807   4.595
 1201SOL    HW1 4502   1.492   0.711   4.619
 1201SOL    HW2 4503   1.396   0.818   4.542
 1202SOL     OW 4504   5.901   0.346   5.256
 1202SOL    HW1 4505   5.900   0.291   5.172
 1202SOL    HW2 4506   5.897   0.443   5.232
 1203SOL     OW 4507   6.124   6.860   1.744
 1203SOL    HW1 4508   6.105   6.826   1.652
 1203SOL    HW2 4509   6.206   6.916   1.742
 1204SOL     OW 4510   2.774   6.456   6.812
 1204SOL    HW1 4511   2.689   6.444   6.863
 1204SOL    HW2 4512   2.841   6.388   6.842
 1205SOL     OW 4513   0.619   1.968   5.329
 1205SOL    HW1 4514   0.617   2.045   5.264
 1205SOL    HW2 4515   0.670   1.892   5.289
 1206SOL     OW 4516   0.407   1.804   4.506
 1206SOL    HW1 4517   0.400   1.831   4.409
 1206SOL    HW2 4518   0.492   1.841   4.544
 1207SOL     OW 4519   6.076   5.999   6.521
 1207SOL    HW1 4520   6.048   5.919   6.467
 1207SOL    HW2 4521   6.146   6.050   6.471
 1208SOL     OW 4522   3.862   4.046   3.686
 1208SOL    HW1 4523   3.795   4.077   3.618
 1208SOL    HW2 4524   3.923   4.121   3.709
 1209SOL     OW 4525   6.645   4.012   5.191
 1209SOL    HW1 4526   6.598   3.924   5.190
 1209SOL    HW2 4527   6.653   4.044   5.286
 1210SOL     OW 4528   2.879   6.500   2.673
 1210SOL    HW1 4529   2.892   6.549   2.760
 1210SOL    HW2 4530   2.830   6.558   2.609
 1211SOL     OW 4531   1.494   3.157   3.540
 1211SOL    HW1 4532   1.398   3.135   3.557
 1211SOL    HW2 4533   1.505   3.188   3.446
 1212SOL     OW 4534   2.156   4.193   4.658
 1212SOL    HW1 4535   2.066   4.235   4.644
 1212SOL    HW2 4536   2.199   4.230   4.740
 1213SOL     OW 4537   6.069   2.713   5.396
 1213SOL    HW1 4538   6.013   2.786   5.436
 1213SOL    HW2 4539   6.010   2.651   5.343
 1214SOL     OW 4540   1.564   2.797   2.591
 1214SOL    HW1 4541   1.534   2.866   2.657
 1214SOL    HW2 4542   1.484   2.757   2.547
 1215SOL     OW 4543   0.085   5.433   1.798
 1215SOL    HW1 4544   0.057   5.474   1.712
 1215SOL    HW2 4545   0.052   5.488   1.875
 1216SOL     OW 4546   3.255   0.385   1.855
 1216SOL    HW1 4547   3.169   0.414   1.815
 1216SOL    HW2 4548   3.247   0.291   1.887
 1217SOL     OW 4549   1.607   1.561   2.667
 1217SOL    HW1 4550   1.592   1.535   2.572
 1217SOL    HW2 4551   1.616   1.479   2.723
 1218SOL     OW 4552   0.633   3.677   3.699
 1218SOL    HW1 4553   0.594   3.660   3.608
 1218SOL    HW2 4554   0.687   3.598   3.727
 1219SOL     OW 4555   2.477   6.027   3.475
 1219SOL    HW1 4556   2.405   6.004   3.541
 1219SOL    HW2 4557   2.564   5.987   3.506
 1220SOL     OW 4558   6.054   4.199   2.738
 1220SOL    HW1 4559   6.035   4.291   2.769
 1220SOL    HW2 4560   6.081   4.201   2.641
 1221SOL     OW 4561   4.955   3.816   6.620
 1221SOL    HW1 4562   5.034   3.791   6.564
 1221SOL    HW2 4563   4.967   3.780   6.712
 1222SOL     OW 4564   5.018   5.572   1.333
 1222SOL    HW1 4565   5.109   5.605   1.357
 1222SOL    HW2 4566   5.015   5.551   1.235
 1223SOL     OW 4567   5.847   4.908   4.753
 1223SOL    HW1 4568   5.838   4.825   4.809
 1223SOL    HW2 4569   5.930   4.901   4.697
 1224SOL     OW 4570   4.471   5.506   2.088
 1224SOL    HW1 4571   4.498   5.562   2.166
 1224SOL    HW2 4572   4.547   5.497   2.025
 1225SOL     OW 4573   4.397   1.198   0.302
 1225SOL    HW1 4574   4.319   1.151   0.261
 1225SOL    HW2 4575   4.386   1.297   0.291
 1226SOL     OW 4576   5.324   4.898   0.716
 1226SOL    HW1 4577   5.353   4.819   0.770
 1226SOL    HW2 4578   5.273   4.867   0.636
 1227SOL     OW 4579   4.973   4.746   6.990
 1227SOL    HW1 4580   5.047   4.770   0.029
 1227SOL    HW2 4581   4.986   4.652   6.958
 1228SOL     OW 4582   3.904   3.827   4.305
 1228SOL    HW1 4583   3.958   3.786   4.232
 1228SOL    HW2 4584   3.866   3.756   4.363
 1229SOL     OW 4585   2.179   5.568   2.624
 1229SOL    HW1 4586   2.175   5.468   2.624
 1229SOL    HW2 4587   2.228   5.599   2.543
 1230SOL     OW 4588   5.715   4.881   1.951
 1230SOL    HW1 4589   5.758   4.793   1.929
 1230SOL    HW2 4590   5.672   4.919   1.870
 1231SOL     OW 4591   2.237   1.891   6.858
 1231SOL    HW1 4592   2.147   1.931   6.876
 1231SOL    HW2 4593   2.292   1.957   6.807
 1232SOL     OW 4594   3.328   1.047   5.025
 1232SOL    HW1 4595   3.312   1.125   4.965
 1232SOL    HW2 4596   3.422   1.048   5.058
 1233SOL     OW 4597   0.325   5.783   4.916
 1233SOL    HW1 4598   0.348   5.804   5.012
 1233SOL    HW2 4599   0.332   5.867   4.862
 1234SOL     OW 4600   6.500   3.847   6.822
 1234SOL    HW1 4601   6.536   3.931   6.863
 1234SOL    HW2 4602   6.414   3.868   6.775
 1235SOL     OW 4603   6.326   5.010   1.179
 1235SOL    HW1 4604   6.310   4.912   1.161
 1235SOL    HW2 4605   6.403   5.020   1.241
 1236SOL     OW 4606   1.500   1.513   2.443
 1236SOL    HW1 4607   1.403   1.510   2.468
 1236SOL    HW2 4608   1.527   1.424   2.407
 1237SOL     OW 4609   1.125   6.810   4.981
 1237SOL    HW1 4610   1.222   6.784   4.976
 1237SOL    HW2 4611   1.105   6.876   4.909
 1238SOL     OW 4612   0.709   0.791   4.397
 1238SOL    HW1 4613   0.771   0.766   4.472
 1238SOL    HW2 4614   0.745   0.756   4.311
 1239SOL     OW 4615   5.093   4.708   3.683
 1239SOL    HW1 4616   5.158   4.781   3.705
 1239SOL    HW2 4617   5.125   4.659   3.602
 1240SOL     OW 4618   0.831   3.555   2.129
 1240SOL    HW1 4619   0.759   3.491   2.156
 1240SOL    HW2 4620   0.842   3.624   2.200
 1241SOL     OW 4621   4.000   5.552   5.895
 1241SOL    HW1 4622   4.078   5.588   5.844
 1241SOL    HW2 4623   4.029   5.529   5.988
 1242SOL     OW 4624   2.301   4.517   1.130
 1242SOL    HW1 4625   2.386   4.566   1.144
 1242SOL    HW2 4626   2.307   4.463   1.045
 1243SOL     OW 4627   0.973   3.701   3.823
 1243SOL    HW1 4628   0.972   3.603   3.841
 1243SOL    HW2 4629   0.959   3.717   3.725
 1244SOL     OW 4630   6.450   0.001   5.765
 1244SOL    HW1 4631   6.406   6.975   5.691
 1244SOL    HW2 4632   6.417   0.095   5.764
 1245SOL     OW 4633   4.552   6.271   0.870
 1245SOL    HW1 4634   4.496   6.317   0.938
 1245SOL    HW2 4635   4.649   6.283   0.894
 1246SOL     OW 4636   5.037   1.044   0.983
 1246SOL    HW1 4637   5.116   1.067   1.039
 1246SOL    HW2 4638   5.057   0.963   0.928
 1247SOL     OW 4639   6.881   0.421   3.584
 1247SOL    HW1 4640   6.912   0.371   3.665
 1247SOL    HW2 4641   6.938   0.395   3.505
 1248SOL     OW 4642   0.719   6.735   4.533
 1248SOL    HW1 4643   0.755   6.753   4.625
 1248SOL    HW2 4644   0.705   6.637   4.522
 1249SOL     OW 4645   6.261   5.551   6.364
 1249SOL    HW1 4646   6.197   5.554   6.441
 1249SOL    HW2 4647   6.332   5.620   6.378
 1250SOL     OW 4648   0.521   3.084   5.174
 1250SOL    HW1 4649   0.584   3.077   5.097
 1250SOL    HW2 4650   0.460   3.162   5.159
 1251SOL     OW 4651   2.761   0.642   2.522
 1251SOL    HW1 4652   2.744   0.726   2.472
 1251SOL    HW2 4653   2.676   0.613   2.568
 1252SOL     OW 4654   2.002   5.738   6.554
 1252SOL    HW1 4655   2.047   5.687   6.480
 1252SOL    HW2 4656   1.924   5.686   6.588
 1253SOL     OW 4657   3.429   6.811   6.921
 1253SOL    HW1 4658   3.437   6.840   7.017
 1253SOL    HW2 4659   3.355   6.861   6.877
 1254SOL     OW 4660   5.789   0.773   3.091
 1254SOL    HW1 4661   5.836   0.807   3.172
 1254SOL    HW2 4662   5.699   0.815   3.084
 1255SOL     OW 4663   5.611   1.203   5.778
 1255SOL    HW1 4664   5.631   1.163   5.867
 1255SOL    HW2 4665   5.538   1.152   5.734
 1256SOL     OW 4666   0.089   5.715   4.590
 1256SOL    HW1 4667   0.146   5.689   4.669
 1256SOL    HW2 4668   0.135   5.689   4.506
 1257SOL     OW 4669   0.047   6.222   3.115
 1257SOL    HW1 4670   0.043   6.158   3.192
 1257SOL    HW2 4671   0.066   6.314   3.149
 1258SOL     OW 4672   4.438   5.902   6.196
 1258SOL    HW1 4673   4.535   5.879   6.203
 1258SOL    HW2 4674   4.385   5.818   6.183
 1259SOL     OW 4675   5.640   0.464   5.550
 1259SOL    HW1 4676   5.644   0.559   5.518
 1259SOL    HW2 4677   5.571   0.414   5.497
 1260SOL     OW 4678   3.007   1.277   1.344
 1260SOL    HW1 4679   3.084   1.321   1.297
 1260SOL    HW2 4680   2.933   1.343   1.356
 1261SOL     OW 4681   6.789   4.817   4.895
 1261SOL    HW1 4682   6.815   4.848   4.987
 1261SOL    HW2 4683   6.709   4.757   4.902
 1262SOL     OW 4684   4.063   5.027   1.391
 1262SOL    HW1 4685   4.028   4.934   1.377
 1262SOL    HW2 4686   4.112   5.031   1.478
 1263SOL     OW 4687   6.300   2.137   0.809
 1263SOL    HW1 4688   6.292   2.170   0.903
 1263SOL    HW2 4689   6.213   2.152   0.761
 1264SOL     OW 4690   6.537   2.549   4.156
 1264SOL    HW1 4691   6.437   2.552   4.162
 1264SOL    HW2 4692   6.567   2.454   4.142
 1265SOL     OW 4693   6.969   5.909   4.717
 1265SOL    HW1 4694   0.010   5.970   4.760
 1265SOL    HW2 4695   7.017   5.836   4.669
 1266SOL     OW 4696   2.365   1.013   4.433
 1266SOL    HW1 4697   2.272   1.045   4.449
 1266SOL    HW2 4698   2.364   0.913   4.425
 1267SOL     OW 4699   6.495   5.017   2.790
 1267SOL    HW1 4700   6.576   4.999   2.845
 1267SOL    HW2 4701   6.446   5.096   2.828
 1268SOL     OW 4702   5.752   3.411   0.150
 1268SOL    HW1 4703   5.814   3.338   0.120
 1268SOL    HW2 4704   5.746   3.480   0.078
 1269SOL     OW 4705   6.920   5.262   6.127
 1269SOL    HW1 4706   7.004   5.210   6.108
 1269SOL    HW2 4707   6.933   5.317   6.209
 1270SOL     OW 4708   1.558   2.365   5.239
 1270SOL    HW1 4709   1.653   2.336   5.251
 1270SOL    HW2 4710   1.531   2.422   5.316
 1271SOL     OW 4711   4.936   2.336   2.914
 1271SOL    HW1 4712   4.839   2.348   2.935
 1271SOL    HW2 4713   4.981   2.425   2.909
 1272SOL     OW 4714   6.880   6.414   1.608
 1272SOL    HW1 4715   6.877   6.455   1.517
 1272SOL    HW2 4716   6.811   6.456   1.666
 1273SOL     OW 4717   2.493   6.374   6.591
 1273SOL    HW1 4718   2.508   6.393   6.688
 1273SOL    HW2 4719   2.414   6.426   6.559
 1274SOL     OW 4720   6.084   2.659   1.188
 1274SOL    HW1 4721   6.064   2.757   1.182
 1274SOL    HW2 4722   6.066   2.615   1.100
 1275SOL     OW 4723   4.019   1.771   3.757
 1275SOL    HW1 4724   3.942   1.713   3.782
 1275SOL    HW2 4725   3.995   1.867   3.775
 1276SOL     OW 4726   6.246   0.268   3.349
 1276SOL    HW1 4727   6.240   0.331   3.271
 1276SOL    HW2 4728   6.320   0.202   3.332
 1277SOL     OW 4729   0.211   1.140   5.300
 1277SOL    HW1 4730   0.298   1.169   5.341
 1277SOL    HW2 4731   0.147   1.216   5.302
 1278SOL     OW 4732   3.076   1.980   5.325
 1278SOL    HW1 4733   3.130   2.061   5.347
 1278SOL    HW2 4734   3.134   1.912   5.281
 1279SOL     OW 4735   3.133   5.147   0.349
 1279SOL    HW1 4736   3.053   5.093   0.373
 1279SOL    HW2 4737   3.120   5.242   0.379
 1280SOL     OW 4738   1.769   6.501   3.291
 1280SOL    HW1 4739   1.755   6.403   3.280
 1280SOL    HW2 4740   1.853   6.529   3.244
 1281SOL     OW 4741   0.909   6.606   4.093
 1281SOL    HW1 4742   0.875   6.511   4.091
 1281SOL    HW2 4743   0.882   6.652   4.008
 1282SOL     OW 4744   1.030   0.428   2.444
 1282SOL    HW1 4745   1.009   0.345   2.393
 1282SOL    HW2 4746   1.100   0.409   2.512
 1283SOL     OW 4747   5.158   4.798   5.383
 1283SOL    HW1 4748   5.173   4.741   5.302
 1283SOL    HW2 4749   5.123   4.887   5.355
 1284SOL     OW 4750   2.582   2.128   2.744
 1284SOL    HW1 4751   2.665   2.165   2.786
 1284SOL    HW2 4752   2.536   2.201   2.693
 1285SOL     OW 4753   5.342   2.673   5.734
 1285SOL    HW1 4754   5.249   2.677   5.770
 1285SOL    HW2 4755   5.340   2.685   5.634
 1286SOL     OW 4756   6.189   5.585   1.743
 1286SOL    HW1 4757   6.149   5.497   1.771
 1286SOL    HW2 4758   6.141   5.620   1.663
 1287SOL     OW 4759   6.001   5.184   6.275
 1287SOL    HW1 4760   6.008   5.117   6.201
 1287SOL    HW2 4761   6.093   5.201   6.312
 1288SOL     OW 4762   6.537   2.554   2.563
 1288SOL    HW1 4763   6.452   2.593   2.598
 1288SOL    HW2 4764   6.591   2.626   2.518
 1289SOL     OW 4765   6.279   5.842   2.554
 1289SOL    HW1 4766   6.275   5.858   2.456
 1289SOL    HW2 4767   6.339   5.910   2.596
 1290SOL     OW 4768   0.844   6.623   1.608
 1290SOL    HW1 4769   0.876   6.709   1.571
 1290SOL    HW2 4770   0.746   6.613   1.591
 1291SOL     OW 4771   2.153   0.196   0.544
 1291SOL    HW1 4772   2.107   0.244   0.619
 1291SOL    HW2 4773   2.170   0.101   0.570
 1292SOL     OW 4774   1.186   6.051   6.722
 1292SOL    HW1 4775   1.132   6.098   6.791
 1292SOL    HW2 4776   1.159   6.082   6.631
 1293SOL     OW 4777   0.125   2.586   5.735
 1293SOL    HW1 4778   0.179   2.501   5.736
 1293SOL    HW2 4779   0.145   2.639   5.817
 1294SOL     OW 4780   6.881   1.623   2.916
 1294SOL    HW1 4781   6.886   1.622   2.816
 1294SOL    HW2 4782   6.969   1.650   2.954
 1295SOL     OW 4783   6.206   3.361   2.091
 1295SOL    HW1 4784   6.305   3.370   2.088
 1295SOL    HW2 4785   6.177   3.286   2.032
 1296SOL     OW 4786   3.378   2.836   6.464
 1296SOL    HW1 4787   3.473   2.809   6.483
 1296SOL    HW2 4788   3.337   2.876   6.546
 1297SOL     OW 4789   6.885   1.418   6.585
 1297SOL    HW1 4790   6.876   1.323   6.556
 1297SOL    HW2 4791   6.811   1.472   6.546
 1298SOL     OW 4792   6.151   3.259   3.391
 1298SOL    HW1 4793   6.153   3.349   3.435
 1298SOL    HW2 4794   6.216   3.199   3.437
 1299SOL     OW 4795   1.071   3.917   4.194
 1299SOL    HW1 4796   1.154   3.877   4.155
 1299SOL    HW2 4797   0.992   3.860   4.172
 1300SOL     OW 4798   2.601   3.154   1.456
 1300SOL    HW1 4799   2.610   3.243   1.411
 1300SOL    HW2 4800   2.690   3.123   1.488
 1301SOL     OW 4801   0.638   0.308   3.419
 1301SOL    HW1 4802   0.642   0.208   3.422
 1301SOL    HW2 4803   0.669   0.340   3.329
 1302SOL     OW 4804   2.317   5.784   5.100
 1302SOL    HW1 4805   2.398   5.727   5.088
 1302SOL    HW2 4806   2.240   5.728   5.130
 1303SOL     OW 4807   3.659   0.839   1.748
 1303SOL    HW1 4808   3.722   0.881   1.814
 1303SOL    HW2 4809   3.566   0.870   1.767
 1304SOL     OW 4810   3.194   0.749   6.264
 1304SOL    HW1 4811   3.184   0.795   6.353
 1304SOL    HW2 4812   3.269   0.792   6.214
 1305SOL     OW 4813   5.308   6.837   4.859
 1305SOL    HW1 4814   5.214   6.843   4.893
 1305SOL    HW2 4815   5.360   6.917   4.890
 1306SOL     OW 4816   0.830   4.469   3.880
 1306SOL    HW1 4817   0.862   4.420   3.799
 1306SOL    HW2 4818   0.854   4.417   3.962
 1307SOL     OW 4819   2.145   1.823   4.200
 1307SOL    HW1 4820   2.112   1.735   4.167
 1307SOL    HW2 4821   2.086   1.855   4.274
 1308SOL     OW 4822   4.947   5.428   2.717
 1308SOL    HW1 4823   4.938   5.503   2.652
 1308SOL    HW2 4824   4.868   5.428   2.779
 1309SOL     OW 4825   5.862   2.354   4.595
 1309SOL    HW1 4826   5.787   2.348   4.529
 1309SOL    HW2 4827   5.864   2.271   4.651
 1310SOL     OW 4828   4.940   3.536   5.316
 1310SOL    HW1 4829   5.012   3.490   5.368
 1310SOL    HW2 4830   4.901   3.473   5.249
 1311SOL     OW 4831   5.077   5.998   5.434
 1311SOL    HW1 4832   5.144   5.933   5.470
 1311SOL    HW2 4833   5.116   6.091   5.438
 1312SOL     OW 4834   0.333   6.530   1.459
 1312SOL    HW1 4835   0.334   6.444   1.408
 1312SOL    HW2 4836   0.263   6.590   1.422
 1313SOL     OW 4837   3.510   4.841   5.146
 1313SOL    HW1 4838   3.504   4.848   5.246
 1313SOL    HW2 4839   3.418   4.850   5.107
 1314SOL     OW 4840   5.942   1.462   4.799
 1314SOL    HW1 4841   6.008   1.440   4.727
 1314SOL    HW2 4842   5.935   1.386   4.863
 1315SOL     OW 4843   1.959   0.937   3.039
 1315SOL    HW1 4844   1.980   0.842   3.018
 1315SOL    HW2 4845   1.936   0.986   2.955
 1316SOL     OW 4846   2.784   6.804   2.290
 1316SOL    HW1 4847   2.805   6.759   2.203
 1316SOL    HW2 4848   2.840   6.886   2.299
 1317SOL     OW 4849   0.057   5.507   3.601
 1317SOL    HW1 4850   0.064   5.527   3.503
 1317SOL    HW2 4851   0.123   5.436   3.626
 1318SOL     OW 4852   0.155   6.497   1.002
 1318SOL    HW1 4853   0.212   6.530   0.926
 1318SOL    HW2 4854   0.059   6.511   0.980
 1319SOL     OW 4855   6.521   1.103   0.667
 1319SOL    HW1 4856   6.421   1.101   0.658
 1319SOL    HW2 4857   6.546   1.113   0.763
 1320SOL     OW 4858   5.402   5.608   6.102
 1320SOL    HW1 4859   5.471   5.626   6.032
 1320SOL    HW2 4860   5.373   5.695   6.142
 1321SOL     OW 4861   3.711   2.459   6.370
 1321SOL    HW1 4862   3.626   2.427   6.412
 1321SOL    HW2 4863   3.775   2.383   6.364
 1322SOL     OW 4864   5.931   1.264   4.969
 1322SOL    HW1 4865   6.023   1.225   4.964
 1322SOL    HW2 4866   5.895   1.253   5.061
 1323SOL     OW 4867   6.010   1.107   4.547
 1323SOL    HW1 4868   5.977   1.179   4.486
 1323SOL    HW2 4869   5.941   1.091   4.619
 1324SOL     OW 4870   0.915   3.853   0.651
 1324SOL    HW1 4871   0.933   3.794   0.572
 1324SOL    HW2 4872   0.880   3.941   0.619
 1325SOL     OW 4873   3.364   5.528   2.747
 1325SOL    HW1 4874   3.323   5.611   2.785
 1325SOL    HW2 4875   3.345   5.450   2.807
 1326SOL     OW 4876   5.125   3.968   4.116
 1326SOL    HW1 4877   5.036   3.921   4.114
 1326SOL    HW2 4878   5.111   4.067   4.112
 1327SOL     OW 4879   3.052   5.642   3.099
 1327SOL    HW1 4880   3.106   5.567   3.137
 1327SOL    HW2 4881   2.988   5.605   3.031
 1328SOL     OW 4882   1.854   2.229   6.745
 1328SOL    HW1 4883   1.951   2.223   6.765
 1328SOL    HW2 4884   1.806   2.273   6.822
 1329SOL     OW 4885   1.188   0.479   1.744
 1329SOL    HW1 4886   1.281   0.443   1.738
 1329SOL    HW2 4887   1.135   0.450   1.665
 1330SOL     OW 4888   5.921   6.652   1.219
 1330SOL    HW1 4889   5.843   6.706   1.186
 1330SOL    HW2 4890   6.001   6.712   1.230
 1331SOL     OW 4891   6.420   0.394   2.711
 1331SOL    HW1 4892   6.341   0.337   2.693
 1331SOL    HW2 4893   6.393   0.490   2.710
 1332SOL     OW 4894   4.679   1.516   1.550
 1332SOL    HW1 4895   4.603   1.484   1.606
 1332SOL    HW2 4896   4.649   1.594   1.495
 1333SOL     OW 4897   3.614   4.150   5.261
 1333SOL    HW1 4898   3.644   4.173   5.169
 1333SOL    HW2 4899   3.694   4.134   5.319
 1334SOL     OW 4900   0.748   4.089   3.749
 1334SOL    HW1 4901   0.669   4.100   3.810
 1334SOL    HW2 4902   0.783   4.179   3.725
 1335SOL     OW 4903   2.372   4.539   2.378
 1335SOL    HW1 4904   2.283   4.535   2.332
 1335SOL    HW2 4905   2.441   4.574   2.315
 1336SOL     OW 4906   0.705   0.382   5.454
 1336SOL    HW1 4907   0.638   0.391   5.527
 1336SOL    HW2 4908   0.785   0.334   5.488
 1337SOL     OW 4909   2.828   0.918   6.079
 1337SOL    HW1 4910   2.764   0.920   6.002
 1337SOL    HW2 4911   2.907   0.862   6.054
 1338SOL     OW 4912   3.575   5.854   0.560
 1338SOL    HW1 4913   3.669   5.819   0.567
 1338SOL    HW2 4914   3.573   5.934   0.500
 1339SOL     OW 4915   7.025   4.875   4.739
 1339SOL    HW1 4916   6.937   4.860   4.785
 1339SOL    HW2 4917   0.064   4.802   4.765
 1340SOL     OW 4918   2.245   1.680   6.191
 1340SOL    HW1 4919   2.187   1.607   6.229
 1340SOL    HW2 4920   2.302   1.717   6.264
 1341SOL     OW 4921   4.775   1.501   3.520
 1341SOL    HW1 4922   4.770   1.595   3.488
 1341SOL    HW2 4923   4.860   1.459   3.490
 1342SOL     OW 4924   0.497   6.128   0.935
 1342SOL    HW1 4925   0.415   6.182   0.955
 1342SOL    HW2 4926   0.471   6.032   0.922
 1343SOL     OW 4927   3.951   4.841   3.137
 1343SOL    HW1 4928   3.875   4.807   3.082
 1343SOL    HW2 4929   3.915   4.894   3.214
 1344SOL     OW 4930   5.898   1.501   2.539
 1344SOL    HW1 4931   5.940   1.411   2.552
 1344SOL    HW2 4932   5.800   1.494   2.551
 1345SOL     OW 4933   1.166   6.991   3.623
 1345SOL    HW1 4934   1.181   0.066   3.620
 1345SOL    HW2 4935   1.242   6.945   3.577
 1346SOL     OW 4936   0.264   0.800   4.150
 1346SOL    HW1 4937   0.235   0.781   4.056
 1346SOL    HW2 4938   0.289   0.714   4.195
 1347SOL     OW 4939   5.975   0.660   2.935
 1347SOL    HW1 4940   5.906   0.710   2.987
 1347SOL    HW2 4941   5.966   0.681   2.837
 1348SOL     OW 4942   4.415   5.388   4.463
 1348SOL    HW1 4943   4.507   5.421   4.483
 1348SOL    HW2 4944   4.348   5.459   4.486
 1349SOL     OW 4945   4.346   2.477   0.113
 1349SOL    HW1 4946   4.358   2.456   0.210
 1349SOL    HW2 4947   4.332   2.576   0.103
 1350SOL     OW 4948   3.305   6.918   5.565
 1350SOL    HW1 4949   3.336   6.960   5.650
 1350SOL    HW2 4950   3.210   6.945   5.547
 1351SOL     OW 4951   0.801   1.099   4.266
 1351SOL    HW1 4952   0.715   1.146   4.246
 1351SOL    HW2 4953   0.857   1.094   4.184
 1352SOL     OW 4954   0.234   6.925   3.898
 1352SOL    HW1 4955   0.216   6.917   3.996
 1352SOL    HW2 4956   0.328   6.895   3.879
 1353SOL     OW 4957   1.687   3.970   3.645
 1353SOL    HW1 4958   1.721   3.888   3.690
 1353SOL    HW2 4959   1.632   3.944   3.566
 1354SOL     OW 4960   0.140   0.497   1.228
 1354SOL    HW1 4961   0.180   0.424   1.172
 1354SOL    HW2 4962   0.158   0.479   1.324
 1355SOL     OW 4963   4.906   3.026   0.093
 1355SOL    HW1 4964   4.952   3.060   0.175
 1355SOL    HW2 4965   4.900   3.100   0.026
 1356SOL     OW 4966   3.034   4.041   1.980
 1356SOL    HW1 4967   2.998   3.955   1.944
 1356SOL    HW2 4968   2.982   4.118   1.942
 1357SOL     OW 4969   2.780   2.678   5.930
 1357SOL    HW1 4970   2.839   2.668   6.010
 1357SOL    HW2 4971   2.705   2.740   5.951
 1358SOL     OW 4972   2.685   2.997   5.708
 1358SOL    HW1 4973   2.602   2.957   5.669
 1358SOL    HW2 4974   2.713   3.076   5.653
 1359SOL     OW 4975   6.972   1.063   0.212
 1359SOL    HW1 4976   6.893   1.002   0.221
 1359SOL    HW2 4977   6.956   1.146   0.265
 1360SOL     OW 4978   2.995   3.563   3.709
 1360SOL    HW1 4979   2.930   3.569   3.784
 1360SOL    HW2 4980   3.065   3.494   3.731
 1361SOL     OW 4981   0.873   5.948   0.945
 1361SOL    HW1 4982   0.887   6.038   0.904
 1361SOL    HW2 4983   0.804   5.898   0.893
 1362SOL     OW 4984   3.060   2.847   6.162
 1362SOL    HW1 4985   3.009   2.762   6.172
 1362SOL    HW2 4986   3.158   2.829   6.172
 1363SOL     OW 4987   6.240   6.713   1.967
 1363SOL    HW1 4988   6.207   6.618   1.965
 1363SOL    HW2 4989   6.196   6.765   1.894
 1364SOL     OW 4990   0.513   3.712   0.791
 1364SOL    HW1 4991   0.573   3.666   0.855
 1364SOL    HW2 4992   0.557   3.715   0.701
 1365SOL     OW 4993   0.678   4.068   5.183
 1365SOL    HW1 4994   0.668   3.987   5.126
 1365SOL    HW2 4995   0.607   4.069   5.253
 1366SOL     OW 4996   5.188   0.404   1.141
 1366SOL    HW1 4997   5.123   0.375   1.211
 1366SOL    HW2 4998   5.274   0.354   1.153
 1367SOL     OW 4999   0.791   6.458   4.620
 1367SOL    HW1 5000   0.876   6.490   4.663
 1367SOL    HW2 5001   0.716   6.464   4.686
 1368SOL     OW 5002   1.283   6.362   5.326
 1368SOL    HW1 5003   1.298   6.353   5.425
 1368SOL    HW2 5004   1.185   6.374   5.309
 1369SOL     OW 5005   2.768   6.260   3.451
 1369SOL    HW1 5006   2.740   6.337   3.507
 1369SOL    HW2 5007   2.804   6.187   3.510
 1370SOL     OW 5008   6.789   2.049   2.312
 1370SOL    HW1 5009   6.803   2.003   2.225
 1370SOL    HW2 5010   6.788   2.148   2.299
 1371SOL     OW 5011   6.080   2.101   5.835
 1371SOL    HW1 5012   5.996   2.141   5.871
 1371SOL    HW2 5013   6.155   2.165   5.847
 1372SOL     OW 5014   6.474   3.105   0.570
 1372SOL    HW1 5015   6.472   3.005   0.566
 1372SOL    HW2 5016   6.569   3.136   0.571
 1373SOL     OW 5017   5.514   2.045   1.448
 1373SOL    HW1 5018   5.553   1.957   1.422
 1373SOL    HW2 5019   5.494   2.045   1.546
 1374SOL     OW 5020   4.128   3.777   0.931
 1374SOL    HW1 5021   4.029   3.773   0.942
 1374SOL    HW2 5022   4.161   3.868   0.958
 1375SOL     OW 5023   5.725   5.295   3.782
 1375SOL    HW1 5024   5.755   5.309   3.687
 1375SOL    HW2 5025   5.662   5.367   3.808
 1376SOL     OW 5026   2.711   4.839   6.053
 1376SOL    HW1 5027   2.785   4.874   6.111
 1376SOL    HW2 5028   2.750   4.806   5.966
 1377SOL     OW 5029   1.836   1.285   2.822
 1377SOL    HW1 5030   1.740   1.307   2.810
 1377SOL    HW2 5031   1.889   1.370   2.833
 1378SOL     OW 5032   4.974   2.512   4.331
 1378SOL    HW1 5033   4.946   2.509   4.427
 1378SOL    HW2 5034   5.060   2.463   4.320
 1379SOL     OW 5035   4.755   5.799   1.376
 1379SOL    HW1 5036   4.853   5.797   1.399
 1379SOL    HW2 5037   4.724   5.707   1.355
 1380SOL     OW 5038   0.060   6.091   2.415
 1380SOL    HW1 5039   0.024   6.178   2.383
 1380SOL    HW2 5040   0.081   6.033   2.336
 1381SOL     OW 5041   6.634   2.647   5.654
 1381SOL    HW1 5042   6.730   2.668   5.633
 1381SOL    HW2 5043   6.608   2.562   5.609
 1382SOL     OW 5044   4.976   2.432   0.169
 1382SOL    HW1 5045   4.984   2.527   0.141
 1382SOL    HW2 5046   4.886   2.415   0.208
 1383SOL     OW 5047   0.293   1.502   1.532
 1383SOL    HW1 5048   0.383   1.534   1.502
 1383SOL    HW2 5049   0.226   1.519   1.461
 1384SOL     OW 5050   6.188   1.551   2.122
 1384SOL    HW1 5051   6.092   1.532   2.137
 1384SOL    HW2 5052   6.244   1.495   2.183
 1385SOL     OW 5053   0.859   5.620   0.954
 1385SOL    HW1 5054   0.889   5.546   1.012
 1385SOL    HW2 5055   0.824   5.695   1.010
 1386SOL     OW 5056   1.887   5.841   3.944
 1386SOL    HW1 5057   1.888   5.873   3.849
 1386SOL    HW2 5058   1.970   5.789   3.963
 1387SOL     OW 5059   2.623   6.095   2.112
 1387SOL    HW1 5060   2.713   6.065   2.080
 1387SOL    HW2 5061   2.611   6.070   2.208
 1388SOL     OW 5062   6.720   0.608   1.852
 1388SOL    HW1 5063   6.627   0.643   1.858
 1388SOL    HW2 5064   6.779   0.660   1.914
 1389SOL     OW 5065   6.220   0.898   2.820
 1389SOL    HW1 5066   6.285   0.862   2.887
 1389SOL    HW2 5067   6.151   0.954   2.867
 1390SOL     OW 5068   1.556   1.669   6.109
 1390SOL    HW1 5069   1.530   1.581   6.149
 1390SOL    HW2 5070   1.650   1.664   6.076
 1391SOL     OW 5071   0.568   3.139   3.594
 1391SOL    HW1 5072   0.587   3.107   3.687
 1391SOL    HW2 5073   0.577   3.063   3.530
 1392SOL     OW 5074   4.877   4.735   5.182
 1392SOL    HW1 5075   4.851   4.699   5.271
 1392SOL    HW2 5076   4.907   4.660   5.123
 1393SOL     OW 5077   3.344   6.484   5.859
 1393SOL    HW1 5078   3.432   6.437   5.865
 1393SOL    HW2 5079   3.339   6.555   5.930
 1394SOL     OW 5080   1.707   6.103   6.322
 1394SOL    HW1 5081   1.635   6.048   6.280
 1394SOL    HW2 5082   1.673   6.196   6.337
 1395SOL     OW 5083   3.376   4.120   5.470
 1395SOL    HW1 5084   3.408   4.095   5.379
 1395SOL    HW2 5085   3.400   4.048   5.535
 1396SOL     OW 5086   5.575   5.516   3.890
 1396SOL    HW1 5087   5.566   5.571   3.973
 1396SOL    HW2 5088   5.549   5.570   3.810
 1397SOL     OW 5089   4.278   6.230   5.204
 1397SOL    HW1 5090   4.207   6.231   5.132
 1397SOL    HW2 5091   4.236   6.252   5.292
 1398SOL     OW 5092   1.941   1.900   4.384
 1398SOL    HW1 5093   1.870   1.948   4.332
 1398SOL    HW2 5094   1.897   1.842   4.453
 1399SOL     OW 5095   3.200   6.551   1.228
 1399SOL    HW1 5096   3.135   6.475   1.232
 1399SOL    HW2 5097   3.186   6.601   1.143
 1400SOL     OW 5098   0.935   6.764   2.026
 1400SOL    HW1 5099   0.894   6.784   2.114
 1400SOL    HW2 5100   1.035   6.774   2.032
 1401SOL     OW 5101   6.679   1.260   4.886
 1401SOL    HW1 5102   6.674   1.192   4.959
 1401SOL    HW2 5103   6.682   1.214   4.797
 1402SOL     OW 5104   6.799   3.315   0.383
 1402SOL    HW1 5105   6.894   3.324   0.355
 1402SOL    HW2 5106   6.794   3.261   0.467
 1403SOL     OW 5107   2.657   1.139   2.186
 1403SOL    HW1 5108   2.654   1.211   2.117
 1403SOL    HW2 5109   2.564   1.117   2.215
 1404SOL     OW 5110   5.512   0.745   0.444
 1404SOL    HW1 5111   5.435   0.707   0.494
 1404SOL    HW2 5112   5.517   0.705   0.353
 1405SOL     OW 5113   2.371   3.729   1.101
 1405SOL    HW1 5114   2.448   3.705   1.159
 1405SOL    HW2 5115   2.296   3.664   1.116
 1406SOL     OW 5116   1.346   4.219   1.076
 1406SOL    HW1 5117   1.317   4.280   1.150
 1406SOL    HW2 5118   1.429   4.170   1.103
 1407SOL     OW 5119   6.390   2.308   2.523
 1407SOL    HW1 5120   6.455   2.380   2.545
 1407SOL    HW2 5121   6.367   2.313   2.425
 1408SOL     OW 5122   6.604   0.628   6.852
 1408SOL    HW1 5123   6.518   0.583   6.827
 1408SOL    HW2 5124   6.614   0.713   6.801
 1409SOL     OW 5125   0.565   1.048   4.482
 1409SOL    HW1 5126   0.492   0.982   4.464
 1409SOL    HW2 5127   0.648   1.018   4.436
 1410SOL     OW 5128   0.554   2.725   6.920
 1410SOL    HW1 5129   0.616   2.671   6.862
 1410SOL    HW2 5130   0.524   2.669   6.997
 1411SOL     OW 5131   2.156   6.992   1.133
 1411SOL    HW1 5132   2.229   0.022   1.175
 1411SOL    HW2 5133   2.197   6.927   1.069
 1412SOL     OW 5134   1.176   2.882   6.810
 1412SOL    HW1 5135   1.100   2.817   6.805
 1412SOL    HW2 5136   1.236   2.870   6.731
 1413SOL     OW 5137   2.533   0.444   3.987
 1413SOL    HW1 5138   2.449   0.408   4.027
 1413SOL    HW2 5139   2.557   0.391   3.906
 1414SOL     OW 5140   1.813   1.882   1.823
 1414SOL    HW1 5141   1.731   1.936   1.841
 1414SOL    HW2 5142   1.836   1.827   1.903
 1415SOL     OW 5143   4.329   5.943   5.922
 1415SOL    HW1 5144   4.363   5.857   5.882
 1415SOL    HW2 5145   4.354   5.948   6.018
 1416SOL     OW 5146   4.501   5.517   1.709
 1416SOL    HW1 5147   4.572   5.578   1.745
 1416SOL    HW2 5148   4.538   5.464   1.633
 1417SOL     OW 5149   3.272   1.771   5.620
 1417SOL    HW1 5150   3.350   1.832   5.635
 1417SOL    HW2 5151   3.294   1.680   5.658
 1418SOL     OW 5152   3.830   4.054   2.440
 1418SOL    HW1 5153   3.826   3.954   2.445
 1418SOL    HW2 5154   3.738   4.090   2.425
 1419SOL     OW 5155   4.243   6.710   4.853
 1419SOL    HW1 5156   4.234   6.611   4.857
 1419SOL    HW2 5157   4.201   6.750   4.934
 1420SOL     OW 5158   0.740   6.027   2.304
 1420SOL    HW1 5159   0.780   5.996   2.218
 1420SOL    HW2 5160   0.806   6.015   2.378
 1421SOL     OW 5161   3.327   1.328   2.438
 1421SOL    HW1 5162   3.329   1.427   2.420
 1421SOL    HW2 5163   3.358   1.278   2.357
 1422SOL     OW 5164   2.646   5.683   0.246
 1422SOL    HW1 5165   2.623   5.586   0.252
 1422SOL    HW2 5166   2.684   5.714   0.333
 1423SOL     OW 5167   4.867   0.012   2.844
 1423SOL    HW1 5168   4.957   6.993   2.837
 1423SOL    HW2 5169   4.840   0.047   2.754
 1424SOL     OW 5170   6.433   5.048   4.584
 1424SOL    HW1 5171   6.349   5.075   4.535
 1424SOL    HW2 5172   6.408   4.998   4.667
 1425SOL     OW 5173   2.786   0.001   4.079
 1425SOL    HW1 5174   2.698   7.021   4.125
 1425SOL    HW2 5175   2.772   0.027   3.983
 1426SOL     OW 5176   1.165   1.619   5.422
 1426SOL    HW1 5177   1.144   1.573   5.509
 1426SOL    HW2 5178   1.222   1.559   5.366
 1427SOL     OW 5179   6.028   0.819   4.590
 1427SOL    HW1 5180   5.947   0.780   4.546
 1427SOL    HW2 5181   6.012   0.915   4.610
 1428SOL     OW 5182   5.551   1.454   6.428
 1428SOL    HW1 5183   5.639   1.498   6.446
 1428SOL    HW2 5184   5.477   1.514   6.458
 1429SOL     OW 5185   7.018   0.810   0.602
 1429SOL    HW1 5186   7.024   0.763   0.689
 1429SOL    HW2 5187   0.005   0.744   0.527
 1430SOL     OW 5188   1.835   5.142   3.347
 1430SOL    HW1 5189   1.921   5.097   3.372
 1430SOL    HW2 5190   1.774   5.076   3.303
 1431SOL     OW 5191   1.700   0.946   0.807
 1431SOL    HW1 5192   1.734   0.902   0.724
 1431SOL    HW2 5193   1.762   0.926   0.884
 1432SOL     OW 5194   1.859   1.485   2.183
 1432SOL    HW1 5195   1.835   1.568   2.133
 1432SOL    HW2 5196   1.799   1.476   2.263
 1433SOL     OW 5197   4.451   1.026   4.211
 1433SOL    HW1 5198   4.379   0.983   4.265
 1433SOL    HW2 5199   4.528   0.963   4.201
 1434SOL     OW 5200   1.606   0.764   5.594
 1434SOL    HW1 5201   1.585   0.840   5.655
 1434SOL    HW2 5202   1.537   0.693   5.604
 1435SOL     OW 5203   6.550   1.620   2.751
 1435SOL    HW1 5204   6.575   1.609   2.847
 1435SOL    HW2 5205   6.631   1.611   2.694
 1436SOL     OW 5206   4.298   3.625   1.091
 1436SOL    HW1 5207   4.286   3.682   1.173
 1436SOL    HW2 5208   4.245   3.664   1.016
 1437SOL     OW 5209   3.553   0.996   2.186
 1437SOL    HW1 5210   3.616   0.934   2.232
 1437SOL    HW2 5211   3.588   1.090   2.193
 1438SOL     OW 5212   2.651   6.867   0.874
 1438SOL    HW1 5213   2.663   6.896   0.969
 1438SOL    HW2 5214   2.616   6.773   0.873
 1439SOL     OW 5215   0.385   5.719   2.829
 1439SOL    HW1 5216   0.309   5.778   2.855
 1439SOL    HW2 5217   0.469   5.773   2.825
 1440SOL     OW 5218   3.210   3.636   1.559
 1440SOL    HW1 5219   3.184   3.545   1.526
 1440SOL    HW2 5220   3.127   3.688   1.578
 1441SOL     OW 5221   5.916   6.405   1.068
 1441SOL    HW1 5222   5.856   6.409   0.988
 1441SOL    HW2 5223   5.915   6.494   1.114
 1442SOL     OW 5224   5.986   5.482   0.805
 1442SOL    HW1 5225   5.988   5.383   0.815
 1442SOL    HW2 5226   5.920   5.508   0.735
 1443SOL     OW 5227   0.400   2.719   2.847
 1443SOL    HW1 5228   0.375   2.757   2.758
 1443SOL    HW2 5229   0.317   2.695   2.898
 1444SOL     OW 5230   5.718   5.402   6.949
 1444SOL    HW1 5231   5.719   5.463   0.003
 1444SOL    HW2 5232   5.809   5.362   6.936
 1445SOL     OW 5233   1.165   3.415   2.241
 1445SOL    HW1 5234   1.188   3.496   2.186
 1445SOL    HW2 5235   1.249   3.367   2.266
 1446SOL     OW 5236   0.056   0.408   6.942
 1446SOL    HW1 5237   0.070   0.464   7.023
 1446SOL    HW2 5238   0.024   0.466   6.866
 1447SOL     OW 5239   6.149   5.209   4.900
 1447SOL    HW1 5240   6.085   5.191   4.825
 1447SOL    HW2 5241   6.202   5.291   4.879
 1448SOL     OW 5242   1.217   3.210   5.691
 1448SOL    HW1 5243   1.280   3.285   5.675
 1448SOL    HW2 5244   1.155   3.233   5.766
 1449SOL     OW 5245   2.142   3.723   3.879
 1449SOL    HW1 5246   2.196   3.650   3.837
 1449SOL    HW2 5247   2.053   3.728   3.835
 1450SOL     OW 5248   2.232   2.825   4.276
 1450SOL    HW1 5249   2.146   2.774   4.271
 1450SOL    HW2 5250   2.275   2.826   4.186
 1451SOL     OW 5251   2.187   0.701   2.003
 1451SOL    HW1 5252   2.283   0.673   2.010
 1451SOL    HW2 5253   2.128   0.623   2.022
 1452SOL     OW 5254   5.071   3.094   5.984
 1452SOL    HW1 5255   4.977   3.089   5.949
 1452SOL    HW2 5256   5.074   3.154   6.064
 1453SOL     OW 5257   0.008   5.076   5.247
 1453SOL    HW1 5258   0.037   5.037   5.335
 1453SOL    HW2 5259   0.020   5.175   5.248
 1454SOL     OW 5260   3.899   1.997   3.889
 1454SOL    HW1 5261   3.811   1.949   3.891
 1454SOL    HW2 5262   3.912   2.046   3.975
 1455SOL     OW 5263   0.971   5.995   1.667
 1455SOL    HW1 5264   0.992   6.091   1.649
 1455SOL    HW2 5265   0.976   5.943   1.581
 1456SOL     OW 5266   5.988   5.103   5.137
 1456SOL    HW1 5267   6.021   5.130   5.047
 1456SOL    HW2 5268   5.932   5.177   5.176
 1457SOL     OW 5269   1.065   4.282   6.118
 1457SOL    HW1 5270   1.035   4.232   6.199
 1457SOL    HW2 5271   1.018   4.370   6.114
 1458SOL     OW 5272   4.937   5.453   5.321
 1458SOL    HW1 5273   4.929   5.519   5.395
 1458SOL    HW2 5274   5.031   5.453   5.286
 1459SOL     OW 5275   5.026   6.417   4.872
 1459SOL    HW1 5276   5.018   6.328   4.828
 1459SOL    HW2 5277   4.989   6.411   4.965
 1460SOL     OW 5278   1.412   6.349   5.571
 1460SOL    HW1 5279   1.339   6.337   5.638
 1460SOL    HW2 5280   1.484   6.281   5.588
 1461SOL     OW 5281   6.788   3.148   3.435
 1461SOL    HW1 5282   6.749   3.198   3.358
 1461SOL    HW2 5283   6.805   3.210   3.511
 1462SOL     OW 5284   0.847   0.232   1.346
 1462SOL    HW1 5285   0.775   0.276   1.294
 1462SOL    HW2 5286   0.910   0.301   1.383
 1463SOL     OW 5287   2.079   5.432   0.348
 1463SOL    HW1 5288   1.992   5.447   0.395
 1463SOL    HW2 5289   2.064   5.426   0.250
 1464SOL     OW 5290   0.896   4.325   3.652
 1464SOL    HW1 5291   0.980   4.272   3.638
 1464SOL    HW2 5292   0.852   4.342   3.564
 1465SOL     OW 5293   1.194   2.383   3.563
 1465SOL    HW1 5294   1.108   2.402   3.609
 1465SOL    HW2 5295   1.242   2.309   3.610
 1466SOL     OW 5296   4.958   2.242   1.863
 1466SOL    HW1 5297   4.952   2.338   1.834
 1466SOL    HW2 5298   4.881   2.221   1.924
 1467SOL     OW 5299   1.037   1.339   4.468
 1467SOL    HW1 5300   0.961   1.379   4.416
 1467SOL    HW2 5301   1.100   1.294   4.405
 1468SOL     OW 5302   2.637   5.608   2.786
 1468SOL    HW1 5303   2.583   5.542   2.735
 1468SOL    HW2 5304   2.734   5.598   2.764
 1469SOL     OW 5305   6.420   4.154   3.226
 1469SOL    HW1 5306   6.380   4.100   3.301
 1469SOL    HW2 5307   6.389   4.116   3.138
 1470SOL     OW 5308   6.417   1.776   0.849
 1470SOL    HW1 5309   6.441   1.859   0.799
 1470SOL    HW2 5310   6.420   1.698   0.787
 1471SOL     OW 5311   5.179   6.743   1.880
 1471SOL    HW1 5312   5.214   6.712   1.791
 1471SOL    HW2 5313   5.160   6.664   1.938
 1472SOL     OW 5314   1.771   6.809   6.103
 1472SOL    HW1 5315   1.697   6.839   6.163
 1472SOL    HW2 5316   1.811   6.725   6.139
 1473SOL     OW 5317   2.135   5.762   4.001
 1473SOL    HW1 5318   2.156   5.729   4.093
 1473SOL    HW2 5319   2.152   5.861   3.997
 1474SOL     OW 5320   3.281   4.875   1.494
 1474SOL    HW1 5321   3.338   4.877   1.576
 1474SOL    HW2 5322   3.184   4.882   1.520
 1475SOL     OW 5323   5.049   0.130   0.207
 1475SOL    HW1 5324   5.019   0.133   0.112
 1475SOL    HW2 5325   5.110   0.207   0.225
 1476SOL     OW 5326   4.857   0.645   1.420
 1476SOL    HW1 5327   4.885   0.674   1.512
 1476SOL    HW2 5328   4.919   0.685   1.353
 1477SOL     OW 5329   3.751   4.860   1.603
 1477SOL    HW1 5330   3.746   4.921   1.524
 1477SOL    HW2 5331   3.663   4.861   1.651
 1478SOL     OW 5332   5.213   5.405   6.206
 1478SOL    HW1 5333   5.263   5.323   6.176
 1478SOL    HW2 5334   5.246   5.485   6.155
 1479SOL     OW 5335   3.871   3.687   1.166
 1479SOL    HW1 5336   3.859   3.605   1.222
 1479SOL    HW2 5337   3.916   3.758   1.220
 1480SOL     OW 5338   3.172   0.485   4.913
 1480SOL    HW1 5339   3.147   0.412   4.849
 1480SOL    HW2 5340   3.115   0.565   4.897
 1481SOL     OW 5341   5.263   2.686   6.237
 1481SOL    HW1 5342   5.184   2.710   6.181
 1481SOL    HW2 5343   5.321   2.766   6.248
 1482SOL     OW 5344   4.850   1.327   0.635
 1482SOL    HW1 5345   4.940   1.366   0.616
 1482SOL    HW2 5346   4.853   1.228   0.625
 1483SOL     OW 5347   5.464   1.625   5.879
 1483SOL    HW1 5348   5.418   1.549   5.926
 1483SOL    HW2 5349   5.442   1.711   5.925
 1484SOL     OW 5350   3.437   5.845   4.866
 1484SOL    HW1 5351   3.456   5.770   4.803
 1484SOL    HW2 5352   3.483   5.928   4.835
 1485SOL     OW 5353   5.235   2.359   3.148
 1485SOL    HW1 5354   5.266   2.357   3.053
 1485SOL    HW2 5355   5.164   2.290   3.161
 1486SOL     OW 5356   5.020   6.929   3.858
 1486SOL    HW1 5357   5.106   6.956   3.901
 1486SOL    HW2 5358   5.034   6.915   3.760
 1487SOL     OW 5359   6.745   0.549   1.257
 1487SOL    HW1 5360   6.768   0.589   1.169
 1487SOL    HW2 5361   6.809   0.582   1.326
 1488SOL     OW 5362   6.102   1.222   2.789
 1488SOL    HW1 5363   6.020   1.237   2.734
 1488SOL    HW2 5364   6.079   1.233   2.886
 1489SOL     OW 5365   3.674   4.272   0.206
 1489SOL    HW1 5366   3.703   4.352   0.257
 1489SOL    HW2 5367   3.753   4.212   0.189
 1490SOL     OW 5368   6.784   2.321   2.309
 1490SOL    HW1 5369   6.792   2.349   2.405
 1490SOL    HW2 5370   6.698   2.355   2.272
 1491SOL     OW 5371   6.622   2.751   3.438
 1491SOL    HW1 5372   6.604   2.730   3.534
 1491SOL    HW2 5373   6.614   2.667   3.384
 1492SOL     OW 5374   5.974   1.282   3.041
 1492SOL    HW1 5375   6.043   1.279   3.114
 1492SOL    HW2 5376   5.896   1.336   3.072
 1493SOL     OW 5377   4.445   2.616   5.699
 1493SOL    HW1 5378   4.361   2.564   5.716
 1493SOL    HW2 5379   4.422   2.711   5.679
 1494SOL     OW 5380   6.438   4.182   5.375
 1494SOL    HW1 5381   6.402   4.100   5.332
 1494SOL    HW2 5382   6.422   4.261   5.315
 1495SOL     OW 5383   6.455   3.974   4.687
 1495SOL    HW1 5384   6.387   4.041   4.657
 1495SOL    HW2 5385   6.540   3.987   4.635
 1496SOL     OW 5386   6.535   5.300   6.348
 1496SOL    HW1 5387   6.555   5.303   6.250
 1496SOL    HW2 5388   6.594   5.233   6.392
 1497SOL     OW 5389   5.736   2.962   2.900
 1497SOL    HW1 5390   5.801   3.034   2.924
 1497SOL    HW2 5391   5.644   2.990   2.926
 1498SOL     OW 5392   3.406   4.261   0.695
 1498SOL    HW1 5393   3.314   4.270   0.657
 1498SOL    HW2 5394   3.427   4.164   0.709
 1499SOL     OW 5395   0.829   4.199   4.933
 1499SOL    HW1 5396   0.852   4.119   4.987
 1499SOL    HW2 5397   0.751   4.246   4.974
 1500SOL     OW 5398   1.230   5.678   1.588
 1500SOL    HW1 5399   1.235   5.721   1.498
 1500SOL    HW2 5400   1.238   5.748   1.659
 1501SOL     OW 5401   5.802   2.305   0.254
 1501SOL    HW1 5402   5.824   2.397   0.224
 1501SOL    HW2 5403   5.713   2.305   0.299
 1502SOL     OW 5404   6.372   0.058   6.296
 1502SOL    HW1 5405   6.375   6.983   6.289
 1502SOL    HW2 5406   6.364   0.085   6.392
 1503SOL     OW 5407   6.930   4.900   2.016
 1503SOL    HW1 5408   7.024   4.866   2.011
 1503SOL    HW2 5409   6.906   4.946   1.931
 1504SOL     OW 5410   0.784   0.313   2.247
 1504SOL    HW1 5411   0.822   0.362   2.169
 1504SOL    HW2 5412   0.783   0.215   2.227
 1505SOL     OW 5413   4.795   6.371   5.047
 1505SOL    HW1 5414   4.719   6.430   5.022
 1505SOL    HW2 5415   4.766   6.276   5.046
 1506SOL     OW 5416   0.903   1.568   1.162
 1506SOL    HW1 5417   0.822   1.624   1.142
 1506SOL    HW2 5418   0.981   1.627   1.182
 1507SOL     OW 5419   1.483   2.971   4.480
 1507SOL    HW1 5420   1.401   2.977   4.423
 1507SOL    HW2 5421   1.532   2.886   4.458
 1508SOL     OW 5422   1.252   0.619   0.946
 1508SOL    HW1 5423   1.301   0.667   0.873
 1508SOL    HW2 5424   1.155   0.614   0.923
 1509SOL     OW 5425   5.136   0.548   4.185
 1509SOL    HW1 5426   5.109   0.612   4.113
 1509SOL    HW2 5427   5.056   0.500   4.220
 1510SOL     OW 5428   3.866   5.628   4.357
 1510SOL    HW1 5429   3.857   5.539   4.402
 1510SOL    HW2 5430   3.853   5.701   4.425
 1511SOL     OW 5431   3.537   3.386   4.567
 1511SOL    HW1 5432   3.616   3.391   4.505
 1511SOL    HW2 5433   3.523   3.475   4.610
 1512SOL     OW 5434   6.205   6.115   0.803
 1512SOL    HW1 5435   6.267   6.155   0.736
 1512SOL    HW2 5436   6.240   6.025   0.831
 1513SOL     OW 5437   2.918   6.817   6.187
 1513SOL    HW1 5438   2.873   6.906   6.176
 1513SOL    HW2 5439   2.848   6.747   6.204
 1514SOL     OW 5440   3.120   2.429   5.654
 1514SOL    HW1 5441   3.140   2.520   5.691
 1514SOL    HW2 5442   3.091   2.438   5.559
 1515SOL     OW 5443   5.427   2.046   2.072
 1515SOL    HW1 5444   5.414   1.954   2.036
 1515SOL    HW2 5445   5.346   2.101   2.054
 1516SOL     OW 5446   6.184   0.142   5.055
 1516SOL    HW1 5447   6.161   0.237   5.038
 1516SOL    HW2 5448   6.273   0.121   5.014
 1517SOL     OW 5449   4.232   6.338   3.559
 1517SOL    HW1 5450   4.307   6.282   3.595
 1517SOL    HW2 5451   4.244   6.350   3.460
 1518SOL     OW 5452   0.497   2.630   0.159
 1518SOL    HW1 5453   0.402   2.659   0.151
 1518SOL    HW2 5454   0.552   2.705   0.196
 1519SOL     OW 5455   0.025   4.422   6.484
 1519SOL    HW1 5456   0.004   4.439   6.388
 1519SOL    HW2 5457   0.118   4.453   6.504
 1520SOL     OW 5458   0.410   6.296   2.729
 1520SOL    HW1 5459   0.437   6.313   2.634
 1520SOL    HW2 5460   0.310   6.300   2.736
 1521SOL     OW 5461   1.909   5.494   6.072
 1521SOL    HW1 5462   1.863   5.513   6.158
 1521SOL    HW2 5463   1.943   5.580   6.033
 1522SOL     OW 5464   4.665   5.963   4.222
 1522SOL    HW1 5465   4.606   5.950   4.142
 1522SOL    HW2 5466   4.630   5.908   4.298
 1523SOL     OW 5467   4.080   6.401   0.153
 1523SOL    HW1 5468   3.988   6.415   0.116
 1523SOL    HW2 5469   4.073   6.372   0.249
 1524SOL     OW 5470   2.285   1.679   2.760
 1524SOL    HW1 5471   2.385   1.690   2.766
 1524SOL    HW2 5472   2.254   1.621   2.834
 1525SOL     OW 5473   5.636   2.742   6.505
 1525SOL    HW1 5474   5.653   2.707   6.413
 1525SOL    HW2 5475   5.577   2.678   6.554
 1526SOL     OW 5476   0.930   1.154   0.439
 1526SOL    HW1 5477   0.973   1.148   0.529
 1526SOL    HW2 5478   0.949   1.243   0.399
 1527SOL     OW 5479   3.892   1.102   3.625
 1527SOL    HW1 5480   3.952   1.033   3.586
 1527SOL    HW2 5481   3.946   1.173   3.669
 1528SOL     OW 5482   4.322   3.827   1.276
 1528SOL    HW1 5483   4.241   3.824   1.334
 1528SOL    HW2 5484   4.402   3.848   1.332
 1529SOL     OW 5485   4.802   1.019   5.500
 1529SOL    HW1 5486   4.825   1.050   5.592
 1529SOL    HW2 5487   4.772   0.924   5.503
 1530SOL     OW 5488   3.529   6.405   1.386
 1530SOL    HW1 5489   3.518   6.499   1.355
 1530SOL    HW2 5490   3.624   6.390   1.415
 1531SOL     OW 5491   3.919   6.634   3.667
 1531SOL    HW1 5492   3.942   6.624   3.763
 1531SOL    HW2 5493   3.897   6.545   3.627
 1532SOL     OW 5494   2.802   5.429   6.568
 1532SOL    HW1 5495   2.714   5.424   6.521
 1532SOL    HW2 5496   2.793   5.484   6.651
 1533SOL     OW 5497   6.037   5.136   1.592
 1533SOL    HW1 5498   6.130   5.108   1.568
 1533SOL    HW2 5499   6.000   5.192   1.518
 1534SOL     OW 5500   3.423   5.577   6.210
 1534SOL    HW1 5501   3.366   5.649   6.170
 1534SOL    HW2 5502   3.495   5.552   6.146
 1535SOL     OW 5503   5.819   6.339   4.440
 1535SOL    HW1 5504   5.915   6.349   4.467
 1535SOL    HW2 5505   5.803   6.390   4.355
 1536SOL     OW 5506   4.352   3.818   6.384
 1536SOL    HW1 5507   4.374   3.883   6.311
 1536SOL    HW2 5508   4.300   3.742   6.346
 1537SOL     OW 5509   3.224   5.211   3.408
 1537SOL    HW1 5510   3.279   5.131   3.429
 1537SOL    HW2 5511   3.165   5.232   3.486
 1538SOL     OW 5512   3.290   1.907   6.876
 1538SOL    HW1 5513   3.357   1.833   6.871
 1538SOL    HW2 5514   3.335   1.991   6.906
 1539SOL     OW 5515   5.894   3.401   0.576
 1539SOL    HW1 5516   5.935   3.480   0.531
 1539SOL    HW2 5517   5.945   3.379   0.659
 1540SOL     OW 5518   3.429   6.984   4.871
 1540SOL    HW1 5519   3.447   6.958   4.777
 1540SOL    HW2 5520   3.506   6.959   4.929
 1541SOL     OW 5521   3.524   3.214   4.915
 1541SOL    HW1 5522   3.508   3.311   4.898
 1541SOL    HW2 5523   3.601   3.183   4.859
 1542SOL     OW 5524   6.968   0.442   2.767
 1542SOL    HW1 5525   7.008   0.386   2.840
 1542SOL    HW2 5526   6.874   0.466   2.791
 1543SOL     OW 5527   2.637   4.469   6.780
 1543SOL    HW1 5528   2.591   4.457   6.868
 1543SOL    HW2 5529   2.625   4.564   6.749
 1544SOL     OW 5530   4.025   3.535   4.552
 1544SOL    HW1 5531   4.043   3.571   4.460
 1544SOL    HW2 5532   3.980   3.446   4.544
 1545SOL     OW 5533   6.049   6.509   2.327
 1545SOL    HW1 5534   6.148   6.493   2.328
 1545SOL    HW2 5535   6.014   6.493   2.234
 1546SOL     OW 5536   5.553   6.714   5.871
 1546SOL    HW1 5537   5.500   6.708   5.786
 1546SOL    HW2 5538   5.493   6.743   5.945
 1547SOL     OW 5539   1.755   3.433   6.876
 1547SOL    HW1 5540   1.745   3.485   6.791
 1547SOL    HW2 5541   1.667   3.394   6.901
 1548SOL     OW 5542   6.475   2.305   6.582
 1548SOL    HW1 5543   6.412   2.297   6.504
 1548SOL    HW2 5544   6.546   2.371   6.561
 1549SOL     OW 5545   4.686   0.427   5.075
 1549SOL    HW1 5546   4.671   0.355   5.143
 1549SOL    HW2 5547   4.733   0.388   4.995
 1550SOL     OW 5548   3.357   2.899   3.244
 1550SOL    HW1 5549   3.440   2.846   3.227
 1550SOL    HW2 5550   3.311   2.917   3.158
 1551SOL     OW 5551   6.482   4.629   6.250
 1551SOL    HW1 5552   6.421   4.708   6.249
 1551SOL    HW2 5553   6.549   4.639   6.324
 1552SOL     OW 5554   1.500   4.164   1.897
 1552SOL    HW1 5555   1.406   4.138   1.918
 1552SOL    HW2 5556   1.501   4.250   1.845
 1553SOL     OW 5557   1.165   1.580   5.929
 1553SOL    HW1 5558   1.225   1.648   5.971
 1553SOL    HW2 5559   1.220   1.517   5.874
 1554SOL     OW 5560   2.971   1.407   3.623
 1554SOL    HW1 5561   3.045   1.345   3.651
 1554SOL    HW2 5562   2.895   1.399   3.687
 1555SOL     OW 5563   6.523   3.773   6.309
 1555SOL    HW1 5564   6.441   3.757   6.254
 1555SOL    HW2 5565   6.581   3.841   6.264
 1556SOL     OW 5566   2.440   1.166   5.915
 1556SOL    HW1 5567   2.534   1.144   5.887
 1556SOL    HW2 5568   2.378   1.097   5.878
 1557SOL     OW 5569   0.388   2.782   6.279
 1557SOL    HW1 5570   0.329   2.791   6.360
 1557SOL    HW2 5571   0.422   2.873   6.253
 1558SOL     OW 5572   6.871   6.966   4.936
 1558SOL    HW1 5573   6.835   6.873   4.944
 1558SOL    HW2 5574   6.969   6.966   4.955
 1559SOL     OW 5575   1.228   1.748   6.388
 1559SOL    HW1 5576   1.211   1.846   6.381
 1559SOL    HW2 5577   1.325   1.730   6.374
 1560SOL     OW 5578   0.012   0.730   6.791
 1560SOL    HW1 5579   0.082   0.788   6.749
 1560SOL    HW2 5580   7.015   0.654   6.730
 1561SOL     OW 5581   5.718   5.783   2.959
 1561SOL    HW1 5582   5.639   5.731   2.929
 1561SOL    HW2 5583   5.708   5.879   2.931
 1562SOL     OW 5584   5.566   1.147   3.350
 1562SOL    HW1 5585   5.634   1.212   3.382
 1562SOL    HW2 5586   5.474   1.186   3.359
 1563SOL     OW 5587   4.068   0.399   5.203
 1563SOL    HW1 5588   3.998   0.376   5.272
 1563SOL    HW2 5589   4.149   0.436   5.249
 1564SOL     OW 5590   1.738   1.967   2.882
 1564SOL    HW1 5591   1.656   2.014   2.850
 1564SOL    HW2 5592   1.750   1.882   2.829
 1565SOL     OW 5593   5.374   3.890   2.044
 1565SOL    HW1 5594   5.392   3.933   1.956
 1565SOL    HW2 5595   5.289   3.926   2.083
 1566SOL     OW 5596   5.814   4.201   3.262
 1566SOL    HW1 5597   5.903   4.160   3.242
 1566SOL    HW2 5598   5.823   4.300   3.270
 1567SOL     OW 5599   6.693   5.483   5.740
 1567SOL    HW1 5600   6.781   5.437   5.748
 1567SOL    HW2 5601   6.623   5.428   5.787
 1568SOL     OW 5602   0.534   6.748   0.881
 1568SOL    HW1 5603   0.444   6.791   0.870
 1568SOL    HW2 5604   0.522   6.651   0.898
 1569SOL     OW 5605   3.740   5.986   5.263
 1569SOL    HW1 5606   3.660   6.026   5.218
 1569SOL    HW2 5607   3.727   5.888   5.275
 1570SOL     OW 5608   3.850   2.026   1.597
 1570SOL    HW1 5609   3.856   2.035   1.697
 1570SOL    HW2 5610   3.928   1.974   1.563
 1571SOL     OW 5611   6.397   4.527   1.519
 1571SOL    HW1 5612   6.395   4.477   1.606
 1571SOL    HW2 5613   6.304   4.555   1.496
 1572SOL     OW 5614   1.674   6.219   2.254
 1572SOL    HW1 5615   1.588   6.266   2.236
 1572SOL    HW2 5616   1.684   6.143   2.189
 1573SOL     OW 5617   3.918   0.328   1.268
 1573SOL    HW1 5618   3.820   0.338   1.249
 1573SOL    HW2 5619   3.932   0.246   1.324
 1574SOL     OW 5620   6.266   2.688   1.907
 1574SOL    HW1 5621   6.172   2.655   1.907
 1574SOL    HW2 5622   6.269   2.783   1.877
 1575SOL     OW 5623   2.339   3.045   0.380
 1575SOL    HW1 5624   2.297   3.087   0.461
 1575SOL    HW2 5625   2.359   3.115   0.313
 1576SOL     OW 5626   6.720   6.111   4.162
 1576SOL    HW1 5627   6.684   6.049   4.092
 1576SOL    HW2 5628   6.790   6.063   4.216
 1577SOL     OW 5629   2.224   0.363   0.131
 1577SOL    HW1 5630   2.161   0.346   0.055
 1577SOL    HW2 5631   2.232   0.462   0.145
 1578SOL     OW 5632   5.510   4.856   4.943
 1578SOL    HW1 5633   5.530   4.785   4.876
 1578SOL    HW2 5634   5.587   4.920   4.949
 1579SOL     OW 5635   0.865   0.311   4.032
 1579SOL    HW1 5636   0.868   0.411   4.028
 1579SOL    HW2 5637   0.884   0.273   3.942
 1580SOL     OW 5638   3.116   3.989   5.621
 1580SOL    HW1 5639   3.076   3.904   5.653
 1580SOL    HW2 5640   3.213   3.993   5.646
 1581SOL     OW 5641   6.777   3.748   4.539
 1581SOL    HW1 5642   6.809   3.706   4.625
 1581SOL    HW2 5643   6.699   3.696   4.504
 1582SOL     OW 5644   6.074   5.286   4.212
 1582SOL    HW1 5645   5.975   5.281   4.218
 1582SOL    HW2 5646   6.100   5.367   4.159
 1583SOL     OW 5647   1.946   2.528   3.025
 1583SOL    HW1 5648   1.940   2.454   3.092
 1583SOL    HW2 5649   2.034   2.523   2.978
 1584SOL     OW 5650   2.577   0.147   6.540
 1584SOL    HW1 5651   2.614   0.075   6.481
 1584SOL    HW2 5652   2.648   0.178   6.604
 1585SOL     OW 5653   5.426   1.926   5.664
 1585SOL    HW1 5654   5.497   1.903   5.729
 1585SOL    HW2 5655   5.466   1.936   5.573
 1586SOL     OW 5656   3.907   3.984   2.703
 1586SOL    HW1 5657   3.886   4.030   2.617
 1586SOL    HW2 5658   3.822   3.963   2.751
 1587SOL     OW 5659   2.597   6.204   6.795
 1587SOL    HW1 5660   2.642   6.180   6.881
 1587SOL    HW2 5661   2.664   6.198   6.720
 1588SOL     OW 5662   5.899   3.631   1.821
 1588SOL    HW1 5663   5.948   3.593   1.899
 1588SOL    HW2 5664   5.917   3.729   1.816
 1589SOL     OW 5665   5.377   3.917   3.986
 1589SOL    HW1 5666   5.351   3.915   3.890
 1589SOL    HW2 5667   5.295   3.925   4.043
 1590SOL     OW 5668   2.095   0.653   5.898
 1590SOL    HW1 5669   2.108   0.752   5.899
 1590SOL    HW2 5670   2.085   0.622   5.803
 1591SOL     OW 5671   0.745   4.634   1.852
 1591SOL    HW1 5672   0.830   4.609   1.898
 1591SOL    HW2 5673   0.762   4.714   1.793
 1592SOL     OW 5674   3.124   3.385   2.541
 1592SOL    HW1 5675   3.096   3.290   2.529
 1592SOL    HW2 5676   3.168   3.397   2.630
 1593SOL     OW 5677   0.888   5.335   5.306
 1593SOL    HW1 5678   0.878   5.259   5.370
 1593SOL    HW2 5679   0.977   5.330   5.262
 1594SOL     OW 5680   6.628   5.289   3.223
 1594SOL    HW1 5681   6.644   5.317   3.318
 1594SOL    HW2 5682   6.711   5.246   3.187
 1595SOL     OW 5683   6.871   4.566   5.800
 1595SOL    HW1 5684   6.888   4.639   5.734
 1595SOL    HW2 5685   6.827   4.489   5.754
 1596SOL     OW 5686   2.754   5.085   6.587
 1596SOL    HW1 5687   2.826   5.142   6.547
 1596SOL    HW2 5688   2.790   4.992   6.600
 1597SOL     OW 5689   2.699   0.282   1.248
 1597SOL    HW1 5690   2.628   0.337   1.205
 1597SOL    HW2 5691   2.665   0.247   1.336
 1598SOL     OW 5692   0.527   5.434   1.492
 1598SOL    HW1 5693   0.592   5.368   1.454
 1598SOL    HW2 5694   0.434   5.406   1.469
 1599SOL     OW 5695   3.551   4.890   6.852
 1599SOL    HW1 5696   3.645   4.925   6.851
 1599SOL    HW2 5697   3.497   4.941   6.919
 1600SOL     OW 5698   3.912   1.178   4.433
 1600SOL    HW1 5699   3.884   1.274   4.439
 1600SOL    HW2 5700   3.831   1.120   4.422
 1601SOL     OW 5701   0.530   4.923   3.905
 1601SOL    HW1 5702   0.498   4.954   3.994
 1601SOL    HW2 5703   0.630   4.930   3.901
 1602SOL     OW 5704   0.932   4.700   3.703
 1602SOL    HW1 5705   0.875   4.622   3.729
 1602SOL    HW2 5706   1.006   4.712   3.770
 1603SOL     OW 5707   6.527   6.776   1.226
 1603SOL    HW1 5708   6.588   6.732   1.291
 1603SOL    HW2 5709   6.443   6.722   1.216
 1604SOL     OW 5710   0.572   5.358   5.626
 1604SOL    HW1 5711   0.480   5.398   5.634
 1604SOL    HW2 5712   0.628   5.416   5.567
 1605SOL     OW 5713   5.206   6.336   3.214
 1605SOL    HW1 5714   5.154   6.336   3.129
 1605SOL    HW2 5715   5.268   6.414   3.215
 1606SOL     OW 5716   5.030   6.608   6.136
 1606SOL    HW1 5717   5.005   6.689   6.189
 1606SOL    HW2 5718   4.958   6.587   6.070
 1607SOL     OW 5719   4.067   2.423   0.779
 1607SOL    HW1 5720   3.969   2.433   0.796
 1607SOL    HW2 5721   4.102   2.507   0.737
 1608SOL     OW 5722   2.890   0.112   0.906
 1608SOL    HW1 5723   2.801   0.073   0.880
 1608SOL    HW2 5724   2.945   0.042   0.951
 1609SOL     OW 5725   4.795   1.747   5.507
 1609SOL    HW1 5726   4.793   1.826   5.446
 1609SOL    HW2 5727   4.718   1.751   5.570
 1610SOL     OW 5728   6.091   5.624   4.590
 1610SOL    HW1 5729   6.102   5.722   4.576
 1610SOL    HW2 5730   6.010   5.592   4.541
 1611SOL     OW 5731   2.605   3.414   1.367
 1611SOL    HW1 5732   2.542   3.487   1.394
 1611SOL    HW2 5733   2.696   3.433   1.403
 1612SOL     OW 5734   3.616   0.974   4.035
 1612SOL    HW1 5735   3.567   1.060   4.019
 1612SOL    HW2 5736   3.643   0.934   3.947
 1613SOL     OW 5737   1.596   6.184   0.668
 1613SOL    HW1 5738   1.522   6.164   0.732
 1613SOL    HW2 5739   1.614   6.104   0.611
 1614SOL     OW 5740   6.888   2.550   0.056
 1614SOL    HW1 5741   6.891   2.467   0.112
 1614SOL    HW2 5742   6.976   2.564   0.011
 1615SOL     OW 5743   6.480   4.911   6.365
 1615SOL    HW1 5744   6.473   4.943   6.459
 1615SOL    HW2 5745   6.574   4.923   6.332
 1616SOL     OW 5746   2.527   2.085   5.327
 1616SOL    HW1 5747   2.487   1.993   5.318
 1616SOL    HW2 5748   2.626   2.079   5.319
 1617SOL     OW 5749   4.587   0.731   4.101
 1617SOL    HW1 5750   4.499   0.776   4.087
 1617SOL    HW2 5751   4.580   0.635   4.078
 1618SOL     OW 5752   5.645   2.466   0.583
 1618SOL    HW1 5753   5.565   2.504   0.629
 1618SOL    HW2 5754   5.615   2.410   0.505
 1619SOL     OW 5755   1.665   3.381   4.566
 1619SOL    HW1 5756   1.592   3.319   4.538
 1619SOL    HW2 5757   1.749   3.357   4.517
 1620SOL     OW 5758   3.606   5.499   1.323
 1620SOL    HW1 5759   3.572   5.423   1.268
 1620SOL    HW2 5760   3.607   5.471   1.419
 1621SOL     OW 5761   1.576   1.124   1.819
 1621SOL    HW1 5762   1.537   1.038   1.786
 1621SOL    HW2 5763   1.676   1.119   1.813
 1622SOL     OW 5764   2.251   1.916   3.952
 1622SOL    HW1 5765   2.196   1.980   3.899
 1622SOL    HW2 5766   2.215   1.911   4.046
 1623SOL     OW 5767   2.773   2.145   4.892
 1623SOL    HW1 5768   2.828   2.205   4.834
 1623SOL    HW2 5769   2.799   2.158   4.988
 1624SOL     OW 5770   2.235   0.636   0.162
 1624SOL    HW1 5771   2.214   0.702   0.234
 1624SOL    HW2 5772   2.332   0.614   0.164
 1625SOL     OW 5773   0.053   5.473   2.067
 1625SOL    HW1 5774   0.141   5.446   2.030
 1625SOL    HW2 5775   0.067   5.519   2.155
 1626SOL     OW 5776   2.147   2.395   6.113
 1626SOL    HW1 5777   2.183   2.303   6.124
 1626SOL    HW2 5778   2.047   2.393   6.118
 1627SOL     OW 5779   5.233   3.152   4.022
 1627SOL    HW1 5780   5.276   3.239   4.046
 1627SOL    HW2 5781   5.209   3.102   4.106
 1628SOL     OW 5782   3.065   2.934   0.176
 1628SOL    HW1 5783   2.999   3.006   0.195
 1628SOL    HW2 5784   3.070   2.918   0.077
 1629SOL     OW 5785   4.741   2.389   3.642
 1629SOL    HW1 5786   4.714   2.301   3.604
 1629SOL    HW2 5787   4.805   2.375   3.718
 1630SOL     OW 5788   0.004   4.987   4.273
 1630SOL    HW1 5789   0.059   4.904   4.273
 1630SOL    HW2 5790   0.003   5.027   4.365
 1631SOL     OW 5791   0.837   6.760   5.722
 1631SOL    HW1 5792   0.897   6.682   5.738
 1631SOL    HW2 5793   0.756   6.753   5.781
 1632SOL     OW 5794   6.095   0.662   1.821
 1632SOL    HW1 5795   6.116   0.634   1.727
 1632SOL    HW2 5796   6.118   0.587   1.884
 1633SOL     OW 5797   5.384   3.131   3.592
 1633SOL    HW1 5798   5.473   3.120   3.638
 1633SOL    HW2 5799   5.312   3.141   3.661
 1634SOL     OW 5800   3.641   0.783   6.676
 1634SOL    HW1 5801   3.543   0.777   6.696
 1634SOL    HW2 5802   3.668   0.880   6.675
 1635SOL     OW 5803   0.794   5.523   3.959
 1635SOL    HW1 5804   0.862   5.452   3.940
 1635SOL    HW2 5805   0.812   5.602   3.900
 1636SOL     OW 5806   2.047   5.874   1.287
 1636SOL    HW1 5807   2.079   5.797   1.342
 1636SOL    HW2 5808   1.973   5.843   1.227
 1637SOL     OW 5809   0.174   3.124   2.592
 1637SOL    HW1 5810   0.197   3.030   2.567
 1637SOL    HW2 5811   0.076   3.139   2.578
 1638SOL     OW 5812   1.693   2.943   5.119
 1638SOL    HW1 5813   1.791   2.950   5.100
 1638SOL    HW2 5814   1.648   3.030   5.096
 1639SOL     OW 5815   4.957   4.915   2.343
 1639SOL    HW1 5816   4.892   4.904   2.418
 1639SOL    HW2 5817   5.025   4.841   2.347
 1640SOL     OW 5818   5.983   0.349   1.566
 1640SOL    HW1 5819   6.016   0.439   1.537
 1640SOL    HW2 5820   6.054   0.305   1.621
 1641SOL     OW 5821   6.493   2.771   5.433
 1641SOL    HW1 5822   6.429   2.756   5.508
 1641SOL    HW2 5823   6.518   2.682   5.393
 1642SOL     OW 5824   0.738   2.415   1.852
 1642SOL    HW1 5825   0.784   2.492   1.896
 1642SOL    HW2 5826   0.760   2.330   1.901
 1643SOL     OW 5827   4.147   0.629   5.364
 1643SOL    HW1 5828   4.204   0.708   5.340
 1643SOL    HW2 5829   4.058   0.637   5.319
 1644SOL     OW 5830   3.164   0.833   1.048
 1644SOL    HW1 5831   3.162   0.733   1.059
 1644SOL    HW2 5832   3.206   0.856   0.961
 1645SOL     OW 5833   2.032   6.776   6.397
 1645SOL    HW1 5834   1.973   6.707   6.355
 1645SOL    HW2 5835   2.099   6.808   6.330
 1646SOL     OW 5836   1.275   3.651   1.078
 1646SOL    HW1 5837   1.301   3.620   0.987
 1646SOL    HW2 5838   1.269   3.572   1.139
 1647SOL     OW 5839   5.932   2.788   3.755
 1647SOL    HW1 5840   5.976   2.794   3.665
 1647SOL    HW2 5841   5.834   2.804   3.746
 1648SOL     OW 5842   4.128   6.607   2.590
 1648SOL    HW1 5843   4.166   6.637   2.503
 1648SOL    HW2 5844   4.070   6.527   2.576
 1649SOL     OW 5845   3.272   0.675   3.043
 1649SOL    HW1 5846   3.363   0.679   3.085
 1649SOL    HW2 5847   3.221   0.597   3.079
 1650SOL     OW 5848   2.685   6.185   3.754
 1650SOL    HW1 5849   2.610   6.222   3.700
 1650SOL    HW2 5850   2.651   6.157   3.844
 1651SOL     OW 5851   1.576   6.790   0.858
 1651SOL    HW1 5852   1.582   6.778   0.957
 1651SOL    HW2 5853   1.599   6.884   0.834
 1652SOL     OW 5854   2.801   2.930   1.552
 1652SOL    HW1 5855   2.891   2.911   1.592
 1652SOL    HW2 5856   2.730   2.887   1.608
 1653SOL     OW 5857   1.237   5.316   0.793
 1653SOL    HW1 5858   1.222   5.236   0.852
 1653SOL    HW2 5859   1.151   5.366   0.782
 1654SOL     OW 5860   6.853   2.957   3.131
 1654SOL    HW1 5861   6.826   2.879   3.075
 1654SOL    HW2 5862   6.932   2.933   3.188
 1655SOL     OW 5863   4.689   4.884   5.707
 1655SOL    HW1 5864   4.737   4.816   5.652
 1655SOL    HW2 5865   4.714   4.872   5.803
 1656SOL     OW 5866   0.735   4.347   3.406
 1656SOL    HW1 5867   0.636   4.353   3.391
 1656SOL    HW2 5868   0.771   4.265   3.360
 1657SOL     OW 5869   1.287   0.265   5.880
 1657SOL    HW1 5870   1.202   0.318   5.875
 1657SOL    HW2 5871   1.272   0.173   5.844
 1658SOL     OW 5872   6.198   6.064   2.917
 1658SOL    HW1 5873   6.176   6.160   2.898
 1658SOL    HW2 5874   6.256   6.028   2.845
 1659SOL     OW 5875   4.153   2.248   5.712
 1659SOL    HW1 5876   4.066   2.229   5.667
 1659SOL    HW2 5877   4.148   2.335   5.760
 1660SOL     OW 5878   1.694   5.722   3.084
 1660SOL    HW1 5879   1.767   5.730   3.016
 1660SOL    HW2 5880   1.623   5.660   3.050
 1661SOL     OW 5881   2.736   0.059   2.462
 1661SOL    HW1 5882   2.810   0.014   2.412
 1661SOL    HW2 5883   2.706   0.141   2.411
 1662SOL     OW 5884   0.832   0.427   3.572
 1662SOL    HW1 5885   0.784   0.465   3.651
 1662SOL    HW2 5886   0.767   0.378   3.514
 1663SOL     OW 5887   2.944   6.951   3.466
 1663SOL    HW1 5888   2.943   6.933   3.564
 1663SOL    HW2 5889   3.001   6.882   3.420
 1664SOL     OW 5890   2.116   5.850   4.773
 1664SOL    HW1 5891   2.210   5.850   4.805
 1664SOL    HW2 5892   2.109   5.795   4.689
 1665SOL     OW 5893   0.408   6.733   4.995
 1665SOL    HW1 5894   0.359   6.785   5.065
 1665SOL    HW2 5895   0.453   6.795   4.932
 1666SOL     OW 5896   6.174   2.702   6.057
 1666SOL    HW1 5897   6.268   2.727   6.078
 1666SOL    HW2 5898   6.145   2.627   6.117
 1667SOL     OW 5899   6.773   0.621   6.438
 1667SOL    HW1 5900   6.755   0.567   6.520
 1667SOL    HW2 5901   6.855   0.587   6.392
 1668SOL     OW 5902   3.601   1.030   5.105
 1668SOL    HW1 5903   3.622   1.004   5.200
 1668SOL    HW2 5904   3.633   1.123   5.088
 1669SOL     OW 5905   6.110   6.957   6.553
 1669SOL    HW1 5906   6.074   7.015   6.480
 1669SOL    HW2 5907   6.042   6.950   6.626
 1670SOL     OW 5908   5.573   4.519   5.870
 1670SOL    HW1 5909   5.650   4.479   5.919
 1670SOL    HW2 5910   5.520   4.577   5.932
 1671SOL     OW 5911   5.307   3.774   0.194
 1671SOL    HW1 5912   5.211   3.746   0.192
 1671SOL    HW2 5913   5.314   3.869   0.222
 1672SOL     OW 5914   1.712   5.625   2.572
 1672SOL    HW1 5915   1.724   5.596   2.477
 1672SOL    HW2 5916   1.711   5.725   2.577
 1673SOL     OW 5917   6.622   2.026   4.337
 1673SOL    HW1 5918   6.595   1.987   4.425
 1673SOL    HW2 5919   6.589   1.968   4.263
 1674SOL     OW 5920   0.929   4.808   6.391
 1674SOL    HW1 5921   0.851   4.827   6.330
 1674SOL    HW2 5922   1.014   4.815   6.338
 1675SOL     OW 5923   4.815   2.439   6.771
 1675SOL    HW1 5924   4.723   2.479   6.774
 1675SOL    HW2 5925   4.819   2.362   6.834
 1676SOL     OW 5926   1.744   0.754   3.374
 1676SOL    HW1 5927   1.667   0.696   3.400
 1676SOL    HW2 5928   1.823   0.698   3.351
 1677SOL     OW 5929   6.356   1.338   5.525
 1677SOL    HW1 5930   6.385   1.331   5.621
 1677SOL    HW2 5931   6.292   1.414   5.516
 1678SOL     OW 5932   5.579   6.739   1.573
 1678SOL    HW1 5933   5.560   6.820   1.517
 1678SOL    HW2 5934   5.636   6.765   1.651
 1679SOL     OW 5935   7.015   3.996   0.172
 1679SOL    HW1 5936   6.954   4.004   0.251
 1679SOL    HW2 5937   6.995   4.070   0.107
 1680SOL     OW 5938   1.204   1.779   4.427
 1680SOL    HW1 5939   1.138   1.818   4.491
 1680SOL    HW2 5940   1.254   1.853   4.382
 1681SOL     OW 5941   5.899   5.266   1.385
 1681SOL    HW1 5942   5.866   5.211   1.309
 1681SOL    HW2 5943   5.981   5.316   1.357
 1682SOL     OW 5944   6.567   3.422   5.583
 1682SOL    HW1 5945   6.626   3.369   5.644
 1682SOL    HW2 5946   6.499   3.472   5.637
 1683SOL     OW 5947   5.407   5.689   0.340
 1683SOL    HW1 5948   5.400   5.611   0.278
 1683SOL    HW2 5949   5.338   5.680   0.412
 1684SOL     OW 5950   0.750   5.836   4.656
 1684SOL    HW1 5951   0.671   5.789   4.695
 1684SOL    HW2 5952   0.785   5.784   4.579
 1685SOL     OW 5953   1.257   2.044   0.114
 1685SOL    HW1 5954   1.178   2.104   0.119
 1685SOL    HW2 5955   1.340   2.096   0.135
 1686SOL     OW 5956   1.675   6.219   0.049
 1686SOL    HW1 5957   1.615   6.274   7.017
 1686SOL    HW2 5958   1.716   6.146   7.018
 1687SOL     OW 5959   1.621   0.362   1.696
 1687SOL    HW1 5960   1.589   0.269   1.711
 1687SOL    HW2 5961   1.659   0.370   1.603
 1688SOL     OW 5962   0.728   1.408   3.240
 1688SOL    HW1 5963   0.778   1.346   3.300
 1688SOL    HW2 5964   0.787   1.487   3.218
 1689SOL     OW 5965   2.450   1.551   2.290
 1689SOL    HW1 5966   2.412   1.468   2.249
 1689SOL    HW2 5967   2.549   1.554   2.272
 1690SOL     OW 5968   0.900   2.152   0.973
 1690SOL    HW1 5969   0.848   2.070   0.948
 1690SOL    HW2 5970   0.950   2.135   1.058
 1691SOL     OW 5971   4.761   5.209   2.577
 1691SOL    HW1 5972   4.852   5.173   2.557
 1691SOL    HW2 5973   4.718   5.153   2.649
 1692SOL     OW 5974   1.385   1.240   3.824
 1692SOL    HW1 5975   1.427   1.198   3.744
 1692SOL    HW2 5976   1.289   1.211   3.831
 1693SOL     OW 5977   2.618   2.444   3.525
 1693SOL    HW1 5978   2.567   2.361   3.549
 1693SOL    HW2 5979   2.645   2.439   3.428
 1694SOL     OW 5980   4.556   6.209   5.675
 1694SOL    HW1 5981   4.496   6.133   5.650
 1694SOL    HW2 5982   4.577   6.263   5.594
 1695SOL     OW 5983   2.582   2.087   5.857
 1695SOL    HW1 5984   2.575   2.185   5.835
 1695SOL    HW2 5985   2.562   2.033   5.776
 1696SOL     OW 5986   3.394   5.524   0.840
 1696SOL    HW1 5987   3.378   5.615   0.802
 1696SOL    HW2 5988   3.429   5.464   0.768
 1697SOL     OW 5989   1.236   1.363   2.123
 1697SOL    HW1 5990   1.157   1.369   2.062
 1697SOL    HW2 5991   1.299   1.292   2.090
 1698SOL     OW 5992   5.140   1.989   0.771
 1698SOL    HW1 5993   5.097   2.068   0.817
 1698SOL    HW2 5994   5.239   1.995   0.782
 1699SOL     OW 5995   2.357   3.663   0.831
 1699SOL    HW1 5996   2.347   3.756   0.796
 1699SOL    HW2 5997   2.367   3.666   0.930
 1700SOL     OW 5998   6.328   3.208   4.578
 1700SOL    HW1 5999   6.395   3.133   4.572
 1700SOL    HW2 6000   6.238   3.170   4.599
 1701SOL     OW 6001   5.693   3.519   4.591
 1701SOL    HW1 6002   5.789   3.513   4.620
 1701SOL    HW2 6003   5.673   3.613   4.563
 1702SOL     OW 6004   4.665   2.586   0.788
 1702SOL    HW1 6005   4.637   2.635   0.870
 1702SOL    HW2 6006   4.700   2.651   0.720
 1703SOL     OW 6007   1.981   3.950   0.395
 1703SOL    HW1 6008   1.992   4.049   0.403
 1703SOL    HW2 6009   1.897   3.930   0.344
 1704SOL     OW 6010   1.064   1.002   1.652
 1704SOL    HW1 6011   1.157   1.015   1.620
 1704SOL    HW2 6012   1.066   0.961   1.743
 1705SOL     OW 6013   3.781   3.287   1.793
 1705SOL    HW1 6014   3.803   3.327   1.704
 1705SOL    HW2 6015   3.801   3.189   1.791
 1706SOL     OW 6016   3.135   0.779   6.648
 1706SOL    HW1 6017   3.099   0.797   6.739
 1706SOL    HW2 6018   3.133   0.864   6.594
 1707SOL     OW 6019   6.106   1.603   2.965
 1707SOL    HW1 6020   6.147   1.694   2.960
 1707SOL    HW2 6021   6.102   1.574   3.060
 1708SOL     OW 6022   0.027   4.761   2.335
 1708SOL    HW1 6023   0.040   4.753   2.434
 1708SOL    HW2 6024   0.107   4.805   2.294
 1709SOL     OW 6025   3.628   6.119   3.433
 1709SOL    HW1 6026   3.650   6.047   3.498
 1709SOL    HW2 6027   3.612   6.205   3.481
 1710SOL     OW 6028   6.637   5.931   3.547
 1710SOL    HW1 6029   6.619   6.021   3.508
 1710SOL    HW2 6030   6.564   5.868   3.521
 1711SOL     OW 6031   1.749   4.728   6.029
 1711SOL    HW1 6032   1.673   4.773   5.981
 1711SOL    HW2 6033   1.810   4.686   5.962
 1712SOL     OW 6034   1.475   5.016   0.879
 1712SOL    HW1 6035   1.395   5.075   0.882
 1712SOL    HW2 6036   1.542   5.047   0.946
 1713SOL     OW 6037   1.629   3.236   0.640
 1713SOL    HW1 6038   1.570   3.211   0.563
 1713SOL    HW2 6039   1.656   3.332   0.631
 1714SOL     OW 6040   3.697   1.485   0.461
 1714SOL    HW1 6041   3.718   1.411   0.397
 1714SOL    HW2 6042   3.643   1.450   0.537
 1715SOL     OW 6043   0.287   3.429   3.850
 1715SOL    HW1 6044   0.293   3.521   3.812
 1715SOL    HW2 6045   0.360   3.416   3.917
 1716SOL     OW 6046   0.867   0.051   0.323
 1716SOL    HW1 6047   0.877   7.005   0.394
 1716SOL    HW2 6048   0.834   0.009   0.239
 1717SOL     OW 6049   3.655   0.491   6.982
 1717SOL    HW1 6050   3.669   0.521   0.052
 1717SOL    HW2 6051   3.567   0.525   6.949
 1718SOL     OW 6052   1.133   4.933   5.257
 1718SOL    HW1 6053   1.035   4.919   5.246
 1718SOL    HW2 6054   1.183   4.862   5.207
 1719SOL     OW 6055   2.242   3.367   1.521
 1719SOL    HW1 6056   2.293   3.325   1.596
 1719SOL    HW2 6057   2.182   3.299   1.480
 1720SOL     OW 6058   6.758   1.686   1.385
 1720SOL    HW1 6059   6.767   1.727   1.476
 1720SOL    HW2 6060   6.729   1.756   1.320
 1721SOL     OW 6061   1.944   6.224   3.724
 1721SOL    HW1 6062   1.903   6.243   3.812
 1721SOL    HW2 6063   1.924   6.129   3.697
 1722SOL     OW 6064   5.937   6.669   1.826
 1722SOL    HW1 6065   6.009   6.735   1.805
 1722SOL    HW2 6066   5.853   6.718   1.852
 1723SOL     OW 6067   6.417   1.254   1.969
 1723SOL    HW1 6068   6.404   1.308   1.886
 1723SOL    HW2 6069   6.336   1.261   2.026
 1724SOL     OW 6070   4.944   0.572   0.142
 1724SOL    HW1 6071   4.987   0.653   0.183
 1724SOL    HW2 6072   4.873   0.538   0.203
 1725SOL     OW 6073   4.245   4.781   1.624
 1725SOL    HW1 6074   4.155   4.760   1.664
 1725SOL    HW2 6075   4.252   4.880   1.609
 1726SOL     OW 6076   0.427   4.903   4.858
 1726SOL    HW1 6077   0.522   4.883   4.835
 1726SOL    HW2 6078   0.380   4.941   4.779
 1727SOL     OW 6079   3.184   3.826   5.268
 1727SOL    HW1 6080   3.217   3.781   5.351
 1727SOL    HW2 6081   3.129   3.905   5.292
 1728SOL     OW 6082   4.718   4.271   3.265
 1728SOL    HW1 6083   4.740   4.363   3.300
 1728SOL    HW2 6084   4.658   4.280   3.186
 1729SOL     OW 6085   1.689   3.575   2.922
 1729SOL    HW1 6086   1.596   3.539   2.927
 1729SOL    HW2 6087   1.697   3.634   2.841
 1730SOL     OW 6088   5.709   2.305   5.113
 1730SOL    HW1 6089   5.626   2.250   5.103
 1730SOL    HW2 6090   5.686   2.402   5.113
 1731SOL     OW 6091   1.614   5.154   0.309
 1731SOL    HW1 6092   1.702   5.115   0.335
 1731SOL    HW2 6093   1.578   5.209   0.384
 1732SOL     OW 6094   0.421   4.558   0.148
 1732SOL    HW1 6095   0.353   4.622   0.113
 1732SOL    HW2 6096   0.499   4.609   0.184
 1733SOL     OW 6097   1.470   4.026   0.663
 1733SOL    HW1 6098   1.409   4.067   0.731
 1733SOL    HW2 6099   1.445   4.059   0.571
 1734SOL     OW 6100   5.052   3.301   0.711
 1734SOL    HW1 6101   4.962   3.319   0.670
 1734SOL    HW2 6102   5.064   3.202   0.720
 1735SOL     OW 6103   5.611   5.628   1.554
 1735SOL    HW1 6104   5.673   5.550   1.544
 1735SOL    HW2 6105   5.563   5.622   1.642
 1736SOL     OW 6106   3.407   3.967   0.735
 1736SOL    HW1 6107   3.308   3.975   0.748
 1736SOL    HW2 6108   3.427   3.951   0.639
 1737SOL     OW 6109   1.721   6.317   3.598
 1737SOL    HW1 6110   1.816   6.321   3.628
 1737SOL    HW2 6111   1.705   6.232   3.548
 1738SOL     OW 6112   1.295   2.541   1.898
 1738SOL    HW1 6113   1.286   2.485   1.816
 1738SOL    HW2 6114   1.369   2.607   1.885
 1739SOL     OW 6115   4.016   1.754   5.280
 1739SOL    HW1 6116   3.963   1.729   5.360
 1739SOL    HW2 6117   4.070   1.676   5.249
 1740SOL     OW 6118   1.054   1.130   6.004
 1740SOL    HW1 6119   1.007   1.190   5.939
 1740SOL    HW2 6120   0.992   1.105   6.078
 1741SOL     OW 6121   1.788   0.547   2.882
 1741SOL    HW1 6122   1.712   0.484   2.901
 1741SOL    HW2 6123   1.806   0.548   2.783
 1742SOL     OW 6124   5.638   0.487   4.481
 1742SOL    HW1 6125   5.588   0.532   4.555
 1742SOL    HW2 6126   5.586   0.406   4.451
 1743SOL     OW 6127   4.543   0.949   0.844
 1743SOL    HW1 6128   4.543   1.042   0.880
 1743SOL    HW2 6129   4.453   0.908   0.855
 1744SOL     OW 6130   2.744   0.801   1.625
 1744SOL    HW1 6131   2.736   0.703   1.607
 1744SOL    HW2 6132   2.813   0.840   1.565
 1745SOL     OW 6133   6.976   2.276   4.172
 1745SOL    HW1 6134   6.935   2.333   4.243
 1745SOL    HW2 6135   0.043   2.308   4.152
 1746SOL     OW 6136   3.228   0.162   5.911
 1746SOL    HW1 6137   3.225   0.184   6.009
 1746SOL    HW2 6138   3.232   0.063   5.899
 1747SOL     OW 6139   4.079   0.483   1.064
 1747SOL    HW1 6140   4.019   0.420   1.113
 1747SOL    HW2 6141   4.085   0.569   1.114
 1748SOL     OW 6142   5.808   2.152   1.969
 1748SOL    HW1 6143   5.796   2.234   1.912
 1748SOL    HW2 6144   5.801   2.071   1.912
 1749SOL     OW 6145   4.483   6.745   5.882
 1749SOL    HW1 6146   4.387   6.720   5.871
 1749SOL    HW2 6147   4.539   6.662   5.881
 1750SOL     OW 6148   5.224   0.606   3.793
 1750SOL    HW1 6149   5.298   0.565   3.847
 1750SOL    HW2 6150   5.243   0.595   3.696
 1751SOL     OW 6151   1.945   5.643   3.649
 1751SOL    HW1 6152   2.016   5.687   3.593
 1751SOL    HW2 6153   1.865   5.625   3.592
 1752SOL     OW 6154   6.247   2.350   0.262
 1752SOL    HW1 6155   6.168   2.291   0.246
 1752SOL    HW2 6156   6.301   2.313   0.338
 1753SOL     OW 6157   2.090   0.430   2.315
 1753SOL    HW1 6158   2.012   0.421   2.377
 1753SOL    HW2 6159   2.151   0.351   2.327
 1754SOL     OW 6160   3.896   3.059   0.730
 1754SOL    HW1 6161   3.912   2.989   0.801
 1754SOL    HW2 6162   3.926   3.148   0.764
 1755SOL     OW 6163   5.336   3.967   0.608
 1755SOL    HW1 6164   5.413   4.012   0.655
 1755SOL    HW2 6165   5.325   3.875   0.644
 1756SOL     OW 6166   6.234   5.539   4.260
 1756SOL    HW1 6167   6.169   5.580   4.324
 1756SOL    HW2 6168   6.327   5.549   4.296
 1757SOL     OW 6169   3.099   6.329   4.063
 1757SOL    HW1 6170   3.172   6.395   4.042
 1757SOL    HW2 6171   3.040   6.319   3.983
 1758SOL     OW 6172   2.465   1.108   3.512
 1758SOL    HW1 6173   2.550   1.116   3.462
 1758SOL    HW2 6174   2.454   1.015   3.546
 1759SOL     OW 6175   0.216   5.589   5.927
 1759SOL    HW1 6176   0.261   5.507   5.960
 1759SOL    HW2 6177   0.262   5.670   5.966
 1760SOL     OW 6178   6.002   0.407   2.649
 1760SOL    HW1 6179   5.925   0.358   2.688
 1760SOL    HW2 6180   5.969   0.485   2.596
 1761SOL     OW 6181   6.544   2.678   1.210
 1761SOL    HW1 6182   6.471   2.619   1.176
 1761SOL    HW2 6183   6.508   2.736   1.283
 1762SOL     OW 6184   6.184   2.005   6.349
 1762SOL    HW1 6185   6.165   1.936   6.419
 1762SOL    HW2 6186   6.122   2.082   6.361
 1763SOL     OW 6187   2.188   4.039   3.764
 1763SOL    HW1 6188   2.194   3.946   3.800
 1763SOL    HW2 6189   2.103   4.081   3.796
 1764SOL     OW 6190   6.510   2.886   3.986
 1764SOL    HW1 6191   6.414   2.889   4.012
 1764SOL    HW2 6192   6.567   2.904   4.066
 1765SOL     OW 6193   2.949   2.607   6.152
 1765SOL    HW1 6194   2.921   2.536   6.216
 1765SOL    HW2 6195   3.023   2.573   6.094
 1766SOL     OW 6196   5.357   3.288   5.203
 1766SOL    HW1 6197   5.422   3.327   5.268
 1766SOL    HW2 6198   5.406   3.251   5.124
 1767SOL     OW 6199   5.732   3.424   2.087
 1767SOL    HW1 6200   5.732   3.336   2.134
 1767SOL    HW2 6201   5.762   3.496   2.150
 1768SOL     OW 6202   5.812   6.684   4.375
 1768SOL    HW1 6203   5.897   6.737   4.373
 1768SOL    HW2 6204   5.734   6.746   4.371
 1769SOL     OW 6205   5.245   1.397   2.635
 1769SOL    HW1 6206   5.297   1.475   2.671
 1769SOL    HW2 6207   5.155   1.428   2.605
 1770SOL     OW 6208   2.671   5.484   5.287
 1770SOL    HW1 6209   2.716   5.480   5.198
 1770SOL    HW2 6210   2.688   5.574   5.329
 1771SOL     OW 6211   4.730   5.842   6.239
 1771SOL    HW1 6212   4.754   5.754   6.197
 1771SOL    HW2 6213   4.748   5.838   6.337
 1772SOL     OW 6214   2.957   6.668   2.863
 1772SOL    HW1 6215   2.956   6.727   2.782
 1772SOL    HW2 6216   2.960   6.724   2.945
 1773SOL     OW 6217   0.618   5.357   0.043
 1773SOL    HW1 6218   0.568   5.270   0.041
 1773SOL    HW2 6219   0.555   5.432   0.063
 1774SOL     OW 6220   3.702   5.449   1.846
 1774SOL    HW1 6221   3.786   5.501   1.831
 1774SOL    HW2 6222   3.725   5.357   1.876
 1775SOL     OW 6223   0.539   4.588   2.068
 1775SOL    HW1 6224   0.565   4.617   2.161
 1775SOL    HW2 6225   0.593   4.640   2.001
 1776SOL     OW 6226   2.631   5.664   4.932
 1776SOL    HW1 6227   2.648   5.575   4.976
 1776SOL    HW2 6228   2.680   5.736   4.981
 1777SOL     OW 6229   3.931   6.226   0.682
 1777SOL    HW1 6230   4.030   6.216   0.688
 1777SOL    HW2 6231   3.888   6.177   0.758
 1778SOL     OW 6232   5.517   3.754   5.654
 1778SOL    HW1 6233   5.495   3.801   5.740
 1778SOL    HW2 6234   5.589   3.804   5.607
 1779SOL     OW 6235   3.002   6.467   5.188
 1779SOL    HW1 6236   3.036   6.532   5.256
 1779SOL    HW2 6237   2.941   6.401   5.233
 1780SOL     OW 6238   3.134   3.294   6.727
 1780SOL    HW1 6239   3.206   3.355   6.761
 1780SOL    HW2 6240   3.170   3.201   6.718
 1781SOL     OW 6241   3.466   5.299   3.275
 1781SOL    HW1 6242   3.497   5.342   3.360
 1781SOL    HW2 6243   3.367   5.283   3.281
 1782SOL     OW 6244   3.648   1.863   3.970
 1782SOL    HW1 6245   3.604   1.800   4.034
 1782SOL    HW2 6246   3.622   1.957   3.990
 1783SOL     OW 6247   1.878   5.544   0.508
 1783SOL    HW1 6248   1.909   5.562   0.601
 1783SOL    HW2 6249   1.802   5.606   0.486
 1784SOL     OW 6250   3.334   6.677   4.940
 1784SOL    HW1 6251   3.371   6.736   5.011
 1784SOL    HW2 6252   3.264   6.726   4.888
 1785SOL     OW 6253   6.651   3.964   2.627
 1785SOL    HW1 6254   6.706   4.004   2.700
 1785SOL    HW2 6255   6.561   3.938   2.663
 1786SOL     OW 6256   3.196   2.725   1.215
 1786SOL    HW1 6257   3.169   2.764   1.127
 1786SOL    HW2 6258   3.216   2.799   1.279
 1787SOL     OW 6259   3.902   0.616   5.808
 1787SOL    HW1 6260   3.873   0.681   5.737
 1787SOL    HW2 6261   3.994   0.584   5.788
 1788SOL     OW 6262   1.891   5.077   5.330
 1788SOL    HW1 6263   1.904   5.170   5.295
 1788SOL    HW2 6264   1.961   5.017   5.290
 1789SOL     OW 6265   6.399   1.404   0.310
 1789SOL    HW1 6266   6.361   1.468   0.376
 1789SOL    HW2 6267   6.481   1.444   0.268
 1790SOL     OW 6268   3.907   6.808   3.449
 1790SOL    HW1 6269   3.823   6.810   3.395
 1790SOL    HW2 6270   3.897   6.742   3.523
 1791SOL     OW 6271   0.026   6.837   2.815
 1791SOL    HW1 6272   0.081   6.886   2.746
 1791SOL    HW2 6273   0.086   6.777   2.869
 1792SOL     OW 6274   1.318   2.802   4.633
 1792SOL    HW1 6275   1.369   2.874   4.585
 1792SOL    HW2 6276   1.352   2.793   4.726
 1793SOL     OW 6277   0.309   0.406   4.055
 1793SOL    HW1 6278   0.387   0.467   4.039
 1793SOL    HW2 6279   0.285   0.407   4.153
 1794SOL     OW 6280   4.304   5.461   5.999
 1794SOL    HW1 6281   4.269   5.370   6.023
 1794SOL    HW2 6282   4.295   5.474   5.900
 1795SOL     OW 6283   0.973   2.936   0.696
 1795SOL    HW1 6284   1.041   3.008   0.710
 1795SOL    HW2 6285   1.019   2.849   0.681
 1796SOL     OW 6286   3.637   0.715   6.253
 1796SOL    HW1 6287   3.559   0.777   6.249
 1796SOL    HW2 6288   3.664   0.689   6.160
 1797SOL     OW 6289   1.080   6.812   0.942
 1797SOL    HW1 6290   0.996   6.866   0.943
 1797SOL    HW2 6291   1.111   6.798   1.036
 1798SOL     OW 6292   4.965   2.268   3.169
 1798SOL    HW1 6293   4.940   2.283   3.073
 1798SOL    HW2 6294   4.947   2.352   3.221
 1799SOL     OW 6295   1.507   1.962   6.715
 1799SOL    HW1 6296   1.577   1.991   6.780
 1799SOL    HW2 6297   1.428   1.927   6.765
 1800SOL     OW 6298   4.185   5.062   1.622
 1800SOL    HW1 6299   4.233   5.138   1.665
 1800SOL    HW2 6300   4.111   5.031   1.682
 1801SOL     OW 6301   6.335   6.599   1.163
 1801SOL    HW1 6302   6.259   6.568   1.220
 1801SOL    HW2 6303   6.344   6.539   1.083
 1802SOL     OW 6304   5.358   5.723   4.194
 1802SOL    HW1 6305   5.445   5.753   4.154
 1802SOL    HW2 6306   5.287   5.791   4.176
 1803SOL     OW 6307   0.021   5.652   1.328
 1803SOL    HW1 6308   6.982   5.600   1.272
 1803SOL    HW2 6309   0.109   5.660   1.281
 1804SOL     OW 6310   3.006   3.273   5.086
 1804SOL    HW1 6311   2.939   3.234   5.149
 1804SOL    HW2 6312   3.032   3.204   5.018
 1805SOL     OW 6313   4.824   3.146   6.857
 1805SOL    HW1 6314   4.742   3.164   6.803
 1805SOL    HW2 6315   4.840   3.047   6.861
 1806SOL     OW 6316   0.299   6.516   1.721
 1806SOL    HW1 6317   0.307   6.551   1.627
 1806SOL    HW2 6318   0.376   6.455   1.740
 1807SOL     OW 6319   5.948   1.236   5.292
 1807SOL    HW1 6320   6.048   1.229   5.298
 1807SOL    HW2 6321   5.919   1.326   5.324
 1808SOL     OW 6322   1.804   4.890   3.924
 1808SOL    HW1 6323   1.903   4.897   3.937
 1808SOL    HW2 6324   1.764   4.836   3.999
 1809SOL     OW 6325   3.990   1.161   6.426
 1809SOL    HW1 6326   3.897   1.126   6.431
 1809SOL    HW2 6327   3.991   1.247   6.375
 1810SOL     OW 6328   3.077   6.109   3.045
 1810SOL    HW1 6329   3.044   6.167   3.119
 1810SOL    HW2 6330   3.058   6.154   2.957
 1811SOL     OW 6331   6.189   5.065   3.809
 1811SOL    HW1 6332   6.249   4.986   3.802
 1811SOL    HW2 6333   6.187   5.098   3.904
 1812SOL     OW 6334   4.147   5.219   6.382
 1812SOL    HW1 6335   4.226   5.191   6.437
 1812SOL    HW2 6336   4.178   5.284   6.312
 1813SOL     OW 6337   6.301   4.989   5.901
 1813SOL    HW1 6338   6.349   4.980   5.988
 1813SOL    HW2 6339   6.354   4.946   5.829
 1814SOL     OW 6340   4.476   6.614   2.414
 1814SOL    HW1 6341   4.541   6.590   2.342
 1814SOL    HW2 6342   4.524   6.621   2.501
 1815SOL     OW 6343   0.482   0.446   3.592
 1815SOL    HW1 6344   0.531   0.392   3.523
 1815SOL    HW2 6345   0.499   0.544   3.576
 1816SOL     OW 6346   0.681   4.323   0.265
 1816SOL    HW1 6347   0.769   4.276   0.266
 1816SOL    HW2 6348   0.608   4.259   0.290
 1817SOL     OW 6349   2.298   5.987   2.250
 1817SOL    HW1 6350   2.245   5.964   2.169
 1817SOL    HW2 6351   2.341   5.905   2.287
 1818SOL     OW 6352   2.230   1.306   3.182
 1818SOL    HW1 6353   2.203   1.306   3.086
 1818SOL    HW2 6354   2.329   1.309   3.189
 1819SOL     OW 6355   1.774   5.059   2.116
 1819SOL    HW1 6356   1.729   5.004   2.046
 1819SOL    HW2 6357   1.842   5.002   2.163
 1820SOL     OW 6358   4.731   0.162   2.630
 1820SOL    HW1 6359   4.775   0.214   2.556
 1820SOL    HW2 6360   4.715   0.222   2.708
 1821SOL     OW 6361   3.252   2.108   2.776
 1821SOL    HW1 6362   3.343   2.148   2.763
 1821SOL    HW2 6363   3.187   2.151   2.714
 1822SOL     OW 6364   3.224   3.158   1.797
 1822SOL    HW1 6365   3.220   3.234   1.862
 1822SOL    HW2 6366   3.157   3.088   1.822
 1823SOL     OW 6367   3.888   6.718   2.789
 1823SOL    HW1 6368   3.910   6.723   2.691
 1823SOL    HW2 6369   3.970   6.736   2.842
 1824SOL     OW 6370   5.089   2.613   1.565
 1824SOL    HW1 6371   5.061   2.669   1.487
 1824SOL    HW2 6372   5.132   2.671   1.634
 1825SOL     OW 6373   1.129   0.488   2.048
 1825SOL    HW1 6374   1.141   0.528   1.957
 1825SOL    HW2 6375   1.036   0.451   2.055
 1826SOL     OW 6376   3.707   6.534   6.553
 1826SOL    HW1 6377   3.732   6.590   6.475
 1826SOL    HW2 6378   3.788   6.519   6.610
 1827SOL     OW 6379   6.497   6.151   1.536
 1827SOL    HW1 6380   6.583   6.166   1.585
 1827SOL    HW2 6381   6.454   6.239   1.517
 1828SOL     OW 6382   1.415   2.088   6.490
 1828SOL    HW1 6383   1.496   2.141   6.465
 1828SOL    HW2 6384   1.434   2.033   6.571
 1829SOL     OW 6385   5.318   5.383   1.986
 1829SOL    HW1 6386   5.298   5.481   1.988
 1829SOL    HW2 6387   5.380   5.363   1.909
 1830SOL     OW 6388   5.062   6.405   3.800
 1830SOL    HW1 6389   5.039   6.498   3.772
 1830SOL    HW2 6390   5.161   6.393   3.800
 1831SOL     OW 6391   5.104   6.932   2.817
 1831SOL    HW1 6392   5.152   7.006   2.771
 1831SOL    HW2 6393   5.168   6.856   2.834
 1832SOL     OW 6394   4.607   2.875   0.519
 1832SOL    HW1 6395   4.683   2.940   0.524
 1832SOL    HW2 6396   4.521   2.924   0.532
 1833SOL     OW 6397   5.493   1.623   5.592
 1833SOL    HW1 6398   5.439   1.704   5.613
 1833SOL    HW2 6399   5.504   1.568   5.675
 1834SOL     OW 6400   2.933   3.216   0.757
 1834SOL    HW1 6401   2.975   3.251   0.674
 1834SOL    HW2 6402   2.834   3.208   0.743
 1835SOL     OW 6403   1.776   4.764   0.331
 1835SOL    HW1 6404   1.807   4.859   0.340
 1835SOL    HW2 6405   1.682   4.762   0.299
 1836SOL     OW 6406   0.498   6.354   0.657
 1836SOL    HW1 6407   0.494   6.259   0.628
 1836SOL    HW2 6408   0.592   6.386   0.656
 1837SOL     OW 6409   0.929   2.369   4.655
 1837SOL    HW1 6410   0.939   2.417   4.743
 1837SOL    HW2 6411   1.018   2.362   4.610
 1838SOL     OW 6412   6.626   2.274   4.159
 1838SOL    HW1 6413   6.622   2.224   4.072
 1838SOL    HW2 6414   6.674   2.219   4.227
 1839SOL     OW 6415   0.286   1.999   5.718
 1839SOL    HW1 6416   0.345   1.966   5.644
 1839SOL    HW2 6417   0.215   2.059   5.680
 1840SOL     OW 6418   1.664   5.255   0.963
 1840SOL    HW1 6419   1.650   5.327   0.895
 1840SOL    HW2 6420   1.759   5.225   0.961
 1841SOL     OW 6421   1.442   2.770   3.523
 1841SOL    HW1 6422   1.358   2.785   3.575
 1841SOL    HW2 6423   1.448   2.674   3.495
 1842SOL     OW 6424   0.849   4.663   0.112
 1842SOL    HW1 6425   0.804   4.624   0.193
 1842SOL    HW2 6426   0.948   4.665   0.127
 1843SOL     OW 6427   2.932   2.205   4.494
 1843SOL    HW1 6428   2.922   2.107   4.482
 1843SOL    HW2 6429   2.927   2.250   4.405
 1844SOL     OW 6430   4.807   3.120   3.783
 1844SOL    HW1 6431   4.860   3.081   3.707
 1844SOL    HW2 6432   4.843   3.211   3.804
 1845SOL     OW 6433   4.034   0.729   0.075
 1845SOL    HW1 6434   3.977   0.738   7.017
 1845SOL    HW2 6435   3.978   0.694   0.150
 1846SOL     OW 6436   3.416   1.276   5.596
 1846SOL    HW1 6437   3.349   1.223   5.543
 1846SOL    HW2 6438   3.395   1.268   5.693
 1847SOL     OW 6439   0.372   0.153   0.598
 1847SOL    HW1 6440   0.447   0.210   0.567
 1847SOL    HW2 6441   0.287   0.181   0.553
 1848SOL     OW 6442   2.583   6.963   2.132
 1848SOL    HW1 6443   2.643   6.942   2.055
 1848SOL    HW2 6444   2.560   6.878   2.180
 1849SOL     OW 6445   2.845   1.663   6.696
 1849SOL    HW1 6446   2.890   1.702   6.776
 1849SOL    HW2 6447   2.756   1.707   6.683
 1850SOL     OW 6448   5.900   2.448   2.252
 1850SOL    HW1 6449   5.914   2.361   2.301
 1850SOL    HW2 6450   5.807   2.481   2.270
 1851SOL     OW 6451   6.756   2.371   2.566
 1851SOL    HW1 6452   6.661   2.400   2.568
 1851SOL    HW2 6453   6.793   2.371   2.659
 1852SOL     OW 6454   4.980   2.812   0.488
 1852SOL    HW1 6455   5.049   2.884   0.485
 1852SOL    HW2 6456   5.020   2.728   0.525
 1853SOL     OW 6457   1.289   4.623   0.762
 1853SOL    HW1 6458   1.254   4.700   0.708
 1853SOL    HW2 6459   1.385   4.607   0.738
 1854SOL     OW 6460   2.355   5.685   4.635
 1854SOL    HW1 6461   2.375   5.627   4.713
 1854SOL    HW2 6462   2.395   5.776   4.649
 1855SOL     OW 6463   4.824   5.032   1.667
 1855SOL    HW1 6464   4.847   4.936   1.652
 1855SOL    HW2 6465   4.889   5.089   1.616
 1856SOL     OW 6466   4.966   2.206   5.450
 1856SOL    HW1 6467   4.957   2.292   5.500
 1856SOL    HW2 6468   5.056   2.166   5.469
 1857SOL     OW 6469   4.521   0.924   3.286
 1857SOL    HW1 6470   4.444   0.863   3.270
 1857SOL    HW2 6471   4.570   0.940   3.200
 1858SOL     OW 6472   4.928   3.655   3.455
 1858SOL    HW1 6473   4.917   3.564   3.494
 1858SOL    HW2 6474   4.999   3.705   3.505
 1859SOL     OW 6475   4.912   1.618   3.140
 1859SOL    HW1 6476   4.910   1.629   3.041
 1859SOL    HW2 6477   4.935   1.705   3.183
 1860SOL     OW 6478   5.346   1.273   4.608
 1860SOL    HW1 6479   5.284   1.206   4.649
 1860SOL    HW2 6480   5.440   1.250   4.630
 1861SOL     OW 6481   5.748   6.524   2.721
 1861SOL    HW1 6482   5.769   6.607   2.668
 1861SOL    HW2 6483   5.716   6.452   2.658
 1862SOL     OW 6484   2.244   1.525   0.118
 1862SOL    HW1 6485   2.196   1.587   0.180
 1862SOL    HW2 6486   2.238   1.561   0.024
 1863SOL     OW 6487   3.124   2.952   1.349
 1863SOL    HW1 6488   3.075   2.971   1.264
 1863SOL    HW2 6489   3.106   3.025   1.415
 1864SOL     OW 6490   1.564   6.497   4.120
 1864SOL    HW1 6491   1.565   6.530   4.215
 1864SOL    HW2 6492   1.538   6.400   4.120
 1865SOL     OW 6493   4.462   2.437   6.482
 1865SOL    HW1 6494   4.410   2.511   6.439
 1865SOL    HW2 6495   4.410   2.352   6.478
 1866SOL     OW 6496   4.528   5.130   2.738
 1866SOL    HW1 6497   4.558   5.057   2.800
 1866SOL    HW2 6498   4.432   5.152   2.757
 1867SOL     OW 6499   0.761   4.175   6.797
 1867SOL    HW1 6500   0.829   4.102   6.797
 1867SOL    HW2 6501   0.785   4.243   6.867
 1868SOL     OW 6502   5.844   4.305   5.563
 1868SOL    HW1 6503   5.878   4.394   5.533
 1868SOL    HW2 6504   5.770   4.275   5.503
 1869SOL     OW 6505   6.206   1.202   5.341
 1869SOL    HW1 6506   6.237   1.109   5.324
 1869SOL    HW2 6507   6.264   1.244   5.411
 1870SOL     OW 6508   1.847   5.591   4.397
 1870SOL    HW1 6509   1.941   5.587   4.432
 1870SOL    HW2 6510   1.842   5.542   4.310
 1871SOL     OW 6511   1.437   0.147   1.009
 1871SOL    HW1 6512   1.351   0.114   0.971
 1871SOL    HW2 6513   1.430   0.244   1.029
 1872SOL     OW 6514   2.435   4.417   6.984
 1872SOL    HW1 6515   2.428   4.318   6.971
 1872SOL    HW2 6516   2.366   4.446   0.025
 1873SOL     OW 6517   4.725   1.415   6.786
 1873SOL    HW1 6518   4.664   1.477   6.737
 1873SOL    HW2 6519   4.772   1.356   6.721
 1874SOL     OW 6520   1.137   2.157   2.643
 1874SOL    HW1 6521   1.149   2.235   2.704
 1874SOL    HW2 6522   1.162   2.183   2.550
 1875SOL     OW 6523   0.343   6.834   0.367
 1875SOL    HW1 6524   0.338   6.911   0.303
 1875SOL    HW2 6525   0.424   6.779   0.346
 1876SOL     OW 6526   2.581   0.339   4.344
 1876SOL    HW1 6527   2.502   0.282   4.323
 1876SOL    HW2 6528   2.665   0.287   4.330
 1877SOL     OW 6529   0.774   0.073   3.481
 1877SOL    HW1 6530   0.847   0.140   3.467
 1877SOL    HW2 6531   0.795   0.018   3.562
 1878SOL     OW 6532   6.514   2.373   5.561
 1878SOL    HW1 6533   6.416   2.381   5.546
 1878SOL    HW2 6534   6.564   2.401   5.479
 1879SOL     OW 6535   1.246   4.346   5.207
 1879SOL    HW1 6536   1.157   4.389   5.193
 1879SOL    HW2 6537   1.253   4.264   5.149
 1880SOL     OW 6538   6.270   0.501   5.811
 1880SOL    HW1 6539   6.359   0.529   5.848
 1880SOL    HW2 6540   6.216   0.583   5.788
 1881SOL     OW 6541   6.887   2.324   0.234
 1881SOL    HW1 6542   6.855   2.340   0.328
 1881SOL    HW2 6543   6.908   2.227   0.222
 1882SOL     OW 6544   0.718   4.655   6.149
 1882SOL    HW1 6545   0.647   4.596   6.109
 1882SOL    HW2 6546   0.675   4.720   6.211
 1883SOL     OW 6547   0.081   2.037   3.996
 1883SOL    HW1 6548   0.077   2.135   3.977
 1883SOL    HW2 6549   0.076   2.021   4.094
 1884SOL     OW 6550   0.439   2.668   1.171
 1884SOL    HW1 6551   0.440   2.766   1.152
 1884SOL    HW2 6552   0.525   2.643   1.215
 1885SOL     OW 6553   1.836   2.162   4.665
 1885SOL    HW1 6554   1.877   2.174   4.575
 1885SOL    HW2 6555   1.745   2.122   4.655
 1886SOL     OW 6556   1.314   6.506   3.430
 1886SOL    HW1 6557   1.240   6.567   3.457
 1886SOL    HW2 6558   1.395   6.560   3.408
 1887SOL     OW 6559   1.773   5.938   6.538
 1887SOL    HW1 6560   1.730   5.994   6.467
 1887SOL    HW2 6561   1.853   5.891   6.499
 1888SOL     OW 6562   2.764   0.979   1.818
 1888SOL    HW1 6563   2.723   1.065   1.789
 1888SOL    HW2 6564   2.755   0.912   1.745
 1889SOL     OW 6565   0.498   3.330   3.413
 1889SOL    HW1 6566   0.537   3.256   3.468
 1889SOL    HW2 6567   0.486   3.299   3.319
 1890SOL     OW 6568   0.124   5.911   3.404
 1890SOL    HW1 6569   0.076   5.831   3.441
 1890SOL    HW2 6570   0.075   5.994   3.428
 1891SOL     OW 6571   3.319   3.334   2.799
 1891SOL    HW1 6572   3.277   3.369   2.882
 1891SOL    HW2 6573   3.317   3.234   2.799
 1892SOL     OW 6574   0.488   0.730   2.537
 1892SOL    HW1 6575   0.533   0.677   2.610
 1892SOL    HW2 6576   0.515   0.693   2.448
 1893SOL     OW 6577   3.291   2.949   3.777
 1893SOL    HW1 6578   3.256   2.919   3.688
 1893SOL    HW2 6579   3.302   2.870   3.837
 1894SOL     OW 6580   2.880   3.590   3.976
 1894SOL    HW1 6581   2.954   3.606   4.041
 1894SOL    HW2 6582   2.818   3.669   3.976
 1895SOL     OW 6583   2.453   5.946   6.724
 1895SOL    HW1 6584   2.531   6.008   6.719
 1895SOL    HW2 6585   2.441   5.915   6.819
 1896SOL     OW 6586   5.368   2.561   0.962
 1896SOL    HW1 6587   5.327   2.617   1.034
 1896SOL    HW2 6588   5.399   2.474   1.001
 1897SOL     OW 6589   1.963   4.763   4.320
 1897SOL    HW1 6590   1.918   4.837   4.370
 1897SOL    HW2 6591   2.059   4.756   4.350
 1898SOL     OW 6592   1.406   5.991   3.425
 1898SOL    HW1 6593   1.390   5.924   3.353
 1898SOL    HW2 6594   1.383   6.082   3.392
 1899SOL     OW 6595   6.959   0.418   2.275
 1899SOL    HW1 6596   6.868   0.404   2.237
 1899SOL    HW2 6597   6.967   0.370   2.362
 1900SOL     OW 6598   2.680   6.722   0.196
 1900SOL    HW1 6599   2.685   6.744   0.098
 1900SOL    HW2 6600   2.660   6.805   0.247
 1901SOL     OW 6601   2.843   3.576   1.352
 1901SOL    HW1 6602   2.828   3.665   1.395
 1901SOL    HW2 6603   2.817   3.580   1.256
 1902SOL     OW 6604   1.150   6.888   4.238
 1902SOL    HW1 6605   1.064   6.848   4.269
 1902SOL    HW2 6606   1.131   6.972   4.188
 1903SOL     OW 6607   0.807   2.701   4.496
 1903SOL    HW1 6608   0.877   2.732   4.560
 1903SOL    HW2 6609   0.718   2.736   4.525
 1904SOL     OW 6610   5.481   5.678   2.375
 1904SOL    HW1 6611   5.507   5.738   2.451
 1904SOL    HW2 6612   5.485   5.729   2.289
 1905SOL     OW 6613   6.943   0.645   4.101
 1905SOL    HW1 6614   7.004   0.616   4.027
 1905SOL    HW2 6615   6.996   0.694   4.170
 1906SOL     OW 6616   1.669   6.943   5.466
 1906SOL    HW1 6617   1.701   6.950   5.560
 1906SOL    HW2 6618   1.629   0.005   5.437
 1907SOL     OW 6619   6.012   2.701   0.124
 1907SOL    HW1 6620   5.979   2.710   0.218
 1907SOL    HW2 6621   6.111   2.713   0.123
 1908SOL     OW 6622   3.335   1.108   1.255
 1908SOL    HW1 6623   3.404   1.040   1.230
 1908SOL    HW2 6624   3.354   1.194   1.207
 1909SOL     OW 6625   6.694   4.543   4.914
 1909SOL    HW1 6626   6.692   4.582   4.822
 1909SOL    HW2 6627   6.602   4.541   4.951
 1910SOL     OW 6628   6.836   6.278   5.901
 1910SOL    HW1 6629   6.847   6.270   5.802
 1910SOL    HW2 6630   6.757   6.336   5.922
 1911SOL     OW 6631   6.927   4.910   4.028
 1911SOL    HW1 6632   6.945   4.925   4.126
 1911SOL    HW2 6633   6.968   4.985   3.975
 1912SOL     OW 6634   2.766   5.450   1.997
 1912SOL    HW1 6635   2.699   5.415   2.062
 1912SOL    HW2 6636   2.805   5.375   1.944
 1913SOL     OW 6637   2.799   4.442   6.112
 1913SOL    HW1 6638   2.841   4.478   6.028
 1913SOL    HW2 6639   2.702   4.425   6.096
 1914SOL     OW 6640   2.171   4.954   6.277
 1914SOL    HW1 6641   2.132   4.880   6.333
 1914SOL    HW2 6642   2.206   5.026   6.337
 1915SOL     OW 6643   3.999   2.504   5.560
 1915SOL    HW1 6644   3.903   2.530   5.572
 1915SOL    HW2 6645   4.050   2.522   5.644
 1916SOL     OW 6646   4.125   0.869   1.913
 1916SOL    HW1 6647   4.175   0.956   1.908
 1916SOL    HW2 6648   4.088   0.847   1.823
 1917SOL     OW 6649   2.291   3.999   1.548
 1917SOL    HW1 6650   2.231   4.057   1.492
 1917SOL    HW2 6651   2.237   3.958   1.622
 1918SOL     OW 6652   5.558   2.889   4.145
 1918SOL    HW1 6653   5.458   2.884   4.138
 1918SOL    HW2 6654   5.591   2.822   4.211
 1919SOL     OW 6655   0.346   2.444   1.084
 1919SOL    HW1 6656   0.373   2.539   1.103
 1919SOL    HW2 6657   0.375   2.418   0.993
 1920SOL     OW 6658   5.133   2.422   0.786
 1920SOL    HW1 6659   5.194   2.419   0.865
 1920SOL    HW2 6660   5.038   2.408   0.817
 1921SOL     OW 6661   1.810   2.686   6.881
 1921SOL    HW1 6662   1.815   2.731   6.970
 1921SOL    HW2 6663   1.869   2.734   6.816
 1922SOL     OW 6664   3.537   3.137   2.114
 1922SOL    HW1 6665   3.567   3.061   2.057
 1922SOL    HW2 6666   3.482   3.103   2.190
 1923SOL     OW 6667   4.079   0.549   4.979
 1923SOL    HW1 6668   4.162   0.565   4.925
 1923SOL    HW2 6669   4.099   0.486   5.054
 1924SOL     OW 6670   3.979   0.447   0.268
 1924SOL    HW1 6671   3.955   0.360   0.312
 1924SOL    HW2 6672   4.015   0.429   0.176
 1925SOL     OW 6673   1.528   4.329   0.637
 1925SOL    HW1 6674   1.440   4.290   0.665
 1925SOL    HW2 6675   1.583   4.350   0.717
 1926SOL     OW 6676   3.542   0.076   2.415
 1926SOL    HW1 6677   3.528   0.108   2.321
 1926SOL    HW2 6678   3.623   0.017   2.417
 1927SOL     OW 6679   2.186   5.452   1.803
 1927SOL    HW1 6680   2.240   5.368   1.802
 1927SOL    HW2 6681   2.226   5.517   1.867
 1928SOL     OW 6682   5.094   4.315   3.338
 1928SOL    HW1 6683   5.116   4.241   3.401
 1928SOL    HW2 6684   5.102   4.282   3.244
 1929SOL     OW 6685   3.611   7.018   3.171
 1929SOL    HW1 6686   3.521   0.012   3.211
 1929SOL    HW2 6687   3.661   0.079   3.158
 1930SOL     OW 6688   4.540   2.979   6.893
 1930SOL    HW1 6689   4.591   2.903   6.933
 1930SOL    HW2 6690   4.503   2.952   6.804
 1931SOL     OW 6691   0.024   1.609   4.907
 1931SOL    HW1 6692   0.101   1.618   4.844
 1931SOL    HW2 6693   7.020   1.513   4.910
 1932SOL     OW 6694   4.254   2.270   1.815
 1932SOL    HW1 6695   4.310   2.351   1.834
 1932SOL    HW2 6696   4.157   2.297   1.814
 1933SOL     OW 6697   1.140   0.978   1.312
 1933SOL    HW1 6698   1.053   0.956   1.356
 1933SOL    HW2 6699   1.211   0.987   1.382
 1934SOL     OW 6700   0.250   0.686   6.949
 1934SOL    HW1 6701   0.188   0.703   6.872
 1934SOL    HW2 6702   0.196   0.665   0.005
 1935SOL     OW 6703   6.643   5.056   4.303
 1935SOL    HW1 6704   6.633   5.155   4.311
 1935SOL    HW2 6705   6.579   5.021   4.234
 1936SOL     OW 6706   4.680   2.699   5.797
 1936SOL    HW1 6707   4.596   2.660   5.760
 1936SOL    HW2 6708   4.712   2.773   5.737
 1937SOL     OW 6709   5.744   4.890   6.285
 1937SOL    HW1 6710   5.665   4.858   6.234
 1937SOL    HW2 6711   5.744   4.850   6.377
 1938SOL     OW 6712   6.900   3.505   6.368
 1938SOL    HW1 6713   6.892   3.501   6.468
 1938SOL    HW2 6714   6.881   3.599   6.338
 1939SOL     OW 6715   1.069   0.572   5.127
 1939SOL    HW1 6716   1.167   0.586   5.113
 1939SOL    HW2 6717   1.024   0.565   5.038
 1940SOL     OW 6718   6.765   4.939   0.543
 1940SOL    HW1 6719   6.781   4.847   0.579
 1940SOL    HW2 6720   6.682   4.976   0.584
 1941SOL     OW 6721   5.726   1.710   4.559
 1941SOL    HW1 6722   5.649   1.771   4.575
 1941SOL    HW2 6723   5.780   1.744   4.482
 1942SOL     OW 6724   6.396   3.921   2.743
 1942SOL    HW1 6725   6.349   3.924   2.655
 1942SOL    HW2 6726   6.342   3.870   2.809
 1943SOL     OW 6727   0.863   2.206   2.512
 1943SOL    HW1 6728   0.860   2.278   2.442
 1943SOL    HW2 6729   0.948   2.214   2.563
 1944SOL     OW 6730   6.963   2.233   3.310
 1944SOL    HW1 6731   6.888   2.291   3.277
 1944SOL    HW2 6732   6.938   2.193   3.398
 1945SOL     OW 6733   4.859   1.513   1.780
 1945SOL    HW1 6734   4.799   1.468   1.846
 1945SOL    HW2 6735   4.814   1.517   1.691
 1946SOL     OW 6736   6.382   4.979   0.890
 1946SOL    HW1 6737   6.378   5.068   0.844
 1946SOL    HW2 6738   6.359   4.991   0.987
 1947SOL     OW 6739   6.269   4.502   3.540
 1947SOL    HW1 6740   6.339   4.573   3.536
 1947SOL    HW2 6741   6.278   4.450   3.625
 1948SOL     OW 6742   4.867   3.596   3.136
 1948SOL    HW1 6743   4.890   3.623   3.043
 1948SOL    HW2 6744   4.849   3.677   3.191
 1949SOL     OW 6745   3.428   5.084   6.983
 1949SOL    HW1 6746   3.343   5.136   6.980
 1949SOL    HW2 6747   3.454   5.070   0.054
 1950SOL     OW 6748   3.319   3.806   3.103
 1950SOL    HW1 6749   3.280   3.898   3.109
 1950SOL    HW2 6750   3.267   3.744   3.161
 1951SOL     OW 6751   5.950   4.711   5.149
 1951SOL    HW1 6752   6.040   4.681   5.117
 1951SOL    HW2 6753   5.956   4.733   5.247
 1952SOL     OW 6754   5.880   5.131   0.496
 1952SOL    HW1 6755   5.904   5.227   0.482
 1952SOL    HW2 6756   5.799   5.125   0.555
 1953SOL     OW 6757   0.676   1.329   6.832
 1953SOL    HW1 6758   0.711   1.363   6.919
 1953SOL    HW2 6759   0.744   1.347   6.760
 1954SOL     OW 6760   4.443   6.971   2.133
 1954SOL    HW1 6761   4.526   6.970   2.190
 1954SOL    HW2 6762   4.457   6.914   2.053
 1955SOL     OW 6763   0.101   1.892   3.479
 1955SOL    HW1 6764   0.023   1.844   3.519
 1955SOL    HW2 6765   0.109   1.869   3.382
 1956SOL     OW 6766   5.872   0.338   1.954
 1956SOL    HW1 6767   5.810   0.415   1.949
 1956SOL    HW2 6768   5.823   0.258   1.989
 1957SOL     OW 6769   5.850   2.170   4.798
 1957SOL    HW1 6770   5.868   2.083   4.752
 1957SOL    HW2 6771   5.853   2.157   4.897
 1958SOL     OW 6772   4.392   2.070   0.289
 1958SOL    HW1 6773   4.479   2.056   0.242
 1958SOL    HW2 6774   4.324   2.106   0.225
 1959SOL     OW 6775   0.814   1.319   5.174
 1959SOL    HW1 6776   0.809   1.227   5.135
 1959SOL    HW2 6777   0.739   1.375   5.139
 1960SOL     OW 6778   5.827   4.335   4.173
 1960SOL    HW1 6779   5.905   4.298   4.123
 1960SOL    HW2 6780   5.750   4.346   4.110
 1961SOL     OW 6781   0.270   3.546   4.293
 1961SOL    HW1 6782   0.270   3.645   4.282
 1961SOL    HW2 6783   0.184   3.517   4.334
 1962SOL     OW 6784   0.868   0.595   2.888
 1962SOL    HW1 6785   0.941   0.661   2.899
 1962SOL    HW2 6786   0.789   0.622   2.944
 1963SOL     OW 6787   0.502   2.794   0.867
 1963SOL    HW1 6788   0.459   2.852   0.936
 1963SOL    HW2 6789   0.567   2.848   0.814
 1964SOL     OW 6790   5.912   3.648   1.174
 1964SOL    HW1 6791   5.857   3.599   1.242
 1964SOL    HW2 6792   6.002   3.669   1.213
 1965SOL     OW 6793   6.847   4.056   4.009
 1965SOL    HW1 6794   6.806   4.132   3.958
 1965SOL    HW2 6795   6.807   3.970   3.978
 1966SOL     OW 6796   1.502   4.904   0.241
 1966SOL    HW1 6797   1.411   4.903   0.281
 1966SOL    HW2 6798   1.528   4.999   0.220
 1967SOL     OW 6799   6.212   3.250   3.735
 1967SOL    HW1 6800   6.200   3.235   3.833
 1967SOL    HW2 6801   6.190   3.167   3.685
 1968SOL     OW 6802   2.707   1.550   4.968
 1968SOL    HW1 6803   2.711   1.625   5.035
 1968SOL    HW2 6804   2.799   1.517   4.951
 1969SOL     OW 6805   2.210   6.225   0.576
 1969SOL    HW1 6806   2.129   6.251   0.525
 1969SOL    HW2 6807   2.291   6.236   0.518
 1970SOL     OW 6808   5.754   5.408   4.845
 1970SOL    HW1 6809   5.801   5.495   4.861
 1970SOL    HW2 6810   5.819   5.333   4.858
 1971SOL     OW 6811   1.677   5.266   5.085
 1971SOL    HW1 6812   1.636   5.193   5.139
 1971SOL    HW2 6813   1.765   5.291   5.124
 1972SOL     OW 6814   5.913   3.001   2.561
 1972SOL    HW1 6815   5.924   2.957   2.650
 1972SOL    HW2 6816   5.968   2.952   2.493
 1973SOL     OW 6817   2.321   2.882   0.770
 1973SOL    HW1 6818   2.247   2.874   0.837
 1973SOL    HW2 6819   2.397   2.933   0.810
 1974SOL     OW 6820   2.384   5.903   4.851
 1974SOL    HW1 6821   2.482   5.897   4.836
 1974SOL    HW2 6822   2.363   5.876   4.945
 1975SOL     OW 6823   2.054   2.600   3.301
 1975SOL    HW1 6824   2.006   2.685   3.322
 1975SOL    HW2 6825   2.103   2.610   3.214
 1976SOL     OW 6826   0.468   0.266   5.897
 1976SOL    HW1 6827   0.512   0.333   5.838
 1976SOL    HW2 6828   0.528   0.187   5.908
 1977SOL     OW 6829   2.025   4.831   5.741
 1977SOL    HW1 6830   2.027   4.752   5.803
 1977SOL    HW2 6831   2.101   4.892   5.764
 1978SOL     OW 6832   2.987   0.148   1.754
 1978SOL    HW1 6833   2.941   0.237   1.752
 1978SOL    HW2 6834   3.070   0.152   1.697
 1979SOL     OW 6835   6.372   5.084   6.162
 1979SOL    HW1 6836   6.425   5.051   6.240
 1979SOL    HW2 6837   6.323   5.167   6.188
 1980SOL     OW 6838   3.281   1.495   0.891
 1980SOL    HW1 6839   3.257   1.592   0.881
 1980SOL    HW2 6840   3.208   1.439   0.852
 1981SOL     OW 6841   3.576   1.931   2.942
 1981SOL    HW1 6842   3.661   1.975   2.973
 1981SOL    HW2 6843   3.502   1.953   3.005
 1982SOL     OW 6844   0.903   2.905   5.107
 1982SOL    HW1 6845   0.945   2.849   5.036
 1982SOL    HW2 6846   0.842   2.849   5.162
 1983SOL     OW 6847   0.172   0.560   2.203
 1983SOL    HW1 6848   0.261   0.519   2.225
 1983SOL    HW2 6849   0.100   0.492   2.213
 1984SOL     OW 6850   4.683   2.798   6.066
 1984SOL    HW1 6851   4.669   2.794   5.967
 1984SOL    HW2 6852   4.594   2.806   6.112
 1985SOL     OW 6853   6.499   3.200   2.622
 1985SOL    HW1 6854   6.438   3.146   2.679
 1985SOL    HW2 6855   6.557   3.258   2.680
 1986SOL     OW 6856   3.693   2.849   2.050
 1986SOL    HW1 6857   3.719   2.758   2.017
 1986SOL    HW2 6858   3.769   2.912   2.035
 1987SOL     OW 6859   2.579   1.308   0.721
 1987SOL    HW1 6860   2.642   1.345   0.653
 1987SOL    HW2 6861   2.605   1.214   0.744
 1988SOL     OW 6862   0.283   2.420   1.664
 1988SOL    HW1 6863   0.312   2.429   1.569
 1988SOL    HW2 6864   0.354   2.374   1.716
 1989SOL     OW 6865   3.082   4.885   4.566
 1989SOL    HW1 6866   3.117   4.797   4.597
 1989SOL    HW2 6867   3.055   4.877   4.470
 1990SOL     OW 6868   3.828   0.684   0.324
 1990SOL    HW1 6869   3.892   0.607   0.321
 1990SOL    HW2 6870   3.739   0.654   0.290
 1991SOL     OW 6871   2.853   4.931   1.054
 1991SOL    HW1 6872   2.825   4.893   0.965
 1991SOL    HW2 6873   2.913   5.010   1.039
 1992SOL     OW 6874   0.337   6.397   1.976
 1992SOL    HW1 6875   0.336   6.339   2.057
 1992SOL    HW2 6876   0.403   6.360   1.910
 1993SOL     OW 6877   2.225   2.289   2.907
 1993SOL    HW1 6878   2.204   2.198   2.942
 1993SOL    HW2 6879   2.287   2.281   2.829
 1994SOL     OW 6880   3.285   3.016   1.086
 1994SOL    HW1 6881   3.366   3.010   1.028
 1994SOL    HW2 6882   3.226   2.938   1.070
 1995SOL     OW 6883   5.482   1.851   4.531
 1995SOL    HW1 6884   5.426   1.793   4.590
 1995SOL    HW2 6885   5.451   1.946   4.539
 1996SOL     OW 6886   4.128   0.993   1.088
 1996SOL    HW1 6887   4.188   0.937   1.144
 1996SOL    HW2 6888   4.184   1.051   1.028
 1997SOL     OW 6889   3.775   0.567   4.092
 1997SOL    HW1 6890   3.682   0.597   4.072
 1997SOL    HW2 6891   3.814   0.624   4.164
 1998SOL     OW 6892   1.934   3.593   1.408
 1998SOL    HW1 6893   1.927   3.670   1.344
 1998SOL    HW2 6894   1.857   3.530   1.392
 1999SOL     OW 6895   1.180   0.081   0.893
 1999SOL    HW1 6896   1.120   0.135   0.834
 1999SOL    HW2 6897   1.139   7.016   0.909
 2000SOL     OW 6898   4.012   4.284   5.961
 2000SOL    HW1 6899   3.946   4.308   5.889
 2000SOL    HW2 6900   3.968   4.221   6.026
 2001SOL     OW 6901   2.090   1.585   0.836
 2001SOL    HW1 6902   2.039   1.669   0.858
 2001SOL    HW2 6903   2.103   1.531   0.919
 2002SOL     OW 6904   6.987   5.264   0.245
 2002SOL    HW1 6905   6.973   5.225   0.336
 2002SOL    HW2 6906   6.924   5.340   0.231
 2003SOL     OW 6907   6.234   4.508   2.705
 2003SOL    HW1 6908   6.146   4.482   2.744
 2003SOL    HW2 6909   6.307   4.455   2.748
 2004SOL     OW 6910   4.035   6.827   3.113
 2004SOL    HW1 6911   4.036   6.910   3.168
 2004SOL    HW2 6912   4.129   6.792   3.104
 2005SOL     OW 6913   1.464   6.345   6.938
 2005SOL    HW1 6914   1.483   6.300   6.851
 2005SOL    HW2 6915   1.438   6.441   6.921
 2006SOL     OW 6916   5.669   5.930   2.214
 2006SOL    HW1 6917   5.687   5.913   2.311
 2006SOL    HW2 6918   5.570   5.929   2.198
 2007SOL     OW 6919   5.332   4.558   0.022
 2007SOL    HW1 6920   5.430   4.556   0.037
 2007SOL    HW2 6921   5.302   4.653   0.012
 2008SOL     OW 6922   2.044   3.252   3.567
 2008SOL    HW1 6923   1.966   3.240   3.629
 2008SOL    HW2 6924   2.020   3.218   3.476
 2009SOL     OW 6925   6.504   0.213   2.889
 2009SOL    HW1 6926   6.477   0.286   2.826
 2009SOL    HW2 6927   6.526   0.130   2.837
 2010SOL     OW 6928   0.388   2.418   1.397
 2010SOL    HW1 6929   0.379   2.454   1.304
 2010SOL    HW2 6930   0.449   2.339   1.397
 2011SOL     OW 6931   1.433   6.842   5.210
 2011SOL    HW1 6932   1.414   6.758   5.260
 2011SOL    HW2 6933   1.382   6.918   5.250
 2012SOL     OW 6934   1.346   3.112   2.063
 2012SOL    HW1 6935   1.279   3.109   1.988
 2012SOL    HW2 6936   1.432   3.149   2.029
 2013SOL     OW 6937   0.725   3.265   1.930
 2013SOL    HW1 6938   0.732   3.193   1.999
 2013SOL    HW2 6939   0.794   3.335   1.947
 2014SOL     OW 6940   3.964   0.791   4.797
 2014SOL    HW1 6941   4.045   0.831   4.753
 2014SOL    HW2 6942   3.919   0.728   4.734
 2015SOL     OW 6943   4.189   0.385   1.740
 2015SOL    HW1 6944   4.107   0.352   1.695
 2015SOL    HW2 6945   4.165   0.460   1.802
 2016SOL     OW 6946   1.693   0.338   4.744
 2016SOL    HW1 6947   1.766   0.404   4.765
 2016SOL    HW2 6948   1.732   0.246   4.745
 2017SOL     OW 6949   4.121   6.349   3.808
 2017SOL    HW1 6950   4.047   6.282   3.821
 2017SOL    HW2 6951   4.149   6.349   3.712
 2018SOL     OW 6952   1.223   0.607   4.440
 2018SOL    HW1 6953   1.263   0.582   4.352
 2018SOL    HW2 6954   1.140   0.554   4.456
 2019SOL     OW 6955   5.494   5.289   6.363
 2019SOL    HW1 6956   5.434   5.279   6.284
 2019SOL    HW2 6957   5.587   5.266   6.338
 2020SOL     OW 6958   2.245   6.374   0.266
 2020SOL    HW1 6959   2.231   6.385   0.167
 2020SOL    HW2 6960   2.336   6.406   0.291
 2021SOL     OW 6961   6.872   5.941   4.373
 2021SOL    HW1 6962   6.901   5.882   4.448
 2021SOL    HW2 6963   6.944   5.943   4.303
 2022SOL     OW 6964   1.912   3.845   4.450
 2022SOL    HW1 6965   1.918   3.823   4.548
 2022SOL    HW2 6966   1.998   3.886   4.420
 2023SOL     OW 6967   7.004   6.828   0.349
 2023SOL    HW1 6968   6.922   6.776   0.326
 2023SOL    HW2 6969   0.037   6.774   0.410
 2024SOL     OW 6970   0.508   6.183   4.078
 2024SOL    HW1 6971   0.542   6.095   4.043
 2024SOL    HW2 6972   0.541   6.197   4.171
 2025SOL     OW 6973   1.405   6.252   4.287
 2025SOL    HW1 6974   1.405   6.263   4.188
 2025SOL    HW2 6975   1.340   6.316   4.327
 2026SOL     OW 6976   0.175   0.261   6.195
 2026SOL    HW1 6977   0.263   0.306   6.210
 2026SOL    HW2 6978   0.119   0.317   6.135
 2027SOL     OW 6979   6.721   6.035   2.054
 2027SOL    HW1 6980   6.802   6.082   2.088
 2027SOL    HW2 6981   6.669   5.999   2.132
 2028SOL     OW 6982   3.226   5.385   4.568
 2028SOL    HW1 6983   3.269   5.408   4.656
 2028SOL    HW2 6984   3.150   5.321   4.584
 2029SOL     OW 6985   6.418   2.754   6.427
 2029SOL    HW1 6986   6.461   2.820   6.489
 2029SOL    HW2 6987   6.482   2.678   6.410
 2030SOL     OW 6988   1.967   0.014   1.999
 2030SOL    HW1 6989   2.004   0.007   2.091
 2030SOL    HW2 6990   1.929   6.951   1.971
 2031SOL     OW 6991   0.170   5.995   4.188
 2031SOL    HW1 6992   0.177   6.060   4.112
 2031SOL    HW2 6993   0.096   5.931   4.170
 2032SOL     OW 6994   2.213   2.532   5.806
 2032SOL    HW1 6995   2.293   2.554   5.861
 2032SOL    HW2 6996   2.201   2.433   5.803
 2033SOL     OW 6997   2.644   2.117   0.674
 2033SOL    HW1 6998   2.714   2.045   0.675
 2033SOL    HW2 6999   2.562   2.083   0.626
 2034SOL     OW 7000   0.538   3.911   4.806
 2034SOL    HW1 7001   0.525   3.827   4.753
 2034SOL    HW2 7002   0.602   3.894   4.880
 2035SOL     OW 7003   5.083   0.122   3.217
 2035SOL    HW1 7004   5.028   0.049   3.258
 2035SOL    HW2 7005   5.024   0.179   3.159
 2036SOL     OW 7006   0.383   4.830   6.735
 2036SOL    HW1 7007   0.431   4.833   6.823
 2036SOL    HW2 7008   0.308   4.764   6.740
 2037SOL     OW 7009   0.948   2.379   6.838
 2037SOL    HW1 7010   0.852   2.352   6.836
 2037SOL    HW2 7011   0.980   2.395   6.745
 2038SOL     OW 7012   1.229   0.948   6.289
 2038SOL    HW1 7013   1.224   0.946   6.189
 2038SOL    HW2 7014   1.184   1.030   6.322
 2039SOL     OW 7015   5.257   6.534   3.528
 2039SOL    HW1 7016   5.160   6.516   3.514
 2039SOL    HW2 7017   5.276   6.630   3.506
 2040SOL     OW 7018   2.291   2.344   0.361
 2040SOL    HW1 7019   2.229   2.393   0.298
 2040SOL    HW2 7020   2.347   2.281   0.309
 2041SOL     OW 7021   2.697   0.774   6.281
 2041SOL    HW1 7022   2.613   0.770   6.227
 2041SOL    HW2 7023   2.768   0.821   6.228
 2042SOL     OW 7024   6.416   1.313   5.789
 2042SOL    HW1 7025   6.506   1.278   5.763
 2042SOL    HW2 7026   6.387   1.271   5.875
 2043SOL     OW 7027   0.622   3.892   1.272
 2043SOL    HW1 7028   0.533   3.922   1.308
 2043SOL    HW2 7029   0.694   3.922   1.334
 2044SOL     OW 7030   4.077   0.692   1.243
 2044SOL    HW1 7031   4.154   0.756   1.238
 2044SOL    HW2 7032   4.103   0.614   1.299
 2045SOL     OW 7033   1.318   6.544   4.615
 2045SOL    HW1 7034   1.306   6.500   4.704
 2045SOL    HW2 7035   1.413   6.573   4.604
 2046SOL     OW 7036   0.765   2.286   4.978
 2046SOL    HW1 7037   0.672   2.290   4.942
 2046SOL    HW2 7038   0.788   2.373   5.022
 2047SOL     OW 7039   0.311   0.609   0.752
 2047SOL    HW1 7040   0.370   0.678   0.710
 2047SOL    HW2 7041   0.218   0.616   0.715
 2048SOL     OW 7042   1.093   2.305   3.936
 2048SOL    HW1 7043   1.153   2.245   3.990
 2048SOL    HW2 7044   1.147   2.348   3.863
 2049SOL     OW 7045   4.555   2.287   4.633
 2049SOL    HW1 7046   4.535   2.200   4.678
 2049SOL    HW2 7047   4.470   2.325   4.595
 2050SOL     OW 7048   0.757   1.283   3.960
 2050SOL    HW1 7049   0.795   1.204   3.912
 2050SOL    HW2 7050   0.814   1.364   3.941
 2051SOL     OW 7051   2.543   6.433   0.113
 2051SOL    HW1 7052   2.490   6.505   0.158
 2051SOL    HW2 7053   2.628   6.418   0.163
 2052SOL     OW 7054   0.792   4.341   7.002
 2052SOL    HW1 7055   0.890   4.349   7.020
 2052SOL    HW2 7056   0.741   4.340   0.063
 2053SOL     OW 7057   6.483   5.478   3.048
 2053SOL    HW1 7058   6.529   5.435   3.126
 2053SOL    HW2 7059   6.410   5.538   3.082
 2054SOL     OW 7060   3.048   3.917   3.014
 2054SOL    HW1 7061   3.104   3.966   3.082
 2054SOL    HW2 7062   3.064   3.957   2.924
 2055SOL     OW 7063   3.694   2.414   5.366
 2055SOL    HW1 7064   3.719   2.502   5.326
 2055SOL    HW2 7065   3.627   2.428   5.439
 2056SOL     OW 7066   3.328   4.814   1.239
 2056SOL    HW1 7067   3.330   4.714   1.230
 2056SOL    HW2 7068   3.330   4.839   1.336
 2057SOL     OW 7069   5.176   3.011   4.479
 2057SOL    HW1 7070   5.135   3.023   4.570
 2057SOL    HW2 7071   5.264   2.963   4.489
 2058SOL     OW 7072   6.684   6.911   3.360
 2058SOL    HW1 7073   6.780   6.940   3.360
 2058SOL    HW2 7074   6.654   6.897   3.455
 2059SOL     OW 7075   1.654   1.293   5.262
 2059SOL    HW1 7076   1.751   1.269   5.264
 2059SOL    HW2 7077   1.614   1.281   5.353
 2060SOL     OW 7078   1.892   2.995   6.853
 2060SOL    HW1 7079   1.950   2.991   6.934
 2060SOL    HW2 7080   1.804   3.037   6.876
 2061SOL     OW 7081   1.739   2.603   2.722
 2061SOL    HW1 7082   1.809   2.589   2.652
 2061SOL    HW2 7083   1.663   2.655   2.682
 2062SOL     OW 7084   0.021   5.097   4.921
 2062SOL    HW1 7085   0.051   5.051   5.004
 2062SOL    HW2 7086   0.028   5.035   4.843
 2063SOL     OW 7087   1.194   1.550   4.255
 2063SOL    HW1 7088   1.172   1.626   4.316
 2063SOL    HW2 7089   1.249   1.482   4.304
 2064SOL     OW 7090   1.021   3.430   3.834
 2064SOL    HW1 7091   0.973   3.361   3.779
 2064SOL    HW2 7092   1.116   3.401   3.848
 2065SOL     OW 7093   4.074   3.744   5.674
 2065SOL    HW1 7094   4.016   3.663   5.665
 2065SOL    HW2 7095   4.109   3.770   5.584
 2066SOL     OW 7096   1.034   3.356   5.833
 2066SOL    HW1 7097   0.965   3.402   5.777
 2066SOL    HW2 7098   1.084   3.424   5.887
 2067SOL     OW 7099   6.259   4.957   1.476
 2067SOL    HW1 7100   6.336   4.995   1.527
 2067SOL    HW2 7101   6.265   4.984   1.380
 2068SOL     OW 7102   4.526   0.546   4.614
 2068SOL    HW1 7103   4.512   0.635   4.571
 2068SOL    HW2 7104   4.441   0.517   4.659
 2069SOL     OW 7105   0.179   0.935   3.424
 2069SOL    HW1 7106   0.219   0.948   3.333
 2069SOL    HW2 7107   0.131   1.019   3.451
 2070SOL     OW 7108   1.315   5.000   1.401
 2070SOL    HW1 7109   1.330   5.086   1.352
 2070SOL    HW2 7110   1.252   4.942   1.349
 2071SOL     OW 7111   0.393   1.563   5.490
 2071SOL    HW1 7112   0.466   1.624   5.458
 2071SOL    HW2 7113   0.338   1.534   5.412
 2072SOL     OW 7114   5.199   4.314   5.475
 2072SOL    HW1 7115   5.224   4.387   5.539
 2072SOL    HW2 7116   5.253   4.232   5.496
 2073SOL     OW 7117   3.203   5.254   6.970
 2073SOL    HW1 7118   3.191   5.334   6.911
 2073SOL    HW2 7119   3.121   5.197   6.965
 2074SOL     OW 7120   1.657   4.733   6.332
 2074SOL    HW1 7121   1.709   4.677   6.267
 2074SOL    HW2 7122   1.701   4.822   6.342
 2075SOL     OW 7123   5.846   3.009   1.379
 2075SOL    HW1 7124   5.821   2.933   1.319
 2075SOL    HW2 7125   5.881   3.085   1.323
 2076SOL     OW 7126   6.249   0.012   4.465
 2076SOL    HW1 7127   6.297   0.094   4.434
 2076SOL    HW2 7128   6.259   6.965   4.396
 2077SOL     OW 7129   6.323   4.531   0.948
 2077SOL    HW1 7130   6.356   4.437   0.955
 2077SOL    HW2 7131   6.250   4.536   0.881
 2078SOL     OW 7132   0.758   3.204   5.688
 2078SOL    HW1 7133   0.777   3.297   5.656
 2078SOL    HW2 7134   0.755   3.142   5.609
 2079SOL     OW 7135   5.379   0.797   2.616
 2079SOL    HW1 7136   5.405   0.737   2.692
 2079SOL    HW2 7137   5.418   0.888   2.630
 2080SOL     OW 7138   2.490   3.452   6.103
 2080SOL    HW1 7139   2.421   3.414   6.165
 2080SOL    HW2 7140   2.555   3.507   6.156
 2081SOL     OW 7141   5.769   6.243   1.991
 2081SOL    HW1 7142   5.783   6.151   1.953
 2081SOL    HW2 7143   5.852   6.298   1.976
 2082SOL     OW 7144   6.497   6.197   4.316
 2082SOL    HW1 7145   6.526   6.255   4.392
 2082SOL    HW2 7146   6.577   6.162   4.268
 2083SOL     OW 7147   0.141   6.603   3.765
 2083SOL    HW1 7148   0.098   6.523   3.808
 2083SOL    HW2 7149   0.236   6.609   3.794
 2084SOL     OW 7150   6.571   2.198   0.753
 2084SOL    HW1 7151   6.472   2.193   0.762
 2084SOL    HW2 7152   6.595   2.257   0.676
 2085SOL     OW 7153   6.242   5.879   0.917
 2085SOL    HW1 7154   6.336   5.850   0.936
 2085SOL    HW2 7155   6.183   5.799   0.910
 2086SOL     OW 7156   4.777   0.861   0.098
 2086SOL    HW1 7157   4.745   0.846   0.192
 2086SOL    HW2 7158   4.771   0.958   0.076
 2087SOL     OW 7159   4.388   1.714   6.982
 2087SOL    HW1 7160   4.406   1.812   6.980
 2087SOL    HW2 7161   4.290   1.698   6.970
 2088SOL     OW 7162   0.833   5.122   5.475
 2088SOL    HW1 7163   0.758   5.118   5.541
 2088SOL    HW2 7164   0.820   5.051   5.405
 2089SOL     OW 7165   2.472   3.115   6.655
 2089SOL    HW1 7166   2.490   3.106   6.557
 2089SOL    HW2 7167   2.554   3.147   6.702
 2090SOL     OW 7168   5.313   3.098   5.816
 2090SOL    HW1 7169   5.291   3.065   5.725
 2090SOL    HW2 7170   5.247   3.062   5.882
 2091SOL     OW 7171   5.415   6.139   1.085
 2091SOL    HW1 7172   5.404   6.049   1.043
 2091SOL    HW2 7173   5.344   6.153   1.154
 2092SOL     OW 7174   3.777   3.525   1.563
 2092SOL    HW1 7175   3.857   3.566   1.607
 2092SOL    HW2 7176   3.706   3.595   1.549
 2093SOL     OW 7177   4.301   1.227   1.511
 2093SOL    HW1 7178   4.295   1.170   1.592
 2093SOL    HW2 7179   4.217   1.219   1.457
 2094SOL     OW 7180   6.023   1.750   6.766
 2094SOL    HW1 7181   5.975   1.766   6.852
 2094SOL    HW2 7182   5.967   1.691   6.706
 2095SOL     OW 7183   5.236   5.645   3.923
 2095SOL    HW1 7184   5.253   5.618   4.018
 2095SOL    HW2 7185   5.254   5.743   3.913
 2096SOL     OW 7186   3.855   6.678   1.373
 2096SOL    HW1 7187   3.760   6.693   1.347
 2096SOL    HW2 7188   3.866   6.695   1.471
 2097SOL     OW 7189   0.802   5.722   6.111
 2097SOL    HW1 7190   0.833   5.658   6.182
 2097SOL    HW2 7191   0.799   5.674   6.023
 2098SOL     OW 7192   2.921   6.079   3.599
 2098SOL    HW1 7193   3.012   6.118   3.613
 2098SOL    HW2 7194   2.872   6.077   3.687
 2099SOL     OW 7195   4.476   1.957   6.173
 2099SOL    HW1 7196   4.393   2.009   6.197
 2099SOL    HW2 7197   4.550   1.983   6.235
 2100SOL     OW 7198   5.079   6.608   1.522
 2100SOL    HW1 7199   5.165   6.596   1.571
 2100SOL    HW2 7200   5.050   6.703   1.528
 2101SOL     OW 7201   0.794   0.456   3.228
 2101SOL    HW1 7202   0.771   0.426   3.135
 2101SOL    HW2 7203   0.889   0.488   3.229
 2102SOL     OW 7204   3.554   2.239   1.274
 2102SOL    HW1 7205   3.485   2.302   1.308
 2102SOL    HW2 7206   3.550   2.154   1.325
 2103SOL     OW 7207   2.092   6.454   0.702
 2103SOL    HW1 7208   2.152   6.469   0.623
 2103SOL    HW2 7209   2.020   6.390   0.678
 2104SOL     OW 7210   1.891   4.300   3.463
 2104SOL    HW1 7211   1.887   4.202   3.444
 2104SOL    HW2 7212   1.798   4.339   3.458
 2105SOL     OW 7213   5.503   6.686   5.012
 2105SOL    HW1 7214   5.443   6.717   4.938
 2105SOL    HW2 7215   5.448   6.663   5.092
 2106SOL     OW 7216   4.303   3.360   1.438
 2106SOL    HW1 7217   4.364   3.288   1.406
 2106SOL    HW2 7218   4.341   3.402   1.520
 2107SOL     OW 7219   4.940   4.989   5.084
 2107SOL    HW1 7220   4.917   4.896   5.114
 2107SOL    HW2 7221   4.982   5.039   5.159
 2108SOL     OW 7222   4.972   0.252   5.032
 2108SOL    HW1 7223   5.025   0.170   5.008
 2108SOL    HW2 7224   4.912   0.276   4.955
 2109SOL     OW 7225   2.981   6.358   2.326
 2109SOL    HW1 7226   3.051   6.428   2.314
 2109SOL    HW2 7227   2.991   6.316   2.417
 2110SOL     OW 7228   3.397   6.149   0.309
 2110SOL    HW1 7229   3.486   6.120   0.343
 2110SOL    HW2 7230   3.397   6.249   0.299
 2111SOL     OW 7231   1.075   2.246   5.622
 2111SOL    HW1 7232   1.106   2.319   5.682
 2111SOL    HW2 7233   1.132   2.165   5.637
 2112SOL     OW 7234   1.587   0.495   0.086
 2112SOL    HW1 7235   1.546   0.549   0.011
 2112SOL    HW2 7236   1.576   0.398   0.066
 2113SOL     OW 7237   6.703   1.073   4.651
 2113SOL    HW1 7238   6.800   1.046   4.656
 2113SOL    HW2 7239   6.692   1.141   4.579
 2114SOL     OW 7240   2.375   1.527   5.988
 2114SOL    HW1 7241   2.336   1.435   5.992
 2114SOL    HW2 7242   2.326   1.586   6.053
 2115SOL     OW 7243   6.060   6.262   3.412
 2115SOL    HW1 7244   5.968   6.248   3.446
 2115SOL    HW2 7245   6.057   6.312   3.325
 2116SOL     OW 7246   2.158   1.627   6.873
 2116SOL    HW1 7247   2.068   1.618   6.831
 2116SOL    HW2 7248   2.203   1.710   6.840
 2117SOL     OW 7249   6.402   1.284   2.628
 2117SOL    HW1 7250   6.400   1.187   2.607
 2117SOL    HW2 7251   6.467   1.301   2.702
 2118SOL     OW 7252   0.005   2.044   2.778
 2118SOL    HW1 7253   6.959   1.973   2.782
 2118SOL    HW2 7254   6.987   2.134   2.778
 2119SOL     OW 7255   1.122   1.834   0.538
 2119SOL    HW1 7256   1.096   1.929   0.554
 2119SOL    HW2 7257   1.148   1.822   0.443
 2120SOL     OW 7258   5.505   1.735   0.607
 2120SOL    HW1 7259   5.434   1.766   0.544
 2120SOL    HW2 7260   5.551   1.814   0.648
 2121SOL     OW 7261   1.737   0.214   0.511
 2121SOL    HW1 7262   1.736   0.148   0.435
 2121SOL    HW2 7263   1.809   0.281   0.495
 2122SOL     OW 7264   6.377   0.334   4.603
 2122SOL    HW1 7265   6.423   0.420   4.580
 2122SOL    HW2 7266   6.363   0.329   4.702
 2123SOL     OW 7267   1.395   5.481   2.795
 2123SOL    HW1 7268   1.325   5.411   2.794
 2123SOL    HW2 7269   1.377   5.547   2.721
 2124SOL     OW 7270   4.427   3.856   6.848
 2124SOL    HW1 7271   4.374   3.773   6.864
 2124SOL    HW2 7272   4.455   3.861   6.752
 2125SOL     OW 7273   1.612   5.893   4.587
 2125SOL    HW1 7274   1.684   5.931   4.530
 2125SOL    HW2 7275   1.529   5.881   4.533
 2126SOL     OW 7276   2.810   3.792   6.876
 2126SOL    HW1 7277   2.746   3.716   6.884
 2126SOL    HW2 7278   2.820   3.818   6.780
 2127SOL     OW 7279   1.057   3.150   4.526
 2127SOL    HW1 7280   1.042   3.221   4.457
 2127SOL    HW2 7281   0.969   3.116   4.558
 2128SOL     OW 7282   5.121   3.055   2.019
 2128SOL    HW1 7283   5.196   3.043   1.954
 2128SOL    HW2 7284   5.037   3.077   1.969
 2129SOL     OW 7285   5.272   4.806   4.211
 2129SOL    HW1 7286   5.321   4.737   4.159
 2129SOL    HW2 7287   5.332   4.886   4.225
 2130SOL     OW 7288   2.703   1.158   1.079
 2130SOL    HW1 7289   2.667   1.130   1.167
 2130SOL    HW2 7290   2.641   1.130   1.006
 2131SOL     OW 7291   5.321   0.301   5.605
 2131SOL    HW1 7292   5.403   0.314   5.661
 2131SOL    HW2 7293   5.244   0.348   5.647
 2132SOL     OW 7294   2.428   2.488   0.093
 2132SOL    HW1 7295   2.447   2.540   0.177
 2132SOL    HW2 7296   2.491   2.517   0.021
 2133SOL     OW 7297   3.131   2.347   1.530
 2133SOL    HW1 7298   3.064   2.362   1.458
 2133SOL    HW2 7299   3.088   2.301   1.607
 2134SOL     OW 7300   2.325   6.393   5.407
 2134SOL    HW1 7301   2.264   6.320   5.438
 2134SOL    HW2 7302   2.277   6.480   5.410
 2135SOL     OW 7303   0.973   5.877   3.395
 2135SOL    HW1 7304   0.891   5.895   3.449
 2135SOL    HW2 7305   0.947   5.844   3.304
 2136SOL     OW 7306   1.268   4.718   3.539
 2136SOL    HW1 7307   1.264   4.679   3.631
 2136SOL    HW2 7308   1.176   4.742   3.509
 2137SOL     OW 7309   1.136   1.581   4.744
 2137SOL    HW1 7310   1.205   1.548   4.809
 2137SOL    HW2 7311   1.087   1.503   4.705
 2138SOL     OW 7312   1.214   2.435   5.761
 2138SOL    HW1 7313   1.149   2.507   5.786
 2138SOL    HW2 7314   1.261   2.460   5.677
 2139SOL     OW 7315   2.563   0.379   4.775
 2139SOL    HW1 7316   2.604   0.443   4.840
 2139SOL    HW2 7317   2.497   0.322   4.823
 2140SOL     OW 7318   1.676   5.871   3.295
 2140SOL    HW1 7319   1.669   5.823   3.207
 2140SOL    HW2 7320   1.608   5.834   3.358
 2141SOL     OW 7321   0.234   1.588   0.168
 2141SOL    HW1 7322   0.218   1.507   0.224
 2141SOL    HW2 7323   0.200   1.669   0.216
 2142SOL     OW 7324   2.666   1.437   3.559
 2142SOL    HW1 7325   2.696   1.427   3.653
 2142SOL    HW2 7326   2.686   1.353   3.508
 2143SOL     OW 7327   4.171   6.323   6.710
 2143SOL    HW1 7328   4.166   6.422   6.701
 2143SOL    HW2 7329   4.263   6.292   6.686
 2144SOL     OW 7330   0.250   0.826   2.075
 2144SOL    HW1 7331   0.217   0.905   2.127
 2144SOL    HW2 7332   0.223   0.742   2.121
 2145SOL     OW 7333   3.894   5.588   2.733
 2145SOL    HW1 7334   3.936   5.654   2.795
 2145SOL    HW2 7335   3.795   5.588   2.748
 2146SOL     OW 7336   3.427   2.477   0.866
 2146SOL    HW1 7337   3.370   2.490   0.948
 2146SOL    HW2 7338   3.487   2.399   0.878
 2147SOL     OW 7339   0.337   0.730   5.519
 2147SOL    HW1 7340   0.310   0.659   5.584
 2147SOL    HW2 7341   0.429   0.763   5.542
 2148SOL     OW 7342   5.520   3.317   3.305
 2148SOL    HW1 7343   5.568   3.317   3.392
 2148SOL    HW2 7344   5.488   3.225   3.284
 2149SOL     OW 7345   3.289   0.704   2.770
 2149SOL    HW1 7346   3.275   0.726   2.866
 2149SOL    HW2 7347   3.203   0.712   2.721
 2150SOL     OW 7348   3.705   1.231   2.161
 2150SOL    HW1 7349   3.639   1.305   2.177
 2150SOL    HW2 7350   3.776   1.235   2.231
 2151SOL     OW 7351   3.444   3.285   5.567
 2151SOL    HW1 7352   3.384   3.317   5.640
 2151SOL    HW2 7353   3.393   3.223   5.507
 2152SOL     OW 7354   6.078   6.225   1.835
 2152SOL    HW1 7355   6.110   6.239   1.741
 2152SOL    HW2 7356   6.059   6.128   1.849
 2153SOL     OW 7357   4.908   2.521   2.510
 2153SOL    HW1 7358   4.825   2.559   2.551
 2153SOL    HW2 7359   4.925   2.430   2.546
 2154SOL     OW 7360   3.954   6.133   5.317
 2154SOL    HW1 7361   4.001   6.074   5.251
 2154SOL    HW2 7362   3.862   6.097   5.334
 2155SOL     OW 7363   5.800   3.767   6.639
 2155SOL    HW1 7364   5.768   3.674   6.654
 2155SOL    HW2 7365   5.882   3.784   6.693
 2156SOL     OW 7366   0.651   0.824   1.309
 2156SOL    HW1 7367   0.662   0.808   1.211
 2156SOL    HW2 7368   0.590   0.754   1.347
 2157SOL     OW 7369   6.628   1.226   4.422
 2157SOL    HW1 7370   6.570   1.182   4.354
 2157SOL    HW2 7371   6.709   1.264   4.377
 2158SOL     OW 7372   4.436   6.370   2.834
 2158SOL    HW1 7373   4.374   6.381   2.912
 2158SOL    HW2 7374   4.386   6.333   2.756
 2159SOL     OW 7375   2.330   6.782   5.196
 2159SOL    HW1 7376   2.342   6.783   5.097
 2159SOL    HW2 7377   2.418   6.764   5.240
 2160SOL     OW 7378   2.902   2.958   0.868
 2160SOL    HW1 7379   2.835   2.908   0.814
 2160SOL    HW2 7380   2.918   3.048   0.827
 2161SOL     OW 7381   4.952   2.199   4.053
 2161SOL    HW1 7382   4.950   2.260   3.974
 2161SOL    HW2 7383   4.891   2.234   4.124
 2162SOL     OW 7384   2.008   1.268   0.471
 2162SOL    HW1 7385   1.990   1.361   0.439
 2162SOL    HW2 7386   2.107   1.256   0.483
 2163SOL     OW 7387   2.771   1.404   1.216
 2163SOL    HW1 7388   2.747   1.327   1.157
 2163SOL    HW2 7389   2.690   1.435   1.265
 2164SOL     OW 7390   0.435   0.730   1.647
 2164SOL    HW1 7391   0.353   0.770   1.688
 2164SOL    HW2 7392   0.474   0.663   1.710
 2165SOL     OW 7393   3.243   6.971   1.548
 2165SOL    HW1 7394   3.206   6.949   1.457
 2165SOL    HW2 7395   3.173   6.952   1.617
 2166SOL     OW 7396   6.438   2.721   6.146
 2166SOL    HW1 7397   6.426   2.740   6.244
 2166SOL    HW2 7398   6.503   2.786   6.107
 2167SOL     OW 7399   2.863   0.539   2.280
 2167SOL    HW1 7400   2.857   0.573   2.374
 2167SOL    HW2 7401   2.914   0.454   2.278
 2168SOL     OW 7402   5.877   5.870   5.108
 2168SOL    HW1 7403   5.846   5.960   5.079
 2168SOL    HW2 7404   5.805   5.826   5.162
 2169SOL     OW 7405   6.407   1.644   5.476
 2169SOL    HW1 7406   6.310   1.650   5.452
 2169SOL    HW2 7407   6.416   1.613   5.570
 2170SOL     OW 7408   5.707   4.670   4.147
 2170SOL    HW1 7409   5.789   4.643   4.096
 2170SOL    HW2 7410   5.666   4.750   4.103
 2171SOL     OW 7411   0.114   2.990   0.246
 2171SOL    HW1 7412   0.107   2.896   0.281
 2171SOL    HW2 7413   0.065   2.997   0.159
 2172SOL     OW 7414   2.886   0.601   0.932
 2172SOL    HW1 7415   2.830   0.637   0.857
 2172SOL    HW2 7416   2.870   0.503   0.943
 2173SOL     OW 7417   4.971   2.027   5.093
 2173SOL    HW1 7418   4.950   2.058   5.000
 2173SOL    HW2 7419   5.024   1.942   5.088
 2174SOL     OW 7420   1.200   5.717   4.715
 2174SOL    HW1 7421   1.129   5.771   4.760
 2174SOL    HW2 7422   1.290   5.749   4.744
 2175SOL     OW 7423   1.684   6.050   5.839
 2175SOL    HW1 7424   1.651   6.039   5.745
 2175SOL    HW2 7425   1.784   6.052   5.839
 2176SOL     OW 7426   1.912   2.649   2.510
 2176SOL    HW1 7427   1.916   2.613   2.417
 2176SOL    HW2 7428   1.963   2.735   2.515
 2177SOL     OW 7429   7.006   1.289   2.313
 2177SOL    HW1 7430   0.051   1.358   2.292
 2177SOL    HW2 7431   0.001   1.249   2.403
 2178SOL     OW 7432   0.320   5.391   1.079
 2178SOL    HW1 7433   0.417   5.395   1.055
 2178SOL    HW2 7434   0.280   5.307   1.043
 2179SOL     OW 7435   1.305   3.896   3.948
 2179SOL    HW1 7436   1.392   3.933   3.913
 2179SOL    HW2 7437   1.229   3.952   3.914
 2180SOL     OW 7438   4.136   2.684   1.333
 2180SOL    HW1 7439   4.226   2.728   1.323
 2180SOL    HW2 7440   4.142   2.610   1.399
 2181SOL     OW 7441   4.006   6.800   1.048
 2181SOL    HW1 7442   4.032   6.732   0.979
 2181SOL    HW2 7443   4.024   6.892   1.014
 2182SOL     OW 7444   5.523   2.008   0.417
 2182SOL    HW1 7445   5.605   1.981   0.468
 2182SOL    HW2 7446   5.455   1.934   0.422
 2183SOL     OW 7447   2.922   2.460   0.386
 2183SOL    HW1 7448   2.836   2.508   0.403
 2183SOL    HW2 7449   2.984   2.519   0.334
 2184SOL     OW 7450   4.322   3.014   6.187
 2184SOL    HW1 7451   4.333   3.112   6.166
 2184SOL    HW2 7452   4.279   2.968   6.109
 2185SOL     OW 7453   0.605   0.122   1.672
 2185SOL    HW1 7454   0.576   0.047   1.613
 2185SOL    HW2 7455   0.628   0.086   1.763
 2186SOL     OW 7456   0.057   4.915   2.825
 2186SOL    HW1 7457   6.992   4.905   2.869
 2186SOL    HW2 7458   0.125   4.943   2.893
 2187SOL     OW 7459   6.534   1.481   6.826
 2187SOL    HW1 7460   6.435   1.496   6.828
 2187SOL    HW2 7461   6.579   1.554   6.776
 2188SOL     OW 7462   4.776   1.046   3.430
 2188SOL    HW1 7463   4.709   0.984   3.390
 2188SOL    HW2 7464   4.754   1.062   3.526
 2189SOL     OW 7465   3.232   0.206   6.185
 2189SOL    HW1 7466   3.147   0.231   6.230
 2189SOL    HW2 7467   3.298   0.172   6.253
 2190SOL     OW 7468   5.201   2.007   1.206
 2190SOL    HW1 7469   5.162   1.915   1.209
 2190SOL    HW2 7470   5.149   2.068   1.267
 2191SOL     OW 7471   3.460   1.711   6.989
 2191SOL    HW1 7472   3.410   1.704   0.051
 2191SOL    HW2 7473   3.502   1.622   6.968
 2192SOL     OW 7474   4.006   5.822   2.893
 2192SOL    HW1 7475   4.089   5.834   2.947
 2192SOL    HW2 7476   3.931   5.873   2.936
 2193SOL     OW 7477   6.850   5.766   5.120
 2193SOL    HW1 7478   6.901   5.765   5.034
 2193SOL    HW2 7479   6.907   5.727   5.193
 2194SOL     OW 7480   2.903   0.048   1.371
 2194SOL    HW1 7481   2.976   0.003   1.319
 2194SOL    HW2 7482   2.914   0.147   1.364
 2195SOL     OW 7483   1.237   5.031   2.768
 2195SOL    HW1 7484   1.304   4.988   2.707
 2195SOL    HW2 7485   1.145   5.003   2.741
 2196SOL     OW 7486   4.474   2.917   6.640
 2196SOL    HW1 7487   4.557   2.891   6.590
 2196SOL    HW2 7488   4.398   2.927   6.576
 2197SOL     OW 7489   4.572   4.493   6.684
 2197SOL    HW1 7490   4.656   4.549   6.686
 2197SOL    HW2 7491   4.533   4.495   6.593
 2198SOL     OW 7492   6.427   4.344   0.397
 2198SOL    HW1 7493   6.465   4.345   0.304
 2198SOL    HW2 7494   6.331   4.318   0.393
 2199SOL     OW 7495   4.119   0.785   2.271
 2199SOL    HW1 7496   4.077   0.725   2.339
 2199SOL    HW2 7497   4.056   0.860   2.249
 2200SOL     OW 7498   1.977   6.623   3.968
 2200SOL    HW1 7499   1.896   6.643   4.023
 2200SOL    HW2 7500   2.012   6.532   3.993
 2201SOL     OW 7501   4.783   4.073   3.433
 2201SOL    HW1 7502   4.717   4.100   3.503
 2201SOL    HW2 7503   4.791   4.145   3.365
 2202SOL     OW 7504   4.916   6.141   4.028
 2202SOL    HW1 7505   4.845   6.212   4.019
 2202SOL    HW2 7506   4.929   6.119   4.125
 2203SOL     OW 7507   3.420   1.679   2.978
 2203SOL    HW1 7508   3.344   1.709   2.921
 2203SOL    HW2 7509   3.488   1.752   2.985
 2204SOL     OW 7510   2.595   2.878   1.135
 2204SOL    HW1 7511   2.645   2.831   1.208
 2204SOL    HW2 7512   2.511   2.917   1.172
 2205SOL     OW 7513   2.457   0.835   1.566
 2205SOL    HW1 7514   2.447   0.742   1.602
 2205SOL    HW2 7515   2.552   0.850   1.537
 2206SOL     OW 7516   2.425   3.277   0.203
 2206SOL    HW1 7517   2.479   3.268   0.120
 2206SOL    HW2 7518   2.340   3.325   0.184
 2207SOL     OW 7519   0.654   4.476   4.262
 2207SOL    HW1 7520   0.719   4.532   4.211
 2207SOL    HW2 7521   0.696   4.444   4.347
 2208SOL     OW 7522   6.801   4.837   2.237
 2208SOL    HW1 7523   6.837   4.828   2.144
 2208SOL    HW2 7524   6.873   4.819   2.303
 2209SOL     OW 7525   1.468   6.735   1.525
 2209SOL    HW1 7526   1.400   6.664   1.507
 2209SOL    HW2 7527   1.555   6.693   1.552
 2210SOL     OW 7528   1.900   5.239   3.659
 2210SOL    HW1 7529   1.994   5.206   3.656
 2210SOL    HW2 7530   1.873   5.269   3.567
 2211SOL     OW 7531   6.682   1.468   5.676
 2211SOL    HW1 7532   6.707   1.550   5.624
 2211SOL    HW2 7533   6.675   1.492   5.773
 2212SOL     OW 7534   1.976   7.019   6.143
 2212SOL    HW1 7535   1.877   7.000   6.139
 2212SOL    HW2 7536   2.020   6.983   6.060
 2213SOL     OW 7537   3.528   0.705   3.140
 2213SOL    HW1 7538   3.601   0.646   3.106
 2213SOL    HW2 7539   3.540   0.720   3.238
 2214SOL     OW 7540   3.970   6.866   5.347
 2214SOL    HW1 7541   3.958   6.774   5.310
 2214SOL    HW2 7542   3.961   6.863   5.447
 2215SOL     OW 7543   5.909   2.626   5.169
 2215SOL    HW1 7544   5.823   2.576   5.178
 2215SOL    HW2 7545   5.909   2.677   5.083
 2216SOL     OW 7546   2.759   0.873   2.401
 2216SOL    HW1 7547   2.755   0.857   2.302
 2216SOL    HW2 7548   2.667   0.892   2.435
 2217SOL     OW 7549   4.490   1.119   1.936
 2217SOL    HW1 7550   4.502   1.184   2.011
 2217SOL    HW2 7551   4.469   1.029   1.973
 2218SOL     OW 7552   1.297   6.780   3.152
 2218SOL    HW1 7553   1.310   6.871   3.112
 2218SOL    HW2 7554   1.357   6.769   3.231
 2219SOL     OW 7555   1.653   2.254   2.645
 2219SOL    HW1 7556   1.597   2.180   2.683
 2219SOL    HW2 7557   1.700   2.301   2.720
 2220SOL     OW 7558   0.437   0.372   1.593
 2220SOL    HW1 7559   0.486   0.284   1.587
 2220SOL    HW2 7560   0.434   0.401   1.689
 2221SOL     OW 7561   1.180   1.634   6.770
 2221SOL    HW1 7562   1.168   1.726   6.808
 2221SOL    HW2 7563   1.107   1.616   6.704
 2222SOL     OW 7564   6.235   6.268   2.616
 2222SOL    HW1 7565   6.295   6.343   2.590
 2222SOL    HW2 7566   6.228   6.203   2.540
 2223SOL     OW 7567   6.367   5.585   1.954
 2223SOL    HW1 7568   6.279   5.603   1.911
 2223SOL    HW2 7569   6.353   5.553   2.048
 2224SOL     OW 7570   1.016   4.852   2.346
 2224SOL    HW1 7571   1.053   4.843   2.254
 2224SOL    HW2 7572   0.970   4.767   2.372
 2225SOL     OW 7573   0.259   4.780   1.241
 2225SOL    HW1 7574   0.228   4.686   1.234
 2225SOL    HW2 7575   0.306   4.794   1.328
 2226SOL     OW 7576   4.075   3.867   1.771
 2226SOL    HW1 7577   4.160   3.917   1.752
 2226SOL    HW2 7578   4.092   3.799   1.843
 2227SOL     OW 7579   0.554   3.094   4.685
 2227SOL    HW1 7580   0.501   3.101   4.770
 2227SOL    HW2 7581   0.563   3.185   4.643
 2228SOL     OW 7582   3.299   5.054   4.593
 2228SOL    HW1 7583   3.212   5.004   4.602
 2228SOL    HW2 7584   3.282   5.143   4.552
 2229SOL     OW 7585   5.651   0.084   3.532
 2229SOL    HW1 7586   5.607   7.020   3.546
 2229SOL    HW2 7587   5.623   0.121   3.443
 2230SOL     OW 7588   2.725   5.637   1.545
 2230SOL    HW1 7589   2.814   5.647   1.590
 2230SOL    HW2 7590   2.735   5.585   1.461
 2231SOL     OW 7591   2.777   5.608   1.243
 2231SOL    HW1 7592   2.752   5.689   1.191
 2231SOL    HW2 7593   2.869   5.619   1.280
 2232SOL     OW 7594   5.162   3.224   3.760
 2232SOL    HW1 7595   5.177   3.180   3.849
 2232SOL    HW2 7596   5.100   3.302   3.772
 2233SOL     OW 7597   2.452   2.202   6.341
 2233SOL    HW1 7598   2.516   2.159   6.405
 2233SOL    HW2 7599   2.423   2.136   6.273
 2234SOL     OW 7600   3.567   2.549   1.231
 2234SOL    HW1 7601   3.522   2.504   1.309
 2234SOL    HW2 7602   3.664   2.525   1.231
 2235SOL     OW 7603   2.551   1.558   0.924
 2235SOL    HW1 7604   2.588   1.473   0.888
 2235SOL    HW2 7605   2.486   1.538   0.997
 2236SOL     OW 7606   0.489   4.528   6.022
 2236SOL    HW1 7607   0.406   4.488   6.062
 2236SOL    HW2 7608   0.463   4.597   5.955
 2237SOL     OW 7609   6.241   3.232   3.994
 2237SOL    HW1 7610   6.158   3.218   4.048
 2237SOL    HW2 7611   6.315   3.261   4.053
 2238SOL     OW 7612   6.526   5.870   1.535
 2238SOL    HW1 7613   6.577   5.847   1.618
 2238SOL    HW2 7614   6.509   5.969   1.534
 2239SOL     OW 7615   5.657   5.886   2.482
 2239SOL    HW1 7616   5.567   5.909   2.520
 2239SOL    HW2 7617   5.725   5.885   2.556
 2240SOL     OW 7618   5.622   3.706   1.880
 2240SOL    HW1 7619   5.561   3.770   1.833
 2240SOL    HW2 7620   5.685   3.665   1.813
 2241SOL     OW 7621   0.922   0.029   2.266
 2241SOL    HW1 7622   0.884   6.966   2.296
 2241SOL    HW2 7623   0.990   0.060   2.333
 2242SOL     OW 7624   4.049   1.987   2.905
 2242SOL    HW1 7625   4.045   1.889   2.884
 2242SOL    HW2 7626   3.971   2.012   2.962
 2243SOL     OW 7627   2.606   6.565   5.323
 2243SOL    HW1 7628   2.565   6.577   5.413
 2243SOL    HW2 7629   2.674   6.492   5.327
 2244SOL     OW 7630   3.621   0.841   4.883
 2244SOL    HW1 7631   3.593   0.867   4.976
 2244SOL    HW2 7632   3.582   0.752   4.861
 2245SOL     OW 7633   0.346   2.176   2.046
 2245SOL    HW1 7634   0.251   2.159   2.020
 2245SOL    HW2 7635   0.394   2.220   1.971
 2246SOL     OW 7636   1.638   4.910   4.847
 2246SOL    HW1 7637   1.707   4.916   4.919
 2246SOL    HW2 7638   1.592   4.998   4.836
 2247SOL     OW 7639   2.037   1.564   4.869
 2247SOL    HW1 7640   1.973   1.509   4.922
 2247SOL    HW2 7641   2.063   1.645   4.923
 2248SOL     OW 7642   4.330   4.071   5.413
 2248SOL    HW1 7643   4.325   4.089   5.511
 2248SOL    HW2 7644   4.424   4.053   5.386
 2249SOL     OW 7645   3.584   5.085   4.903
 2249SOL    HW1 7646   3.509   5.032   4.941
 2249SOL    HW2 7647   3.593   5.065   4.805
 2250SOL     OW 7648   5.076   4.840   0.872
 2250SOL    HW1 7649   4.999   4.777   0.866
 2250SOL    HW2 7650   5.123   4.845   0.784
 2251SOL     OW 7651   0.580   0.221   6.404
 2251SOL    HW1 7652   0.656   0.232   6.467
 2251SOL    HW2 7653   0.577   0.126   6.372
 2252SOL     OW 7654   3.669   1.079   6.160
 2252SOL    HW1 7655   3.693   1.173   6.134
 2252SOL    HW2 7656   3.706   1.015   6.094
 2253SOL     OW 7657   1.448   2.745   6.252
 2253SOL    HW1 7658   1.399   2.815   6.200
 2253SOL    HW2 7659   1.414   2.654   6.227
 2254SOL     OW 7660   1.690   3.917   5.800
 2254SOL    HW1 7661   1.773   3.931   5.747
 2254SOL    HW2 7662   1.613   3.903   5.739
 2255SOL     OW 7663   5.265   3.285   0.493
 2255SOL    HW1 7664   5.358   3.258   0.518
 2255SOL    HW2 7665   5.268   3.372   0.444
 2256SOL     OW 7666   3.332   4.868   2.051
 2256SOL    HW1 7667   3.334   4.967   2.036
 2256SOL    HW2 7668   3.398   4.824   1.991
 2257SOL     OW 7669   2.114   3.517   4.364
 2257SOL    HW1 7670   2.131   3.504   4.462
 2257SOL    HW2 7671   2.171   3.453   4.312
 2258SOL     OW 7672   1.749   4.982   5.527
 2258SOL    HW1 7673   1.734   4.884   5.510
 2258SOL    HW2 7674   1.815   5.018   5.461
 2259SOL     OW 7675   6.257   3.158   6.499
 2259SOL    HW1 7676   6.330   3.091   6.503
 2259SOL    HW2 7677   6.237   3.181   6.403
 2260SOL     OW 7678   4.869   3.651   1.037
 2260SOL    HW1 7679   4.769   3.641   1.045
 2260SOL    HW2 7680   4.906   3.690   1.121
 2261SOL     OW 7681   3.061   6.367   4.766
 2261SOL    HW1 7682   2.994   6.293   4.768
 2261SOL    HW2 7683   3.119   6.357   4.685
 2262SOL     OW 7684   3.434   1.755   3.537
 2262SOL    HW1 7685   3.527   1.745   3.572
 2262SOL    HW2 7686   3.369   1.723   3.607
 2263SOL     OW 7687   0.398   3.710   5.284
 2263SOL    HW1 7688   0.411   3.685   5.188
 2263SOL    HW2 7689   0.333   3.648   5.327
 2264SOL     OW 7690   3.221   4.108   3.113
 2264SOL    HW1 7691   3.197   4.084   3.207
 2264SOL    HW2 7692   3.173   4.192   3.086
 2265SOL     OW 7693   0.696   6.882   3.311
 2265SOL    HW1 7694   0.743   6.946   3.249
 2265SOL    HW2 7695   0.706   6.914   3.405
 2266SOL     OW 7696   6.347   0.536   6.729
 2266SOL    HW1 7697   6.348   0.607   6.658
 2266SOL    HW2 7698   6.356   0.446   6.687
 2267SOL     OW 7699   5.935   2.093   5.623
 2267SOL    HW1 7700   5.970   2.093   5.717
 2267SOL    HW2 7701   5.983   2.163   5.570
 2268SOL     OW 7702   6.414   4.893   6.982
 2268SOL    HW1 7703   6.392   4.991   6.989
 2268SOL    HW2 7704   6.509   4.882   6.955
 2269SOL     OW 7705   0.316   6.069   3.129
 2269SOL    HW1 7706   0.328   6.067   3.229
 2269SOL    HW2 7707   0.278   6.158   3.103
 2270SOL     OW 7708   3.662   2.890   2.648
 2270SOL    HW1 7709   3.698   2.851   2.563
 2270SOL    HW2 7710   3.733   2.945   2.692
 2271SOL     OW 7711   0.273   3.965   2.539
 2271SOL    HW1 7712   0.331   3.900   2.589
 2271SOL    HW2 7713   0.182   3.926   2.526
 2272SOL     OW 7714   5.525   2.234   5.990
 2272SOL    HW1 7715   5.524   2.164   5.919
 2272SOL    HW2 7716   5.461   2.209   6.063
 2273SOL     OW 7717   0.737   0.535   3.806
 2273SOL    HW1 7718   0.673   0.594   3.757
 2273SOL    HW2 7719   0.806   0.591   3.851
 2274SOL     OW 7720   0.825   3.922   2.970
 2274SOL    HW1 7721   0.797   4.016   2.987
 2274SOL    HW2 7722   0.913   3.922   2.922
 2275SOL     OW 7723   4.725   6.365   3.570
 2275SOL    HW1 7724   4.816   6.326   3.585
 2275SOL    HW2 7725   4.693   6.341   3.479
 2276SOL     OW 7726   3.208   5.655   1.527
 2276SOL    HW1 7727   3.304   5.681   1.537
 2276SOL    HW2 7728   3.197   5.557   1.545
 2277SOL     OW 7729   3.209   3.794   1.107
 2277SOL    HW1 7730   3.196   3.702   1.072
 2277SOL    HW2 7731   3.298   3.800   1.153
 2278SOL     OW 7732   4.946   6.115   1.158
 2278SOL    HW1 7733   4.956   6.085   1.253
 2278SOL    HW2 7734   4.997   6.053   1.098
 2279SOL     OW 7735   5.587   4.149   5.543
 2279SOL    HW1 7736   5.599   4.219   5.472
 2279SOL    HW2 7737   5.490   4.142   5.566
 2280SOL     OW 7738   5.965   6.520   6.177
 2280SOL    HW1 7739   6.055   6.516   6.133
 2280SOL    HW2 7740   5.973   6.490   6.272
 2281SOL     OW 7741   3.346   2.199   0.399
 2281SOL    HW1 7742   3.325   2.158   0.487
 2281SOL    HW2 7743   3.360   2.297   0.410
 2282SOL     OW 7744   4.505   5.767   2.216
 2282SOL    HW1 7745   4.503   5.787   2.118
 2282SOL    HW2 7746   4.413   5.780   2.255
 2283SOL     OW 7747   6.787   4.189   2.155
 2283SOL    HW1 7748   6.878   4.194   2.113
 2283SOL    HW2 7749   6.792   4.225   2.248
 2284SOL     OW 7750   2.722   2.179   2.235
 2284SOL    HW1 7751   2.687   2.099   2.186
 2284SOL    HW2 7752   2.778   2.234   2.172
 2285SOL     OW 7753   1.868   4.011   6.742
 2285SOL    HW1 7754   1.915   3.923   6.747
 2285SOL    HW2 7755   1.773   3.997   6.715
 2286SOL     OW 7756   5.792   0.012   4.627
 2286SOL    HW1 7757   5.764   0.100   4.589
 2286SOL    HW2 7758   5.718   6.970   4.615
 2287SOL     OW 7759   2.098   2.293   1.023
 2287SOL    HW1 7760   2.139   2.229   0.958
 2287SOL    HW2 7761   2.158   2.372   1.035
 2288SOL     OW 7762   1.645   5.656   4.741
 2288SOL    HW1 7763   1.653   5.753   4.720
 2288SOL    HW2 7764   1.611   5.645   4.835
 2289SOL     OW 7765   4.694   1.203   0.269
 2289SOL    HW1 7766   4.663   1.260   0.194
 2289SOL    HW2 7767   4.616   1.154   0.308
 2290SOL     OW 7768   3.238   3.613   3.265
 2290SOL    HW1 7769   3.271   3.591   3.356
 2290SOL    HW2 7770   3.141   3.638   3.269
 2291SOL     OW 7771   1.078   2.001   6.284
 2291SOL    HW1 7772   1.097   1.994   6.186
 2291SOL    HW2 7773   0.984   2.033   6.297
 2292SOL     OW 7774   4.993   1.639   2.844
 2292SOL    HW1 7775   4.946   1.563   2.800
 2292SOL    HW2 7776   4.954   1.725   2.813
 2293SOL     OW 7777   0.796   0.751   0.175
 2293SOL    HW1 7778   0.729   0.819   0.147
 2293SOL    HW2 7779   0.813   0.687   0.100
 2294SOL     OW 7780   0.066   0.753   5.940
 2294SOL    HW1 7781   0.034   0.832   5.887
 2294SOL    HW2 7782   0.098   0.785   6.030
 2295SOL     OW 7783   5.779   5.613   1.163
 2295SOL    HW1 7784   5.801   5.605   1.065
 2295SOL    HW2 7785   5.844   5.674   1.207
 2296SOL     OW 7786   4.346   5.106   4.145
 2296SOL    HW1 7787   4.304   5.100   4.236
 2296SOL    HW2 7788   4.275   5.091   4.075
 2297SOL     OW 7789   5.323   4.070   5.470
 2297SOL    HW1 7790   5.409   4.024   5.447
 2297SOL    HW2 7791   5.248   4.027   5.420
 2298SOL     OW 7792   3.159   3.811   4.835
 2298SOL    HW1 7793   3.198   3.871   4.905
 2298SOL    HW2 7794   3.059   3.813   4.840
 2299SOL     OW 7795   5.620   3.169   4.127
 2299SOL    HW1 7796   5.609   3.219   4.041
 2299SOL    HW2 7797   5.611   3.071   4.110
 2300SOL     OW 7798   4.827   6.934   1.938
 2300SOL    HW1 7799   4.881   6.934   2.022
 2300SOL    HW2 7800   4.887   6.950   1.860
 2301SOL     OW 7801   3.776   3.149   4.775
 2301SOL    HW1 7802   3.871   3.138   4.744
 2301SOL    HW2 7803   3.744   3.241   4.752
 2302SOL     OW 7804   6.403   3.120   6.033
 2302SOL    HW1 7805   6.352   3.074   5.959
 2302SOL    HW2 7806   6.499   3.092   6.030
 2303SOL     OW 7807   2.948   2.595   7.024
 2303SOL    HW1 7808   2.983   2.625   6.935
 2303SOL    HW2 7809   2.885   2.518   7.010
 2304SOL     OW 7810   6.667   6.195   2.496
 2304SOL    HW1 7811   6.731   6.271   2.490
 2304SOL    HW2 7812   6.640   6.182   2.591
 2305SOL     OW 7813   2.404   6.800   4.914
 2305SOL    HW1 7814   2.493   6.813   4.870
 2305SOL    HW2 7815   2.331   6.812   4.846
 2306SOL     OW 7816   1.837   5.037   4.666
 2306SOL    HW1 7817   1.765   4.979   4.704
 2306SOL    HW2 7818   1.855   5.113   4.728
 2307SOL     OW 7819   6.115   3.299   4.968
 2307SOL    HW1 7820   6.092   3.287   5.064
 2307SOL    HW2 7821   6.127   3.396   4.948
 2308SOL     OW 7822   1.238   5.275   2.143
 2308SOL    HW1 7823   1.253   5.254   2.240
 2308SOL    HW2 7824   1.277   5.365   2.122
 2309SOL     OW 7825   1.964   0.413   4.639
 2309SOL    HW1 7826   1.942   0.316   4.647
 2309SOL    HW2 7827   2.059   0.428   4.667
 2310SOL     OW 7828   4.390   6.806   1.320
 2310SOL    HW1 7829   4.290   6.799   1.310
 2310SOL    HW2 7830   4.413   6.896   1.358
 2311SOL     OW 7831   2.307   4.911   1.009
 2311SOL    HW1 7832   2.391   4.916   1.063
 2311SOL    HW2 7833   2.330   4.897   0.913
 2312SOL     OW 7834   3.353   4.612   1.649
 2312SOL    HW1 7835   3.369   4.702   1.609
 2312SOL    HW2 7836   3.437   4.582   1.696
 2313SOL     OW 7837   4.938   5.107   1.183
 2313SOL    HW1 7838   4.905   5.013   1.179
 2313SOL    HW2 7839   4.919   5.153   1.097
 2314SOL     OW 7840   2.804   4.706   4.186
 2314SOL    HW1 7841   2.748   4.641   4.135
 2314SOL    HW2 7842   2.833   4.780   4.126
 2315SOL     OW 7843   4.335   2.615   6.288
 2315SOL    HW1 7844   4.394   2.695   6.286
 2315SOL    HW2 7845   4.276   2.619   6.368
 2316SOL     OW 7846   5.500   3.632   2.137
 2316SOL    HW1 7847   5.451   3.714   2.166
 2316SOL    HW2 7848   5.556   3.653   2.057
 2317SOL     OW 7849   0.285   5.977   2.713
 2317SOL    HW1 7850   0.186   5.988   2.725
 2317SOL    HW2 7851   0.318   6.042   2.644
 2318SOL     OW 7852   6.982   1.029   4.267
 2318SOL    HW1 7853   6.924   0.997   4.192
 2318SOL    HW2 7854   0.030   0.962   4.283
 2319SOL     OW 7855   1.363   5.312   2.483
 2319SOL    HW1 7856   1.284   5.303   2.543
 2319SOL    HW2 7857   1.401   5.222   2.464
 2320SOL     OW 7858   6.172   4.591   5.084
 2320SOL    HW1 7859   6.245   4.639   5.036
 2320SOL    HW2 7860   6.207   4.507   5.124
 2321SOL     OW 7861   3.568   4.996   4.645
 2321SOL    HW1 7862   3.608   4.917   4.599
 2321SOL    HW2 7863   3.474   5.009   4.613
 2322SOL     OW 7864   2.724   0.509   4.952
 2322SOL    HW1 7865   2.776   0.570   5.010
 2322SOL    HW2 7866   2.721   0.417   4.993
 2323SOL     OW 7867   5.090   3.582   2.622
 2323SOL    HW1 7868   5.156   3.509   2.605
 2323SOL    HW2 7869   4.998   3.550   2.600
 2324SOL     OW 7870   0.211   4.827   3.271
 2324SOL    HW1 7871   0.184   4.854   3.363
 2324SOL    HW2 7872   0.310   4.839   3.260
 2325SOL     OW 7873   0.635   2.482   0.630
 2325SOL    HW1 7874   0.673   2.549   0.567
 2325SOL    HW2 7875   0.700   2.465   0.704
 2326SOL     OW 7876   0.796   4.107   0.608
 2326SOL    HW1 7877   0.780   4.179   0.676
 2326SOL    HW2 7878   0.712   4.054   0.596
 2327SOL     OW 7879   5.530   1.920   3.816
 2327SOL    HW1 7880   5.513   1.905   3.913
 2327SOL    HW2 7881   5.608   1.982   3.805
 2328SOL     OW 7882   6.176   6.609   3.438
 2328SOL    HW1 7883   6.229   6.541   3.386
 2328SOL    HW2 7884   6.140   6.567   3.521
 2329SOL     OW 7885   6.293   5.684   2.828
 2329SOL    HW1 7886   6.273   5.712   2.922
 2329SOL    HW2 7887   6.247   5.746   2.765
 2330SOL     OW 7888   0.401   4.074   1.630
 2330SOL    HW1 7889   0.481   4.061   1.572
 2330SOL    HW2 7890   0.336   4.000   1.614
 2331SOL     OW 7891   1.192   4.532   5.618
 2331SOL    HW1 7892   1.160   4.550   5.711
 2331SOL    HW2 7893   1.292   4.526   5.618
 2332SOL     OW 7894   5.210   2.207   5.147
 2332SOL    HW1 7895   5.224   2.249   5.058
 2332SOL    HW2 7896   5.127   2.150   5.145
 2333SOL     OW 7897   2.730   5.015   3.569
 2333SOL    HW1 7898   2.755   4.920   3.552
 2333SOL    HW2 7899   2.653   5.040   3.510
 2334SOL     OW 7900   2.661   0.151   6.990
 2334SOL    HW1 7901   2.651   0.054   6.968
 2334SOL    HW2 7902   2.575   0.198   6.970
 2335SOL     OW 7903   4.584   5.628   4.698
 2335SOL    HW1 7904   4.663   5.588   4.652
 2335SOL    HW2 7905   4.524   5.555   4.731
 2336SOL     OW 7906   3.809   2.810   5.529
 2336SOL    HW1 7907   3.792   2.754   5.610
 2336SOL    HW2 7908   3.838   2.901   5.557
 2337SOL     OW 7909   6.176   0.562   4.507
 2337SOL    HW1 7910   6.129   0.647   4.529
 2337SOL    HW2 7911   6.274   0.571   4.525
 2338SOL     OW 7912   1.264   0.392   6.550
 2338SOL    HW1 7913   1.304   0.351   6.467
 2338SOL    HW2 7914   1.293   0.487   6.558
 2339SOL     OW 7915   4.030   4.998   6.282
 2339SOL    HW1 7916   4.067   5.090   6.295
 2339SOL    HW2 7917   3.943   5.003   6.233
 2340SOL     OW 7918   3.922   4.998   3.815
 2340SOL    HW1 7919   3.922   5.097   3.803
 2340SOL    HW2 7920   3.962   4.954   3.735
 2341SOL     OW 7921   5.689   4.530   6.340
 2341SOL    HW1 7922   5.610   4.574   6.296
 2341SOL    HW2 7923   5.764   4.525   6.275
 2342SOL     OW 7924   6.973   0.012   5.588
 2342SOL    HW1 7925   6.957   0.042   5.494
 2342SOL    HW2 7926   6.885   7.020   5.633
 2343SOL     OW 7927   0.952   0.324   1.082
 2343SOL    HW1 7928   0.910   0.235   1.100
 2343SOL    HW2 7929   1.052   0.316   1.093
 2344SOL     OW 7930   2.927   1.611   3.057
 2344SOL    HW1 7931   2.981   1.540   3.012
 2344SOL    HW2 7932   2.940   1.606   3.156
 2345SOL     OW 7933   1.206   1.834   3.160
 2345SOL    HW1 7934   1.258   1.897   3.217
 2345SOL    HW2 7935   1.125   1.879   3.124
 2346SOL     OW 7936   4.682   3.156   5.489
 2346SOL    HW1 7937   4.766   3.210   5.498
 2346SOL    HW2 7938   4.614   3.210   5.440
 2347SOL     OW 7939   1.351   3.612   0.797
 2347SOL    HW1 7940   1.285   3.634   0.726
 2347SOL    HW2 7941   1.394   3.524   0.778
 2348SOL     OW 7942   2.632   6.426   1.839
 2348SOL    HW1 7943   2.575   6.369   1.899
 2348SOL    HW2 7944   2.613   6.404   1.744
 2349SOL     OW 7945   4.094   4.464   6.351
 2349SOL    HW1 7946   4.176   4.501   6.308
 2349SOL    HW2 7947   4.048   4.535   6.403
 2350SOL     OW 7948   2.084   5.693   5.493
 2350SOL    HW1 7949   2.009   5.738   5.541
 2350SOL    HW2 7950   2.169   5.709   5.544
 2351SOL     OW 7951   2.327   4.989   2.954
 2351SOL    HW1 7952   2.251   5.033   2.907
 2351SOL    HW2 7953   2.304   4.977   3.051
 2352SOL     OW 7954   5.971   4.321   1.154
 2352SOL    HW1 7955   5.885   4.320   1.206
 2352SOL    HW2 7956   6.048   4.308   1.217
 2353SOL     OW 7957   2.325   3.964   6.605
 2353SOL    HW1 7958   2.260   4.018   6.551
 2353SOL    HW2 7959   2.290   3.871   6.615
 2354SOL     OW 7960   3.990   2.290   1.819
 2354SOL    HW1 7961   3.939   2.322   1.739
 2354SOL    HW2 7962   3.934   2.226   1.870
 2355SOL     OW 7963   6.930   1.492   1.526
 2355SOL    HW1 7964   6.909   1.569   1.466
 2355SOL    HW2 7965   6.854   1.427   1.525
 2356SOL     OW 7966   3.109   5.345   3.643
 2356SOL    HW1 7967   3.064   5.427   3.606
 2356SOL    HW2 7968   3.044   5.269   3.643
 2357SOL     OW 7969   0.073   4.571   1.148
 2357SOL    HW1 7970   0.017   4.577   1.065
 2357SOL    HW2 7971   0.066   4.478   1.186
 2358SOL     OW 7972   3.436   1.339   5.171
 2358SOL    HW1 7973   3.530   1.372   5.158
 2358SOL    HW2 7974   3.385   1.350   5.086
 2359SOL     OW 7975   2.639   1.598   5.857
 2359SOL    HW1 7976   2.695   1.662   5.909
 2359SOL    HW2 7977   2.548   1.592   5.900
 2360SOL     OW 7978   3.385   5.073   0.255
 2360SOL    HW1 7979   3.291   5.101   0.273
 2360SOL    HW2 7980   3.408   4.994   0.312
 2361SOL     OW 7981   3.609   5.952   1.335
 2361SOL    HW1 7982   3.628   5.998   1.248
 2361SOL    HW2 7983   3.550   5.873   1.320
 2362SOL     OW 7984   3.609   5.000   3.579
 2362SOL    HW1 7985   3.665   4.959   3.651
 2362SOL    HW2 7986   3.607   5.099   3.590
 2363SOL     OW 7987   1.741   3.340   0.148
 2363SOL    HW1 7988   1.668   3.340   0.079
 2363SOL    HW2 7989   1.715   3.400   0.224
 2364SOL     OW 7990   4.007   1.790   2.688
 2364SOL    HW1 7991   4.030   1.750   2.777
 2364SOL    HW2 7992   3.935   1.736   2.645
 2365SOL     OW 7993   5.122   3.956   3.250
 2365SOL    HW1 7994   5.098   4.036   3.194
 2365SOL    HW2 7995   5.050   3.887   3.242
 2366SOL     OW 7996   2.834   5.099   5.461
 2366SOL    HW1 7997   2.877   5.187   5.482
 2366SOL    HW2 7998   2.735   5.110   5.457
 2367SOL     OW 7999   6.043   4.772   5.400
 2367SOL    HW1 8000   6.037   4.860   5.447
 2367SOL    HW2 8001   6.010   4.699   5.461
 2368SOL     OW 8002   5.812   6.999   5.267
 2368SOL    HW1 8003   5.884   0.042   5.284
 2368SOL    HW2 8004   5.726   0.007   5.305
 2369SOL     OW 8005   3.761   2.131   4.285
 2369SOL    HW1 8006   3.818   2.167   4.211
 2369SOL    HW2 8007   3.778   2.033   4.297
 2370SOL     OW 8008   5.219   2.132   1.848
 2370SOL    HW1 8009   5.122   2.142   1.871
 2370SOL    HW2 8010   5.228   2.068   1.772
 2371SOL     OW 8011   1.029   6.174   1.915
 2371SOL    HW1 8012   1.070   6.250   1.965
 2371SOL    HW2 8013   1.040   6.189   1.817
 2372SOL     OW 8014   6.645   6.631   0.057
 2372SOL    HW1 8015   6.559   6.656   0.103
 2372SOL    HW2 8016   6.624   6.573   7.003
 2373SOL     OW 8017   6.208   4.284   6.460
 2373SOL    HW1 8018   6.143   4.233   6.518
 2373SOL    HW2 8019   6.301   4.267   6.492
 2374SOL     OW 8020   5.966   7.005   2.425
 2374SOL    HW1 8021   5.936   6.943   2.353
 2374SOL    HW2 8022   5.891   0.041   2.451
 2375SOL     OW 8023   1.882   0.607   4.438
 2375SOL    HW1 8024   1.850   0.692   4.479
 2375SOL    HW2 8025   1.898   0.539   4.510
 2376SOL     OW 8026   5.130   2.528   2.831
 2376SOL    HW1 8027   5.159   2.624   2.833
 2376SOL    HW2 8028   5.199   2.472   2.875
 2377SOL     OW 8029   4.719   3.542   5.743
 2377SOL    HW1 8030   4.796   3.528   5.805
 2377SOL    HW2 8031   4.654   3.467   5.753
 2378SOL     OW 8032   0.495   1.231   0.314
 2378SOL    HW1 8033   0.436   1.202   0.239
 2378SOL    HW2 8034   0.584   1.187   0.306
 2379SOL     OW 8035   0.020   5.570   2.343
 2379SOL    HW1 8036   6.985   5.501   2.381
 2379SOL    HW2 8037   0.100   5.582   2.402
 2380SOL     OW 8038   4.897   5.403   6.428
 2380SOL    HW1 8039   4.978   5.459   6.445
 2380SOL    HW2 8040   4.817   5.445   6.470
 2381SOL     OW 8041   2.291   4.287   3.819
 2381SOL    HW1 8042   2.267   4.202   3.771
 2381SOL    HW2 8043   2.300   4.268   3.917
 2382SOL     OW 8044   6.764   4.774   3.186
 2382SOL    HW1 8045   6.838   4.839   3.166
 2382SOL    HW2 8046   6.803   4.682   3.195
 2383SOL     OW 8047   5.230   4.319   5.964
 2383SOL    HW1 8048   5.173   4.397   5.937
 2383SOL    HW2 8049   5.175   4.235   5.959
 2384SOL     OW 8050   0.105   1.771   3.056
 2384SOL    HW1 8051   0.118   1.869   3.071
 2384SOL    HW2 8052   0.051   1.732   3.130
 2385SOL     OW 8053   0.243   1.155   0.703
 2385SOL    HW1 8054   0.248   1.242   0.654
 2385SOL    HW2 8055   0.241   1.172   0.801
 2386SOL     OW 8056   5.928   6.260   4.880
 2386SOL    HW1 8057   5.861   6.218   4.941
 2386SOL    HW2 8058   5.993   6.313   4.935
 2387SOL     OW 8059   1.208   1.738   3.840
 2387SOL    HW1 8060   1.268   1.798   3.787
 2387SOL    HW2 8061   1.113   1.769   3.831
 2388SOL     OW 8062   0.423   2.997   5.530
 2388SOL    HW1 8063   0.513   2.971   5.566
 2388SOL    HW2 8064   0.426   3.093   5.500
 2389SOL     OW 8065   3.856   5.139   3.267
 2389SOL    HW1 8066   3.886   5.216   3.323
 2389SOL    HW2 8067   3.893   5.149   3.175
 2390SOL     OW 8068   4.651   2.531   6.144
 2390SOL    HW1 8069   4.642   2.631   6.136
 2390SOL    HW2 8070   4.658   2.506   6.240
 2391SOL     OW 8071   3.494   4.484   6.411
 2391SOL    HW1 8072   3.442   4.567   6.389
 2391SOL    HW2 8073   3.522   4.439   6.326
 2392SOL     OW 8074   4.316   4.095   5.708
 2392SOL    HW1 8075   4.311   3.998   5.731
 2392SOL    HW2 8076   4.290   4.150   5.788
 2393SOL     OW 8077   4.880   4.415   0.712
 2393SOL    HW1 8078   4.867   4.328   0.758
 2393SOL    HW2 8079   4.978   4.433   0.702
 2394SOL     OW 8080   0.242   1.615   3.389
 2394SOL    HW1 8081   0.298   1.538   3.357
 2394SOL    HW2 8082   0.299   1.697   3.394
 2395SOL     OW 8083   1.100   3.012   4.134
 2395SOL    HW1 8084   1.022   2.985   4.078
 2395SOL    HW2 8085   1.177   3.036   4.074
 2396SOL     OW 8086   0.958   0.329   6.252
 2396SOL    HW1 8087   0.886   0.339   6.183
 2396SOL    HW2 8088   1.021   0.257   6.225
 2397SOL     OW 8089   0.680   3.841   5.040
 2397SOL    HW1 8090   0.773   3.819   5.069
 2397SOL    HW2 8091   0.632   3.756   5.016
 2398SOL     OW 8092   4.198   0.002   3.696
 2398SOL    HW1 8093   4.120   7.002   3.754
 2398SOL    HW2 8094   4.258   6.948   3.686
 2399SOL     OW 8095   3.427   2.037   3.159
 2399SOL    HW1 8096   3.384   2.063   3.245
 2399SOL    HW2 8097   3.526   2.045   3.167
 2400SOL     OW 8098   1.562   3.769   0.673
 2400SOL    HW1 8099   1.493   3.703   0.643
 2400SOL    HW2 8100   1.517   3.854   0.699
 2401SOL     OW 8101   1.654   6.942   6.690
 2401SOL    HW1 8102   1.724   6.957   6.621
 2401SOL    HW2 8103   1.585   6.878   6.656
 2402SOL     OW 8104   0.739   3.956   2.321
 2402SOL    HW1 8105   0.676   3.975   2.246
 2402SOL    HW2 8106   0.689   3.952   2.407
 2403SOL     OW 8107   3.506   3.942   4.492
 2403SOL    HW1 8108   3.451   3.981   4.565
 2403SOL    HW2 8109   3.509   3.842   4.502
 2404SOL     OW 8110   5.837   1.730   0.785
 2404SOL    HW1 8111   5.752   1.765   0.823
 2404SOL    HW2 8112   5.818   1.650   0.728
 2405SOL     OW 8113   1.034   3.228   0.593
 2405SOL    HW1 8114   1.048   3.206   0.689
 2405SOL    HW2 8115   0.947   3.277   0.582
 2406SOL     OW 8116   2.629   5.778   4.422
 2406SOL    HW1 8117   2.610   5.862   4.474
 2406SOL    HW2 8118   2.590   5.786   4.331
 2407SOL     OW 8119   3.075   0.835   3.319
 2407SOL    HW1 8120   3.118   0.748   3.342
 2407SOL    HW2 8121   3.026   0.825   3.232
 2408SOL     OW 8122   2.903   6.193   5.566
 2408SOL    HW1 8123   2.947   6.222   5.651
 2408SOL    HW2 8124   2.918   6.095   5.552
 2409SOL     OW 8125   1.121   3.438   0.259
 2409SOL    HW1 8126   1.154   3.344   0.270
 2409SOL    HW2 8127   1.181   3.488   0.198
 2410SOL     OW 8128   6.917   2.482   4.342
 2410SOL    HW1 8129   6.872   2.490   4.430
 2410SOL    HW2 8130   6.869   2.537   4.274
 2411SOL     OW 8131   3.275   2.220   6.466
 2411SOL    HW1 8132   3.275   2.319   6.478
 2411SOL    HW2 8133   3.181   2.188   6.455
 2412SOL     OW 8134   2.994   1.433   5.631
 2412SOL    HW1 8135   3.047   1.419   5.548
 2412SOL    HW2 8136   2.911   1.484   5.610
 2413SOL     OW 8137   0.369   3.116   6.990
 2413SOL    HW1 8138   0.453   3.099   0.016
 2413SOL    HW2 8139   0.311   3.035   6.994
 2414SOL     OW 8140   6.725   1.461   5.093
 2414SOL    HW1 8141   6.695   1.412   5.011
 2414SOL    HW2 8142   6.654   1.457   5.163
 2415SOL     OW 8143   2.526   5.043   6.449
 2415SOL    HW1 8144   2.547   5.024   6.353
 2415SOL    HW2 8145   2.611   5.049   6.501
 2416SOL     OW 8146   0.167   2.593   2.921
 2416SOL    HW1 8147   0.160   2.515   2.859
 2416SOL    HW2 8148   0.084   2.598   2.977
 2417SOL     OW 8149   2.609   2.799   1.733
 2417SOL    HW1 8150   2.682   2.730   1.736
 2417SOL    HW2 8151   2.521   2.753   1.717
 2418SOL     OW 8152   4.811   4.048   6.574
 2418SOL    HW1 8153   4.800   4.082   6.668
 2418SOL    HW2 8154   4.855   3.958   6.577
 2419SOL     OW 8155   2.907   0.744   3.674
 2419SOL    HW1 8156   2.864   0.666   3.718
 2419SOL    HW2 8157   2.837   0.804   3.635
 2420SOL     OW 8158   1.308   4.232   2.473
 2420SOL    HW1 8159   1.317   4.144   2.425
 2420SOL    HW2 8160   1.268   4.217   2.563
 2421SOL     OW 8161   2.924   6.610   3.563
 2421SOL    HW1 8162   2.994   6.594   3.493
 2421SOL    HW2 8163   2.838   6.634   3.518
 2422SOL     OW 8164   4.393   4.771   1.272
 2422SOL    HW1 8165   4.360   4.704   1.205
 2422SOL    HW2 8166   4.377   4.737   1.364
 2423SOL     OW 8167   2.226   5.699   2.900
 2423SOL    HW1 8168   2.211   5.620   2.959
 2423SOL    HW2 8169   2.266   5.669   2.813
 2424SOL     OW 8170   5.202   6.728   6.528
 2424SOL    HW1 8171   5.236   6.723   6.622
 2424SOL    HW2 8172   5.248   6.659   6.472
 2425SOL     OW 8173   4.933   5.578   4.780
 2425SOL    HW1 8174   5.024   5.554   4.747
 2425SOL    HW2 8175   4.938   5.603   4.877
 2426SOL     OW 8176   1.969   2.589   5.172
 2426SOL    HW1 8177   1.994   2.673   5.125
 2426SOL    HW2 8178   1.993   2.596   5.269
 2427SOL     OW 8179   5.316   0.775   0.678
 2427SOL    HW1 8180   5.251   0.734   0.613
 2427SOL    HW2 8181   5.354   0.858   0.639
 2428SOL     OW 8182   1.178   1.314   2.688
 2428SOL    HW1 8183   1.191   1.402   2.642
 2428SOL    HW2 8184   1.214   1.241   2.629
 2429SOL     OW 8185   5.815   5.327   1.849
 2429SOL    HW1 8186   5.767   5.246   1.817
 2429SOL    HW2 8187   5.771   5.360   1.933
 2430SOL     OW 8188   6.068   0.976   6.667
 2430SOL    HW1 8189   6.067   1.023   6.579
 2430SOL    HW2 8190   5.979   0.988   6.711
 2431SOL     OW 8191   0.414   3.727   1.730
 2431SOL    HW1 8192   0.406   3.676   1.645
 2431SOL    HW2 8193   0.474   3.677   1.793
 2432SOL     OW 8194   1.945   5.232   1.720
 2432SOL    HW1 8195   2.028   5.270   1.761
 2432SOL    HW2 8196   1.922   5.284   1.638
 2433SOL     OW 8197   0.139   3.785   5.117
 2433SOL    HW1 8198   0.160   3.696   5.078
 2433SOL    HW2 8199   0.084   3.773   5.199
 2434SOL     OW 8200   3.976   0.642   2.457
 2434SOL    HW1 8201   3.949   0.692   2.539
 2434SOL    HW2 8202   3.977   0.544   2.477
 2435SOL     OW 8203   6.071   6.964   6.932
 2435SOL    HW1 8204   6.076   0.038   6.913
 2435SOL    HW2 8205   6.140   6.916   6.878
 2436SOL     OW 8206   1.095   2.602   1.227
 2436SOL    HW1 8207   1.018   2.593   1.164
 2436SOL    HW2 8208   1.061   2.613   1.320
 2437SOL     OW 8209   6.802   3.716   2.584
 2437SOL    HW1 8210   6.898   3.736   2.560
 2437SOL    HW2 8211   6.759   3.799   2.618
 2438SOL     OW 8212   3.989   1.818   4.581
 2438SOL    HW1 8213   4.042   1.756   4.523
 2438SOL    HW2 8214   4.051   1.885   4.622
 2439SOL     OW 8215   1.545   5.886   1.189
 2439SOL    HW1 8216   1.610   5.879   1.264
 2439SOL    HW2 8217   1.508   5.979   1.185
 2440SOL     OW 8218   6.121   1.592   5.828
 2440SOL    HW1 8219   6.186   1.617   5.900
 2440SOL    HW2 8220   6.094   1.674   5.778
 2441SOL     OW 8221   6.143   0.309   0.656
 2441SOL    HW1 8222   6.234   0.306   0.698
 2441SOL    HW2 8223   6.148   0.274   0.563
 2442SOL     OW 8224   5.361   3.071   1.309
 2442SOL    HW1 8225   5.295   3.144   1.326
 2442SOL    HW2 8226   5.321   2.983   1.336
 2443SOL     OW 8227   1.009   2.966   1.876
 2443SOL    HW1 8228   0.995   3.042   1.939
 2443SOL    HW2 8229   1.031   2.884   1.927
 2444SOL     OW 8230   3.091   5.684   2.192
 2444SOL    HW1 8231   2.998   5.718   2.207
 2444SOL    HW2 8232   3.155   5.761   2.193
 2445SOL     OW 8233   0.864   2.136   1.723
 2445SOL    HW1 8234   0.807   2.105   1.799
 2445SOL    HW2 8235   0.827   2.101   1.637
 2446SOL     OW 8236   1.104   5.226   1.916
 2446SOL    HW1 8237   1.105   5.127   1.906
 2446SOL    HW2 8238   1.157   5.251   1.998
 2447SOL     OW 8239   2.175   6.765   0.095
 2447SOL    HW1 8240   2.248   6.833   0.097
 2447SOL    HW2 8241   2.088   6.807   0.120
 2448SOL     OW 8242   5.626   1.212   4.600
 2448SOL    HW1 8243   5.603   1.163   4.516
 2448SOL    HW2 8244   5.707   1.171   4.642
 2449SOL     OW 8245   1.229   4.338   1.887
 2449SOL    HW1 8246   1.140   4.299   1.911
 2449SOL    HW2 8247   1.239   4.341   1.788
 2450SOL     OW 8248   1.070   6.674   5.342
 2450SOL    HW1 8249   1.009   6.625   5.403
 2450SOL    HW2 8250   1.121   6.743   5.393
 2451SOL     OW 8251   0.956   6.388   5.040
 2451SOL    HW1 8252   0.986   6.329   5.115
 2451SOL    HW2 8253   0.954   6.483   5.071
 2452SOL     OW 8254   2.799   2.070   3.142
 2452SOL    HW1 8255   2.780   1.988   3.089
 2452SOL    HW2 8256   2.757   2.062   3.232
 2453SOL     OW 8257   1.093   1.042   5.427
 2453SOL    HW1 8258   1.131   1.069   5.515
 2453SOL    HW2 8259   1.071   0.944   5.428
 2454SOL     OW 8260   3.407   5.791   0.752
 2454SOL    HW1 8261   3.480   5.799   0.684
 2454SOL    HW2 8262   3.416   5.864   0.820
 2455SOL     OW 8263   3.845   2.585   0.304
 2455SOL    HW1 8264   3.846   2.564   0.206
 2455SOL    HW2 8265   3.899   2.517   0.353
 2456SOL     OW 8266   0.686   2.905   5.906
 2456SOL    HW1 8267   0.587   2.889   5.910
 2456SOL    HW2 8268   0.733   2.835   5.960
 2457SOL     OW 8269   4.625   2.268   5.198
 2457SOL    HW1 8270   4.599   2.227   5.285
 2457SOL    HW2 8271   4.722   2.292   5.200
 2458SOL     OW 8272   0.879   0.320   2.796
 2458SOL    HW1 8273   0.946   0.389   2.822
 2458SOL    HW2 8274   0.837   0.282   2.878
 2459SOL     OW 8275   2.377   6.970   0.076
 2459SOL    HW1 8276   2.429   6.960   0.161
 2459SOL    HW2 8277   2.330   0.033   0.076
 2460SOL     OW 8278   1.318   1.440   4.873
 2460SOL    HW1 8279   1.303   1.478   4.965
 2460SOL    HW2 8280   1.270   1.353   4.865
 2461SOL     OW 8281   4.702   0.373   3.781
 2461SOL    HW1 8282   4.747   0.290   3.750
 2461SOL    HW2 8283   4.616   0.350   3.827
 2462SOL     OW 8284   0.245   4.703   0.008
 2462SOL    HW1 8285   0.216   4.663   6.947
 2462SOL    HW2 8286   0.182   4.776   0.034
 2463SOL     OW 8287   6.593   0.684   0.384
 2463SOL    HW1 8288   6.605   0.764   0.442
 2463SOL    HW2 8289   6.495   0.671   0.366
 2464SOL     OW 8290   0.595   2.503   4.123
 2464SOL    HW1 8291   0.659   2.554   4.064
 2464SOL    HW2 8292   0.641   2.421   4.158
 2465SOL     OW 8293   0.256   6.718   5.956
 2465SOL    HW1 8294   0.256   6.675   5.866
 2465SOL    HW2 8295   0.308   6.660   6.020
 2466SOL     OW 8296   0.706   2.051   1.935
 2466SOL    HW1 8297   0.686   1.960   1.972
 2466SOL    HW2 8298   0.676   2.120   2.000
 2467SOL     OW 8299   6.267   2.745   5.579
 2467SOL    HW1 8300   6.235   2.727   5.672
 2467SOL    HW2 8301   6.191   2.735   5.514
 2468SOL     OW 8302   3.391   6.882   5.136
 2468SOL    HW1 8303   3.324   6.954   5.117
 2468SOL    HW2 8304   3.350   6.814   5.197
 2469SOL     OW 8305   3.577   1.705   5.408
 2469SOL    HW1 8306   3.601   1.634   5.342
 2469SOL    HW2 8307   3.587   1.795   5.366
 2470SOL     OW 8308   2.821   4.732   6.361
 2470SOL    HW1 8309   2.874   4.783   6.293
 2470SOL    HW2 8310   2.735   4.701   6.319
 2471SOL     OW 8311   2.852   5.679   1.957
 2471SOL    HW1 8312   2.855   5.730   2.043
 2471SOL    HW2 8313   2.810   5.589   1.974
 2472SOL     OW 8314   5.231   1.568   3.308
 2472SOL    HW1 8315   5.274   1.658   3.311
 2472SOL    HW2 8316   5.174   1.561   3.226
 2473SOL     OW 8317   0.332   4.258   4.485
 2473SOL    HW1 8318   0.353   4.344   4.531
 2473SOL    HW2 8319   0.399   4.243   4.412
 2474SOL     OW 8320   1.340   5.978   1.552
 2474SOL    HW1 8321   1.275   5.980   1.476
 2474SOL    HW2 8322   1.424   6.026   1.525
 2475SOL     OW 8323   5.103   0.804   0.845
 2475SOL    HW1 8324   5.077   0.709   0.861
 2475SOL    HW2 8325   5.163   0.810   0.765
 2476SOL     OW 8326   5.471   1.142   0.207
 2476SOL    HW1 8327   5.382   1.161   0.248
 2476SOL    HW2 8328   5.465   1.151   0.108
 2477SOL     OW 8329   4.014   0.197   3.180
 2477SOL    HW1 8330   4.082   0.270   3.186
 2477SOL    HW2 8331   4.016   0.142   3.263
 2478SOL     OW 8332   4.450   6.781   4.678
 2478SOL    HW1 8333   4.535   6.767   4.730
 2478SOL    HW2 8334   4.372   6.767   4.739
 2479SOL     OW 8335   5.545   3.098   6.754
 2479SOL    HW1 8336   5.510   3.004   6.754
 2479SOL    HW2 8337   5.610   3.108   6.828
 2480SOL     OW 8338   3.328   2.496   1.645
 2480SOL    HW1 8339   3.320   2.594   1.632
 2480SOL    HW2 8340   3.239   2.453   1.627
 2481SOL     OW 8341   3.171   0.376   1.215
 2481SOL    HW1 8342   3.093   0.351   1.272
 2481SOL    HW2 8343   3.142   0.441   1.144
 2482SOL     OW 8344   6.007   2.957   6.364
 2482SOL    HW1 8345   5.917   2.958   6.321
 2482SOL    HW2 8346   6.069   3.018   6.313
 2483SOL     OW 8347   1.259   2.528   0.344
 2483SOL    HW1 8348   1.356   2.547   0.335
 2483SOL    HW2 8349   1.242   2.478   0.429
 2484SOL     OW 8350   5.410   0.768   1.347
 2484SOL    HW1 8351   5.455   0.758   1.436
 2484SOL    HW2 8352   5.362   0.855   1.343
 2485SOL     OW 8353   6.914   2.055   6.366
 2485SOL    HW1 8354   6.853   2.092   6.296
 2485SOL    HW2 8355   6.862   2.038   6.450
 2486SOL     OW 8356   6.762   4.954   5.166
 2486SOL    HW1 8357   6.853   4.994   5.179
 2486SOL    HW2 8358   6.709   5.013   5.105
 2487SOL     OW 8359   5.307   5.827   6.719
 2487SOL    HW1 8360   5.359   5.800   6.638
 2487SOL    HW2 8361   5.329   5.922   6.743
 2488SOL     OW 8362   6.499   3.971   0.916
 2488SOL    HW1 8363   6.525   3.942   1.007
 2488SOL    HW2 8364   6.517   3.898   0.850
 2489SOL     OW 8365   6.963   6.247   4.594
 2489SOL    HW1 8366   0.008   6.213   4.658
 2489SOL    HW2 8367   6.938   6.173   4.531
 2490SOL     OW 8368   2.447   5.741   2.647
 2490SOL    HW1 8369   2.494   5.718   2.562
 2490SOL    HW2 8370   2.514   5.751   2.721
 2491SOL     OW 8371   3.650   4.580   1.418
 2491SOL    HW1 8372   3.631   4.663   1.364
 2491SOL    HW2 8373   3.626   4.499   1.364
 2492SOL     OW 8374   6.833   4.598   1.966
 2492SOL    HW1 8375   6.881   4.673   1.921
 2492SOL    HW2 8376   6.895   4.520   1.974
 2493SOL     OW 8377   6.106   6.834   1.267
 2493SOL    HW1 8378   6.036   6.906   1.265
 2493SOL    HW2 8379   6.194   6.872   1.239
 2494SOL     OW 8380   6.445   3.668   2.291
 2494SOL    HW1 8381   6.367   3.727   2.270
 2494SOL    HW2 8382   6.442   3.643   2.388
 2495SOL     OW 8383   6.571   4.486   3.246
 2495SOL    HW1 8384   6.494   4.538   3.209
 2495SOL    HW2 8385   6.549   4.388   3.245
 2496SOL     OW 8386   6.070   5.012   6.056
 2496SOL    HW1 8387   6.144   5.007   5.990
 2496SOL    HW2 8388   6.019   4.926   6.056
 2497SOL     OW 8389   0.478   0.475   2.204
 2497SOL    HW1 8390   0.515   0.417   2.131
 2497SOL    HW2 8391   0.516   0.446   2.292
 2498SOL     OW 8392   1.827   3.624   6.296
 2498SOL    HW1 8393   1.885   3.602   6.217
 2498SOL    HW2 8394   1.759   3.692   6.269
 2499SOL     OW 8395   6.703   3.825   1.832
 2499SOL    HW1 8396   6.708   3.728   1.807
 2499SOL    HW2 8397   6.654   3.834   1.919
 2500SOL     OW 8398   3.854   3.929   6.911
 2500SOL    HW1 8399   3.861   3.986   6.993
 2500SOL    HW2 8400   3.929   3.863   6.908
 2501SOL     OW 8401   5.769   5.796   0.310
 2501SOL    HW1 8402   5.811   5.852   0.238
 2501SOL    HW2 8403   5.732   5.856   0.381
 2502SOL     OW 8404   2.909   5.190   4.312
 2502SOL    HW1 8405   2.848   5.269   4.311
 2502SOL    HW2 8406   2.978   5.200   4.241
 2503SOL     OW 8407   2.354   6.565   5.797
 2503SOL    HW1 8408   2.257   6.576   5.818
 2503SOL    HW2 8409   2.390   6.486   5.847
 2504SOL     OW 8410   3.185   6.456   3.436
 2504SOL    HW1 8411   3.148   6.520   3.368
 2504SOL    HW2 8412   3.285   6.452   3.426
 2505SOL     OW 8413   0.095   5.499   3.316
 2505SOL    HW1 8414   0.184   5.464   3.344
 2505SOL    HW2 8415   0.096   5.518   3.217
 2506SOL     OW 8416   5.083   5.757   6.124
 2506SOL    HW1 8417   5.095   5.693   6.049
 2506SOL    HW2 8418   5.053   5.845   6.089
 2507SOL     OW 8419   6.598   3.508   0.373
 2507SOL    HW1 8420   6.668   3.438   0.364
 2507SOL    HW2 8421   6.576   3.546   0.283
 2508SOL     OW 8422   4.552   2.282   4.161
 2508SOL    HW1 8423   4.538   2.279   4.063
 2508SOL    HW2 8424   4.650   2.293   4.181
 2509SOL     OW 8425   0.459   4.042   5.328
 2509SOL    HW1 8426   0.492   4.040   5.422
 2509SOL    HW2 8427   0.387   3.974   5.316
 2510SOL     OW 8428   3.294   4.090   1.960
 2510SOL    HW1 8429   3.352   4.042   2.026
 2510SOL    HW2 8430   3.199   4.061   1.972
 2511SOL     OW 8431   2.002   0.372   5.130
 2511SOL    HW1 8432   2.068   0.305   5.163
 2511SOL    HW2 8433   2.050   0.447   5.085
 2512SOL     OW 8434   3.725   5.245   4.109
 2512SOL    HW1 8435   3.688   5.263   4.201
 2512SOL    HW2 8436   3.722   5.147   4.091
 2513SOL     OW 8437   2.152   6.065   6.270
 2513SOL    HW1 8438   2.198   6.094   6.186
 2513SOL    HW2 8439   2.189   5.977   6.300
 2514SOL     OW 8440   1.510   2.890   3.028
 2514SOL    HW1 8441   1.589   2.829   3.020
 2514SOL    HW2 8442   1.496   2.915   3.123
 2515SOL     OW 8443   1.357   1.653   1.616
 2515SOL    HW1 8444   1.377   1.592   1.693
 2515SOL    HW2 8445   1.398   1.616   1.533
 2516SOL     OW 8446   5.886   1.832   4.013
 2516SOL    HW1 8447   5.824   1.763   3.975
 2516SOL    HW2 8448   5.874   1.918   3.963
 2517SOL     OW 8449   1.359   1.768   4.160
 2517SOL    HW1 8450   1.267   1.808   4.150
 2517SOL    HW2 8451   1.358   1.675   4.124
 2518SOL     OW 8452   2.639   4.189   1.505
 2518SOL    HW1 8453   2.559   4.249   1.507
 2518SOL    HW2 8454   2.612   4.096   1.527
 2519SOL     OW 8455   1.344   1.251   0.434
 2519SOL    HW1 8456   1.358   1.162   0.475
 2519SOL    HW2 8457   1.284   1.306   0.492
 2520SOL     OW 8458   2.899   2.473   0.885
 2520SOL    HW1 8459   2.957   2.416   0.943
 2520SOL    HW2 8460   2.956   2.534   0.830
 2521SOL     OW 8461   5.118   1.467   5.008
 2521SOL    HW1 8462   5.191   1.398   5.005
 2521SOL    HW2 8463   5.080   1.471   5.100
 2522SOL     OW 8464   0.654   1.701   5.990
 2522SOL    HW1 8465   0.731   1.730   5.933
 2522SOL    HW2 8466   0.578   1.766   5.979
 2523SOL     OW 8467   2.000   4.935   6.964
 2523SOL    HW1 8468   2.044   4.946   6.875
 2523SOL    HW2 8469   1.948   5.018   6.986
 2524SOL     OW 8470   1.397   6.679   3.967
 2524SOL    HW1 8471   1.304   6.654   3.995
 2524SOL    HW2 8472   1.462   6.612   4.003
 2525SOL     OW 8473   6.892   2.020   4.219
 2525SOL    HW1 8474   6.927   2.106   4.182
 2525SOL    HW2 8475   6.792   2.023   4.222
 2526SOL     OW 8476   1.218   6.425   0.823
 2526SOL    HW1 8477   1.282   6.502   0.827
 2526SOL    HW2 8478   1.124   6.459   0.833
 2527SOL     OW 8479   4.829   4.792   6.503
 2527SOL    HW1 8480   4.920   4.813   6.467
 2527SOL    HW2 8481   4.800   4.866   6.564
 2528SOL     OW 8482   4.770   5.143   6.398
 2528SOL    HW1 8483   4.852   5.197   6.419
 2528SOL    HW2 8484   4.727   5.114   6.483
 2529SOL     OW 8485   0.319   6.999   6.535
 2529SOL    HW1 8486   0.246   0.034   6.500
 2529SOL    HW2 8487   0.340   7.024   6.629
 2530SOL     OW 8488   2.102   5.656   5.819
 2530SOL    HW1 8489   2.102   5.563   5.782
 2530SOL    HW2 8490   2.196   5.687   5.833
 2531SOL     OW 8491   6.131   5.536   5.946
 2531SOL    HW1 8492   6.179   5.458   5.987
 2531SOL    HW2 8493   6.077   5.505   5.868
 2532SOL     OW 8494   6.617   6.590   0.946
 2532SOL    HW1 8495   6.523   6.590   0.979
 2532SOL    HW2 8496   6.644   6.684   0.923
 2533SOL     OW 8497   5.181   0.886   3.209
 2533SOL    HW1 8498   5.280   0.897   3.204
 2533SOL    HW2 8499   5.159   0.791   3.232
 2534SOL     OW 8500   4.667   1.817   2.675
 2534SOL    HW1 8501   4.648   1.727   2.636
 2534SOL    HW2 8502   4.636   1.819   2.771
 2535SOL     OW 8503   3.641   2.956   5.937
 2535SOL    HW1 8504   3.560   2.899   5.928
 2535SOL    HW2 8505   3.640   3.003   6.025
 2536SOL     OW 8506   1.631   0.644   6.716
 2536SOL    HW1 8507   1.551   0.623   6.772
 2536SOL    HW2 8508   1.713   0.608   6.760
 2537SOL     OW 8509   4.226   0.917   0.049
 2537SOL    HW1 8510   4.186   1.008   0.063
 2537SOL    HW2 8511   4.166   0.848   0.088
 2538SOL     OW 8512   6.961   3.359   4.017
 2538SOL    HW1 8513   7.007   3.349   3.929
 2538SOL    HW2 8514   6.983   3.282   4.076
 2539SOL     OW 8515   4.831   1.694   5.020
 2539SOL    HW1 8516   4.820   1.598   4.996
 2539SOL    HW2 8517   4.920   1.708   5.063
 2540SOL     OW 8518   3.667   1.601   2.355
 2540SOL    HW1 8519   3.629   1.519   2.311
 2540SOL    HW2 8520   3.634   1.683   2.308
 2541SOL     OW 8521   3.351   6.337   5.280
 2541SOL    HW1 8522   3.300   6.317   5.197
 2541SOL    HW2 8523   3.292   6.328   5.359
 2542SOL     OW 8524   1.177   4.850   6.283
 2542SOL    HW1 8525   1.216   4.828   6.193
 2542SOL    HW2 8526   1.247   4.837   6.353
 2543SOL     OW 8527   1.983   1.617   4.105
 2543SOL    HW1 8528   1.895   1.661   4.088
 2543SOL    HW2 8529   1.969   1.527   4.146
 2544SOL     OW 8530   0.647   5.268   0.358
 2544SOL    HW1 8531   0.661   5.334   0.431
 2544SOL    HW2 8532   0.711   5.287   0.283
 2545SOL     OW 8533   1.960   6.414   2.605
 2545SOL    HW1 8534   2.028   6.427   2.533
 2545SOL    HW2 8535   1.893   6.346   2.576
 2546SOL     OW 8536   5.936   2.020   0.952
 2546SOL    HW1 8537   6.001   1.996   0.880
 2546SOL    HW2 8538   5.971   1.987   1.040
 2547SOL     OW 8539   0.488   3.608   5.007
 2547SOL    HW1 8540   0.398   3.638   4.974
 2547SOL    HW2 8541   0.526   3.541   4.944
 2548SOL     OW 8542   0.210   5.896   3.882
 2548SOL    HW1 8543   0.179   5.987   3.911
 2548SOL    HW2 8544   0.249   5.901   3.791
 2549SOL     OW 8545   0.618   1.254   0.738
 2549SOL    HW1 8546   0.710   1.216   0.742
 2549SOL    HW2 8547   0.551   1.184   0.763
 2550SOL     OW 8548   5.750   6.364   0.850
 2550SOL    HW1 8549   5.776   6.417   0.770
 2550SOL    HW2 8550   5.650   6.363   0.858
 2551SOL     OW 8551   1.405   4.145   6.632
 2551SOL    HW1 8552   1.322   4.185   6.670
 2551SOL    HW2 8553   1.414   4.173   6.537
 2552SOL     OW 8554   2.076   5.979   3.074
 2552SOL    HW1 8555   2.076   5.894   3.127
 2552SOL    HW2 8556   2.086   5.958   2.977
 2553SOL     OW 8557   4.261   3.629   6.831
 2553SOL    HW1 8558   4.219   3.657   6.745
 2553SOL    HW2 8559   4.325   3.555   6.814
 2554SOL     OW 8560   1.485   1.343   0.231
 2554SOL    HW1 8561   1.555   1.274   0.214
 2554SOL    HW2 8562   1.442   1.327   0.320
 2555SOL     OW 8563   6.091   2.509   6.523
 2555SOL    HW1 8564   6.102   2.467   6.613
 2555SOL    HW2 8565   6.170   2.486   6.466
 2556SOL     OW 8566   3.534   6.304   0.867
 2556SOL    HW1 8567   3.513   6.207   0.853
 2556SOL    HW2 8568   3.465   6.344   0.928
 2557SOL     OW 8569   1.848   4.077   0.012
 2557SOL    HW1 8570   1.943   4.064   0.042
 2557SOL    HW2 8571   1.844   4.072   6.937
 2558SOL     OW 8572   4.762   0.856   5.804
 2558SOL    HW1 8573   4.762   0.762   5.772
 2558SOL    HW2 8574   4.809   0.862   5.892
 2559SOL     OW 8575   0.500   4.560   4.846
 2559SOL    HW1 8576   0.570   4.500   4.886
 2559SOL    HW2 8577   0.410   4.529   4.875
 2560SOL     OW 8578   6.061   1.938   6.089
 2560SOL    HW1 8579   6.119   1.950   6.170
 2560SOL    HW2 8580   6.086   2.006   6.021
 2561SOL     OW 8581   2.757   5.412   5.019
 2561SOL    HW1 8582   2.679   5.352   5.000
 2561SOL    HW2 8583   2.837   5.380   4.969
 2562SOL     OW 8584   1.651   3.774   0.303
 2562SOL    HW1 8585   1.551   3.778   0.307
 2562SOL    HW2 8586   1.687   3.863   0.275
 2563SOL     OW 8587   3.062   1.194   6.704
 2563SOL    HW1 8588   3.037   1.208   6.609
 2563SOL    HW2 8589   3.161   1.178   6.711
 2564SOL     OW 8590   1.457   5.425   1.955
 2564SOL    HW1 8591   1.377   5.476   1.986
 2564SOL    HW2 8592   1.430   5.359   1.884
 2565SOL     OW 8593   1.381   0.663   1.501
 2565SOL    HW1 8594   1.299   0.676   1.445
 2565SOL    HW2 8595   1.353   0.651   1.597
 2566SOL     OW 8596   1.884   6.481   6.981
 2566SOL    HW1 8597   1.825   6.401   6.969
 2566SOL    HW2 8598   1.848   6.556   6.926
 2567SOL     OW 8599   1.298   6.453   0.249
 2567SOL    HW1 8600   1.397   6.441   0.242
 2567SOL    HW2 8601   1.270   6.446   0.345
 2568SOL     OW 8602   4.723   2.395   0.234
 2568SOL    HW1 8603   4.686   2.480   0.270
 2568SOL    HW2 8604   4.695   2.319   0.292
 2569SOL     OW 8605   3.057   0.275   3.603
 2569SOL    HW1 8606   3.006   0.361   3.595
 2569SOL    HW2 8607   3.069   0.235   3.513
 2570SOL     OW 8608   5.255   1.671   6.297
 2570SOL    HW1 8609   5.291   1.656   6.389
 2570SOL    HW2 8610   5.171   1.617   6.285
 2571SOL     OW 8611   1.116   4.807   3.882
 2571SOL    HW1 8612   1.215   4.796   3.878
 2571SOL    HW2 8613   1.088   4.826   3.976
 2572SOL     OW 8614   2.324   4.716   2.584
 2572SOL    HW1 8615   2.362   4.640   2.531
 2572SOL    HW2 8616   2.317   4.689   2.680
 2573SOL     OW 8617   0.597   0.317   1.294
 2573SOL    HW1 8618   0.545   0.326   1.209
 2573SOL    HW2 8619   0.556   0.374   1.364
 2574SOL     OW 8620   6.575   3.314   6.989
 2574SOL    HW1 8621   6.505   3.382   7.014
 2574SOL    HW2 8622   6.563   3.286   6.894
 2575SOL     OW 8623   7.003   5.693   6.144
 2575SOL    HW1 8624   0.057   5.723   6.089
 2575SOL    HW2 8625   6.928   5.758   6.133
 2576SOL     OW 8626   4.732   6.341   4.010
 2576SOL    HW1 8627   4.770   6.431   3.988
 2576SOL    HW2 8628   4.667   6.314   3.939
 2577SOL     OW 8629   2.545   4.636   2.185
 2577SOL    HW1 8630   2.501   4.721   2.159
 2577SOL    HW2 8631   2.637   4.632   2.145
 2578SOL     OW 8632   4.263   1.799   3.622
 2578SOL    HW1 8633   4.258   1.867   3.549
 2578SOL    HW2 8634   4.171   1.768   3.646
 2579SOL     OW 8635   0.865   6.313   3.769
 2579SOL    HW1 8636   0.852   6.237   3.705
 2579SOL    HW2 8637   0.957   6.308   3.809
 2580SOL     OW 8638   2.300   3.016   0.024
 2580SOL    HW1 8639   2.307   3.067   6.963
 2580SOL    HW2 8640   2.210   3.029   0.065
 2581SOL     OW 8641   2.932   6.863   5.501
 2581SOL    HW1 8642   2.847   6.851   5.449
 2581SOL    HW2 8643   2.995   6.920   5.448
 2582SOL     OW 8644   0.244   3.060   1.324
 2582SOL    HW1 8645   0.267   2.987   1.388
 2582SOL    HW2 8646   0.322   3.121   1.314
 2583SOL     OW 8647   5.775   6.796   1.054
 2583SOL    HW1 8648   5.839   6.842   0.993
 2583SOL    HW2 8649   5.715   6.864   1.097
 2584SOL     OW 8650   4.329   4.814   5.321
 2584SOL    HW1 8651   4.319   4.863   5.408
 2584SOL    HW2 8652   4.403   4.856   5.267
 2585SOL     OW 8653   3.309   5.091   6.704
 2585SOL    HW1 8654   3.375   5.095   6.780
 2585SOL    HW2 8655   3.250   5.012   6.715
 2586SOL     OW 8656   2.028   0.694   4.775
 2586SOL    HW1 8657   2.012   0.626   4.703
 2586SOL    HW2 8658   2.075   0.650   4.852
 2587SOL     OW 8659   6.479   1.181   3.287
 2587SOL    HW1 8660   6.456   1.111   3.220
 2587SOL    HW2 8661   6.521   1.259   3.241
 2588SOL     OW 8662   4.588   0.708   5.433
 2588SOL    HW1 8663   4.534   0.791   5.449
 2588SOL    HW2 8664   4.585   0.685   5.336
 2589SOL     OW 8665   1.396   6.603   6.895
 2589SOL    HW1 8666   1.366   6.680   6.950
 2589SOL    HW2 8667   1.337   6.595   6.814
 2590SOL     OW 8668   2.909   4.997   0.427
 2590SOL    HW1 8669   2.815   4.970   0.450
 2590SOL    HW2 8670   2.956   5.027   0.510
 2591SOL     OW 8671   5.953   5.481   4.047
 2591SOL    HW1 8672   5.961   5.420   3.968
 2591SOL    HW2 8673   5.873   5.456   4.101
 2592SOL     OW 8674   2.449   4.869   0.046
 2592SOL    HW1 8675   2.510   4.823   0.111
 2592SOL    HW2 8676   2.400   4.800   7.017
 2593SOL     OW 8677   3.105   3.811   0.515
 2593SOL    HW1 8678   3.061   3.793   0.427
 2593SOL    HW2 8679   3.191   3.860   0.500
 2594SOL     OW 8680   1.725   4.073   4.421
 2594SOL    HW1 8681   1.633   4.037   4.433
 2594SOL    HW2 8682   1.790   3.996   4.420
 2595SOL     OW 8683   1.676   0.938   3.582
 2595SOL    HW1 8684   1.754   0.998   3.565
 2595SOL    HW2 8685   1.696   0.846   3.550
 2596SOL     OW 8686   1.248   2.364   6.977
 2596SOL    HW1 8687   1.327   2.382   0.010
 2596SOL    HW2 8688   1.273   2.300   6.905
 2597SOL     OW 8689   6.740   5.912   6.373
 2597SOL    HW1 8690   6.726   5.876   6.281
 2597SOL    HW2 8691   6.728   5.839   6.440
 2598SOL     OW 8692   5.615   2.855   2.284
 2598SOL    HW1 8693   5.524   2.857   2.242
 2598SOL    HW2 8694   5.645   2.761   2.295
 2599SOL     OW 8695   2.792   6.589   2.073
 2599SOL    HW1 8696   2.740   6.577   1.989
 2599SOL    HW2 8697   2.764   6.519   2.139
 2600SOL     OW 8698   6.362   4.055   4.353
 2600SOL    HW1 8699   6.418   4.099   4.283
 2600SOL    HW2 8700   6.323   3.970   4.316
 2601SOL     OW 8701   0.401   2.194   3.371
 2601SOL    HW1 8702   0.382   2.110   3.319
 2601SOL    HW2 8703   0.345   2.195   3.454
 2602SOL     OW 8704   1.701   5.042   3.736
 2602SOL    HW1 8705   1.743   4.977   3.799
 2602SOL    HW2 8706   1.763   5.120   3.721
 2603SOL     OW 8707   2.693   0.282   3.080
 2603SOL    HW1 8708   2.712   0.333   3.164
 2603SOL    HW2 8709   2.735   0.330   3.002
 2604SOL     OW 8710   4.423   2.424   2.725
 2604SOL    HW1 8711   4.328   2.456   2.730
 2604SOL    HW2 8712   4.424   2.324   2.732
 2605SOL     OW 8713   1.539   3.691   1.968
 2605SOL    HW1 8714   1.525   3.744   2.051
 2605SOL    HW2 8715   1.624   3.639   1.976
 2606SOL     OW 8716   4.571   3.614   1.096
 2606SOL    HW1 8717   4.588   3.597   1.193
 2606SOL    HW2 8718   4.478   3.588   1.073
 2607SOL     OW 8719   2.523   1.917   1.227
 2607SOL    HW1 8720   2.623   1.912   1.221
 2607SOL    HW2 8721   2.492   2.006   1.193
 2608SOL     OW 8722   2.428   5.466   5.669
 2608SOL    HW1 8723   2.347   5.416   5.642
 2608SOL    HW2 8724   2.490   5.406   5.719
 2609SOL     OW 8725   7.004   1.391   0.690
 2609SOL    HW1 8726   0.067   1.381   0.644
 2609SOL    HW2 8727   7.018   1.388   0.789
 2610SOL     OW 8728   1.326   4.594   4.494
 2610SOL    HW1 8729   1.405   4.532   4.498
 2610SOL    HW2 8730   1.272   4.585   4.577
 2611SOL     OW 8731   5.538   0.025   6.439
 2611SOL    HW1 8732   5.465   0.074   6.486
 2611SOL    HW2 8733   5.531   0.040   6.340
 2612SOL     OW 8734   6.112   6.936   5.765
 2612SOL    HW1 8735   6.072   7.012   5.817
 2612SOL    HW2 8736   6.187   6.970   5.708
 2613SOL     OW 8737   1.234   5.790   6.704
 2613SOL    HW1 8738   1.277   5.759   6.789
 2613SOL    HW2 8739   1.206   5.885   6.714
 2614SOL     OW 8740   6.896   1.178   6.414
 2614SOL    HW1 8741   6.854   1.089   6.430
 2614SOL    HW2 8742   6.990   1.178   6.448
 2615SOL     OW 8743   0.730   3.218   0.362
 2615SOL    HW1 8744   0.670   3.206   0.442
 2615SOL    HW2 8745   0.793   3.140   0.356
 2616SOL     OW 8746   1.562   0.170   5.370
 2616SOL    HW1 8747   1.480   0.182   5.315
 2616SOL    HW2 8748   1.612   0.257   5.375
 2617SOL     OW 8749   5.583   0.168   1.383
 2617SOL    HW1 8750   5.573   0.249   1.325
 2617SOL    HW2 8751   5.632   0.193   1.467
 2618SOL     OW 8752   0.973   6.477   6.108
 2618SOL    HW1 8753   0.887   6.478   6.058
 2618SOL    HW2 8754   0.994   6.384   6.138
 2619SOL     OW 8755   4.900   1.214   2.595
 2619SOL    HW1 8756   4.818   1.159   2.612
 2619SOL    HW2 8757   4.909   1.232   2.497
 2620SOL     OW 8758   6.235   0.844   1.147
 2620SOL    HW1 8759   6.259   0.895   1.064
 2620SOL    HW2 8760   6.260   0.899   1.227
 2621SOL     OW 8761   1.598   6.358   1.750
 2621SOL    HW1 8762   1.572   6.280   1.693
 2621SOL    HW2 8763   1.684   6.338   1.797
 2622SOL     OW 8764   3.354   3.119   6.438
 2622SOL    HW1 8765   3.401   3.031   6.429
 2622SOL    HW2 8766   3.276   3.122   6.375
 2623SOL     OW 8767   0.859   6.566   3.622
 2623SOL    HW1 8768   0.842   6.480   3.668
 2623SOL    HW2 8769   0.820   6.563   3.530
 2624SOL     OW 8770   0.442   1.345   4.919
 2624SOL    HW1 8771   0.464   1.441   4.936
 2624SOL    HW2 8772   0.440   1.296   5.007
 2625SOL     OW 8773   2.146   5.311   6.243
 2625SOL    HW1 8774   2.202   5.360   6.177
 2625SOL    HW2 8775   2.185   5.322   6.334
 2626SOL     OW 8776   6.844   5.575   6.579
 2626SOL    HW1 8777   6.923   5.515   6.566
 2626SOL    HW2 8778   6.767   5.539   6.526
 2627SOL     OW 8779   1.836   6.788   5.335
 2627SOL    HW1 8780   1.813   6.732   5.256
 2627SOL    HW2 8781   1.753   6.829   5.372
 2628SOL     OW 8782   0.419   5.074   2.684
 2628SOL    HW1 8783   0.344   5.120   2.731
 2628SOL    HW2 8784   0.403   4.975   2.686
 2629SOL     OW 8785   3.386   3.861   2.707
 2629SOL    HW1 8786   3.383   3.835   2.610
 2629SOL    HW2 8787   3.300   3.905   2.732
 2630SOL     OW 8788   4.035   0.729   3.624
 2630SOL    HW1 8789   4.004   0.651   3.678
 2630SOL    HW2 8790   4.050   0.701   3.529
 2631SOL     OW 8791   6.208   0.456   6.956
 2631SOL    HW1 8792   6.245   0.479   6.866
 2631SOL    HW2 8793   6.162   0.535   6.995
 2632SOL     OW 8794   5.119   4.295   2.099
 2632SOL    HW1 8795   5.140   4.341   2.013
 2632SOL    HW2 8796   5.105   4.363   2.171
 2633SOL     OW 8797   0.137   3.323   5.959
 2633SOL    HW1 8798   0.199   3.307   6.036
 2633SOL    HW2 8799   0.083   3.405   5.975
 2634SOL     OW 8800   0.609   0.935   5.956
 2634SOL    HW1 8801   0.540   0.875   5.916
 2634SOL    HW2 8802   0.569   1.025   5.974
 2635SOL     OW 8803   5.387   5.076   3.196
 2635SOL    HW1 8804   5.440   5.146   3.149
 2635SOL    HW2 8805   5.374   5.102   3.292
 2636SOL     OW 8806   3.602   5.693   5.354
 2636SOL    HW1 8807   3.636   5.740   5.435
 2636SOL    HW2 8808   3.503   5.699   5.350
 2637SOL     OW 8809   0.456   1.581   3.614
 2637SOL    HW1 8810   0.451   1.511   3.685
 2637SOL    HW2 8811   0.413   1.665   3.647
 2638SOL     OW 8812   0.678   6.195   4.305
 2638SOL    HW1 8813   0.711   6.289   4.316
 2638SOL    HW2 8814   0.679   6.149   4.393
 2639SOL     OW 8815   4.087   4.839   5.137
 2639SOL    HW1 8816   3.988   4.833   5.134
 2639SOL    HW2 8817   4.115   4.905   5.207
 2640SOL     OW 8818   1.674   6.972   3.892
 2640SOL    HW1 8819   1.579   6.955   3.866
 2640SOL    HW2 8820   1.732   6.899   3.857
 2641SOL     OW 8821   5.778   2.814   6.995
 2641SOL    HW1 8822   5.785   2.768   6.907
 2641SOL    HW2 8823   5.853   2.784   0.030
 2642SOL     OW 8824   6.073   1.392   3.721
 2642SOL    HW1 8825   6.062   1.398   3.621
 2642SOL    HW2 8826   5.985   1.370   3.763
 2643SOL     OW 8827   2.187   4.872   3.630
 2643SOL    HW1 8828   2.217   4.865   3.726
 2643SOL    HW2 8829   2.244   4.812   3.574
 2644SOL     OW 8830   5.127   5.209   4.974
 2644SOL    HW1 8831   5.074   5.265   5.039
 2644SOL    HW2 8832   5.076   5.126   4.953
 2645SOL     OW 8833   5.054   5.526   3.763
 2645SOL    HW1 8834   5.134   5.569   3.804
 2645SOL    HW2 8835   5.072   5.507   3.666
 2646SOL     OW 8836   0.727   2.511   6.229
 2646SOL    HW1 8837   0.739   2.437   6.164
 2646SOL    HW2 8838   0.707   2.473   6.320
 2647SOL     OW 8839   5.415   0.487   1.920
 2647SOL    HW1 8840   5.495   0.543   1.940
 2647SOL    HW2 8841   5.332   0.542   1.932
 2648SOL     OW 8842   0.861   0.438   6.732
 2648SOL    HW1 8843   0.791   0.436   6.804
 2648SOL    HW2 8844   0.818   0.463   6.645
 2649SOL     OW 8845   5.006   1.963   2.047
 2649SOL    HW1 8846   5.029   1.899   1.974
 2649SOL    HW2 8847   4.926   2.017   2.020
 2650SOL     OW 8848   2.533   6.255   4.067
 2650SOL    HW1 8849   2.509   6.163   4.096
 2650SOL    HW2 8850   2.632   6.269   4.079
 2651SOL     OW 8851   4.337   2.430   4.217
 2651SOL    HW1 8852   4.346   2.487   4.135
 2651SOL    HW2 8853   4.420   2.375   4.228
 2652SOL     OW 8854   5.076   3.996   5.315
 2652SOL    HW1 8855   5.000   4.052   5.282
 2652SOL    HW2 8856   5.074   3.906   5.270
 2653SOL     OW 8857   2.364   5.547   0.446
 2653SOL    HW1 8858   2.403   5.485   0.514
 2653SOL    HW2 8859   2.348   5.496   0.361
 2654SOL     OW 8860   6.379   1.047   0.327
 2654SOL    HW1 8861   6.335   1.073   0.413
 2654SOL    HW2 8862   6.388   1.127   0.268
 2655SOL     OW 8863   4.753   6.238   2.608
 2655SOL    HW1 8864   4.675   6.175   2.600
 2655SOL    HW2 8865   4.790   6.257   2.517
 2656SOL     OW 8866   3.954   6.451   3.259
 2656SOL    HW1 8867   3.932   6.354   3.252
 2656SOL    HW2 8868   3.890   6.504   3.203
 2657SOL     OW 8869   0.568   4.107   0.419
 2657SOL    HW1 8870   0.480   4.079   0.457
 2657SOL    HW2 8871   0.603   4.033   0.361
 2658SOL     OW 8872   3.674   5.370   0.313
 2658SOL    HW1 8873   3.592   5.318   0.335
 2658SOL    HW2 8874   3.696   5.431   0.389
 2659SOL     OW 8875   0.437   1.891   4.936
 2659SOL    HW1 8876   0.417   1.927   5.027
 2659SOL    HW2 8877   0.367   1.923   4.871
 2660SOL     OW 8878   0.410   1.769   2.062
 2660SOL    HW1 8879   0.403   1.846   2.126
 2660SOL    HW2 8880   0.501   1.769   2.019
 2661SOL     OW 8881   1.510   1.080   0.925
 2661SOL    HW1 8882   1.428   1.025   0.905
 2661SOL    HW2 8883   1.589   1.037   0.881
 2662SOL     OW 8884   2.688   1.382   2.087
 2662SOL    HW1 8885   2.733   1.394   1.998
 2662SOL    HW2 8886   2.689   1.469   2.137
 2663SOL     OW 8887   4.037   6.787   0.118
 2663SOL    HW1 8888   4.025   6.756   0.212
 2663SOL    HW2 8889   4.057   6.885   0.117
 2664SOL     OW 8890   4.727   3.817   5.409
 2664SOL    HW1 8891   4.672   3.900   5.410
 2664SOL    HW2 8892   4.779   3.811   5.494
 2665SOL     OW 8893   2.121   3.962   4.819
 2665SOL    HW1 8894   2.161   4.021   4.749
 2665SOL    HW2 8895   2.155   3.990   4.909
 2666SOL     OW 8896   2.164   3.905   2.231
 2666SOL    HW1 8897   2.196   3.850   2.308
 2666SOL    HW2 8898   2.206   3.995   2.235
 2667SOL     OW 8899   6.921   2.873   4.748
 2667SOL    HW1 8900   6.908   2.832   4.838
 2667SOL    HW2 8901   7.017   2.868   4.722
 2668SOL     OW 8902   6.322   0.569   3.725
 2668SOL    HW1 8903   6.378   0.649   3.746
 2668SOL    HW2 8904   6.248   0.562   3.792
 2669SOL     OW 8905   2.657   0.748   6.792
 2669SOL    HW1 8906   2.671   0.778   6.698
 2669SOL    HW2 8907   2.586   0.804   6.835
 2670SOL     OW 8908   0.696   0.403   6.982
 2670SOL    HW1 8909   0.717   0.366   0.048
 2670SOL    HW2 8910   0.601   0.435   6.980
 2671SOL     OW 8911   5.140   4.586   5.855
 2671SOL    HW1 8912   5.191   4.661   5.813
 2671SOL    HW2 8913   5.043   4.608   5.856
 2672SOL     OW 8914   3.523   1.433   2.179
 2672SOL    HW1 8915   3.513   1.499   2.104
 2672SOL    HW2 8916   3.471   1.350   2.157
 2673SOL     OW 8917   3.502   0.283   2.602
 2673SOL    HW1 8918   3.588   0.279   2.653
 2673SOL    HW2 8919   3.509   0.226   2.520
 2674SOL     OW 8920   0.232   5.289   2.732
 2674SOL    HW1 8921   0.142   5.332   2.737
 2674SOL    HW2 8922   0.292   5.342   2.672
 2675SOL     OW 8923   5.399   0.567   4.227
 2675SOL    HW1 8924   5.446   0.479   4.214
 2675SOL    HW2 8925   5.302   0.556   4.205
 2676SOL     OW 8926   4.095   3.675   3.249
 2676SOL    HW1 8927   4.145   3.661   3.335
 2676SOL    HW2 8928   4.022   3.742   3.264
 2677SOL     OW 8929   2.507   4.966   1.186
 2677SOL    HW1 8930   2.584   5.025   1.161
 2677SOL    HW2 8931   2.522   4.929   1.278
 2678SOL     OW 8932   4.204   1.845   3.150
 2678SOL    HW1 8933   4.165   1.826   3.059
 2678SOL    HW2 8934   4.275   1.778   3.170
 2679SOL     OW 8935   1.985   3.534   2.767
 2679SOL    HW1 8936   1.968   3.435   2.771
 2679SOL    HW2 8937   2.030   3.556   2.680
 2680SOL     OW 8938   6.024   1.610   0.166
 2680SOL    HW1 8939   6.106   1.664   0.149
 2680SOL    HW2 8940   6.049   1.528   0.218
 2681SOL     OW 8941   1.937   2.250   4.196
 2681SOL    HW1 8942   1.961   2.344   4.173
 2681SOL    HW2 8943   1.935   2.239   4.295
 2682SOL     OW 8944   3.987   4.159   1.677
 2682SOL    HW1 8945   4.075   4.135   1.717
 2682SOL    HW2 8946   3.938   4.076   1.650
 2683SOL     OW 8947   2.213   4.314   1.907
 2683SOL    HW1 8948   2.276   4.367   1.965
 2683SOL    HW2 8949   2.216   4.218   1.934
 2684SOL     OW 8950   6.683   6.775   4.181
 2684SOL    HW1 8951   6.773   6.812   4.158
 2684SOL    HW2 8952   6.612   6.830   4.136
 2685SOL     OW 8953   0.832   5.565   5.861
 2685SOL    HW1 8954   0.925   5.572   5.895
 2685SOL    HW2 8955   0.825   5.609   5.771
 2686SOL     OW 8956   0.477   1.177   5.368
 2686SOL    HW1 8957   0.489   1.167   5.467
 2686SOL    HW2 8958   0.549   1.126   5.320
 2687SOL     OW 8959   4.053   1.849   1.472
 2687SOL    HW1 8960   4.139   1.808   1.500
 2687SOL    HW2 8961   3.980   1.780   1.475
 2688SOL     OW 8962   4.025   2.972   6.333
 2688SOL    HW1 8963   3.981   3.042   6.278
 2688SOL    HW2 8964   3.961   2.898   6.352
 2689SOL     OW 8965   1.461   4.248   3.292
 2689SOL    HW1 8966   1.465   4.173   3.226
 2689SOL    HW2 8967   1.382   4.306   3.272
 2690SOL     OW 8968   4.435   1.613   5.819
 2690SOL    HW1 8969   4.354   1.668   5.838
 2690SOL    HW2 8970   4.446   1.543   5.890
 2691SOL     OW 8971   6.701   3.639   4.986
 2691SOL    HW1 8972   6.694   3.714   5.052
 2691SOL    HW2 8973   6.627   3.646   4.919
 2692SOL     OW 8974   2.473   6.490   2.199
 2692SOL    HW1 8975   2.570   6.464   2.204
 2692SOL    HW2 8976   2.425   6.425   2.139
 2693SOL     OW 8977   1.448   6.239   3.088
 2693SOL    HW1 8978   1.537   6.249   3.133
 2693SOL    HW2 8979   1.436   6.144   3.057
 2694SOL     OW 8980   2.811   0.452   2.904
 2694SOL    HW1 8981   2.884   0.407   2.852
 2694SOL    HW2 8982   2.779   0.532   2.853
 2695SOL     OW 8983   6.950   5.517   3.830
 2695SOL    HW1 8984   6.998   5.490   3.746
 2695SOL    HW2 8985   6.935   5.616   3.829
 2696SOL     OW 8986   5.359   4.676   6.009
 2696SOL    HW1 8987   5.368   4.722   5.921
 2696SOL    HW2 8988   5.272   4.626   6.012
 2697SOL     OW 8989   4.179   2.632   6.498
 2697SOL    HW1 8990   4.108   2.563   6.490
 2697SOL    HW2 8991   4.153   2.700   6.567
 2698SOL     OW 8992   1.620   5.108   5.893
 2698SOL    HW1 8993   1.521   5.101   5.880
 2698SOL    HW2 8994   1.639   5.152   5.981
 2699SOL     OW 8995   2.712   6.389   2.243
 2699SOL    HW1 8996   2.699   6.300   2.199
 2699SOL    HW2 8997   2.805   6.394   2.280
 2700SOL     OW 8998   3.952   1.785   1.912
 2700SOL    HW1 8999   3.916   1.738   1.992
 2700SOL    HW2 9000   4.051   1.770   1.906
 2701SOL     OW 9001   5.129   3.070   5.017
 2701SOL    HW1 9002   5.126   2.978   5.057
 2701SOL    HW2 9003   5.086   3.134   5.080
 2702SOL     OW 9004   2.698   0.876   4.916
 2702SOL    HW1 9005   2.679   0.942   4.989
 2702SOL    HW2 9006   2.660   0.910   4.830
 2703SOL     OW 9007   2.014   6.826   2.719
 2703SOL    HW1 9008   2.020   6.923   2.698
 2703SOL    HW2 9009   1.918   6.800   2.730
 2704SOL     OW 9010   5.505   0.711   3.602
 2704SOL    HW1 9011   5.589   0.697   3.549
 2704SOL    HW2 9012   5.530   0.726   3.698
 2705SOL     OW 9013   0.599   0.720   5.696
 2705SOL    HW1 9014   0.589   0.807   5.647
 2705SOL    HW2 9015   0.692   0.714   5.733
 2706SOL     OW 9016   7.004   3.966   3.669
 2706SOL    HW1 9017   6.941   3.993   3.596
 2706SOL    HW2 9018   0.032   3.886   3.639
 2707SOL     OW 9019   4.381   1.255   2.722
 2707SOL    HW1 9020   4.432   1.284   2.640
 2707SOL    HW2 9021   4.419   1.301   2.802
 2708SOL     OW 9022   5.416   3.695   6.247
 2708SOL    HW1 9023   5.514   3.680   6.251
 2708SOL    HW2 9024   5.398   3.791   6.224
 2709SOL     OW 9025   5.179   1.436   5.553
 2709SOL    HW1 9026   5.235   1.445   5.471
 2709SOL    HW2 9027   5.126   1.520   5.566
 2710SOL     OW 9028   0.152   2.509   4.433
 2710SOL    HW1 9029   0.054   2.494   4.419
 2710SOL    HW2 9030   0.173   2.508   4.530
 2711SOL     OW 9031   3.467   1.211   1.778
 2711SOL    HW1 9032   3.414   1.180   1.699
 2711SOL    HW2 9033   3.455   1.146   1.853
 2712SOL     OW 9034   3.583   6.179   2.033
 2712SOL    HW1 9035   3.670   6.227   2.028
 2712SOL    HW2 9036   3.578   6.112   1.958
 2713SOL     OW 9037   3.546   4.808   5.492
 2713SOL    HW1 9038   3.455   4.787   5.529
 2713SOL    HW2 9039   3.615   4.753   5.539
 2714SOL     OW 9040   3.316   4.678   6.340
 2714SOL    HW1 9041   3.227   4.632   6.345
 2714SOL    HW2 9042   3.306   4.773   6.369
 2715SOL     OW 9043   4.439   1.099   6.921
 2715SOL    HW1 9044   4.411   1.029   6.987
 2715SOL    HW2 9045   4.393   1.082   6.833
 2716SOL     OW 9046   4.009   1.662   2.913
 2716SOL    HW1 9047   4.061   1.578   2.928
 2716SOL    HW2 9048   3.911   1.642   2.915
 2717SOL     OW 9049   0.527   1.226   2.420
 2717SOL    HW1 9050   0.512   1.159   2.348
 2717SOL    HW2 9051   0.490   1.314   2.392
 2718SOL     OW 9052   0.453   0.681   5.921
 2718SOL    HW1 9053   0.491   0.694   5.830
 2718SOL    HW2 9054   0.394   0.600   5.923
 2719SOL     OW 9055   1.532   4.827   2.711
 2719SOL    HW1 9056   1.601   4.757   2.732
 2719SOL    HW2 9057   1.504   4.873   2.795
 2720SOL     OW 9058   2.128   6.250   6.472
 2720SOL    HW1 9059   2.192   6.314   6.428
 2720SOL    HW2 9060   2.108   6.175   6.409
 2721SOL     OW 9061   3.058   6.282   1.643
 2721SOL    HW1 9062   2.974   6.276   1.590
 2721SOL    HW2 9063   3.094   6.375   1.637
 2722SOL     OW 9064   4.100   5.778   6.953
 2722SOL    HW1 9065   4.153   5.734   6.880
 2722SOL    HW2 9066   4.093   5.716   0.006
 2723SOL     OW 9067   3.233   6.226   6.854
 2723SOL    HW1 9068   3.316   6.200   6.904
 2723SOL    HW2 9069   3.247   6.208   6.756
 2724SOL     OW 9070   0.766   6.556   1.030
 2724SOL    HW1 9071   0.674   6.515   1.030
 2724SOL    HW2 9072   0.766   6.636   1.090
 2725SOL     OW 9073   6.055   4.052   4.593
 2725SOL    HW1 9074   6.144   4.096   4.580
 2725SOL    HW2 9075   5.996   4.112   4.648
 2726SOL     OW 9076   6.033   1.935   2.393
 2726SOL    HW1 9077   6.112   1.962   2.337
 2726SOL    HW2 9078   6.046   1.842   2.428
 2727SOL     OW 9079   1.415   5.265   3.385
 2727SOL    HW1 9080   1.360   5.226   3.312
 2727SOL    HW2 9081   1.367   5.256   3.472
 2728SOL     OW 9082   4.616   5.497   5.484
 2728SOL    HW1 9083   4.597   5.440   5.404
 2728SOL    HW2 9084   4.531   5.536   5.518
 2729SOL     OW 9085   5.427   0.153   6.115
 2729SOL    HW1 9086   5.346   0.199   6.153
 2729SOL    HW2 9087   5.467   0.211   6.043
 2730SOL     OW 9088   1.126   5.893   1.866
 2730SOL    HW1 9089   1.053   5.829   1.888
 2730SOL    HW2 9090   1.086   5.977   1.829
 2731SOL     OW 9091   3.141   3.853   4.097
 2731SOL    HW1 9092   3.199   3.897   4.165
 2731SOL    HW2 9093   3.048   3.844   4.133
 2732SOL     OW 9094   5.610   0.471   2.215
 2732SOL    HW1 9095   5.691   0.422   2.247
 2732SOL    HW2 9096   5.622   0.493   2.118
 2733SOL     OW 9097   1.280   6.550   6.649
 2733SOL    HW1 9098   1.180   6.545   6.652
 2733SOL    HW2 9099   1.316   6.471   6.599
 2734SOL     OW 9100   3.330   6.382   2.595
 2734SOL    HW1 9101   3.263   6.318   2.632
 2734SOL    HW2 9102   3.363   6.441   2.669
 2735SOL     OW 9103   0.603   1.629   1.552
 2735SOL    HW1 9104   0.672   1.658   1.485
 2735SOL    HW2 9105   0.557   1.710   1.589
 2736SOL     OW 9106   4.782   4.410   2.924
 2736SOL    HW1 9107   4.694   4.408   2.972
 2736SOL    HW2 9108   4.792   4.496   2.876
 2737SOL     OW 9109   3.100   0.513   5.298
 2737SOL    HW1 9110   3.015   0.476   5.260
 2737SOL    HW2 9111   3.129   0.591   5.243
 2738SOL     OW 9112   5.028   6.118   1.697
 2738SOL    HW1 9113   4.987   6.026   1.698
 2738SOL    HW2 9114   5.043   6.148   1.791
 2739SOL     OW 9115   6.740   5.594   1.701
 2739SOL    HW1 9116   6.704   5.649   1.777
 2739SOL    HW2 9117   6.825   5.635   1.667
 2740SOL     OW 9118   6.500   5.716   3.463
 2740SOL    HW1 9119   6.414   5.670   3.486
 2740SOL    HW2 9120   6.577   5.659   3.491
 2741SOL     OW 9121   1.853   0.772   5.704
 2741SOL    HW1 9122   1.773   0.768   5.644
 2741SOL    HW2 9123   1.826   0.807   5.793
 2742SOL     OW 9124   2.971   5.657   1.706
 2742SOL    HW1 9125   2.898   5.636   1.771
 2742SOL    HW2 9126   3.034   5.724   1.746
 2743SOL     OW 9127   5.659   2.571   2.337
 2743SOL    HW1 9128   5.613   2.566   2.425
 2743SOL    HW2 9129   5.607   2.519   2.269
 2744SOL     OW 9130   3.432   3.828   2.434
 2744SOL    HW1 9131   3.475   3.738   2.441
 2744SOL    HW2 9132   3.356   3.823   2.370
 2745SOL     OW 9133   0.565   6.670   0.361
 2745SOL    HW1 9134   0.653   6.641   0.323
 2745SOL    HW2 9135   0.581   6.733   0.437
 2746SOL     OW 9136   0.970   1.289   3.642
 2746SOL    HW1 9137   0.964   1.362   3.710
 2746SOL    HW2 9138   1.065   1.279   3.612
 2747SOL     OW 9139   3.693   4.852   0.873
 2747SOL    HW1 9140   3.641   4.864   0.788
 2747SOL    HW2 9141   3.788   4.828   0.852
 2748SOL     OW 9142   4.101   0.188   0.808
 2748SOL    HW1 9143   4.153   0.107   0.784
 2748SOL    HW2 9144   4.124   0.262   0.745
 2749SOL     OW 9145   3.546   2.235   0.179
 2749SOL    HW1 9146   3.519   2.173   0.253
 2749SOL    HW2 9147   3.486   2.315   0.180
 2750SOL     OW 9148   2.856   5.846   2.192
 2750SOL    HW1 9149   2.789   5.862   2.264
 2750SOL    HW2 9150   2.882   5.934   2.151
 2751SOL     OW 9151   5.610   4.782   1.176
 2751SOL    HW1 9152   5.548   4.860   1.172
 2751SOL    HW2 9153   5.703   4.815   1.195
 2752SOL     OW 9154   3.640   5.247   6.858
 2752SOL    HW1 9155   3.709   5.184   6.821
 2752SOL    HW2 9156   3.552   5.200   6.863
 2753SOL     OW 9157   6.140   5.273   5.353
 2753SOL    HW1 9158   6.198   5.324   5.291
 2753SOL    HW2 9159   6.151   5.175   5.337
 2754SOL     OW 9160   1.288   6.735   6.321
 2754SOL    HW1 9161   1.283   6.671   6.245
 2754SOL    HW2 9162   1.202   6.732   6.373
 2755SOL     OW 9163   3.195   0.619   2.358
 2755SOL    HW1 9164   3.125   0.658   2.299
 2755SOL    HW2 9165   3.266   0.687   2.375
 2756SOL     OW 9166   4.781   6.333   0.598
 2756SOL    HW1 9167   4.782   6.236   0.571
 2756SOL    HW2 9168   4.821   6.342   0.689
 2757SOL     OW 9169   0.629   5.195   1.301
 2757SOL    HW1 9170   0.685   5.216   1.221
 2757SOL    HW2 9171   0.547   5.146   1.271
 2758SOL     OW 9172   4.948   0.557   6.147
 2758SOL    HW1 9173   4.906   0.485   6.091
 2758SOL    HW2 9174   4.876   0.610   6.191
 2759SOL     OW 9175   5.096   5.966   4.737
 2759SOL    HW1 9176   5.149   5.892   4.697
 2759SOL    HW2 9177   5.128   5.984   4.830
 2760SOL     OW 9178   2.477   5.507   3.371
 2760SOL    HW1 9179   2.558   5.527   3.316
 2760SOL    HW2 9180   2.505   5.482   3.464
 2761SOL     OW 9181   1.970   5.543   3.154
 2761SOL    HW1 9182   2.009   5.453   3.174
 2761SOL    HW2 9183   1.966   5.558   3.055
 2762SOL     OW 9184   1.394   6.831   4.920
 2762SOL    HW1 9185   1.469   6.775   4.885
 2762SOL    HW2 9186   1.415   6.860   5.014
 2763SOL     OW 9187   5.486   1.831   1.847
 2763SOL    HW1 9188   5.482   1.876   1.757
 2763SOL    HW2 9189   5.441   1.742   1.841
 2764SOL     OW 9190   6.536   0.997   1.908
 2764SOL    HW1 9191   6.503   1.090   1.923
 2764SOL    HW2 9192   6.523   0.943   1.991
 2765SOL     OW 9193   5.299   1.615   1.847
 2765SOL    HW1 9194   5.346   1.584   1.929
 2765SOL    HW2 9195   5.278   1.537   1.789
 2766SOL     OW 9196   5.922   0.717   2.661
 2766SOL    HW1 9197   5.991   0.781   2.626
 2766SOL    HW2 9198   5.835   0.732   2.613
 2767SOL     OW 9199   5.885   4.541   6.127
 2767SOL    HW1 9200   5.953   4.526   6.198
 2767SOL    HW2 9201   5.854   4.453   6.091
 2768SOL     OW 9202   6.178   1.202   6.841
 2768SOL    HW1 9203   6.087   1.236   6.863
 2768SOL    HW2 9204   6.174   1.145   6.759
 2769SOL     OW 9205   1.066   3.883   1.367
 2769SOL    HW1 9206   1.149   3.938   1.359
 2769SOL    HW2 9207   1.013   3.889   1.282
 2770SOL     OW 9208   6.662   5.439   1.323
 2770SOL    HW1 9209   6.739   5.375   1.319
 2770SOL    HW2 9210   6.665   5.489   1.409
 2771SOL     OW 9211   4.964   1.080   1.419
 2771SOL    HW1 9212   4.885   1.139   1.409
 2771SOL    HW2 9213   4.946   1.012   1.490
 2772SOL     OW 9214   3.389   2.821   5.923
 2772SOL    HW1 9215   3.296   2.852   5.905
 2772SOL    HW2 9216   3.398   2.725   5.897
 2773SOL     OW 9217   3.381   3.876   6.583
 2773SOL    HW1 9218   3.472   3.853   6.616
 2773SOL    HW2 9219   3.330   3.793   6.561
 2774SOL     OW 9220   5.655   3.648   2.404
 2774SOL    HW1 9221   5.737   3.643   2.347
 2774SOL    HW2 9222   5.577   3.612   2.354
 2775SOL     OW 9223   7.015   6.134   1.849
 2775SOL    HW1 9224   0.044   6.200   1.796
 2775SOL    HW2 9225   6.968   6.181   1.924
 2776SOL     OW 9226   3.172   5.817   6.161
 2776SOL    HW1 9227   3.195   5.862   6.075
 2776SOL    HW2 9228   3.077   5.836   6.184
 2777SOL     OW 9229   3.617   1.723   2.737
 2777SOL    HW1 9230   3.682   1.767   2.675
 2777SOL    HW2 9231   3.577   1.791   2.798
 2778SOL     OW 9232   2.508   1.597   5.279
 2778SOL    HW1 9233   2.430   1.557   5.327
 2778SOL    HW2 9234   2.585   1.533   5.282
 2779SOL     OW 9235   5.918   1.018   0.108
 2779SOL    HW1 9236   5.865   1.091   0.151
 2779SOL    HW2 9237   5.956   0.958   0.178
 2780SOL     OW 9238   5.090   5.240   0.034
 2780SOL    HW1 9239   5.105   5.328   7.014
 2780SOL    HW2 9240   5.164   5.223   0.100
 2781SOL     OW 9241   4.713   4.446   0.127
 2781SOL    HW1 9242   4.720   4.346   0.130
 2781SOL    HW2 9243   4.620   4.472   0.102
 2782SOL     OW 9244   3.051   2.440   6.414
 2782SOL    HW1 9245   3.072   2.371   6.344
 2782SOL    HW2 9246   2.952   2.447   6.425
 2783SOL     OW 9247   0.226   4.458   5.192
 2783SOL    HW1 9248   0.285   4.494   5.264
 2783SOL    HW2 9249   0.149   4.410   5.232
 2784SOL     OW 9250   2.128   2.088   2.110
 2784SOL    HW1 9251   2.219   2.128   2.124
 2784SOL    HW2 9252   2.105   2.093   2.013
 2785SOL     OW 9253   6.284   0.977   1.382
 2785SOL    HW1 9254   6.331   1.063   1.363
 2785SOL    HW2 9255   6.293   0.955   1.479
 2786SOL     OW 9256   3.849   0.098   1.413
 2786SOL    HW1 9257   3.869   0.072   1.508
 2786SOL    HW2 9258   3.857   0.018   1.354
 2787SOL     OW 9259   1.998   2.296   5.579
 2787SOL    HW1 9260   2.011   2.325   5.484
 2787SOL    HW2 9261   2.085   2.262   5.615
 2788SOL     OW 9262   1.259   3.688   0.543
 2788SOL    HW1 9263   1.165   3.670   0.513
 2788SOL    HW2 9264   1.317   3.703   0.463
 2789SOL     OW 9265   6.970   1.716   4.215
 2789SOL    HW1 9266   6.960   1.691   4.119
 2789SOL    HW2 9267   6.929   1.806   4.231
 2790SOL     OW 9268   4.149   5.327   3.352
 2790SOL    HW1 9269   4.229   5.313   3.294
 2790SOL    HW2 9270   4.118   5.421   3.345
 2791SOL     OW 9271   1.881   2.753   3.715
 2791SOL    HW1 9272   1.804   2.791   3.663
 2791SOL    HW2 9273   1.855   2.664   3.753
 2792SOL     OW 9274   0.862   2.342   5.435
 2792SOL    HW1 9275   0.892   2.310   5.345
 2792SOL    HW2 9276   0.924   2.307   5.505
 2793SOL     OW 9277   5.329   1.277   3.400
 2793SOL    HW1 9278   5.245   1.235   3.435
 2793SOL    HW2 9279   5.307   1.369   3.366
 2794SOL     OW 9280   1.126   0.627   1.268
 2794SOL    HW1 9281   1.152   0.716   1.232
 2794SOL    HW2 9282   1.028   0.613   1.253
 2795SOL     OW 9283   2.309   4.076   2.013
 2795SOL    HW1 9284   2.339   3.981   2.022
 2795SOL    HW2 9285   2.304   4.118   2.104
 2796SOL     OW 9286   5.048   4.197   2.758
 2796SOL    HW1 9287   4.996   4.144   2.691
 2796SOL    HW2 9288   5.006   4.287   2.769
 2797SOL     OW 9289   4.501   4.533   4.655
 2797SOL    HW1 9290   4.465   4.625   4.672
 2797SOL    HW2 9291   4.489   4.477   4.736
 2798SOL     OW 9292   1.609   3.639   4.217
 2798SOL    HW1 9293   1.705   3.610   4.226
 2798SOL    HW2 9294   1.556   3.602   4.293
 2799SOL     OW 9295   6.595   5.052   5.552
 2799SOL    HW1 9296   6.524   5.046   5.481
 2799SOL    HW2 9297   6.559   5.015   5.637
 2800SOL     OW 9298   2.887   3.394   6.631
 2800SOL    HW1 9299   2.891   3.492   6.614
 2800SOL    HW2 9300   2.977   3.360   6.658
 2801SOL     OW 9301   4.753   5.344   2.347
 2801SOL    HW1 9302   4.777   5.441   2.339
 2801SOL    HW2 9303   4.763   5.314   2.442
 2802SOL     OW 9304   5.167   0.840   6.217
 2802SOL    HW1 9305   5.096   0.846   6.287
 2802SOL    HW2 9306   5.231   0.767   6.241
 2803SOL     OW 9307   2.352   5.919   6.451
 2803SOL    HW1 9308   2.381   6.012   6.427
 2803SOL    HW2 9309   2.361   5.906   6.550
 2804SOL     OW 9310   6.847   4.484   3.215
 2804SOL    HW1 9311   6.749   4.485   3.233
 2804SOL    HW2 9312   6.878   4.390   3.205
 2805SOL     OW 9313   5.719   3.685   0.002
 2805SOL    HW1 9314   5.690   3.771   6.984
 2805SOL    HW2 9315   5.800   3.650   6.979
 2806SOL     OW 9316   6.203   5.938   3.547
 2806SOL    HW1 9317   6.248   6.020   3.510
 2806SOL    HW2 9318   6.114   5.926   3.503
 2807SOL     OW 9319   4.473   5.048   3.738
 2807SOL    HW1 9320   4.434   5.122   3.793
 2807SOL    HW2 9321   4.401   5.005   3.684
 2808SOL     OW 9322   4.921   7.002   4.115
 2808SOL    HW1 9323   4.941   7.012   4.018
 2808SOL    HW2 9324   4.937   6.907   4.143
 2809SOL     OW 9325   5.216   2.963   0.479
 2809SOL    HW1 9326   5.202   3.061   0.488
 2809SOL    HW2 9327   5.312   2.941   0.496
 2810SOL     OW 9328   1.794   0.177   5.162
 2810SOL    HW1 9329   1.852   0.111   5.210
 2810SOL    HW2 9330   1.841   0.265   5.158
 2811SOL     OW 9331   0.272   0.776   3.633
 2811SOL    HW1 9332   0.365   0.746   3.612
 2811SOL    HW2 9333   0.236   0.831   3.557
 2812SOL     OW 9334   4.937   3.821   2.548
 2812SOL    HW1 9335   4.915   3.785   2.458
 2812SOL    HW2 9336   5.004   3.761   2.593
 2813SOL     OW 9337   6.025   1.278   6.311
 2813SOL    HW1 9338   6.002   1.250   6.217
 2813SOL    HW2 9339   5.943   1.273   6.368
 2814SOL     OW 9340   4.906   3.903   5.100
 2814SOL    HW1 9341   4.925   4.001   5.093
 2814SOL    HW2 9342   4.911   3.862   5.009
 2815SOL     OW 9343   0.250   1.007   5.563
 2815SOL    HW1 9344   0.341   1.045   5.575
 2815SOL    HW2 9345   0.257   0.911   5.535
 2816SOL     OW 9346   5.596   6.975   3.141
 2816SOL    HW1 9347   5.613   0.048   3.133
 2816SOL    HW2 9348   5.643   6.927   3.067
 2817SOL     OW 9349   1.338   2.461   1.260
 2817SOL    HW1 9350   1.396   2.503   1.330
 2817SOL    HW2 9351   1.267   2.526   1.232
 2818SOL     OW 9352   0.023   4.740   5.123
 2818SOL    HW1 9353   0.118   4.747   5.093
 2818SOL    HW2 9354   7.004   4.665   5.073
 2819SOL     OW 9355   0.036   2.715   0.701
 2819SOL    HW1 9356   6.989   2.657   0.740
 2819SOL    HW2 9357   0.119   2.706   0.756
 2820SOL     OW 9358   6.596   3.070   4.625
 2820SOL    HW1 9359   6.651   3.004   4.574
 2820SOL    HW2 9360   6.653   3.149   4.649
 2821SOL     OW 9361   1.490   3.947   4.511
 2821SOL    HW1 9362   1.552   3.910   4.580
 2821SOL    HW2 9363   1.405   3.977   4.555
 2822SOL     OW 9364   3.865   1.556   0.148
 2822SOL    HW1 9365   3.853   1.655   0.156
 2822SOL    HW2 9366   3.796   1.509   0.202
 2823SOL     OW 9367   1.440   6.775   3.645
 2823SOL    HW1 9368   1.441   6.858   3.700
 2823SOL    HW2 9369   1.424   6.696   3.705
 2824SOL     OW 9370   3.147   1.609   4.578
 2824SOL    HW1 9371   3.149   1.706   4.602
 2824SOL    HW2 9372   3.053   1.575   4.587
 2825SOL     OW 9373   6.376   5.570   0.828
 2825SOL    HW1 9374   6.421   5.645   0.877
 2825SOL    HW2 9375   6.299   5.605   0.776
 2826SOL     OW 9376   4.770   2.090   4.355
 2826SOL    HW1 9377   4.703   2.034   4.404
 2826SOL    HW2 9378   4.825   2.032   4.296
 2827SOL     OW 9379   6.016   0.563   5.549
 2827SOL    HW1 9380   5.940   0.544   5.612
 2827SOL    HW2 9381   6.043   0.478   5.503
 2828SOL     OW 9382   3.643   1.458   5.588
 2828SOL    HW1 9383   3.606   1.542   5.626
 2828SOL    HW2 9384   3.570   1.390   5.577
 2829SOL     OW 9385   2.190   6.435   6.823
 2829SOL    HW1 9386   2.230   6.510   6.770
 2829SOL    HW2 9387   2.180   6.462   6.918
 2830SOL     OW 9388   3.841   3.478   6.766
 2830SOL    HW1 9389   3.918   3.429   6.807
 2830SOL    HW2 9390   3.807   3.546   6.831
 2831SOL     OW 9391   6.040   5.865   4.493
 2831SOL    HW1 9392   5.999   5.928   4.558
 2831SOL    HW2 9393   6.091   5.917   4.424
 2832SOL     OW 9394   0.217   1.159   1.819
 2832SOL    HW1 9395   0.123   1.169   1.788
 2832SOL    HW2 9396   0.264   1.247   1.813
 2833SOL     OW 9397   6.278   2.887   1.453
 2833SOL    HW1 9398   6.314   2.903   1.361
 2833SOL    HW2 9399   6.355   2.875   1.517
 2834SOL     OW 9400   3.814   0.799   5.602
 2834SOL    HW1 9401   3.714   0.811   5.603
 2834SOL    HW2 9402   3.845   0.793   5.507
 2835SOL     OW 9403   0.866   6.316   2.406
 2835SOL    HW1 9404   0.958   6.302   2.368
 2835SOL    HW2 9405   0.872   6.327   2.505
 2836SOL     OW 9406   6.869   0.886   1.257
 2836SOL    HW1 9407   6.910   0.894   1.166
 2836SOL    HW2 9408   6.916   0.815   1.309
 2837SOL     OW 9409   5.834   3.496   3.906
 2837SOL    HW1 9410   5.878   3.482   3.995
 2837SOL    HW2 9411   5.847   3.591   3.877
 2838SOL     OW 9412   3.126   5.156   3.076
 2838SOL    HW1 9413   3.162   5.067   3.049
 2838SOL    HW2 9414   3.058   5.145   3.148
 2839SOL     OW 9415   5.057   1.898   0.536
 2839SOL    HW1 9416   5.036   1.801   0.540
 2839SOL    HW2 9417   5.063   1.936   0.628
 2840SOL     OW 9418   6.709   1.690   5.487
 2840SOL    HW1 9419   6.745   1.681   5.394
 2840SOL    HW2 9420   6.611   1.709   5.483
 2841SOL     OW 9421   1.050   5.927   1.379
 2841SOL    HW1 9422   0.952   5.936   1.359
 2841SOL    HW2 9423   1.103   5.984   1.317
 2842SOL     OW 9424   6.542   3.007   3.363
 2842SOL    HW1 9425   6.564   2.914   3.392
 2842SOL    HW2 9426   6.614   3.070   3.393
 2843SOL     OW 9427   4.217   1.790   4.814
 2843SOL    HW1 9428   4.287   1.747   4.757
 2843SOL    HW2 9429   4.178   1.722   4.876
 2844SOL     OW 9430   6.826   4.019   5.945
 2844SOL    HW1 9431   6.775   4.103   5.925
 2844SOL    HW2 9432   6.899   4.040   6.011
 2845SOL     OW 9433   0.035   4.384   5.593
 2845SOL    HW1 9434   6.964   4.400   5.617
 2845SOL    HW2 9435   0.041   4.352   5.499
 2846SOL     OW 9436   4.615   1.889   6.427
 2846SOL    HW1 9437   4.554   1.927   6.496
 2846SOL    HW2 9438   4.710   1.898   6.459
 2847SOL     OW 9439   5.620   4.445   4.022
 2847SOL    HW1 9440   5.613   4.526   4.079
 2847SOL    HW2 9441   5.528   4.413   3.998
 2848SOL     OW 9442   0.718   5.559   4.223
 2848SOL    HW1 9443   0.748   5.573   4.128
 2848SOL    HW2 9444   0.619   5.541   4.224
 2849SOL     OW 9445   2.691   2.764   1.350
 2849SOL    HW1 9446   2.721   2.833   1.417
 2849SOL    HW2 9447   2.724   2.674   1.378
 2850SOL     OW 9448   4.060   1.134   0.117
 2850SOL    HW1 9449   3.997   1.068   0.158
 2850SOL    HW2 9450   4.066   1.215   0.175
 2851SOL     OW 9451   1.738   4.517   6.191
 2851SOL    HW1 9452   1.820   4.479   6.150
 2851SOL    HW2 9453   1.695   4.581   6.126
 2852SOL     OW 9454   0.311   3.539   6.553
 2852SOL    HW1 9455   0.374   3.572   6.623
 2852SOL    HW2 9456   0.344   3.451   6.518
 2853SOL     OW 9457   3.338   3.819   1.421
 2853SOL    HW1 9458   3.298   3.739   1.465
 2853SOL    HW2 9459   3.267   3.871   1.374
 2854SOL     OW 9460   2.467   1.771   4.047
 2854SOL    HW1 9461   2.523   1.837   4.097
 2854SOL    HW2 9462   2.401   1.820   3.991
 2855SOL     OW 9463   3.099   0.791   5.212
 2855SOL    HW1 9464   3.067   0.881   5.240
 2855SOL    HW2 9465   3.197   0.795   5.192
 2856SOL     OW 9466   2.492   2.574   4.897
 2856SOL    HW1 9467   2.513   2.610   4.988
 2856SOL    HW2 9468   2.574   2.533   4.857
 2857SOL     OW 9469   3.315   3.358   1.977
 2857SOL    HW1 9470   3.394   3.380   2.034
 2857SOL    HW2 9471   3.235   3.410   2.008
 2858SOL     OW 9472   6.697   3.444   2.895
 2858SOL    HW1 9473   6.715   3.535   2.932
 2858SOL    HW2 9474   6.657   3.386   2.966
 2859SOL     OW 9475   5.948   6.970   0.565
 2859SOL    HW1 9476   5.911   6.894   0.511
 2859SOL    HW2 9477   6.048   6.969   0.559
 2860SOL     OW 9478   4.092   1.168   1.865
 2860SOL    HW1 9479   4.155   1.124   1.801
 2860SOL    HW2 9480   4.073   1.261   1.836
 2861SOL     OW 9481   3.563   6.215   5.406
 2861SOL    HW1 9482   3.495   6.267   5.355
 2861SOL    HW2 9483   3.539   6.118   5.405
 2862SOL     OW 9484   5.550   1.061   4.379
 2862SOL    HW1 9485   5.625   0.999   4.353
 2862SOL    HW2 9486   5.519   1.112   4.298
 2863SOL     OW 9487   6.789   2.017   6.590
 2863SOL    HW1 9488   6.748   2.092   6.643
 2863SOL    HW2 9489   6.853   1.966   6.649
 2864SOL     OW 9490   3.823   1.364   6.790
 2864SOL    HW1 9491   3.901   1.338   6.846
 2864SOL    HW2 9492   3.751   1.402   6.848
 2865SOL     OW 9493   4.549   4.682   4.951
 2865SOL    HW1 9494   4.570   4.759   5.011
 2865SOL    HW2 9495   4.473   4.629   4.990
 2866SOL     OW 9496   0.383   6.789   6.787
 2866SOL    HW1 9497   0.357   6.762   6.880
 2866SOL    HW2 9498   0.402   6.887   6.785
 2867SOL     OW 9499   6.796   4.566   3.975
 2867SOL    HW1 9500   6.794   4.550   4.074
 2867SOL    HW2 9501   6.891   4.572   3.944
 2868SOL     OW 9502   1.543   4.244   5.825
 2868SOL    HW1 9503   1.594   4.284   5.749
 2868SOL    HW2 9504   1.586   4.158   5.853
 2869SOL     OW 9505   6.359   1.432   2.292
 2869SOL    HW1 9506   6.437   1.369   2.294
 2869SOL    HW2 9507   6.385   1.520   2.331
 2870SOL     OW 9508   5.356   1.753   2.194
 2870SOL    HW1 9509   5.420   1.807   2.249
 2870SOL    HW2 9510   5.262   1.773   2.221
 2871SOL     OW 9511   1.525   1.972   6.264
 2871SOL    HW1 9512   1.510   2.066   6.295
 2871SOL    HW2 9513   1.498   1.908   6.335
 2872SOL     OW 9514   2.536   6.920   3.790
 2872SOL    HW1 9515   2.631   6.952   3.799
 2872SOL    HW2 9516   2.473   6.994   3.811
 2873SOL     OW 9517   0.109   5.174   1.537
 2873SOL    HW1 9518   0.122   5.140   1.630
 2873SOL    HW2 9519   0.150   5.265   1.529
 2874SOL     OW 9520   5.500   2.560   2.588
 2874SOL    HW1 9521   5.513   2.644   2.641
 2874SOL    HW2 9522   5.424   2.572   2.524
 2875SOL     OW 9523   3.450   4.735   6.647
 2875SOL    HW1 9524   3.485   4.795   6.719
 2875SOL    HW2 9525   3.527   4.693   6.599
 2876SOL     OW 9526   0.201   1.462   1.997
 2876SOL    HW1 9527   0.289   1.414   1.998
 2876SOL    HW2 9528   0.166   1.465   1.903
 2877SOL     OW 9529   2.819   2.763   5.673
 2877SOL    HW1 9530   2.822   2.719   5.763
 2877SOL    HW2 9531   2.761   2.845   5.679
 2878SOL     OW 9532   2.832   4.491   6.518
 2878SOL    HW1 9533   2.827   4.587   6.488
 2878SOL    HW2 9534   2.740   4.451   6.515
 2879SOL     OW 9535   5.108   5.015   0.289
 2879SOL    HW1 9536   5.172   5.077   0.244
 2879SOL    HW2 9537   5.072   4.949   0.223
 2880SOL     OW 9538   1.118   5.812   1.104
 2880SOL    HW1 9539   1.029   5.834   1.064
 2880SOL    HW2 9540   1.160   5.895   1.140
 2881SOL     OW 9541   6.882   6.561   0.875
 2881SOL    HW1 9542   6.811   6.546   0.944
 2881SOL    HW2 9543   6.886   6.658   0.853
 2882SOL     OW 9544   6.932   2.963   3.571
 2882SOL    HW1 9545   6.954   3.008   3.657
 2882SOL    HW2 9546   6.872   3.022   3.517
 2883SOL     OW 9547   4.124   6.950   2.142
 2883SOL    HW1 9548   4.221   6.968   2.155
 2883SOL    HW2 9549   4.074   6.974   2.225
 2884SOL     OW 9550   0.871   6.250   3.110
 2884SOL    HW1 9551   0.794   6.304   3.145
 2884SOL    HW2 9552   0.913   6.199   3.184
 2885SOL     OW 9553   0.851   2.640   3.454
 2885SOL    HW1 9554   0.802   2.704   3.393
 2885SOL    HW2 9555   0.871   2.556   3.404
 2886SOL     OW 9556   2.235   2.131   6.076
 2886SOL    HW1 9557   2.326   2.091   6.085
 2886SOL    HW2 9558   2.166   2.060   6.091
 2887SOL     OW 9559   1.456   0.502   4.847
 2887SOL    HW1 9560   1.528   0.443   4.811
 2887SOL    HW2 9561   1.374   0.494   4.791
 2888SOL     OW 9562   6.122   5.285   6.801
 2888SOL    HW1 9563   6.158   5.194   6.825
 2888SOL    HW2 9564   6.091   5.332   6.884
 2889SOL     OW 9565   0.197   0.175   1.921
 2889SOL    HW1 9566   0.220   0.258   1.871
 2889SOL    HW2 9567   0.266   0.105   1.904
 2890SOL     OW 9568   4.112   0.480   1.411
 2890SOL    HW1 9569   4.190   0.420   1.427
 2890SOL    HW2 9570   4.030   0.424   1.395
 2891SOL     OW 9571   2.562   5.025   3.891
 2891SOL    HW1 9572   2.632   4.995   3.826
 2891SOL    HW2 9573   2.603   5.081   3.962
 2892SOL     OW 9574   4.851   4.114   6.171
 2892SOL    HW1 9575   4.926   4.064   6.214
 2892SOL    HW2 9576   4.765   4.091   6.216
 2893SOL     OW 9577   2.262   0.025   5.460
 2893SOL    HW1 9578   2.252   0.121   5.486
 2893SOL    HW2 9579   2.201   0.005   5.383
 2894SOL     OW 9580   3.729   3.002   0.436
 2894SOL    HW1 9581   3.789   2.922   0.448
 2894SOL    HW2 9582   3.784   3.083   0.417
 2895SOL     OW 9583   3.409   3.385   6.492
 2895SOL    HW1 9584   3.505   3.399   6.517
 2895SOL    HW2 9585   3.397   3.291   6.460
 2896SOL     OW 9586   2.819   4.777   1.284
 2896SOL    HW1 9587   2.838   4.820   1.196
 2896SOL    HW2 9588   2.833   4.678   1.276
 2897SOL     OW 9589   2.231   6.251   3.707
 2897SOL    HW1 9590   2.134   6.264   3.727
 2897SOL    HW2 9591   2.282   6.331   3.739
 2898SOL     OW 9592   3.070   5.270   2.026
 2898SOL    HW1 9593   3.006   5.263   1.949
 2898SOL    HW2 9594   3.134   5.345   2.009
 2899SOL     OW 9595   0.110   6.955   0.056
 2899SOL    HW1 9596   0.160   6.872   0.032
 2899SOL    HW2 9597   0.011   6.937   0.052
 2900SOL     OW 9598   1.950   5.339   5.238
 2900SOL    HW1 9599   2.007   5.349   5.319
 2900SOL    HW2 9600   1.940   5.427   5.193
 2901SOL     OW 9601   2.758   1.120   1.549
 2901SOL    HW1 9602   2.857   1.110   1.547
 2901SOL    HW2 9603   2.732   1.178   1.626
 2902SOL     OW 9604   5.715   5.892   1.687
 2902SOL    HW1 9605   5.712   5.806   1.637
 2902SOL    HW2 9606   5.696   5.968   1.625
 2903SOL     OW 9607   2.428   1.884   1.803
 2903SOL    HW1 9608   2.450   1.956   1.869
 2903SOL    HW2 9609   2.399   1.926   1.717
 2904SOL     OW 9610   1.735   2.764   4.825
 2904SOL    HW1 9611   1.678   2.772   4.906
 2904SOL    HW2 9612   1.831   2.771   4.851
 2905SOL     OW 9613   1.882   2.370   1.958
 2905SOL    HW1 9614   1.899   2.464   1.930
 2905SOL    HW2 9615   1.785   2.349   1.949
 2906SOL     OW 9616   5.722   5.758   2.009
 2906SOL    HW1 9617   5.690   5.842   2.054
 2906SOL    HW2 9618   5.816   5.738   2.038
 2907SOL     OW 9619   6.456   1.097   4.238
 2907SOL    HW1 9620   6.512   1.041   4.177
 2907SOL    HW2 9621   6.365   1.109   4.198
 2908SOL     OW 9622   3.569   6.380   4.555
 2908SOL    HW1 9623   3.534   6.464   4.596
 2908SOL    HW2 9624   3.648   6.348   4.606
 2909SOL     OW 9625   1.505   6.182   4.640
 2909SOL    HW1 9626   1.420   6.187   4.692
 2909SOL    HW2 9627   1.525   6.087   4.617
 2910SOL     OW 9628   5.845   6.152   6.582
 2910SOL    HW1 9629   5.801   6.196   6.660
 2910SOL    HW2 9630   5.930   6.108   6.611
 2911SOL     OW 9631   1.890   4.111   3.137
 2911SOL    HW1 9632   1.900   4.202   3.098
 2911SOL    HW2 9633   1.967   4.054   3.110
 2912SOL     OW 9634   2.676   5.840   1.088
 2912SOL    HW1 9635   2.688   5.939   1.082
 2912SOL    HW2 9636   2.610   5.810   1.020
 2913SOL     OW 9637   1.347   3.636   3.219
 2913SOL    HW1 9638   1.388   3.627   3.310
 2913SOL    HW2 9639   1.406   3.592   3.151
 2914SOL     OW 9640   5.784   5.611   6.106
 2914SOL    HW1 9641   5.841   5.583   6.184
 2914SOL    HW2 9642   5.701   5.654   6.140
 2915SOL     OW 9643   4.658   1.207   4.151
 2915SOL    HW1 9644   4.656   1.261   4.067
 2915SOL    HW2 9645   4.566   1.175   4.173
 2916SOL     OW 9646   5.850   5.661   4.903
 2916SOL    HW1 9647   5.849   5.724   4.980
 2916SOL    HW2 9648   5.804   5.704   4.825
 2917SOL     OW 9649   4.457   0.518   2.418
 2917SOL    HW1 9650   4.518   0.563   2.483
 2917SOL    HW2 9651   4.437   0.426   2.450
 2918SOL     OW 9652   0.271   4.275   3.567
 2918SOL    HW1 9653   0.203   4.315   3.506
 2918SOL    HW2 9654   0.228   4.248   3.653
 2919SOL     OW 9655   6.519   5.714   0.411
 2919SOL    HW1 9656   6.454   5.752   0.477
 2919SOL    HW2 9657   6.586   5.784   0.387
 2920SOL     OW 9658   4.246   2.336   3.531
 2920SOL    HW1 9659   4.250   2.369   3.437
 2920SOL    HW2 9660   4.150   2.318   3.556
 2921SOL     OW 9661   0.697   0.029   1.918
 2921SOL    HW1 9662   0.717   0.119   1.957
 2921SOL    HW2 9663   0.642   7.001   1.984
 2922SOL     OW 9664   4.213   6.523   5.222
 2922SOL    HW1 9665   4.188   6.451   5.288
 2922SOL    HW2 9666   4.295   6.571   5.254
 2923SOL     OW 9667   6.302   4.814   2.039
 2923SOL    HW1 9668   6.296   4.739   2.105
 2923SOL    HW2 9669   6.210   4.840   2.009
 2924SOL     OW 9670   7.008   0.936   5.457
 2924SOL    HW1 9671   6.993   0.989   5.373
 2924SOL    HW2 9672   0.073   0.958   5.495
 2925SOL     OW 9673   5.335   3.848   1.245
 2925SOL    HW1 9674   5.244   3.885   1.227
 2925SOL    HW2 9675   5.398   3.923   1.267
 2926SOL     OW 9676   0.334   1.324   4.532
 2926SOL    HW1 9677   0.429   1.324   4.561
 2926SOL    HW2 9678   0.328   1.296   4.436
 2927SOL     OW 9679   0.674   2.658   2.883
 2927SOL    HW1 9680   0.590   2.713   2.885
 2927SOL    HW2 9681   0.655   2.568   2.921
 2928SOL     OW 9682   6.513   6.385   0.771
 2928SOL    HW1 9683   6.611   6.382   0.788
 2928SOL    HW2 9684   6.484   6.480   0.756
 2929SOL     OW 9685   0.826   6.939   6.384
 2929SOL    HW1 9686   0.739   6.929   6.432
 2929SOL    HW2 9687   0.897   6.962   6.450
 2930SOL     OW 9688   3.487   6.568   4.729
 2930SOL    HW1 9689   3.570   6.556   4.782
 2930SOL    HW2 9690   3.410   6.583   4.791
 2931SOL     OW 9691   4.157   6.338   5.681
 2931SOL    HW1 9692   4.112   6.253   5.707
 2931SOL    HW2 9693   4.248   6.341   5.724
 2932SOL     OW 9694   0.943   4.830   1.433
 2932SOL    HW1 9695   0.971   4.812   1.528
 2932SOL    HW2 9696   1.014   4.796   1.371
 2933SOL     OW 9697   5.076   1.898   3.200
 2933SOL    HW1 9698   5.084   1.970   3.270
 2933SOL    HW2 9699   5.081   1.940   3.109
 2934SOL     OW 9700   2.512   0.566   0.172
 2934SOL    HW1 9701   2.580   0.634   0.144
 2934SOL    HW2 9702   2.553   0.475   0.169
 2935SOL     OW 9703   6.120   2.292   1.009
 2935SOL    HW1 9704   6.095   2.244   1.094
 2935SOL    HW2 9705   6.037   2.327   0.966
 2936SOL     OW 9706   4.659   6.013   0.520
 2936SOL    HW1 9707   4.602   6.088   0.486
 2936SOL    HW2 9708   4.605   5.954   0.580
 2937SOL     OW 9709   3.317   4.759   6.964
 2937SOL    HW1 9710   3.409   4.722   6.949
 2937SOL    HW2 9711   3.302   4.836   6.902
 2938SOL     OW 9712   4.835   5.634   5.531
 2938SOL    HW1 9713   4.754   5.583   5.501
 2938SOL    HW2 9714   4.834   5.725   5.488
 2939SOL     OW 9715   0.639   6.429   5.585
 2939SOL    HW1 9716   0.607   6.371   5.661
 2939SOL    HW2 9717   0.618   6.384   5.498
 2940SOL     OW 9718   4.702   6.743   5.492
 2940SOL    HW1 9719   4.797   6.727   5.518
 2940SOL    HW2 9720   4.699   6.786   5.402
 2941SOL     OW 9721   1.893   1.785   5.449
 2941SOL    HW1 9722   1.871   1.788   5.547
 2941SOL    HW2 9723   1.821   1.734   5.401
 2942SOL     OW 9724   3.441   6.376   3.331
 2942SOL    HW1 9725   3.526   6.403   3.377
 2942SOL    HW2 9726   3.434   6.276   3.331
 2943SOL     OW 9727   6.034   3.820   3.616
 2943SOL    HW1 9728   5.979   3.834   3.534
 2943SOL    HW2 9729   5.975   3.787   3.690
 2944SOL     OW 9730   4.273   5.700   6.134
 2944SOL    HW1 9731   4.269   5.638   6.056
 2944SOL    HW2 9732   4.226   5.658   6.212
 2945SOL     OW 9733   2.902   3.420   3.130
 2945SOL    HW1 9734   2.933   3.511   3.106
 2945SOL    HW2 9735   2.812   3.426   3.174
 2946SOL     OW 9736   6.933   6.157   6.818
 2946SOL    HW1 9737   6.969   6.250   6.827
 2946SOL    HW2 9738   7.001   6.091   6.852
 2947SOL     OW 9739   6.677   4.672   0.327
 2947SOL    HW1 9740   6.584   4.699   0.304
 2947SOL    HW2 9741   6.736   4.686   0.247
 2948SOL     OW 9742   6.140   4.435   4.398
 2948SOL    HW1 9743   6.061   4.421   4.458
 2948SOL    HW2 9744   6.205   4.496   4.441
 2949SOL     OW 9745   1.435   0.395   0.494
 2949SOL    HW1 9746   1.477   0.393   0.585
 2949SOL    HW2 9747   1.463   0.314   0.443
 2950SOL     OW 9748   4.875   3.548   4.633
 2950SOL    HW1 9749   4.960   3.515   4.675
 2950SOL    HW2 9750   4.797   3.501   4.672
 2951SOL     OW 9751   0.138   1.899   1.106
 2951SOL    HW1 9752   0.071   1.928   1.174
 2951SOL    HW2 9753   0.201   1.975   1.088
 2952SOL     OW 9754   1.896   3.783   2.234
 2952SOL    HW1 9755   1.816   3.824   2.190
 2952SOL    HW2 9756   1.973   3.847   2.227
 2953SOL     OW 9757   4.576   1.498   2.319
 2953SOL    HW1 9758   4.530   1.587   2.320
 2953SOL    HW2 9759   4.617   1.482   2.229
 2954SOL     OW 9760   6.192   6.424   2.002
 2954SOL    HW1 9761   6.192   6.350   1.935
 2954SOL    HW2 9762   6.279   6.424   2.051
 2955SOL     OW 9763   0.132   3.190   0.574
 2955SOL    HW1 9764   0.186   3.259   0.622
 2955SOL    HW2 9765   0.090   3.231   0.493
 2956SOL     OW 9766   6.677   5.597   2.585
 2956SOL    HW1 9767   6.610   5.574   2.655
 2956SOL    HW2 9768   6.694   5.517   2.527
 2957SOL     OW 9769   0.771   3.719   1.595
 2957SOL    HW1 9770   0.856   3.688   1.553
 2957SOL    HW2 9771   0.723   3.641   1.635
 2958SOL     OW 9772   2.261   4.955   6.020
 2958SOL    HW1 9773   2.188   4.985   5.958
 2958SOL    HW2 9774   2.221   4.935   6.110
 2959SOL     OW 9775   3.944   5.507   6.742
 2959SOL    HW1 9776   3.870   5.509   6.809
 2959SOL    HW2 9777   3.917   5.557   6.660
 2960SOL     OW 9778   2.145   1.733   0.292
 2960SOL    HW1 9779   2.154   1.772   0.200
 2960SOL    HW2 9780   2.133   1.807   0.358
 2961SOL     OW 9781   5.627   3.313   3.894
 2961SOL    HW1 9782   5.535   3.343   3.868
 2961SOL    HW2 9783   5.688   3.393   3.897
 2962SOL     OW 9784   4.507   0.832   3.655
 2962SOL    HW1 9785   4.530   0.801   3.748
 2962SOL    HW2 9786   4.472   0.755   3.602
 2963SOL     OW 9787   2.266   2.453   4.358
 2963SOL    HW1 9788   2.328   2.375   4.355
 2963SOL    HW2 9789   2.284   2.506   4.441
 2964SOL     OW 9790   3.668   6.470   0.702
 2964SOL    HW1 9791   3.609   6.551   0.700
 2964SOL    HW2 9792   3.622   6.397   0.753
 2965SOL     OW 9793   0.654   1.940   6.443
 2965SOL    HW1 9794   0.607   1.899   6.521
 2965SOL    HW2 9795   0.714   1.872   6.401
 2966SOL     OW 9796   4.531   4.491   4.021
 2966SOL    HW1 9797   4.540   4.528   4.114
 2966SOL    HW2 9798   4.616   4.505   3.971
 2967SOL     OW 9799   5.960   2.517   4.147
 2967SOL    HW1 9800   5.867   2.479   4.138
 2967SOL    HW2 9801   6.017   2.451   4.195
 2968SOL     OW 9802   0.057   4.068   3.384
 2968SOL    HW1 9803   0.103   4.038   3.467
 2968SOL    HW2 9804   0.100   4.152   3.350
 2969SOL     OW 9805   4.850   1.874   4.814
 2969SOL    HW1 9806   4.853   1.962   4.862
 2969SOL    HW2 9807   4.845   1.800   4.882
 2970SOL     OW 9808   0.962   4.533   6.190
 2970SOL    HW1 9809   1.027   4.591   6.240
 2970SOL    HW2 9810   0.873   4.579   6.186
 2971SOL     OW 9811   5.287   2.955   2.716
 2971SOL    HW1 9812   5.309   2.948   2.619
 2971SOL    HW2 9813   5.292   2.865   2.758
 2972SOL     OW 9814   0.184   3.559   5.372
 2972SOL    HW1 9815   0.183   3.532   5.468
 2972SOL    HW2 9816   0.095   3.595   5.346
 2973SOL     OW 9817   5.375   6.278   4.390
 2973SOL    HW1 9818   5.445   6.314   4.328
 2973SOL    HW2 9819   5.404   6.189   4.424
 2974SOL     OW 9820   0.180   3.603   2.497
 2974SOL    HW1 9821   0.129   3.686   2.477
 2974SOL    HW2 9822   0.130   3.548   2.564
 2975SOL     OW 9823   0.719   1.019   5.334
 2975SOL    HW1 9824   0.802   0.980   5.374
 2975SOL    HW2 9825   0.737   1.046   5.240
 2976SOL     OW 9826   3.509   0.162   2.151
 2976SOL    HW1 9827   3.473   0.254   2.165
 2976SOL    HW2 9828   3.456   0.115   2.081
 2977SOL     OW 9829   3.407   6.084   4.276
 2977SOL    HW1 9830   3.376   6.179   4.267
 2977SOL    HW2 9831   3.410   6.042   4.185
 2978SOL     OW 9832   4.811   5.350   6.805
 2978SOL    HW1 9833   4.820   5.279   6.875
 2978SOL    HW2 9834   4.720   5.391   6.811
 2979SOL     OW 9835   3.503   0.909   2.949
 2979SOL    HW1 9836   3.502   0.837   3.019
 2979SOL    HW2 9837   3.554   0.988   2.983
 2980SOL     OW 9838   0.204   6.321   4.194
 2980SOL    HW1 9839   0.124   6.324   4.253
 2980SOL    HW2 9840   0.193   6.249   4.126
 2981SOL     OW 9841   2.620   0.684   5.765
 2981SOL    HW1 9842   2.708   0.639   5.747
 2981SOL    HW2 9843   2.560   0.622   5.814
 2982SOL     OW 9844   5.034   6.523   2.379
 2982SOL    HW1 9845   5.041   6.449   2.447
 2982SOL    HW2 9846   5.046   6.611   2.425
 2983SOL     OW 9847   6.718   0.630   3.677
 2983SOL    HW1 9848   6.766   0.705   3.723
 2983SOL    HW2 9849   6.784   0.558   3.652
 2984SOL     OW 9850   5.275   5.492   1.643
 2984SOL    HW1 9851   5.297   5.590   1.651
 2984SOL    HW2 9852   5.266   5.468   1.546
 2985SOL     OW 9853   6.019   2.585   2.703
 2985SOL    HW1 9854   6.028   2.553   2.798
 2985SOL    HW2 9855   5.969   2.672   2.703
 2986SOL     OW 9856   2.013   3.778   5.359
 2986SOL    HW1 9857   2.031   3.785   5.261
 2986SOL    HW2 9858   1.917   3.799   5.377
 2987SOL     OW 9859   4.342   2.416   4.493
 2987SOL    HW1 9860   4.282   2.345   4.531
 2987SOL    HW2 9861   4.312   2.440   4.401
 2988SOL     OW 9862   0.668   0.632   1.841
 2988SOL    HW1 9863   0.678   0.718   1.792
 2988SOL    HW2 9864   0.698   0.644   1.936
 2989SOL     OW 9865   6.525   5.060   1.359
 2989SOL    HW1 9866   6.525   5.099   1.451
 2989SOL    HW2 9867   6.606   5.092   1.309
 2990SOL     OW 9868   3.697   0.926   1.451
 2990SOL    HW1 9869   3.674   1.023   1.456
 2990SOL    HW2 9870   3.632   0.873   1.504
 2991SOL     OW 9871   6.512   3.872   0.256
 2991SOL    HW1 9872   6.451   3.938   0.212
 2991SOL    HW2 9873   6.597   3.919   0.283
 2992SOL     OW 9874   3.738   4.614   6.099
 2992SOL    HW1 9875   3.767   4.546   6.167
 2992SOL    HW2 9876   3.670   4.574   6.038
 2993SOL     OW 9877   1.936   5.175   1.283
 2993SOL    HW1 9878   1.960   5.253   1.341
 2993SOL    HW2 9879   1.966   5.090   1.327
 2994SOL     OW 9880   4.471   6.657   6.880
 2994SOL    HW1 9881   4.414   6.594   6.932
 2994SOL    HW2 9882   4.566   6.628   6.884
 2995SOL     OW 9883   2.559   1.621   6.260
 2995SOL    HW1 9884   2.527   1.607   6.166
 2995SOL    HW2 9885   2.491   1.674   6.310
 2996SOL     OW 9886   3.780   5.502   5.715
 2996SOL    HW1 9887   3.853   5.539   5.772
 2996SOL    HW2 9888   3.808   5.506   5.619
 2997SOL     OW 9889   5.257   6.670   0.784
 2997SOL    HW1 9890   5.224   6.721   0.705
 2997SOL    HW2 9891   5.309   6.732   0.843
 2998SOL     OW 9892   6.634   5.820   5.551
 2998SOL    HW1 9893   6.616   5.829   5.453
 2998SOL    HW2 9894   6.643   5.911   5.592
 2999SOL     OW 9895   3.144   0.070   3.116
 2999SOL    HW1 9896   3.210   0.011   3.069
 2999SOL    HW2 9897   3.058   0.069   3.065
 3000SOL     OW 9898   1.156   2.992   5.157
 3000SOL    HW1 9899   1.172   3.020   5.252
 3000SOL    HW2 9900   1.091   2.916   5.155
 3001SOL     OW 9901   4.769   6.981   6.007
 3001SOL    HW1 9902   4.764   6.886   6.038
 3001SOL    HW2 9903   4.714   6.992   5.924
 3002SOL     OW 9904   4.024   0.199   5.647
 3002SOL    HW1 9905   4.067   0.115   5.614
 3002SOL    HW2 9906   3.946   0.176   5.704
 3003SOL     OW 9907   2.460   6.917   6.051
 3003SOL    HW1 9908   2.441   6.823   6.081
 3003SOL    HW2 9909   2.449   6.923   5.951
 3004SOL     OW 9910   6.110   2.831   4.408
 3004SOL    HW1 9911   6.092   2.753   4.348
 3004SOL    HW2 9912   6.201   2.823   4.447
 3005SOL     OW 9913   4.568   2.478   1.050
 3005SOL    HW1 9914   4.617   2.458   1.135
 3005SOL    HW2 9915   4.621   2.446   0.972
 3006SOL     OW 9916   5.670   0.585   1.939
 3006SOL    HW1 9917   5.710   0.673   1.967
 3006SOL    HW2 9918   5.701   0.562   1.847
 3007SOL     OW 9919   6.142   5.072   2.733
 3007SOL    HW1 9920   6.202   5.135   2.684
 3007SOL    HW2 9921   6.130   4.989   2.680
 3008SOL     OW 9922   3.039   6.022   6.492
 3008SOL    HW1 9923   3.020   6.086   6.418
 3008SOL    HW2 9924   2.984   5.939   6.481
 3009SOL     OW 9925   1.993   0.584   3.313
 3009SOL    HW1 9926   1.943   0.512   3.360
 3009SOL    HW2 9927   2.091   0.569   3.325
 3010SOL     OW 9928   3.673   6.505   2.260
 3010SOL    HW1 9929   3.758   6.457   2.236
 3010SOL    HW2 9930   3.604   6.438   2.288
 3011SOL     OW 9931   5.304   0.482   7.004
 3011SOL    HW1 9932   5.347   0.571   6.988
 3011SOL    HW2 9933   5.330   0.418   6.932
 3012SOL     OW 9934   6.905   3.658   3.374
 3012SOL    HW1 9935   6.917   3.622   3.281
 3012SOL    HW2 9936   6.820   3.711   3.378
 3013SOL     OW 9937   5.933   4.915   2.330
 3013SOL    HW1 9938   5.874   4.835   2.338
 3013SOL    HW2 9939   5.879   4.993   2.301
 3014SOL     OW 9940   5.013   0.693   4.783
 3014SOL    HW1 9941   4.947   0.629   4.744
 3014SOL    HW2 9942   4.986   0.787   4.762
 3015SOL     OW 9943   2.758   2.234   0.262
 3015SOL    HW1 9944   2.809   2.260   0.344
 3015SOL    HW2 9945   2.792   2.146   0.228
 3016SOL     OW 9946   4.131   6.646   3.343
 3016SOL    HW1 9947   4.085   6.558   3.327
 3016SOL    HW2 9948   4.062   6.716   3.360
 3017SOL     OW 9949   0.522   5.782   1.288
 3017SOL    HW1 9950   0.546   5.819   1.378
 3017SOL    HW2 9951   0.605   5.757   1.238
 3018SOL     OW 9952   3.735   6.217   0.041
 3018SOL    HW1 9953   3.791   6.160   0.101
 3018SOL    HW2 9954   3.745   6.313   0.068
 3019SOL     OW 9955   4.399   6.754   1.933
 3019SOL    HW1 9956   4.371   6.658   1.921
 3019SOL    HW2 9957   4.353   6.811   1.866
 3020SOL     OW 9958   1.871   2.493   0.745
 3020SOL    HW1 9959   1.778   2.509   0.711
 3020SOL    HW2 9960   1.866   2.462   0.840
 3021SOL     OW 9961   2.608   1.954   6.471
 3021SOL    HW1 9962   2.643   1.914   6.386
 3021SOL    HW2 9963   2.606   1.884   6.543
 3022SOL     OW 9964   4.915   6.904   3.261
 3022SOL    HW1 9965   4.875   6.925   3.350
 3022SOL    HW2 9966   4.961   6.815   3.265
 3023SOL     OW 9967   4.925   6.562   2.141
 3023SOL    HW1 9968   4.963   6.550   2.232
 3023SOL    HW2 9969   4.827   6.582   2.148
 3024SOL     OW 9970   3.307   6.494   6.619
 3024SOL    HW1 9971   3.227   6.519   6.673
 3024SOL    HW2 9972   3.372   6.446   6.678
 3025SOL     OW 9973   2.005   2.186   1.247
 3025SOL    HW1 9974   2.045   2.226   1.330
 3025SOL    HW2 9975   2.041   2.232   1.167
 3026SOL     OW 9976   2.155   4.154   0.948
 3026SOL    HW1 9977   2.109   4.115   0.868
 3026SOL    HW2 9978   2.146   4.091   1.025
 3027SOL     OW 9979   0.906   2.003   3.288
 3027SOL    HW1 9980   0.980   1.992   3.354
 3027SOL    HW2 9981   0.837   1.932   3.302
 3028SOL     OW 9982   1.393   6.619   5.383
 3028SOL    HW1 9983   1.352   6.529   5.392
 3028SOL    HW2 9984   1.438   6.644   5.469
 3029SOL     OW 9985   5.235   6.386   5.232
 3029SOL    HW1 9986   5.263   6.302   5.187
 3029SOL    HW2 9987   5.222   6.369   5.330
 3030SOL     OW 9988   1.428   2.186   5.088
 3030SOL    HW1 9989   1.466   2.255   5.150
 3030SOL    HW2 9990   1.333   2.208   5.067
 3031SOL     OW 9991   0.934   5.014   6.571
 3031SOL    HW1 9992   0.911   4.942   6.505
 3031SOL    HW2 9993   0.988   4.974   6.645
 3032SOL     OW 9994   5.023   0.247   5.680
 3032SOL    HW1 9995   5.061   0.331   5.721
 3032SOL    HW2 9996   5.043   0.169   5.740
 3033SOL     OW 9997   6.057   3.322   6.618
 3033SOL    HW1 9998   6.116   3.250   6.581
 3033SOL    HW2 9999   5.961   3.293   6.609
 3034SOL     OW10000   2.542   6.773   4.646
 3034SOL    HW110001   2.531   6.870   4.628
 3034SOL    HW210002   2.452   6.729   4.649
 3035SOL     OW10003   6.082   0.670   0.039
 3035SOL    HW110004   6.037   0.626   0.117
 3035SOL    HW210005   6.133   0.750   0.070
 3036SOL     OW10006   1.159   4.474   6.761
 3036SOL    HW110007   1.158   4.386   6.715
 3036SOL    HW210008   1.084   4.531   6.726
 3037SOL     OW10009   6.419   6.770   5.576
 3037SOL    HW110010   6.419   6.708   5.654
 3037SOL    HW210011   6.468   6.729   5.499
 3038SOL     OW10012   5.638   6.925   6.050
 3038SOL    HW110013   5.656   6.883   5.962
 3038SOL    HW210014   5.654   6.859   6.123
 3039SOL     OW10015   1.186   4.807   1.219
 3039SOL    HW110016   1.246   4.791   1.141
 3039SOL    HW210017   1.091   4.810   1.188
 3040SOL     OW10018   2.727   2.958   6.868
 3040SOL    HW110019   2.700   2.907   6.786
 3040SOL    HW210020   2.650   2.962   6.932
 3041SOL     OW10021   1.922   2.182   5.957
 3041SOL    HW110022   1.919   2.200   6.055
 3041SOL    HW210023   1.875   2.255   5.907
 3042SOL     OW10024   4.501   0.535   2.025
 3042SOL    HW110025   4.496   0.441   1.994
 3042SOL    HW210026   4.427   0.554   2.089
 3043SOL     OW10027   0.287   5.476   0.433
 3043SOL    HW110028   0.272   5.476   0.334
 3043SOL    HW210029   0.326   5.389   0.462
 3044SOL     OW10030   3.270   4.313   6.210
 3044SOL    HW110031   3.239   4.224   6.245
 3044SOL    HW210032   3.243   4.385   6.272
 3045SOL     OW10033   5.434   2.721   3.144
 3045SOL    HW110034   5.520   2.772   3.143
 3045SOL    HW210035   5.442   2.644   3.207
 3046SOL     OW10036   2.143   3.288   5.550
 3046SOL    HW110037   2.149   3.214   5.482
 3046SOL    HW210038   2.074   3.354   5.521
 3047SOL     OW10039   6.210   5.006   2.364
 3047SOL    HW110040   6.120   4.963   2.353
 3047SOL    HW210041   6.237   5.049   2.278
 3048SOL     OW10042   3.236   2.748   1.584
 3048SOL    HW110043   3.183   2.817   1.537
 3048SOL    HW210044   3.295   2.791   1.653
 3049SOL     OW10045   0.576   0.717   2.258
 3049SOL    HW110046   0.519   0.640   2.230
 3049SOL    HW210047   0.664   0.714   2.209
 3050SOL     OW10048   4.307   6.050   4.026
 3050SOL    HW110049   4.306   5.952   4.010
 3050SOL    HW210050   4.356   6.096   3.951
 3051SOL     OW10051   2.280   4.647   6.482
 3051SOL    HW110052   2.214   4.723   6.479
 3051SOL    HW210053   2.249   4.579   6.549
 3052SOL     OW10054   4.288   6.728   3.029
 3052SOL    HW110055   4.225   6.744   2.953
 3052SOL    HW210056   4.368   6.787   3.020
 3053SOL     OW10057   5.511   6.421   0.360
 3053SOL    HW110058   5.483   6.433   0.455
 3053SOL    HW210059   5.432   6.433   0.300
 3054SOL     OW10060   1.312   3.425   6.482
 3054SOL    HW110061   1.364   3.340   6.485
 3054SOL    HW210062   1.255   3.426   6.400
 3055SOL     OW10063   5.946   6.746   3.388
 3055SOL    HW110064   5.931   6.815   3.459
 3055SOL    HW210065   6.034   6.702   3.403
 3056SOL     OW10066   7.012   0.609   0.856
 3056SOL    HW110067   0.052   0.652   0.919
 3056SOL    HW210068   6.928   0.587   0.905
 3057SOL     OW10069   5.912   5.300   2.805
 3057SOL    HW110070   5.860   5.219   2.778
 3057SOL    HW210071   6.009   5.284   2.790
 3058SOL     OW10072   6.507   5.119   1.621
 3058SOL    HW110073   6.578   5.168   1.671
 3058SOL    HW210074   6.471   5.044   1.678
 3059SOL     OW10075   1.670   2.502   4.681
 3059SOL    HW110076   1.694   2.593   4.715
 3059SOL    HW210077   1.633   2.447   4.756
 3060SOL     OW10078   6.750   6.796   0.757
 3060SOL    HW110079   6.691   6.752   0.689
 3060SOL    HW210080   6.805   6.867   0.712
 3061SOL     OW10081   0.188   0.422   6.474
 3061SOL    HW110082   0.274   0.470   6.458
 3061SOL    HW210083   0.207   0.330   6.509
 3062SOL     OW10084   3.391   6.535   6.968
 3062SOL    HW110085   3.410   6.630   6.944
 3062SOL    HW210086   3.433   6.474   6.901
 3063SOL     OW10087   1.919   4.444   1.448
 3063SOL    HW110088   1.985   4.397   1.506
 3063SOL    HW210089   1.961   4.464   1.359
 3064SOL     OW10090   6.298   3.852   3.507
 3064SOL    HW110091   6.209   3.852   3.552
 3064SOL    HW210092   6.343   3.764   3.522
 3065SOL     OW10093   1.986   0.958   6.967
 3065SOL    HW110094   2.057   0.988   0.005
 3065SOL    HW210095   1.932   1.036   6.937
 3066SOL     OW10096   5.776   5.081   1.712
 3066SOL    HW110097   5.716   5.048   1.638
 3066SOL    HW210098   5.866   5.100   1.675
 3067SOL     OW10099   5.258   7.011   3.986
 3067SOL    HW110100   5.283   0.079   4.012
 3067SOL    HW210101   5.272   6.949   4.064
 3068SOL     OW10102   5.889   4.701   0.294
 3068SOL    HW110103   5.989   4.703   0.300
 3068SOL    HW210104   5.850   4.742   0.377
 3069SOL     OW10105   0.744   6.178   2.864
 3069SOL    HW110106   0.775   6.196   2.958
 3069SOL    HW210107   0.644   6.180   2.860
 3070SOL     OW10108   4.084   1.425   4.006
 3070SOL    HW110109   4.170   1.447   3.961
 3070SOL    HW210110   4.100   1.358   4.079
 3071SOL     OW10111   5.824   6.549   3.253
 3071SOL    HW110112   5.873   6.620   3.304
 3071SOL    HW210113   5.878   6.522   3.174
 3072SOL     OW10114   0.621   0.460   2.417
 3072SOL    HW110115   0.649   0.452   2.513
 3072SOL    HW210116   0.679   0.400   2.361
 3073SOL     OW10117   1.168   3.304   5.175
 3073SOL    HW110118   1.229   3.363   5.123
 3073SOL    HW210119   1.190   3.209   5.158
 3074SOL     OW10120   4.794   3.125   6.162
 3074SOL    HW110121   4.788   3.174   6.249
 3074SOL    HW210122   4.810   3.028   6.180
 3075SOL     OW10123   1.748   5.873   1.405
 3075SOL    HW110124   1.783   5.802   1.465
 3075SOL    HW210125   1.825   5.921   1.362
 3076SOL     OW10126   0.271   0.548   5.028
 3076SOL    HW110127   0.284   0.615   5.102
 3076SOL    HW210128   0.187   0.570   4.978
 3077SOL     OW10129   5.301   4.890   3.710
 3077SOL    HW110130   5.373   4.928   3.768
 3077SOL    HW210131   5.332   4.888   3.615
 3078SOL     OW10132   1.652   3.489   1.750
 3078SOL    HW110133   1.740   3.515   1.790
 3078SOL    HW210134   1.582   3.555   1.778
 3079SOL     OW10135   0.006   2.042   5.473
 3079SOL    HW110136   0.058   2.113   5.521
 3079SOL    HW210137   0.069   1.980   5.426
 3080SOL     OW10138   6.520   5.079   0.611
 3080SOL    HW110139   6.494   5.102   0.705
 3080SOL    HW210140   6.497   5.155   0.551
 3081SOL     OW10141   0.229   5.186   5.702
 3081SOL    HW110142   0.283   5.270   5.697
 3081SOL    HW210143   0.139   5.202   5.662
 3082SOL     OW10144   2.963   0.238   2.755
 3082SOL    HW110145   2.962   0.287   2.667
 3082SOL    HW210146   2.948   0.141   2.738
 3083SOL     OW10147   3.477   0.529   1.796
 3083SOL    HW110148   3.394   0.483   1.828
 3083SOL    HW210149   3.529   0.561   1.876
 3084SOL     OW10150   5.340   5.796   4.724
 3084SOL    HW110151   5.438   5.786   4.705
 3084SOL    HW210152   5.301   5.706   4.744
 3085SOL     OW10153   0.667   5.389   2.178
 3085SOL    HW110154   0.618   5.323   2.121
 3085SOL    HW210155   0.753   5.350   2.208
 3086SOL     OW10156   4.719   1.404   3.966
 3086SOL    HW110157   4.679   1.494   3.949
 3086SOL    HW210158   4.805   1.395   3.917
 3087SOL     OW10159   6.810   3.350   2.680
 3087SOL    HW110160   6.778   3.405   2.757
 3087SOL    HW210161   6.776   3.388   2.594
 3088SOL     OW10162   3.052   5.041   5.948
 3088SOL    HW110163   3.112   5.064   5.871
 3088SOL    HW210164   3.072   4.949   5.980
 3089SOL     OW10165   1.683   2.373   0.263
 3089SOL    HW110166   1.771   2.364   0.311
 3089SOL    HW210167   1.638   2.457   0.293
 3090SOL     OW10168   1.436   1.762   0.959
 3090SOL    HW110169   1.507   1.828   0.982
 3090SOL    HW210170   1.438   1.743   0.861
 3091SOL     OW10171   3.075   6.807   0.117
 3091SOL    HW110172   3.151   6.742   0.128
 3091SOL    HW210173   3.042   6.804   0.023
 3092SOL     OW10174   4.894   6.755   0.292
 3092SOL    HW110175   4.815   6.776   0.350
 3092SOL    HW210176   4.915   6.657   0.298
 3093SOL     OW10177   5.591   5.802   4.609
 3093SOL    HW110178   5.658   5.841   4.671
 3093SOL    HW210179   5.638   5.759   4.532
 3094SOL     OW10180   2.726   5.916   5.845
 3094SOL    HW110181   2.730   5.818   5.864
 3094SOL    HW210182   2.669   5.931   5.764
 3095SOL     OW10183   2.906   4.866   4.946
 3095SOL    HW110184   2.978   4.880   5.015
 3095SOL    HW210185   2.861   4.778   4.963
 3096SOL     OW10186   1.375   0.617   6.158
 3096SOL    HW110187   1.419   0.694   6.205
 3096SOL    HW210188   1.280   0.610   6.189
 3097SOL     OW10189   1.648   3.102   6.911
 3097SOL    HW110190   1.610   3.011   6.896
 3097SOL    HW210191   1.589   3.171   6.869
 3098SOL     OW10192   3.415   2.504   0.470
 3098SOL    HW110193   3.398   2.555   0.386
 3098SOL    HW210194   3.328   2.478   0.511
 3099SOL     OW10195   0.636   5.676   5.193
 3099SOL    HW110196   0.584   5.590   5.202
 3099SOL    HW210197   0.716   5.660   5.134
 3100SOL     OW10198   0.140   0.152   6.889
 3100SOL    HW110199   0.168   0.120   6.979
 3100SOL    HW210200   0.120   0.250   6.893
 3101SOL     OW10201   4.657   0.041   1.041
 3101SOL    HW110202   4.638   6.974   1.077
 3101SOL    HW210203   4.703   0.033   0.952
 3102SOL     OW10204   1.570   4.159   1.224
 3102SOL    HW110205   1.574   4.257   1.241
 3102SOL    HW210206   1.643   4.132   1.162
 3103SOL     OW10207   3.909   3.011   2.015
 3103SOL    HW110208   3.931   2.997   1.918
 3103SOL    HW210209   3.891   3.108   2.031
 3104SOL     OW10210   6.343   6.042   3.928
 3104SOL    HW110211   6.264   6.016   3.874
 3104SOL    HW210212   6.423   5.988   3.901
 3105SOL     OW10213   5.758   6.478   4.198
 3105SOL    HW110214   5.850   6.456   4.169
 3105SOL    HW210215   5.760   6.555   4.263
 3106SOL     OW10216   6.896   2.413   3.870
 3106SOL    HW110217   6.936   2.338   3.817
 3106SOL    HW210218   6.854   2.377   3.953
 3107SOL     OW10219   2.861   0.545   4.438
 3107SOL    HW110220   2.783   0.545   4.500
 3107SOL    HW210221   2.844   0.481   4.363
 3108SOL     OW10222   3.419   0.668   3.481
 3108SOL    HW110223   3.459   0.588   3.527
 3108SOL    HW210224   3.321   0.654   3.467
 3109SOL     OW10225   4.594   5.170   3.308
 3109SOL    HW110226   4.498   5.141   3.311
 3109SOL    HW210227   4.602   5.249   3.248
 3110SOL     OW10228   0.526   2.799   2.464
 3110SOL    HW110229   0.537   2.742   2.382
 3110SOL    HW210230   0.587   2.766   2.536
 3111SOL     OW10231   0.128   5.099   3.619
 3111SOL    HW110232   0.207   5.039   3.636
 3111SOL    HW210233   0.051   5.070   3.675
 3112SOL     OW10234   4.266   3.999   6.182
 3112SOL    HW110235   4.179   3.994   6.231
 3112SOL    HW210236   4.274   4.087   6.137
 3113SOL     OW10237   2.927   6.342   3.846
 3113SOL    HW110238   2.990   6.392   3.787
 3113SOL    HW210239   2.857   6.297   3.791
 3114SOL     OW10240   6.062   5.644   1.046
 3114SOL    HW110241   6.095   5.566   0.992
 3114SOL    HW210242   6.098   5.636   1.139
 3115SOL     OW10243   2.461   3.640   1.444
 3115SOL    HW110244   2.500   3.729   1.419
 3115SOL    HW210245   2.451   3.634   1.543
 3116SOL     OW10246   0.289   1.992   0.262
 3116SOL    HW110247   0.230   1.920   0.298
 3116SOL    HW210248   0.366   2.006   0.324
 3117SOL     OW10249   3.924   3.582   5.305
 3117SOL    HW110250   3.837   3.626   5.330
 3117SOL    HW210251   3.974   3.557   5.388
 3118SOL     OW10252   5.985   3.802   0.807
 3118SOL    HW110253   6.040   3.839   0.733
 3118SOL    HW210254   6.002   3.854   0.891
 3119SOL     OW10255   1.713   4.317   5.616
 3119SOL    HW110256   1.786   4.368   5.571
 3119SOL    HW210257   1.712   4.223   5.584
 3120SOL     OW10258   2.981   5.364   5.195
 3120SOL    HW110259   3.022   5.355   5.104
 3120SOL    HW210260   2.992   5.457   5.228
 3121SOL     OW10261   6.895   6.750   2.272
 3121SOL    HW110262   6.920   6.796   2.186
 3121SOL    HW210263   6.958   6.674   2.288
 3122SOL     OW10264   3.291   5.404   0.169
 3122SOL    HW110265   3.208   5.434   0.216
 3122SOL    HW210266   3.265   5.350   0.088
 3123SOL     OW10267   3.517   6.532   3.895
 3123SOL    HW110268   3.570   6.448   3.886
 3123SOL    HW210269   3.465   6.548   3.810
 3124SOL     OW10270   4.342   1.001   6.363
 3124SOL    HW110271   4.275   1.011   6.290
 3124SOL    HW210272   4.429   1.041   6.334
 3125SOL     OW10273   0.116   1.689   5.868
 3125SOL    HW110274   0.027   1.696   5.913
 3125SOL    HW210275   0.103   1.657   5.774
 3126SOL     OW10276   4.487   6.124   0.244
 3126SOL    HW110277   4.488   6.172   0.331
 3126SOL    HW210278   4.577   6.129   0.202
 3127SOL     OW10279   0.184   1.460   3.868
 3127SOL    HW110280   0.124   1.493   3.796
 3127SOL    HW210281   0.139   1.470   3.957
 3128SOL     OW10282   1.780   1.411   1.008
 3128SOL    HW110283   1.816   1.408   0.915
 3128SOL    HW210284   1.689   1.452   1.008
 3129SOL     OW10285   0.882   3.082   4.758
 3129SOL    HW110286   0.799   3.038   4.792
 3129SOL    HW210287   0.883   3.178   4.785
 3130SOL     OW10288   1.461   5.542   3.041
 3130SOL    HW110289   1.404   5.623   3.044
 3130SOL    HW210290   1.443   5.491   2.957
 3131SOL     OW10291   6.389   3.408   3.298
 3131SOL    HW110292   6.309   3.349   3.304
 3131SOL    HW210293   6.432   3.415   3.388
 3132SOL     OW10294   5.850   5.900   6.025
 3132SOL    HW110295   5.817   5.993   6.017
 3132SOL    HW210296   5.782   5.843   6.071
 3133SOL     OW10297   2.992   1.643   3.317
 3133SOL    HW110298   3.054   1.719   3.335
 3133SOL    HW210299   2.924   1.637   3.390
 3134SOL     OW10300   4.854   3.089   2.279
 3134SOL    HW110301   4.777   3.055   2.334
 3134SOL    HW210302   4.834   3.074   2.182
 3135SOL     OW10303   3.176   1.820   3.385
 3135SOL    HW110304   3.166   1.916   3.410
 3135SOL    HW210305   3.263   1.785   3.420
 3136SOL     OW10306   5.639   6.466   5.212
 3136SOL    HW110307   5.635   6.367   5.218
 3136SOL    HW210308   5.656   6.493   5.117
 3137SOL     OW10309   5.929   2.123   4.165
 3137SOL    HW110310   5.917   2.069   4.249
 3137SOL    HW210311   5.854   2.104   4.102
 3138SOL     OW10312   5.609   1.142   4.962
 3138SOL    HW110313   5.670   1.160   5.039
 3138SOL    HW210314   5.558   1.225   4.939
 3139SOL     OW10315   5.009   6.525   5.201
 3139SOL    HW110316   4.935   6.461   5.180
 3139SOL    HW210317   5.095   6.475   5.209
 3140SOL     OW10318   6.180   6.056   0.194
 3140SOL    HW110319   6.249   5.996   0.155
 3140SOL    HW210320   6.224   6.136   0.234
 3141SOL     OW10321   1.171   5.168   0.427
 3141SOL    HW110322   1.103   5.197   0.495
 3141SOL    HW210323   1.130   5.098   0.368
 3142SOL     OW10324   4.477   6.566   0.236
 3142SOL    HW110325   4.515   6.654   0.205
 3142SOL    HW210326   4.420   6.528   0.163
 3143SOL     OW10327   6.324   1.316   0.924
 3143SOL    HW110328   6.413   1.274   0.942
 3143SOL    HW210329   6.293   1.364   1.006
 3144SOL     OW10330   1.694   3.234   6.606
 3144SOL    HW110331   1.690   3.135   6.589
 3144SOL    HW210332   1.731   3.280   6.525
 3145SOL     OW10333   3.370   5.965   3.650
 3145SOL    HW110334   3.404   6.058   3.638
 3145SOL    HW210335   3.329   5.934   3.564
 3146SOL     OW10336   1.702   0.506   3.521
 3146SOL    HW110337   1.696   0.458   3.609
 3146SOL    HW210338   1.749   0.448   3.455
 3147SOL     OW10339   4.579   4.273   0.525
 3147SOL    HW110340   4.557   4.231   0.613
 3147SOL    HW210341   4.673   4.251   0.500
 3148SOL     OW10342   3.279   5.743   4.517
 3148SOL    HW110343   3.185   5.727   4.547
 3148SOL    HW210344   3.342   5.693   4.576
 3149SOL     OW10345   3.611   6.837   5.613
 3149SOL    HW110346   3.593   6.902   5.539
 3149SOL    HW210347   3.542   6.848   5.685
 3150SOL     OW10348   6.145   0.444   4.922
 3150SOL    HW110349   6.106   0.397   4.842
 3150SOL    HW210350   6.235   0.480   4.898
 3151SOL     OW10351   4.336   1.262   6.026
 3151SOL    HW110352   4.429   1.295   6.012
 3151SOL    HW210353   4.337   1.162   6.030
 3152SOL     OW10354   1.649   5.458   0.746
 3152SOL    HW110355   1.553   5.481   0.763
 3152SOL    HW210356   1.673   5.484   0.652
 3153SOL     OW10357   6.603   4.127   2.407
 3153SOL    HW110358   6.617   4.054   2.474
 3153SOL    HW210359   6.685   4.183   2.402
 3154SOL     OW10360   5.939   2.568   6.274
 3154SOL    HW110361   5.840   2.566   6.258
 3154SOL    HW210362   5.958   2.540   6.368
 3155SOL     OW10363   5.258   5.689   0.570
 3155SOL    HW110364   5.179   5.629   0.554
 3155SOL    HW210365   5.230   5.764   0.629
 3156SOL     OW10366   3.515   3.874   3.575
 3156SOL    HW110367   3.547   3.847   3.666
 3156SOL    HW210368   3.417   3.858   3.568
 3157SOL     OW10369   2.215   3.217   4.525
 3157SOL    HW110370   2.229   3.187   4.431
 3157SOL    HW210371   2.205   3.137   4.584
 3158SOL     OW10372   4.730   6.505   0.328
 3158SOL    HW110373   4.736   6.484   0.425
 3158SOL    HW210374   4.635   6.518   0.302
 3159SOL     OW10375   5.526   5.071   0.618
 3159SOL    HW110376   5.607   5.039   0.667
 3159SOL    HW210377   5.444   5.033   0.660
 3160SOL     OW10378   5.762   3.982   7.017
 3160SOL    HW110379   5.754   3.981   0.092
 3160SOL    HW210380   5.852   3.947   6.990
 3161SOL     OW10381   0.649   2.127   2.759
 3161SOL    HW110382   0.634   2.192   2.834
 3161SOL    HW210383   0.747   2.125   2.737
 3162SOL     OW10384   0.187   6.043   6.152
 3162SOL    HW110385   0.243   6.123   6.174
 3162SOL    HW210386   0.096   6.053   6.194
 3163SOL     OW10387   2.658   3.963   6.008
 3163SOL    HW110388   2.676   3.984   6.104
 3163SOL    HW210389   2.745   3.947   5.961
 3164SOL     OW10390   5.599   5.589   6.418
 3164SOL    HW110391   5.571   5.537   6.337
 3164SOL    HW210392   5.575   5.538   6.500
 3165SOL     OW10393   7.018   1.907   1.654
 3165SOL    HW110394   0.009   1.848   1.575
 3165SOL    HW210395   0.065   1.893   1.721
 3166SOL     OW10396   5.059   2.778   6.071
 3166SOL    HW110397   5.068   2.865   6.021
 3166SOL    HW210398   4.983   2.726   6.033
 3167SOL     OW10399   0.578   4.789   2.268
 3167SOL    HW110400   0.497   4.754   2.315
 3167SOL    HW210401   0.567   4.887   2.251
 3168SOL     OW10402   5.399   3.194   0.885
 3168SOL    HW110403   5.497   3.210   0.882
 3168SOL    HW210404   5.350   3.275   0.852
 3169SOL     OW10405   1.622   1.709   5.820
 3169SOL    HW110406   1.550   1.693   5.888
 3169SOL    HW210407   1.602   1.792   5.769
 3170SOL     OW10408   4.489   0.785   6.557
 3170SOL    HW110409   4.506   0.837   6.641
 3170SOL    HW210410   4.394   0.754   6.555
 3171SOL     OW10411   6.368   6.839   3.389
 3171SOL    HW110412   6.338   6.872   3.299
 3171SOL    HW210413   6.319   6.754   3.409
 3172SOL     OW10414   6.079   6.582   5.499
 3172SOL    HW110415   6.102   6.505   5.558
 3172SOL    HW210416   6.049   6.659   5.555
 3173SOL     OW10417   1.754   1.296   1.431
 3173SOL    HW110418   1.836   1.352   1.448
 3173SOL    HW210419   1.763   1.250   1.343
 3174SOL     OW10420   1.915   3.471   5.907
 3174SOL    HW110421   1.946   3.529   5.982
 3174SOL    HW210422   1.960   3.498   5.822
 3175SOL     OW10423   0.316   6.547   0.772
 3175SOL    HW110424   0.289   6.559   0.676
 3175SOL    HW210425   0.373   6.465   0.780
 3176SOL     OW10426   0.394   5.086   6.619
 3176SOL    HW110427   0.391   5.157   6.690
 3176SOL    HW210428   0.378   4.997   6.660
 3177SOL     OW10429   6.713   6.923   5.680
 3177SOL    HW110430   6.627   6.936   5.729
 3177SOL    HW210431   6.695   6.896   5.586
 3178SOL     OW10432   1.171   3.270   1.769
 3178SOL    HW110433   1.197   3.198   1.705
 3178SOL    HW210434   1.078   3.301   1.748
 3179SOL     OW10435   2.445   1.855   3.068
 3179SOL    HW110436   2.393   1.775   3.098
 3179SOL    HW210437   2.467   1.847   2.971
 3180SOL     OW10438   5.884   0.905   6.100
 3180SOL    HW110439   5.979   0.929   6.119
 3180SOL    HW210440   5.866   0.917   6.003
 3181SOL     OW10441   0.364   1.245   2.806
 3181SOL    HW110442   0.322   1.328   2.771
 3181SOL    HW210443   0.417   1.201   2.734
 3182SOL     OW10444   1.698   4.709   5.439
 3182SOL    HW110445   1.651   4.738   5.356
 3182SOL    HW210446   1.648   4.633   5.481
 3183SOL     OW10447   4.086   3.241   1.580
 3183SOL    HW110448   4.149   3.298   1.526
 3183SOL    HW210449   4.009   3.213   1.523
 3184SOL     OW10450   2.647   1.102   3.047
 3184SOL    HW110451   2.599   1.182   3.083
 3184SOL    HW210452   2.744   1.107   3.072
 3185SOL     OW10453   0.077   6.370   5.809
 3185SOL    HW110454   0.084   6.285   5.757
 3185SOL    HW210455   0.019   6.356   5.889
 3186SOL     OW10456   3.095   0.513   1.492
 3186SOL    HW110457   3.078   0.502   1.590
 3186SOL    HW210458   3.187   0.550   1.478
 3187SOL     OW10459   2.837   4.407   6.999
 3187SOL    HW110460   2.846   4.345   6.920
 3187SOL    HW210461   2.889   4.490   6.982
 3188SOL     OW10462   4.240   6.449   3.038
 3188SOL    HW110463   4.264   6.545   3.022
 3188SOL    HW210464   4.170   6.421   2.972
 3189SOL     OW10465   1.444   6.817   2.142
 3189SOL    HW110466   1.523   6.757   2.156
 3189SOL    HW210467   1.470   6.894   2.084
 3190SOL     OW10468   0.452   6.736   2.197
 3190SOL    HW110469   0.483   6.831   2.196
 3190SOL    HW210470   0.470   6.697   2.288
 3191SOL     OW10471   3.551   0.502   0.550
 3191SOL    HW110472   3.638   0.527   0.507
 3191SOL    HW210473   3.559   0.508   0.649
 3192SOL     OW10474   6.750   2.755   2.958
 3192SOL    HW110475   6.668   2.787   2.910
 3192SOL    HW210476   6.828   2.758   2.896
 3193SOL     OW10477   4.805   3.665   0.064
 3193SOL    HW110478   4.722   3.617   0.092
 3193SOL    HW210479   4.781   3.754   0.025
 3194SOL     OW10480   0.978   3.782   5.985
 3194SOL    HW110481   0.943   3.874   5.965
 3194SOL    HW210482   0.919   3.714   5.942
 3195SOL     OW10483   0.106   3.720   3.518
 3195SOL    HW110484   0.029   3.691   3.461
 3195SOL    HW210485   0.184   3.743   3.459
 3196SOL     OW10486   0.634   7.001   5.559
 3196SOL    HW110487   0.554   6.965   5.607
 3196SOL    HW210488   0.702   0.006   5.627
 3197SOL     OW10489   1.362   4.195   4.188
 3197SOL    HW110490   1.426   4.271   4.186
 3197SOL    HW210491   1.413   4.109   4.192
 3198SOL     OW10492   6.896   1.279   0.387
 3198SOL    HW110493   6.804   1.313   0.408
 3198SOL    HW210494   6.925   1.216   0.459
 3199SOL     OW10495   3.836   2.136   2.745
 3199SOL    HW110496   3.822   2.086   2.830
 3199SOL    HW210497   3.929   2.172   2.743
 3200SOL     OW10498   6.926   2.285   0.915
 3200SOL    HW110499   6.883   2.363   0.870
 3200SOL    HW210500   6.997   2.316   0.977
 3201SOL     OW10501   4.375   4.606   2.941
 3201SOL    HW110502   4.287   4.649   2.923
 3201SOL    HW210503   4.397   4.612   3.038
 3202SOL     OW10504   2.147   5.630   1.396
 3202SOL    HW110505   2.222   5.580   1.441
 3202SOL    HW210506   2.120   5.581   1.313
 3203SOL     OW10507   6.363   0.460   2.167
 3203SOL    HW110508   6.301   0.427   2.096
 3203SOL    HW210509   6.343   0.555   2.188
 3204SOL     OW10510   6.158   5.882   1.820
 3204SOL    HW110511   6.235   5.945   1.814
 3204SOL    HW210512   6.187   5.791   1.790
 3205SOL     OW10513   1.500   3.914   2.920
 3205SOL    HW110514   1.445   3.994   2.896
 3205SOL    HW210515   1.518   3.915   3.019
 3206SOL     OW10516   1.565   0.078   0.167
 3206SOL    HW110517   1.483   0.027   0.190
 3206SOL    HW210518   1.558   0.114   0.074
 3207SOL     OW10519   0.567   1.080   4.022
 3207SOL    HW110520   0.545   1.038   3.934
 3207SOL    HW210521   0.597   1.174   4.008
 3208SOL     OW10522   6.268   0.262   5.702
 3208SOL    HW110523   6.269   0.358   5.732
 3208SOL    HW210524   6.188   0.216   5.742
 3209SOL     OW10525   2.418   0.708   3.401
 3209SOL    HW110526   2.507   0.664   3.405
 3209SOL    HW210527   2.406   0.766   3.482
 3210SOL     OW10528   6.980   5.177   3.125
 3210SOL    HW110529   6.921   5.228   3.061
 3210SOL    HW210530   0.046   5.217   3.125
 3211SOL     OW10531   0.961   4.302   1.958
 3211SOL    HW110532   0.865   4.320   1.936
 3211SOL    HW210533   0.966   4.234   2.031
 3212SOL     OW10534   4.868   2.578   5.963
 3212SOL    HW110535   4.794   2.633   5.925
 3212SOL    HW210536   4.829   2.503   6.017
 3213SOL     OW10537   5.440   5.968   1.802
 3213SOL    HW110538   5.416   6.050   1.853
 3213SOL    HW210539   5.540   5.958   1.801
 3214SOL     OW10540   3.901   4.677   5.867
 3214SOL    HW110541   3.980   4.625   5.897
 3214SOL    HW210542   3.858   4.722   5.945
 3215SOL     OW10543   6.122   1.323   0.198
 3215SOL    HW110544   6.218   1.339   0.225
 3215SOL    HW210545   6.115   1.326   0.099
 3216SOL     OW10546   5.638   6.798   4.750
 3216SOL    HW110547   5.575   6.866   4.713
 3216SOL    HW210548   5.659   6.821   4.846
 3217SOL     OW10549   6.909   3.970   1.265
 3217SOL    HW110550   6.910   3.876   1.232
 3217SOL    HW210551   6.932   4.032   1.190
 3218SOL     OW10552   2.838   0.923   2.077
 3218SOL    HW110553   2.823   0.936   1.979
 3218SOL    HW210554   2.803   1.003   2.126
 3219SOL     OW10555   6.864   0.036   3.818
 3219SOL    HW110556   6.958   0.005   3.816
 3219SOL    HW210557   6.822   0.014   3.906
 3220SOL     OW10558   6.013   2.949   5.518
 3220SOL    HW110559   6.090   2.999   5.558
 3220SOL    HW210560   5.960   3.010   5.459
 3221SOL     OW10561   3.789   6.967   2.574
 3221SOL    HW110562   3.858   0.015   2.570
 3221SOL    HW210563   3.825   6.886   2.528
 3222SOL     OW10564   5.913   3.104   3.045
 3222SOL    HW110565   5.896   3.147   3.134
 3222SOL    HW210566   5.939   3.173   2.978
 3223SOL     OW10567   2.436   4.847   4.911
 3223SOL    HW110568   2.501   4.773   4.892
 3223SOL    HW210569   2.451   4.922   4.848
 3224SOL     OW10570   4.012   5.494   0.901
 3224SOL    HW110571   4.075   5.505   0.978
 3224SOL    HW210572   3.920   5.520   0.930
 3225SOL     OW10573   2.207   2.823   1.264
 3225SOL    HW110574   2.273   2.761   1.305
 3225SOL    HW210575   2.121   2.774   1.247
 3226SOL     OW10576   0.351   0.890   4.420
 3226SOL    HW110577   0.411   0.812   4.442
 3226SOL    HW210578   0.328   0.887   4.322
 3227SOL     OW10579   2.628   1.070   5.104
 3227SOL    HW110580   2.637   1.162   5.142
 3227SOL    HW210581   2.533   1.055   5.076
 3228SOL     OW10582   4.805   2.999   5.084
 3228SOL    HW110583   4.832   3.093   5.109
 3228SOL    HW210584   4.827   2.937   5.160
 3229SOL     OW10585   3.678   2.108   5.048
 3229SOL    HW110586   3.706   2.012   5.055
 3229SOL    HW210587   3.749   2.159   4.999
 3230SOL     OW10588   0.989   0.695   3.762
 3230SOL    HW110589   0.921   0.746   3.710
 3230SOL    HW210590   1.079   0.707   3.721
 3231SOL     OW10591   5.377   5.434   0.749
 3231SOL    HW110592   5.374   5.532   0.731
 3231SOL    HW210593   5.378   5.384   0.663
 3232SOL     OW10594   2.101   4.460   3.540
 3232SOL    HW110595   2.040   4.389   3.506
 3232SOL    HW210596   2.121   4.443   3.637
 3233SOL     OW10597   1.262   4.359   1.303
 3233SOL    HW110598   1.288   4.456   1.310
 3233SOL    HW210599   1.166   4.352   1.278
 3234SOL     OW10600   6.290   1.663   4.809
 3234SOL    HW110601   6.262   1.594   4.876
 3234SOL    HW210602   6.238   1.649   4.724
 3235SOL     OW10603   5.652   0.532   3.122
 3235SOL    HW110604   5.700   0.620   3.125
 3235SOL    HW210605   5.625   0.506   3.215
 3236SOL     OW10606   0.655   2.908   1.959
 3236SOL    HW110607   0.714   2.829   1.972
 3236SOL    HW210608   0.681   2.980   2.024
 3237SOL     OW10609   3.320   6.689   4.410
 3237SOL    HW110610   3.333   6.612   4.473
 3237SOL    HW210611   3.397   6.691   4.346
 3238SOL     OW10612   6.366   6.891   6.902
 3238SOL    HW110613   6.443   6.843   6.861
 3238SOL    HW210614   6.377   6.989   6.890
 3239SOL     OW10615   0.369   6.287   5.641
 3239SOL    HW110616   0.289   6.244   5.683
 3239SOL    HW210617   0.366   6.272   5.542
 3240SOL     OW10618   0.836   1.086   4.802
 3240SOL    HW110619   0.748   1.129   4.786
 3240SOL    HW210620   0.878   1.063   4.714
 3241SOL     OW10621   4.340   1.274   5.310
 3241SOL    HW110622   4.241   1.265   5.300
 3241SOL    HW210623   4.383   1.184   5.305
 3242SOL     OW10624   3.097   6.394   0.553
 3242SOL    HW110625   3.140   6.390   0.463
 3242SOL    HW210626   3.167   6.414   0.622
 3243SOL     OW10627   3.523   5.484   0.087
 3243SOL    HW110628   3.591   5.460   0.157
 3243SOL    HW210629   3.436   5.438   0.109
 3244SOL     OW10630   2.268   5.984   5.991
 3244SOL    HW110631   2.269   6.069   5.938
 3244SOL    HW210632   2.315   5.913   5.940
 3245SOL     OW10633   3.229   1.763   5.959
 3245SOL    HW110634   3.151   1.792   6.015
 3245SOL    HW210635   3.271   1.843   5.917
 3246SOL     OW10636   5.361   6.608   3.824
 3246SOL    HW110637   5.355   6.692   3.771
 3246SOL    HW210638   5.382   6.531   3.763
 3247SOL     OW10639   6.797   1.709   4.871
 3247SOL    HW110640   6.794   1.709   4.771
 3247SOL    HW210641   6.885   1.671   4.902
 3248SOL     OW10642   5.464   4.038   2.612
 3248SOL    HW110643   5.420   4.111   2.664
 3248SOL    HW210644   5.400   3.963   2.597
 3249SOL     OW10645   2.901   4.298   5.362
 3249SOL    HW110646   2.886   4.354   5.280
 3249SOL    HW210647   2.815   4.292   5.414
 3250SOL     OW10648   4.280   6.161   2.042
 3250SOL    HW110649   4.268   6.110   1.957
 3250SOL    HW210650   4.235   6.250   2.033
 3251SOL     OW10651   3.447   1.157   3.384
 3251SOL    HW110652   3.492   1.068   3.391
 3251SOL    HW210653   3.515   1.226   3.361
 3252SOL     OW10654   3.164   2.060   3.534
 3252SOL    HW110655   3.100   2.087   3.462
 3252SOL    HW210656   3.138   2.104   3.620
 3253SOL     OW10657   4.530   3.653   0.756
 3253SOL    HW110658   4.539   3.644   0.657
 3253SOL    HW210659   4.569   3.572   0.800
 3254SOL     OW10660   5.092   5.160   2.404
 3254SOL    HW110661   5.034   5.102   2.345
 3254SOL    HW210662   5.125   5.107   2.481
 3255SOL     OW10663   4.079   4.388   0.865
 3255SOL    HW110664   4.000   4.342   0.906
 3255SOL    HW210665   4.157   4.382   0.928
 3256SOL     OW10666   6.282   6.560   6.002
 3256SOL    HW110667   6.351   6.554   6.074
 3256SOL    HW210668   6.242   6.652   6.001
 3257SOL     OW10669   2.163   2.101   0.813
 3257SOL    HW110670   2.184   2.118   0.717
 3257SOL    HW210671   2.236   2.045   0.854
 3258SOL     OW10672   5.831   0.018   1.723
 3258SOL    HW110673   5.924   0.041   1.748
 3258SOL    HW210674   5.832   6.982   1.643
 3259SOL     OW10675   5.818   6.090   3.182
 3259SOL    HW110676   5.741   6.085   3.245
 3259SOL    HW210677   5.794   6.149   3.104
 3260SOL     OW10678   1.466   3.209   0.434
 3260SOL    HW110679   1.368   3.211   0.417
 3260SOL    HW210680   1.515   3.252   0.358
 3261SOL     OW10681   4.863   0.145   3.764
 3261SOL    HW110682   4.928   0.205   3.810
 3261SOL    HW210683   4.869   0.053   3.804
 3262SOL     OW10684   3.841   1.419   4.367
 3262SOL    HW110685   3.868   1.478   4.291
 3262SOL    HW210686   3.792   1.473   4.435
 3263SOL     OW10687   3.272   5.492   2.306
 3263SOL    HW110688   3.241   5.471   2.399
 3263SOL    HW210689   3.204   5.547   2.259
 3264SOL     OW10690   4.644   4.623   5.950
 3264SOL    HW110691   4.690   4.712   5.955
 3264SOL    HW210692   4.663   4.581   5.861
 3265SOL     OW10693   4.991   0.870   6.425
 3265SOL    HW110694   4.900   0.830   6.433
 3265SOL    HW210695   4.984   0.966   6.400
 3266SOL     OW10696   0.523   1.820   6.664
 3266SOL    HW110697   0.473   1.895   6.706
 3266SOL    HW210698   0.575   1.771   6.734
 3267SOL     OW10699   4.874   2.438   1.365
 3267SOL    HW110700   4.798   2.403   1.311
 3267SOL    HW210701   4.936   2.363   1.389
 3268SOL     OW10702   1.403   4.814   6.468
 3268SOL    HW110703   1.488   4.792   6.420
 3268SOL    HW210704   1.372   4.734   6.519
 3269SOL     OW10705   4.894   3.730   0.587
 3269SOL    HW110706   4.846   3.784   0.656
 3269SOL    HW210707   4.921   3.642   0.627
 3270SOL     OW10708   0.457   5.510   4.193
 3270SOL    HW110709   0.470   5.419   4.231
 3270SOL    HW210710   0.400   5.505   4.112
 3271SOL     OW10711   5.318   1.270   2.010
 3271SOL    HW110712   5.252   1.198   1.989
 3271SOL    HW210713   5.353   1.311   1.925
 3272SOL     OW10714   4.831   0.080   0.380
 3272SOL    HW110715   4.918   0.094   0.332
 3272SOL    HW210716   4.764   0.146   0.348
 3273SOL     OW10717   0.368   0.005   3.296
 3273SOL    HW110718   0.350   0.025   3.392
 3273SOL    HW210719   0.417   6.943   3.288
 3274SOL     OW10720   3.594   2.156   6.211
 3274SOL    HW110721   3.547   2.130   6.295
 3274SOL    HW210722   3.628   2.074   6.165
 3275SOL     OW10723   3.884   0.968   0.268
 3275SOL    HW110724   3.840   1.011   0.346
 3275SOL    HW210725   3.893   0.870   0.284
 3276SOL     OW10726   2.457   6.551   0.370
 3276SOL    HW110727   2.457   6.492   0.451
 3276SOL    HW210728   2.551   6.577   0.348
 3277SOL     OW10729   6.878   6.370   5.559
 3277SOL    HW110730   6.839   6.342   5.471
 3277SOL    HW210731   6.955   6.432   5.544
 3278SOL     OW10732   1.261   1.079   0.232
 3278SOL    HW110733   1.277   1.152   0.299
 3278SOL    HW210734   1.339   1.017   0.233
 3279SOL     OW10735   1.892   6.513   1.058
 3279SOL    HW110736   1.984   6.545   1.032
 3279SOL    HW210737   1.836   6.506   0.975
 3280SOL     OW10738   2.136   5.646   5.229
 3280SOL    HW110739   2.135   5.679   5.323
 3280SOL    HW210740   2.043   5.623   5.200
 3281SOL     OW10741   2.490   6.316   0.510
 3281SOL    HW110742   2.544   6.272   0.439
 3281SOL    HW210743   2.525   6.289   0.600
 3282SOL     OW10744   2.244   6.243   2.317
 3282SOL    HW110745   2.145   6.251   2.304
 3282SOL    HW210746   2.275   6.154   2.281
 3283SOL     OW10747   1.986   0.470   4.216
 3283SOL    HW110748   1.951   0.524   4.292
 3283SOL    HW210749   1.970   0.373   4.233
 3284SOL     OW10750   0.908   4.038   5.920
 3284SOL    HW110751   0.941   4.131   5.912
 3284SOL    HW210752   0.814   4.033   5.886
 3285SOL     OW10753   0.053   2.057   4.919
 3285SOL    HW110754   0.116   2.036   4.844
 3285SOL    HW210755   0.094   2.124   4.981
 3286SOL     OW10756   3.953   4.978   5.567
 3286SOL    HW110757   3.929   5.053   5.629
 3286SOL    HW210758   3.879   4.964   5.501
 3287SOL     OW10759   0.015   4.345   1.728
 3287SOL    HW110760   0.031   4.411   1.655
 3287SOL    HW210761   0.101   4.301   1.753
 3288SOL     OW10762   1.758   6.448   6.632
 3288SOL    HW110763   1.763   6.528   6.693
 3288SOL    HW210764   1.842   6.395   6.641
 3289SOL     OW10765   1.067   5.206   4.427
 3289SOL    HW110766   1.016   5.253   4.355
 3289SOL    HW210767   1.108   5.274   4.487
 3290SOL     OW10768   6.792   4.982   2.904
 3290SOL    HW110769   6.765   5.008   2.997
 3290SOL    HW210770   6.790   5.063   2.845
 3291SOL     OW10771   2.417   0.128   1.688
 3291SOL    HW110772   2.438   0.143   1.784
 3291SOL    HW210773   2.351   0.053   1.679
 3292SOL     OW10774   0.535   5.260   5.322
 3292SOL    HW110775   0.546   5.239   5.419
 3292SOL    HW210776   0.455   5.319   5.309
 3293SOL     OW10777   6.319   0.635   2.685
 3293SOL    HW110778   6.270   0.710   2.729
 3293SOL    HW210779   6.401   0.671   2.639
 3294SOL     OW10780   0.798   0.362   0.865
 3294SOL    HW110781   0.849   0.347   0.950
 3294SOL    HW210782   0.722   0.424   0.882
 3295SOL     OW10783   1.572   2.263   6.359
 3295SOL    HW110784   1.545   2.350   6.316
 3295SOL    HW210785   1.661   2.274   6.404
 3296SOL     OW10786   0.934   6.407   1.465
 3296SOL    HW110787   0.899   6.488   1.511
 3296SOL    HW210788   0.860   6.341   1.451
 3297SOL     OW10789   3.184   1.406   6.201
 3297SOL    HW110790   3.181   1.401   6.101
 3297SOL    HW210791   3.111   1.467   6.233
 3298SOL     OW10792   6.385   3.619   3.131
 3298SOL    HW110793   6.356   3.556   3.203
 3298SOL    HW210794   6.466   3.582   3.086
 3299SOL     OW10795   0.951   0.838   5.138
 3299SOL    HW110796   1.024   0.882   5.085
 3299SOL    HW210797   0.979   0.745   5.162
 3300SOL     OW10798   6.874   0.159   5.104
 3300SOL    HW110799   6.884   0.081   5.043
 3300SOL    HW210800   6.904   0.242   5.058
 3301SOL     OW10801   0.104   3.469   2.725
 3301SOL    HW110802   0.136   3.509   2.811
 3301SOL    HW210803   0.026   3.409   2.743
 3302SOL     OW10804   0.945   5.359   4.226
 3302SOL    HW110805   1.040   5.390   4.230
 3302SOL    HW210806   0.884   5.436   4.208
 3303SOL     OW10807   3.242   3.913   3.643
 3303SOL    HW110808   3.220   3.870   3.730
 3303SOL    HW210809   3.297   3.995   3.659
 3304SOL     OW10810   1.435   0.527   3.612
 3304SOL    HW110811   1.524   0.518   3.567
 3304SOL    HW210812   1.448   0.564   3.704
 3305SOL     OW10813   1.103   2.038   1.122
 3305SOL    HW110814   1.058   1.956   1.085
 3305SOL    HW210815   1.202   2.026   1.117
 3306SOL     OW10816   0.715   3.303   2.601
 3306SOL    HW110817   0.626   3.313   2.556
 3306SOL    HW210818   0.764   3.390   2.598
 3307SOL     OW10819   0.736   6.491   0.652
 3307SOL    HW110820   0.743   6.580   0.696
 3307SOL    HW210821   0.827   6.451   0.641
 3308SOL     OW10822   5.617   6.738   0.844
 3308SOL    HW110823   5.677   6.726   0.923
 3308SOL    HW210824   5.530   6.776   0.873
 3309SOL     OW10825   1.269   5.555   2.111
 3309SOL    HW110826   1.328   5.540   2.191
 3309SOL    HW210827   1.285   5.647   2.075
 3310SOL     OW10828   1.370   6.547   2.149
 3310SOL    HW110829   1.388   6.565   2.052
 3310SOL    HW210830   1.394   6.628   2.202
 3311SOL     OW10831   3.838   6.929   1.243
 3311SOL    HW110832   3.874   6.905   1.153
 3311SOL    HW210833   3.807   6.847   1.290
 3312SOL     OW10834   1.991   3.299   6.812
 3312SOL    HW110835   1.926   3.356   6.861
 3312SOL    HW210836   1.945   3.215   6.781
 3313SOL     OW10837   6.492   6.288   5.277
 3313SOL    HW110838   6.589   6.287   5.250
 3313SOL    HW210839   6.479   6.224   5.353
 3314SOL     OW10840   0.492   3.290   6.834
 3314SOL    HW110841   0.542   3.210   6.805
 3314SOL    HW210842   0.406   3.262   6.878
 3315SOL     OW10843   6.359   3.505   2.760
 3315SOL    HW110844   6.449   3.543   2.740
 3315SOL    HW210845   6.304   3.503   2.677
 3316SOL     OW10846   4.605   1.455   0.556
 3316SOL    HW110847   4.589   1.388   0.484
 3316SOL    HW210848   4.693   1.438   0.599
 3317SOL     OW10849   4.403   2.577   1.652
 3317SOL    HW110850   4.422   2.543   1.745
 3317SOL    HW210851   4.412   2.502   1.587
 3318SOL     OW10852   2.549   5.228   4.928
 3318SOL    HW110853   2.453   5.246   4.908
 3318SOL    HW210854   2.558   5.194   5.021
 3319SOL     OW10855   0.082   6.018   6.445
 3319SOL    HW110856   0.008   6.084   6.458
 3319SOL    HW210857   0.133   6.008   6.530
 3320SOL     OW10858   0.516   1.211   6.036
 3320SOL    HW110859   0.542   1.291   6.089
 3320SOL    HW210860   0.416   1.208   6.028
 3321SOL     OW10861   3.795   3.417   4.049
 3321SOL    HW110862   3.886   3.435   4.012
 3321SOL    HW210863   3.734   3.390   3.975
 3322SOL     OW10864   4.677   2.853   0.953
 3322SOL    HW110865   4.742   2.852   1.028
 3322SOL    HW210866   4.584   2.857   0.989
 3323SOL     OW10867   2.668   4.733   6.740
 3323SOL    HW110868   2.660   4.767   6.834
 3323SOL    HW210869   2.606   4.785   6.681
 3324SOL     OW10870   6.588   3.139   0.992
 3324SOL    HW110871   6.641   3.222   1.009
 3324SOL    HW210872   6.636   3.060   1.029
 3325SOL     OW10873   1.145   3.556   6.645
 3325SOL    HW110874   1.191   3.495   6.580
 3325SOL    HW210875   1.080   3.614   6.596
 3326SOL     OW10876   6.762   0.996   1.779
 3326SOL    HW110877   6.772   0.913   1.725
 3326SOL    HW210878   6.676   0.993   1.830
 3327SOL     OW10879   3.221   6.203   1.980
 3327SOL    HW110880   3.209   6.149   2.064
 3327SOL    HW210881   3.254   6.144   1.907
 3328SOL     OW10882   5.103   0.454   3.582
 3328SOL    HW110883   5.040   0.530   3.571
 3328SOL    HW210884   5.063   0.372   3.541
 3329SOL     OW10885   5.612   0.535   6.069
 3329SOL    HW110886   5.601   0.634   6.064
 3329SOL    HW210887   5.694   0.508   6.018
 3330SOL     OW10888   6.639   5.891   3.200
 3330SOL    HW110889   6.601   5.846   3.281
 3330SOL    HW210890   6.737   5.875   3.196
 3331SOL     OW10891   1.416   3.407   2.600
 3331SOL    HW110892   1.419   3.314   2.565
 3331SOL    HW210893   1.361   3.464   2.538
 3332SOL     OW10894   3.563   4.866   0.337
 3332SOL    HW110895   3.624   4.895   0.263
 3332SOL    HW210896   3.482   4.822   0.297
 3333SOL     OW10897   2.347   3.253   1.749
 3333SOL    HW110898   2.361   3.337   1.801
 3333SOL    HW210899   2.435   3.207   1.735
 3334SOL     OW10900   2.176   2.147   1.844
 3334SOL    HW110901   2.120   2.106   1.772
 3334SOL    HW210902   2.247   2.083   1.872
 3335SOL     OW10903   3.754   4.149   5.016
 3335SOL    HW110904   3.756   4.052   4.994
 3335SOL    HW210905   3.734   4.201   4.933
 3336SOL     OW10906   4.357   5.773   5.002
 3336SOL    HW110907   4.333   5.850   5.060
 3336SOL    HW210908   4.408   5.705   5.055
 3337SOL     OW10909   3.361   2.897   2.570
 3337SOL    HW110910   3.461   2.896   2.576
 3337SOL    HW210911   3.334   2.892   2.474
 3338SOL     OW10912   2.452   3.318   1.164
 3338SOL    HW110913   2.438   3.220   1.180
 3338SOL    HW210914   2.497   3.358   1.243
 3339SOL     OW10915   1.790   0.317   6.680
 3339SOL    HW110916   1.785   0.383   6.755
 3339SOL    HW210917   1.703   0.267   6.674
 3340SOL     OW10918   4.118   0.991   5.321
 3340SOL    HW110919   4.040   0.928   5.323
 3340SOL    HW210920   4.129   1.032   5.412
 3341SOL     OW10921   1.109   4.489   2.280
 3341SOL    HW110922   1.154   4.515   2.366
 3341SOL    HW210923   1.096   4.390   2.278
 3342SOL     OW10924   6.447   1.033   2.604
 3342SOL    HW110925   6.386   0.965   2.645
 3342SOL    HW210926   6.542   1.008   2.622
 3343SOL     OW10927   4.521   5.579   0.208
 3343SOL    HW110928   4.446   5.548   0.150
 3343SOL    HW210929   4.588   5.628   0.153
 3344SOL     OW10930   0.648   3.394   2.218
 3344SOL    HW110931   0.723   3.348   2.264
 3344SOL    HW210932   0.565   3.385   2.272
 3345SOL     OW10933   5.645   5.537   0.837
 3345SOL    HW110934   5.638   5.541   0.738
 3345SOL    HW210935   5.650   5.442   0.867
 3346SOL     OW10936   2.178   0.738   6.946
 3346SOL    HW110937   2.192   0.707   0.015
 3346SOL    HW210938   2.118   0.817   6.945
 3347SOL     OW10939   0.491   3.776   5.554
 3347SOL    HW110940   0.453   3.761   5.463
 3347SOL    HW210941   0.508   3.873   5.568
 3348SOL     OW10942   3.628   4.139   5.890
 3348SOL    HW110943   3.694   4.213   5.890
 3348SOL    HW210944   3.666   4.059   5.937
 3349SOL     OW10945   2.026   5.819   2.661
 3349SOL    HW110946   2.089   5.742   2.658
 3349SOL    HW210947   2.075   5.903   2.636
 3350SOL     OW10948   1.841   5.006   4.376
 3350SOL    HW110949   1.774   5.066   4.332
 3350SOL    HW210950   1.822   5.001   4.474
 3351SOL     OW10951   5.508   0.871   2.068
 3351SOL    HW110952   5.603   0.882   2.097
 3351SOL    HW210953   5.505   0.863   1.968
 3352SOL     OW10954   5.857   1.690   6.994
 3352SOL    HW110955   5.814   1.604   6.966
 3352SOL    HW210956   5.929   1.670   0.036
 3353SOL     OW10957   3.988   0.184   6.928
 3353SOL    HW110958   3.892   0.212   6.934
 3353SOL    HW210959   3.996   0.106   6.866
 3354SOL     OW10960   2.889   3.928   6.638
 3354SOL    HW110961   2.946   3.973   6.570
 3354SOL    HW210962   2.834   3.996   6.686
 3355SOL     OW10963   1.340   0.082   5.214
 3355SOL    HW110964   1.267   0.150   5.203
 3355SOL    HW210965   1.423   0.114   5.169
 3356SOL     OW10966   1.970   0.500   6.546
 3356SOL    HW110967   1.894   0.447   6.584
 3356SOL    HW210968   1.935   0.575   6.490
 3357SOL     OW10969   3.323   3.051   2.818
 3357SOL    HW110970   3.334   2.984   2.745
 3357SOL    HW210971   3.312   3.004   2.905
 3358SOL     OW10972   6.918   1.130   1.964
 3358SOL    HW110973   6.866   1.118   1.880
 3358SOL    HW210974   7.015   1.115   1.946
 3359SOL     OW10975   0.663   6.257   5.132
 3359SOL    HW110976   0.675   6.356   5.133
 3359SOL    HW210977   0.704   6.220   5.048
 3360SOL     OW10978   2.234   4.908   4.167
 3360SOL    HW110979   2.182   4.993   4.179
 3360SOL    HW210980   2.290   4.915   4.084
 3361SOL     OW10981   6.761   6.661   5.703
 3361SOL    HW110982   6.692   6.605   5.657
 3361SOL    HW210983   6.735   6.757   5.697
 3362SOL     OW10984   3.756   0.294   4.011
 3362SOL    HW110985   3.685   0.280   4.081
 3362SOL    HW210986   3.801   0.381   4.027
 3363SOL     OW10987   5.718   4.221   0.218
 3363SOL    HW110988   5.712   4.124   0.240
 3363SOL    HW210989   5.670   4.239   0.132
 3364SOL     OW10990   1.735   3.700   2.406
 3364SOL    HW110991   1.821   3.726   2.362
 3364SOL    HW210992   1.741   3.719   2.504
 3365SOL     OW10993   1.141   3.481   3.121
 3365SOL    HW110994   1.191   3.556   3.164
 3365SOL    HW210995   1.205   3.413   3.087
 3366SOL     OW10996   5.781   3.365   4.960
 3366SOL    HW110997   5.846   3.314   4.903
 3366SOL    HW210998   5.693   3.372   4.911
 3367SOL     OW10999   3.153   3.377   3.795
 3367SOL    HW111000   3.143   3.283   3.829
 3367SOL    HW211001   3.250   3.395   3.776
 3368SOL     OW11002   2.685   0.906   2.854
 3368SOL    HW111003   2.783   0.892   2.839
 3368SOL    HW211004   2.672   0.976   2.924
 3369SOL     OW11005   4.981   2.476   1.096
 3369SOL    HW111006   4.931   2.474   1.182
 3369SOL    HW211007   4.991   2.570   1.064
 3370SOL     OW11008   0.428   5.459   2.624
 3370SOL    HW111009   0.432   5.516   2.707
 3370SOL    HW211010   0.487   5.498   2.554
 3371SOL     OW11011   1.953   2.626   1.918
 3371SOL    HW111012   2.003   2.641   1.833
 3371SOL    HW211013   1.983   2.692   1.987
 3372SOL     OW11014   5.956   3.554   2.808
 3372SOL    HW111015   5.955   3.543   2.708
 3372SOL    HW211016   5.904   3.636   2.833
 3373SOL     OW11017   0.107   4.064   1.933
 3373SOL    HW111018   0.164   4.142   1.906
 3373SOL    HW211019   0.119   4.047   2.031
 3374SOL     OW11020   0.718   6.402   3.992
 3374SOL    HW111021   0.765   6.357   3.917
 3374SOL    HW211022   0.672   6.334   4.049
 3375SOL     OW11023   0.322   5.814   6.057
 3375SOL    HW111024   0.414   5.783   6.082
 3375SOL    HW211025   0.298   5.894   6.111
 3376SOL     OW11026   3.407   2.903   4.087
 3376SOL    HW111027   3.496   2.912   4.042
 3376SOL    HW211028   3.416   2.931   4.183
 3377SOL     OW11029   6.962   5.261   4.215
 3377SOL    HW111030   6.973   5.285   4.118
 3377SOL    HW211031   6.982   5.163   4.227
 3378SOL     OW11032   1.804   6.106   1.047
 3378SOL    HW111033   1.861   6.136   0.970
 3378SOL    HW211034   1.822   6.009   1.066
 3379SOL     OW11035   6.191   3.558   4.459
 3379SOL    HW111036   6.181   3.494   4.383
 3379SOL    HW211037   6.258   3.521   4.524
 3380SOL     OW11038   2.538   4.586   0.655
 3380SOL    HW111039   2.573   4.581   0.748
 3380SOL    HW211040   2.604   4.634   0.597
 3381SOL     OW11041   2.324   3.884   5.801
 3381SOL    HW111042   2.353   3.815   5.867
 3381SOL    HW211043   2.381   3.878   5.719
 3382SOL     OW11044   6.812   3.718   0.095
 3382SOL    HW111045   6.717   3.686   0.096
 3382SOL    HW211046   6.874   3.640   0.092
 3383SOL     OW11047   4.339   5.515   0.036
 3383SOL    HW111048   4.241   5.506   0.053
 3383SOL    HW211049   4.364   5.461   6.980
 3384SOL     OW11050   2.486   3.166   6.366
 3384SOL    HW111051   2.555   3.238   6.371
 3384SOL    HW211052   2.406   3.200   6.316
 3385SOL     OW11053   6.323   2.122   4.197
 3385SOL    HW111054   6.416   2.153   4.214
 3385SOL    HW211055   6.300   2.049   4.262
 3386SOL     OW11056   0.178   6.060   4.498
 3386SOL    HW111057   0.195   6.029   4.404
 3386SOL    HW211058   0.217   5.994   4.562
 3387SOL     OW11059   5.959   1.022   2.952
 3387SOL    HW111060   5.936   1.103   3.004
 3387SOL    HW211061   5.875   0.975   2.924
 3388SOL     OW11062   6.630   4.416   0.952
 3388SOL    HW111063   6.564   4.353   0.912
 3388SOL    HW211064   6.613   4.509   0.919
 3389SOL     OW11065   5.852   5.569   6.494
 3389SOL    HW111066   5.754   5.572   6.479
 3389SOL    HW211067   5.895   5.510   6.425
 3390SOL     OW11068   2.977   5.122   0.042
 3390SOL    HW111069   2.925   5.203   0.069
 3390SOL    HW211070   3.017   5.079   0.123
 3391SOL     OW11071   4.805   4.274   4.960
 3391SOL    HW111072   4.878   4.232   4.906
 3391SOL    HW211073   4.769   4.354   4.910
 3392SOL     OW11074   4.667   6.532   6.228
 3392SOL    HW111075   4.682   6.607   6.164
 3392SOL    HW211076   4.751   6.479   6.237
 3393SOL     OW11077   3.656   6.144   0.463
 3393SOL    HW111078   3.715   6.094   0.400
 3393SOL    HW211079   3.712   6.184   0.535
 3394SOL     OW11080   2.992   5.284   1.298
 3394SOL    HW111081   3.023   5.190   1.289
 3394SOL    HW211082   3.033   5.326   1.379
 3395SOL     OW11083   1.584   6.850   2.925
 3395SOL    HW111084   1.616   6.800   3.005
 3395SOL    HW211085   1.492   6.886   2.944
 3396SOL     OW11086   4.521   0.103   4.024
 3396SOL    HW111087   4.573   0.051   4.091
 3396SOL    HW211088   4.444   0.048   3.991
 3397SOL     OW11089   2.540   5.673   6.678
 3397SOL    HW111090   2.580   5.759   6.709
 3397SOL    HW211091   2.551   5.664   6.579
 3398SOL     OW11092   6.903   1.789   5.673
 3398SOL    HW111093   6.988   1.748   5.640
 3398SOL    HW211094   6.829   1.766   5.610
 3399SOL     OW11095   6.556   6.026   2.292
 3399SOL    HW111096   6.607   5.953   2.337
 3399SOL    HW211097   6.563   6.110   2.346
 3400SOL     OW11098   3.936   3.107   5.466
 3400SOL    HW111099   4.014   3.169   5.480
 3400SOL    HW211100   3.851   3.159   5.468
 3401SOL     OW11101   6.952   3.728   4.315
 3401SOL    HW111102   6.898   3.762   4.392
 3401SOL    HW211103   0.005   3.789   4.300
 3402SOL     OW11104   6.412   3.716   0.787
 3402SOL    HW111105   6.382   3.620   0.787
 3402SOL    HW211106   6.354   3.769   0.726
 3403SOL     OW11107   5.269   0.004   6.741
 3403SOL    HW111108   5.176   0.038   6.755
 3403SOL    HW211109   5.283   6.946   6.796
 3404SOL     OW11110   5.148   5.102   3.940
 3404SOL    HW111111   5.167   5.038   3.866
 3404SOL    HW211112   5.220   5.096   4.009
 3405SOL     OW11113   4.036   6.015   6.840
 3405SOL    HW111114   4.066   6.094   6.895
 3405SOL    HW211115   4.080   5.932   6.875
 3406SOL     OW11116   3.068   5.405   1.077
 3406SOL    HW111117   3.050   5.371   1.169
 3406SOL    HW211118   3.008   5.483   1.058
 3407SOL     OW11119   1.140   4.228   6.643
 3407SOL    HW111120   1.115   4.142   6.688
 3407SOL    HW211121   1.089   4.237   6.557
 3408SOL     OW11122   4.917   0.240   3.499
 3408SOL    HW111123   4.831   0.223   3.452
 3408SOL    HW211124   4.918   0.191   3.587
 3409SOL     OW11125   4.134   1.513   0.121
 3409SOL    HW111126   4.045   1.556   0.131
 3409SOL    HW211127   4.131   1.445   0.047
 3410SOL     OW11128   6.337   0.551   3.124
 3410SOL    HW111129   6.238   0.555   3.138
 3410SOL    HW211130   6.359   0.471   3.069
 3411SOL     OW11131   6.074   3.220   5.668
 3411SOL    HW111132   6.121   3.286   5.726
 3411SOL    HW211133   6.094   3.239   5.572
 3412SOL     OW11134   5.431   3.398   2.286
 3412SOL    HW111135   5.469   3.470   2.227
 3412SOL    HW211136   5.345   3.366   2.247
 3413SOL     OW11137   6.436   1.508   0.760
 3413SOL    HW111138   6.531   1.482   0.778
 3413SOL    HW211139   6.375   1.438   0.797
 3414SOL     OW11140   3.483   3.423   1.753
 3414SOL    HW111141   3.429   3.394   1.832
 3414SOL    HW211142   3.570   3.373   1.752
 3415SOL     OW11143   2.124   1.753   5.712
 3415SOL    HW111144   2.030   1.777   5.734
 3415SOL    HW211145   2.130   1.655   5.692
 3416SOL     OW11146   6.412   6.781   0.138
 3416SOL    HW111147   6.403   6.806   0.041
 3416SOL    HW211148   6.341   6.715   0.162
 3417SOL     OW11149   6.408   6.881   3.078
 3417SOL    HW111150   6.468   6.873   2.998
 3417SOL    HW211151   6.425   6.969   3.123
 3418SOL     OW11152   4.194   5.704   0.460
 3418SOL    HW111153   4.229   5.779   0.405
 3418SOL    HW211154   4.268   5.666   0.515
 3419SOL     OW11155   2.391   4.779   5.187
 3419SOL    HW111156   2.327   4.718   5.140
 3419SOL    HW211157   2.429   4.844   5.120
 3420SOL     OW11158   4.200   1.646   2.188
 3420SOL    HW111159   4.120   1.589   2.202
 3420SOL    HW211160   4.282   1.588   2.185
 3421SOL     OW11161   0.067   1.648   5.171
 3421SOL    HW111162   0.053   1.659   5.073
 3421SOL    HW211163   7.007   1.673   5.219
 3422SOL     OW11164   2.931   6.870   0.997
 3422SOL    HW111165   2.909   6.814   0.917
 3422SOL    HW211166   2.885   6.832   1.077
 3423SOL     OW11167   2.662   4.493   5.537
 3423SOL    HW111168   2.621   4.524   5.451
 3423SOL    HW211169   2.648   4.395   5.546
 3424SOL     OW11170   5.386   0.748   2.359
 3424SOL    HW111171   5.343   0.822   2.307
 3424SOL    HW211172   5.413   0.781   2.449
 3425SOL     OW11173   6.525   3.598   5.982
 3425SOL    HW111174   6.474   3.658   6.044
 3425SOL    HW211175   6.543   3.646   5.896
 3426SOL     OW11176   6.365   4.054   0.122
 3426SOL    HW111177   6.283   4.015   0.163
 3426SOL    HW211178   6.359   4.048   0.022
 3427SOL     OW11179   1.517   2.110   0.271
 3427SOL    HW111180   1.598   2.090   0.216
 3427SOL    HW211181   1.543   2.171   0.346
 3428SOL     OW11182   4.734   6.864   4.777
 3428SOL    HW111183   4.704   6.956   4.752
 3428SOL    HW211184   4.832   6.855   4.760
 3429SOL     OW11185   4.360   6.828   0.962
 3429SOL    HW111186   4.446   6.831   1.012
 3429SOL    HW211187   4.359   6.748   0.902
 3430SOL     OW11188   2.560   3.935   6.461
 3430SOL    HW111189   2.634   4.001   6.470
 3430SOL    HW211190   2.505   3.936   6.545
 3431SOL     OW11191   0.569   4.558   2.549
 3431SOL    HW111192   0.571   4.463   2.579
 3431SOL    HW211193   0.484   4.575   2.500
 3432SOL     OW11194   0.545   4.791   0.354
 3432SOL    HW111195   0.594   4.704   0.351
 3432SOL    HW211196   0.605   4.864   0.319
 3433SOL     OW11197   2.154   0.859   0.288
 3433SOL    HW111198   2.056   0.839   0.284
 3433SOL    HW211199   2.182   0.865   0.384
 3434SOL     OW11200   3.633   2.603   1.702
 3434SOL    HW111201   3.537   2.630   1.706
 3434SOL    HW211202   3.644   2.511   1.740
 3435SOL     OW11203   1.748   2.295   1.243
 3435SOL    HW111204   1.736   2.293   1.342
 3435SOL    HW211205   1.827   2.239   1.217
 3436SOL     OW11206   4.021   6.899   6.383
 3436SOL    HW111207   4.042   6.986   6.339
 3436SOL    HW211208   3.928   6.902   6.420
 3437SOL     OW11209   1.531   0.268   6.961
 3437SOL    HW111210   1.442   0.223   6.972
 3437SOL    HW211211   1.561   0.260   6.866
 3438SOL     OW11212   2.619   4.131   0.689
 3438SOL    HW111213   2.575   4.192   0.624
 3438SOL    HW211214   2.619   4.173   0.780
 3439SOL     OW11215   2.701   5.836   0.530
 3439SOL    HW111216   2.682   5.753   0.582
 3439SOL    HW211217   2.714   5.913   0.594
 3440SOL     OW11218   3.264   3.702   5.523
 3440SOL    HW111219   3.234   3.622   5.574
 3440SOL    HW211220   3.315   3.763   5.583
 3441SOL     OW11221   6.396   4.763   5.024
 3441SOL    HW111222   6.425   4.782   5.117
 3441SOL    HW211223   6.388   4.849   4.973
 3442SOL     OW11224   1.681   2.967   1.143
 3442SOL    HW111225   1.767   3.011   1.120
 3442SOL    HW211226   1.668   2.967   1.242
 3443SOL     OW11227   0.378   6.230   2.193
 3443SOL    HW111228   0.477   6.238   2.200
 3443SOL    HW211229   0.354   6.143   2.151
 3444SOL     OW11230   6.798   3.983   5.675
 3444SOL    HW111231   6.891   3.961   5.645
 3444SOL    HW211232   6.797   3.992   5.775
 3445SOL     OW11233   6.337   4.643   4.455
 3445SOL    HW111234   6.326   4.635   4.356
 3445SOL    HW211235   6.397   4.720   4.477
 3446SOL     OW11236   4.649   1.375   0.833
 3446SOL    HW111237   4.602   1.460   0.810
 3446SOL    HW211238   4.738   1.373   0.786
 3447SOL     OW11239   5.634   0.921   6.602
 3447SOL    HW111240   5.538   0.925   6.573
 3447SOL    HW211241   5.693   0.919   6.521
 3448SOL     OW11242   1.183   4.551   4.744
 3448SOL    HW111243   1.103   4.556   4.685
 3448SOL    HW211244   1.194   4.457   4.778
 3449SOL     OW11245   0.642   4.368   5.072
 3449SOL    HW111246   0.641   4.431   5.150
 3449SOL    HW211247   0.570   4.300   5.083
 3450SOL     OW11248   2.404   0.092   1.974
 3450SOL    HW111249   2.308   0.091   2.004
 3450SOL    HW211250   2.461   0.050   2.044
 3451SOL     OW11251   1.648   2.166   0.862
 3451SOL    HW111252   1.631   2.259   0.894
 3451SOL    HW211253   1.694   2.170   0.773
 3452SOL     OW11254   4.115   1.469   5.532
 3452SOL    HW111255   4.106   1.557   5.579
 3452SOL    HW211256   4.147   1.400   5.597
 3453SOL     OW11257   4.433   6.671   6.588
 3453SOL    HW111258   4.435   6.673   6.687
 3453SOL    HW211259   4.366   6.605   6.556
 3454SOL     OW11260   0.316   3.130   1.919
 3454SOL    HW111261   0.225   3.169   1.913
 3454SOL    HW211262   0.373   3.187   1.978
 3455SOL     OW11263   0.509   3.840   6.247
 3455SOL    HW111264   0.475   3.759   6.199
 3455SOL    HW211265   0.532   3.911   6.181
 3456SOL     OW11266   4.938   5.695   3.965
 3456SOL    HW111267   5.013   5.650   3.915
 3456SOL    HW211268   4.875   5.626   4.001
 3457SOL     OW11269   3.704   4.440   6.839
 3457SOL    HW111270   3.734   4.516   6.897
 3457SOL    HW211271   3.614   4.461   6.800
 3458SOL     OW11272   4.260   1.869   2.299
 3458SOL    HW111273   4.229   1.785   2.255
 3458SOL    HW211274   4.186   1.908   2.353
 3459SOL     OW11275   5.337   5.964   2.106
 3459SOL    HW111276   5.406   6.036   2.096
 3459SOL    HW211277   5.250   5.995   2.068
 3460SOL     OW11278   3.682   1.848   4.870
 3460SOL    HW111279   3.589   1.879   4.892
 3460SOL    HW211280   3.742   1.927   4.858
 3461SOL     OW11281   4.984   5.188   4.376
 3461SOL    HW111282   4.977   5.093   4.408
 3461SOL    HW211283   4.963   5.192   4.278
 3462SOL     OW11284   0.910   3.969   6.269
 3462SOL    HW111285   0.888   3.977   6.172
 3462SOL    HW211286   1.007   3.947   6.280
 3463SOL     OW11287   5.728   3.954   0.269
 3463SOL    HW111288   5.657   3.888   0.242
 3463SOL    HW211289   5.737   3.952   0.369
 3464SOL     OW11290   0.110   4.353   4.251
 3464SOL    HW111291   0.171   4.386   4.178
 3464SOL    HW211292   0.113   4.254   4.255
 3465SOL     OW11293   0.626   2.191   2.397
 3465SOL    HW111294   0.711   2.187   2.449
 3465SOL    HW211295   0.591   2.098   2.382
 3466SOL     OW11296   0.042   3.411   4.670
 3466SOL    HW111297   7.013   3.493   4.691
 3466SOL    HW211298   7.016   3.330   4.696
 3467SOL     OW11299   1.751   2.199   5.482
 3467SOL    HW111300   1.824   2.247   5.532
 3467SOL    HW211301   1.791   2.147   5.407
 3468SOL     OW11302   3.965   6.369   2.217
 3468SOL    HW111303   3.977   6.460   2.258
 3468SOL    HW211304   4.019   6.302   2.268
 3469SOL     OW11305   5.456   3.590   1.149
 3469SOL    HW111306   5.430   3.588   1.053
 3469SOL    HW211307   5.391   3.646   1.200
 3470SOL     OW11308   0.286   5.587   1.282
 3470SOL    HW111309   0.361   5.652   1.290
 3470SOL    HW211310   0.290   5.541   1.193
 3471SOL     OW11311   4.136   6.671   4.561
 3471SOL    HW111312   4.205   6.639   4.625
 3471SOL    HW211313   4.163   6.646   4.468
 3472SOL     OW11314   4.547   1.268   4.917
 3472SOL    HW111315   4.587   1.178   4.933
 3472SOL    HW211316   4.605   1.339   4.957
 3473SOL     OW11317   3.748   0.010   3.973
 3473SOL    HW111318   3.765   0.109   3.982
 3473SOL    HW211319   3.699   7.003   4.054
 3474SOL     OW11320   4.954   4.511   1.132
 3474SOL    HW111321   4.936   4.568   1.051
 3474SOL    HW211322   4.965   4.416   1.104
 3475SOL     OW11323   1.710   6.180   4.851
 3475SOL    HW111324   1.627   6.192   4.796
 3475SOL    HW211325   1.789   6.213   4.799
 3476SOL     OW11326   4.386   1.972   5.118
 3476SOL    HW111327   4.427   2.063   5.127
 3476SOL    HW211328   4.459   1.904   5.111
 3477SOL     OW11329   4.099   5.618   1.459
 3477SOL    HW111330   4.008   5.647   1.426
 3477SOL    HW211331   4.159   5.698   1.464
 3478SOL     OW11332   4.198   4.213   0.242
 3478SOL    HW111333   4.199   4.234   0.144
 3478SOL    HW211334   4.192   4.114   0.255
 3479SOL     OW11335   1.582   0.148   1.420
 3479SOL    HW111336   1.516   0.121   1.489
 3479SOL    HW211337   1.572   0.090   1.339
 3480SOL     OW11338   0.788   6.999   4.272
 3480SOL    HW111339   0.844   6.919   4.292
 3480SOL    HW211340   0.700   6.970   4.234
 3481SOL     OW11341   1.799   6.130   0.296
 3481SOL    HW111342   1.877   6.078   0.261
 3481SOL    HW211343   1.777   6.204   0.232
 3482SOL     OW11344   0.876   2.450   2.281
 3482SOL    HW111345   0.805   2.501   2.234
 3482SOL    HW211346   0.882   2.357   2.243
 3483SOL     OW11347   3.751   1.890   0.611
 3483SOL    HW111348   3.838   1.849   0.635
 3483SOL    HW211349   3.766   1.982   0.574
 3484SOL     OW11350   3.946   3.067   3.933
 3484SOL    HW111351   3.869   3.013   3.966
 3484SOL    HW211352   3.942   3.073   3.833
 3485SOL     OW11353   6.505   1.783   4.895
 3485SOL    HW111354   6.591   1.734   4.891
 3485SOL    HW211355   6.431   1.725   4.860
 3486SOL     OW11356   4.877   0.711   2.652
 3486SOL    HW111357   4.963   0.761   2.638
 3486SOL    HW211358   4.883   0.658   2.737
 3487SOL     OW11359   0.477   0.851   0.706
 3487SOL    HW111360   0.482   0.914   0.628
 3487SOL    HW211361   0.499   0.900   0.790
 3488SOL     OW11362   6.419   3.500   4.180
 3488SOL    HW111363   6.367   3.465   4.257
 3488SOL    HW211364   6.461   3.423   4.130
 3489SOL     OW11365   2.428   5.384   0.643
 3489SOL    HW111366   2.456   5.296   0.681
 3489SOL    HW211367   2.410   5.448   0.717
 3490SOL     OW11368   4.572   3.213   1.057
 3490SOL    HW111369   4.578   3.307   1.022
 3490SOL    HW211370   4.516   3.158   0.994
 3491SOL     OW11371   0.386   2.911   5.904
 3491SOL    HW111372   0.354   2.992   5.855
 3491SOL    HW211373   0.422   2.844   5.838
 3492SOL     OW11374   6.087   4.518   6.924
 3492SOL    HW111375   6.121   4.451   6.858
 3492SOL    HW211376   6.131   4.606   6.907
 3493SOL     OW11377   6.866   5.022   1.805
 3493SOL    HW111378   6.809   5.091   1.849
 3493SOL    HW211379   6.811   4.971   1.738
 3494SOL     OW11380   2.800   6.812   1.215
 3494SOL    HW111381   2.793   6.777   1.309
 3494SOL    HW211382   2.726   6.878   1.199
 3495SOL     OW11383   5.984   4.205   0.254
 3495SOL    HW111384   6.008   4.116   0.214
 3495SOL    HW211385   5.885   4.213   0.261
 3496SOL     OW11386   0.853   4.847   0.692
 3496SOL    HW111387   0.879   4.761   0.737
 3496SOL    HW211388   0.878   4.843   0.595
 3497SOL     OW11389   4.539   6.380   4.502
 3497SOL    HW111390   4.534   6.342   4.410
 3497SOL    HW211391   4.631   6.415   4.519
 3498SOL     OW11392   1.247   1.542   0.952
 3498SOL    HW111393   1.313   1.469   0.935
 3498SOL    HW211394   1.295   1.626   0.976
 3499SOL     OW11395   0.076   4.172   4.616
 3499SOL    HW111396   0.006   4.166   4.545
 3499SOL    HW211397   0.167   4.165   4.573
 3500SOL     OW11398   6.261   3.451   0.836
 3500SOL    HW111399   6.181   3.454   0.776
 3500SOL    HW211400   6.310   3.365   0.822
 3501SOL     OW11401   1.081   4.123   3.120
 3501SOL    HW111402   1.138   4.180   3.060
 3501SOL    HW211403   1.138   4.053   3.162
 3502SOL     OW11404   1.056   4.836   1.689
 3502SOL    HW111405   0.966   4.855   1.728
 3502SOL    HW211406   1.125   4.894   1.733
 3503SOL     OW11407   3.647   6.680   3.562
 3503SOL    HW111408   3.651   6.751   3.491
 3503SOL    HW211409   3.706   6.706   3.638
 3504SOL     OW11410   2.209   2.948   2.797
 3504SOL    HW111411   2.187   2.905   2.885
 3504SOL    HW211412   2.171   3.040   2.794
 3505SOL     OW11413   4.155   6.233   4.650
 3505SOL    HW111414   4.145   6.329   4.676
 3505SOL    HW211415   4.252   6.207   4.654
 3506SOL     OW11416   5.608   5.075   2.387
 3506SOL    HW111417   5.555   5.152   2.352
 3506SOL    HW211418   5.620   5.007   2.315
 3507SOL     OW11419   0.390   0.694   6.381
 3507SOL    HW111420   0.445   0.655   6.307
 3507SOL    HW211421   0.311   0.742   6.341
 3508SOL     OW11422   6.030   3.925   6.909
 3508SOL    HW111423   6.093   3.848   6.894
 3508SOL    HW211424   6.080   4.011   6.899
 3509SOL     OW11425   6.034   0.549   0.582
 3509SOL    HW111426   6.081   0.463   0.598
 3509SOL    HW211427   5.935   0.536   0.590
 3510SOL     OW11428   2.240   2.471   2.374
 3510SOL    HW111429   2.338   2.450   2.374
 3510SOL    HW211430   2.200   2.439   2.288
 3511SOL     OW11431   0.818   1.053   5.058
 3511SOL    HW111432   0.819   1.065   4.958
 3511SOL    HW211433   0.833   0.956   5.080
 3512SOL     OW11434   3.122   2.819   0.972
 3512SOL    HW111435   3.120   2.758   0.893
 3512SOL    HW211436   3.044   2.881   0.968
 3513SOL     OW11437   5.148   4.560   1.279
 3513SOL    HW111438   5.071   4.550   1.216
 3513SOL    HW211439   5.208   4.480   1.272
 3514SOL     OW11440   1.714   6.949   1.774
 3514SOL    HW111441   1.777   6.872   1.787
 3514SOL    HW211442   1.740   6.998   1.690
 3515SOL     OW11443   3.920   6.342   3.584
 3515SOL    HW111444   3.981   6.293   3.522
 3515SOL    HW211445   3.912   6.291   3.670
 3516SOL     OW11446   2.315   1.304   0.546
 3516SOL    HW111447   2.372   1.300   0.628
 3516SOL    HW211448   2.257   1.385   0.550
 3517SOL     OW11449   0.784   0.571   6.445
 3517SOL    HW111450   0.746   0.581   6.353
 3517SOL    HW211451   0.837   0.652   6.468
 3518SOL     OW11452   4.459   3.688   5.622
 3518SOL    HW111453   4.416   3.760   5.676
 3518SOL    HW211454   4.551   3.671   5.657
 3519SOL     OW11455   3.420   6.737   0.418
 3519SOL    HW111456   3.340   6.785   0.455
 3519SOL    HW211457   3.479   6.803   0.371
 3520SOL     OW11458   3.951   4.767   1.319
 3520SOL    HW111459   3.876   4.754   1.254
 3520SOL    HW211460   3.971   4.680   1.365
 3521SOL     OW11461   5.806   2.595   5.896
 3521SOL    HW111462   5.711   2.569   5.914
 3521SOL    HW211463   5.818   2.692   5.918
 3522SOL     OW11464   2.617   0.418   0.759
 3522SOL    HW111465   2.664   0.421   0.847
 3522SOL    HW211466   2.680   0.447   0.686
 3523SOL     OW11467   2.601   4.576   5.264
 3523SOL    HW111468   2.513   4.578   5.215
 3523SOL    HW211469   2.676   4.578   5.198
 3524SOL     OW11470   1.998   0.247   1.779
 3524SOL    HW111471   2.044   0.175   1.831
 3524SOL    HW211472   1.916   0.276   1.828
 3525SOL     OW11473   1.304   3.738   2.817
 3525SOL    HW111474   1.353   3.720   2.732
 3525SOL    HW211475   1.345   3.817   2.863
 3526SOL     OW11476   4.057   0.004   3.383
 3526SOL    HW111477   4.015   6.946   3.420
 3526SOL    HW211478   4.147   0.017   3.425
 3527SOL     OW11479   5.393   3.009   6.173
 3527SOL    HW111480   5.389   2.991   6.075
 3527SOL    HW211481   5.465   3.075   6.193
 3528SOL     OW11482   1.081   6.990   4.564
 3528SOL    HW111483   1.175   7.017   4.584
 3528SOL    HW211484   1.081   6.902   4.517
 3529SOL     OW11485   4.181   6.167   0.015
 3529SOL    HW111486   4.261   6.157   6.981
 3529SOL    HW211487   4.174   6.262   0.046
 3530SOL     OW11488   1.476   6.420   2.819
 3530SOL    HW111489   1.425   6.396   2.902
 3530SOL    HW211490   1.570   6.443   2.844
 3531SOL     OW11491   4.849   4.552   6.713
 3531SOL    HW111492   4.857   4.469   6.658
 3531SOL    HW211493   4.865   4.632   6.656
 3532SOL     OW11494   1.814   6.612   0.614
 3532SOL    HW111495   1.776   6.626   0.705
 3532SOL    HW211496   1.900   6.662   0.605
 3533SOL     OW11497   1.430   1.609   3.631
 3533SOL    HW111498   1.385   1.623   3.543
 3533SOL    HW211499   1.373   1.549   3.688
 3534SOL     OW11500   5.205   0.778   5.248
 3534SOL    HW111501   5.217   0.690   5.293
 3534SOL    HW211502   5.232   0.771   5.152
 3535SOL     OW11503   4.777   6.306   6.752
 3535SOL    HW111504   4.734   6.265   6.672
 3535SOL    HW211505   4.725   6.283   6.834
 3536SOL     OW11506   0.593   3.850   2.756
 3536SOL    HW111507   0.521   3.781   2.747
 3536SOL    HW211508   0.667   3.815   2.814
 3537SOL     OW11509   2.629   4.161   1.225
 3537SOL    HW111510   2.530   4.147   1.215
 3537SOL    HW211511   2.652   4.166   1.322
 3538SOL     OW11512   4.347   0.981   3.472
 3538SOL    HW111513   4.416   0.975   3.399
 3538SOL    HW211514   4.374   0.921   3.548
 3539SOL     OW11515   5.257   5.960   6.463
 3539SOL    HW111516   5.356   5.947   6.454
 3539SOL    HW211517   5.237   6.004   6.550
 3540SOL     OW11518   2.420   4.647   6.087
 3540SOL    HW111519   2.450   4.736   6.050
 3540SOL    HW211520   2.473   4.626   6.169
 3541SOL     OW11521   1.521   2.679   1.837
 3541SOL    HW111522   1.565   2.726   1.914
 3541SOL    HW211523   1.550   2.583   1.835
 3542SOL     OW11524   6.293   1.654   6.815
 3542SOL    HW111525   6.342   1.741   6.810
 3542SOL    HW211526   6.195   1.672   6.820
 3543SOL     OW11527   0.477   2.092   3.702
 3543SOL    HW111528   0.477   2.058   3.796
 3543SOL    HW211529   0.509   2.020   3.641
 3544SOL     OW11530   3.060   3.957   0.096
 3544SOL    HW111531   3.130   4.014   0.052
 3544SOL    HW211532   2.996   3.924   0.027
 3545SOL     OW11533   3.917   0.133   0.364
 3545SOL    HW111534   3.899   0.036   0.353
 3545SOL    HW211535   3.845   0.175   0.420
 3546SOL     OW11536   6.632   4.374   1.964
 3546SOL    HW111537   6.720   4.344   2.000
 3546SOL    HW211538   6.634   4.370   1.864
 3547SOL     OW11539   1.226   3.998   4.669
 3547SOL    HW111540   1.225   3.911   4.620
 3547SOL    HW211541   1.209   4.073   4.605
 3548SOL     OW11542   6.020   7.018   6.140
 3548SOL    HW111543   5.926   0.028   6.135
 3548SOL    HW211544   6.072   0.044   6.208
 3549SOL     OW11545   2.509   6.518   6.876
 3549SOL    HW111546   2.441   6.590   6.864
 3549SOL    HW211547   2.499   6.477   6.966
 3550SOL     OW11548   5.531   1.149   5.318
 3550SOL    HW111549   5.436   1.118   5.324
 3550SOL    HW211550   5.543   1.233   5.370
 3551SOL     OW11551   5.253   1.941   4.662
 3551SOL    HW111552   5.199   2.010   4.615
 3551SOL    HW211553   5.206   1.853   4.658
 3552SOL     OW11554   6.470   0.118   3.665
 3552SOL    HW111555   6.410   0.048   3.624
 3552SOL    HW211556   6.450   0.207   3.623
 3553SOL     OW11557   6.055   6.044   6.893
 3553SOL    HW111558   6.091   6.058   6.986
 3553SOL    HW211559   6.074   6.124   6.837
 3554SOL     OW11560   4.903   4.811   0.260
 3554SOL    HW111561   4.875   4.748   0.333
 3554SOL    HW211562   4.836   4.808   0.186
 3555SOL     OW11563   2.794   1.760   5.134
 3555SOL    HW111564   2.871   1.712   5.093
 3555SOL    HW211565   2.798   1.751   5.234
 3556SOL     OW11566   5.480   1.246   0.934
 3556SOL    HW111567   5.478   1.344   0.916
 3556SOL    HW211568   5.566   1.208   0.899
 3557SOL     OW11569   5.402   6.889   1.425
 3557SOL    HW111570   5.318   6.941   1.444
 3557SOL    HW211571   5.378   6.800   1.387
 3558SOL     OW11572   3.487   5.647   2.355
 3558SOL    HW111573   3.568   5.588   2.352
 3558SOL    HW211574   3.408   5.597   2.319
 3559SOL     OW11575   4.659   6.459   6.515
 3559SOL    HW111576   4.591   6.527   6.542
 3559SOL    HW211577   4.668   6.458   6.416
 3560SOL     OW11578   0.999   5.804   4.029
 3560SOL    HW111579   1.044   5.884   4.069
 3560SOL    HW211580   0.922   5.777   4.087
 3561SOL     OW11581   4.541   3.338   5.311
 3561SOL    HW111582   4.459   3.296   5.274
 3561SOL    HW211583   4.560   3.423   5.262
 3562SOL     OW11584   3.189   1.844   0.470
 3562SOL    HW111585   3.270   1.849   0.411
 3562SOL    HW211586   3.121   1.909   0.438
 3563SOL     OW11587   6.773   2.442   6.179
 3563SOL    HW111588   6.832   2.490   6.244
 3563SOL    HW211589   6.775   2.489   6.091
 3564SOL     OW11590   6.264   3.844   2.518
 3564SOL    HW111591   6.271   3.744   2.517
 3564SOL    HW211592   6.221   3.874   2.432
 3565SOL     OW11593   4.816   5.825   5.763
 3565SOL    HW111594   4.742   5.885   5.732
 3565SOL    HW211595   4.827   5.750   5.699
 3566SOL     OW11596   1.217   0.933   4.991
 3566SOL    HW111597   1.313   0.914   4.970
 3566SOL    HW211598   1.211   0.999   5.065
 3567SOL     OW11599   6.978   3.747   6.646
 3567SOL    HW111600   7.019   3.805   6.716
 3567SOL    HW211601   6.915   3.682   6.690
 3568SOL     OW11602   5.855   3.512   6.456
 3568SOL    HW111603   5.816   3.422   6.475
 3568SOL    HW211604   5.925   3.532   6.524
 3569SOL     OW11605   1.219   0.218   3.746
 3569SOL    HW111606   1.214   0.284   3.671
 3569SOL    HW211607   1.292   0.244   3.809
 3570SOL     OW11608   5.656   1.451   4.477
 3570SOL    HW111609   5.693   1.537   4.514
 3570SOL    HW211610   5.673   1.378   4.543
 3571SOL     OW11611   6.675   6.545   5.162
 3571SOL    HW111612   6.634   6.621   5.111
 3571SOL    HW211613   6.718   6.482   5.098
 3572SOL     OW11614   6.414   6.554   5.735
 3572SOL    HW111615   6.397   6.554   5.834
 3572SOL    HW211616   6.346   6.496   5.690
 3573SOL     OW11617   0.420   1.990   2.239
 3573SOL    HW111618   0.370   2.000   2.325
 3573SOL    HW211619   0.402   2.070   2.181
 3574SOL     OW11620   6.175   3.892   0.189
 3574SOL    HW111621   6.205   3.829   0.261
 3574SOL    HW211622   6.145   3.840   0.109
 3575SOL     OW11623   6.601   5.736   1.890
 3575SOL    HW111624   6.590   5.834   1.873
 3575SOL    HW211625   6.511   5.695   1.907
 3576SOL     OW11626   0.425   1.299   6.739
 3576SOL    HW111627   0.518   1.317   6.771
 3576SOL    HW211628   0.421   1.308   6.640
 3577SOL     OW11629   2.389   3.371   6.619
 3577SOL    HW111630   2.379   3.289   6.675
 3577SOL    HW211631   2.434   3.348   6.533
 3578SOL     OW11632   3.525   4.339   1.694
 3578SOL    HW111633   3.547   4.405   1.766
 3578SOL    HW211634   3.437   4.295   1.715
 3579SOL     OW11635   1.649   4.386   5.183
 3579SOL    HW111636   1.583   4.388   5.258
 3579SOL    HW211637   1.643   4.298   5.136
 3580SOL     OW11638   0.019   3.030   1.498
 3580SOL    HW111639   0.016   2.983   1.586
 3580SOL    HW211640   0.086   3.104   1.501
 3581SOL     OW11641   5.542   1.496   3.101
 3581SOL    HW111642   5.476   1.425   3.078
 3581SOL    HW211643   5.526   1.576   3.044
 3582SOL     OW11644   0.234   0.382   5.386
 3582SOL    HW111645   0.189   0.353   5.470
 3582SOL    HW211646   0.267   0.301   5.337
 3583SOL     OW11647   1.902   5.359   1.503
 3583SOL    HW111648   1.929   5.451   1.530
 3583SOL    HW211649   1.819   5.363   1.447
 3584SOL     OW11650   5.795   0.000   5.627
 3584SOL    HW111651   5.711   7.000   5.578
 3584SOL    HW211652   5.855   6.945   5.634
 3585SOL     OW11653   2.328   4.857   3.865
 3585SOL    HW111654   2.404   4.917   3.889
 3585SOL    HW211655   2.360   4.762   3.858
 3586SOL     OW11656   0.876   1.470   6.035
 3586SOL    HW111657   0.782   1.503   6.041
 3586SOL    HW211658   0.888   1.422   5.948
 3587SOL     OW11659   3.726   0.152   6.548
 3587SOL    HW111660   3.653   0.187   6.607
 3587SOL    HW211661   3.787   0.228   6.523
 3588SOL     OW11662   2.229   1.220   5.297
 3588SOL    HW111663   2.274   1.307   5.316
 3588SOL    HW211664   2.273   1.175   5.220
 3589SOL     OW11665   3.527   0.366   4.890
 3589SOL    HW111666   3.496   0.461   4.885
 3589SOL    HW211667   3.449   0.307   4.911
 3590SOL     OW11668   1.199   5.079   0.090
 3590SOL    HW111669   1.208   5.177   0.074
 3590SOL    HW211670   1.115   5.046   0.047
 3591SOL     OW11671   5.537   2.511   5.924
 3591SOL    HW111672   5.472   2.555   5.862
 3591SOL    HW211673   5.545   2.414   5.901
 3592SOL     OW11674   5.276   2.291   2.060
 3592SOL    HW111675   5.272   2.270   1.963
 3592SOL    HW211676   5.187   2.324   2.091
 3593SOL     OW11677   0.809   4.708   4.113
 3593SOL    HW111678   0.837   4.798   4.079
 3593SOL    HW211679   0.888   4.647   4.116
 3594SOL     OW11680   4.174   1.264   4.649
 3594SOL    HW111681   4.126   1.327   4.710
 3594SOL    HW211682   4.216   1.314   4.574
 3595SOL     OW11683   1.913   6.047   6.155
 3595SOL    HW111684   1.830   6.079   6.200
 3595SOL    HW211685   1.992   6.069   6.211
 3596SOL     OW11686   0.346   3.803   3.391
 3596SOL    HW111687   0.383   3.884   3.438
 3596SOL    HW211688   0.409   3.726   3.405
 3597SOL     OW11689   3.683   6.415   3.477
 3597SOL    HW111690   3.667   6.514   3.470
 3597SOL    HW211691   3.775   6.398   3.512
 3598SOL     OW11692   1.377   0.090   0.579
 3598SOL    HW111693   1.413   0.044   0.499
 3598SOL    HW211694   1.280   0.068   0.589
 3599SOL     OW11695   6.736   1.516   4.101
 3599SOL    HW111696   6.746   1.449   4.174
 3599SOL    HW211697   6.822   1.523   4.050
 3600SOL     OW11698   6.552   0.809   1.464
 3600SOL    HW111699   6.551   0.851   1.373
 3600SOL    HW211700   6.480   0.740   1.469
 3601SOL     OW11701   6.167   3.272   5.402
 3601SOL    HW111702   6.266   3.280   5.389
 3601SOL    HW211703   6.122   3.258   5.314
 3602SOL     OW11704   2.442   1.974   0.524
 3602SOL    HW111705   2.489   1.997   0.439
 3602SOL    HW211706   2.407   1.881   0.518
 3603SOL     OW11707   4.634   4.882   4.483
 3603SOL    HW111708   4.630   4.891   4.384
 3603SOL    HW211709   4.634   4.785   4.508
 3604SOL     OW11710   0.228   3.735   3.772
 3604SOL    HW111711   0.191   3.722   3.680
 3604SOL    HW211712   0.317   3.781   3.766
 3605SOL     OW11713   6.501   2.989   6.567
 3605SOL    HW111714   6.430   2.996   6.637
 3605SOL    HW211715   6.589   3.017   6.605
 3606SOL     OW11716   1.989   4.183   3.872
 3606SOL    HW111717   2.008   4.275   3.908
 3606SOL    HW211718   1.893   4.161   3.886
 3607SOL     OW11719   4.295   6.892   6.957
 3607SOL    HW111720   4.237   6.930   0.005
 3607SOL    HW211721   4.273   6.937   6.871
 3608SOL     OW11722   0.283   2.858   2.620
 3608SOL    HW111723   0.230   2.775   2.642
 3608SOL    HW211724   0.319   2.850   2.527
 3609SOL     OW11725   6.731   6.805   5.448
 3609SOL    HW111726   6.710   6.857   5.365
 3609SOL    HW211727   6.685   6.716   5.444
 3610SOL     OW11728   1.655   5.741   5.264
 3610SOL    HW111729   1.614   5.649   5.262
 3610SOL    HW211730   1.589   5.807   5.229
 3611SOL     OW11731   3.960   5.246   5.236
 3611SOL    HW111732   3.888   5.205   5.180
 3611SOL    HW211733   3.933   5.339   5.261
 3612SOL     OW11734   1.720   6.724   1.138
 3612SOL    HW111735   1.781   6.645   1.145
 3612SOL    HW211736   1.774   6.808   1.134
 3613SOL     OW11737   5.271   4.867   6.328
 3613SOL    HW111738   5.267   4.780   6.377
 3613SOL    HW211739   5.269   4.943   6.393
 3614SOL     OW11740   4.061   3.743   4.071
 3614SOL    HW111741   4.011   3.818   4.028
 3614SOL    HW211742   4.068   3.666   4.007
 3615SOL     OW11743   6.566   6.125   6.204
 3615SOL    HW111744   6.497   6.190   6.237
 3615SOL    HW211745   6.598   6.069   6.281
 3616SOL     OW11746   6.412   0.612   5.304
 3616SOL    HW111747   6.486   0.644   5.245
 3616SOL    HW211748   6.339   0.573   5.248
 3617SOL     OW11749   6.867   0.694   6.998
 3617SOL    HW111750   6.943   0.705   6.934
 3617SOL    HW211751   6.781   0.698   6.948
 3618SOL     OW11752   3.006   0.415   5.962
 3618SOL    HW111753   3.068   0.336   5.953
 3618SOL    HW211754   2.954   0.406   6.047
 3619SOL     OW11755   5.181   3.667   4.271
 3619SOL    HW111756   5.163   3.749   4.218
 3619SOL    HW211757   5.096   3.631   4.308
 3620SOL     OW11758   6.314   0.972   5.227
 3620SOL    HW111759   6.236   0.942   5.173
 3620SOL    HW211760   6.396   0.923   5.196
 3621SOL     OW11761   1.316   3.015   5.858
 3621SOL    HW111762   1.390   2.960   5.820
 3621SOL    HW211763   1.281   3.077   5.787
 3622SOL     OW11764   0.541   3.175   0.603
 3622SOL    HW111765   0.539   3.218   0.693
 3622SOL    HW211766   0.480   3.096   0.602
 3623SOL     OW11767   0.080   5.522   4.055
 3623SOL    HW111768   0.019   5.532   4.133
 3623SOL    HW211769   0.026   5.518   3.971
 3624SOL     OW11770   1.812   1.353   1.711
 3624SOL    HW111771   1.782   1.323   1.621
 3624SOL    HW211772   1.813   1.453   1.714
 3625SOL     OW11773   0.574   3.322   4.563
 3625SOL    HW111774   0.488   3.365   4.591
 3625SOL    HW211775   0.616   3.377   4.491
 3626SOL     OW11776   2.576   3.711   5.334
 3626SOL    HW111777   2.609   3.801   5.305
 3626SOL    HW211778   2.502   3.681   5.274
 3627SOL     OW11779   2.953   3.279   3.536
 3627SOL    HW111780   3.007   3.348   3.584
 3627SOL    HW211781   2.864   3.317   3.512
 3628SOL     OW11782   3.282   5.345   2.926
 3628SOL    HW111783   3.191   5.383   2.910
 3628SOL    HW211784   3.273   5.255   2.968
 3629SOL     OW11785   5.990   2.275   5.190
 3629SOL    HW111786   6.035   2.192   5.155
 3629SOL    HW211787   5.903   2.288   5.143
 3630SOL     OW11788   5.668   1.982   5.074
 3630SOL    HW111789   5.622   1.904   5.031
 3630SOL    HW211790   5.606   2.060   5.075
 3631SOL     OW11791   1.647   0.644   4.172
 3631SOL    HW111792   1.697   0.608   4.250
 3631SOL    HW211793   1.706   0.644   4.091
 3632SOL     OW11794   4.096   0.166   6.306
 3632SOL    HW111795   4.134   0.208   6.388
 3632SOL    HW211796   4.168   0.157   6.237
 3633SOL     OW11797   2.160   3.112   5.808
 3633SOL    HW111798   2.105   3.152   5.881
 3633SOL    HW211799   2.167   3.176   5.732
 3634SOL     OW11800   2.481   5.942   5.300
 3634SOL    HW111801   2.475   6.019   5.237
 3634SOL    HW211802   2.393   5.894   5.303
 3635SOL     OW11803   1.961   0.927   4.909
 3635SOL    HW111804   1.978   0.838   4.866
 3635SOL    HW211805   1.889   0.975   4.860
 3636SOL     OW11806   1.302   5.423   6.478
 3636SOL    HW111807   1.320   5.502   6.419
 3636SOL    HW211808   1.206   5.423   6.505
 3637SOL     OW11809   5.420   1.512   2.068
 3637SOL    HW111810   5.389   1.592   2.120
 3637SOL    HW211811   5.363   1.433   2.090
 3638SOL     OW11812   6.482   4.407   3.991
 3638SOL    HW111813   6.395   4.426   3.947
 3638SOL    HW211814   6.533   4.492   4.004
 3639SOL     OW11815   2.417   5.066   6.870
 3639SOL    HW111816   2.362   5.127   6.928
 3639SOL    HW211817   2.440   4.983   6.921
 3640SOL     OW11818   3.467   6.133   1.147
 3640SOL    HW111819   3.466   6.055   1.085
 3640SOL    HW211820   3.561   6.161   1.166
 3641SOL     OW11821   2.177   0.253   4.855
 3641SOL    HW111822   2.251   0.215   4.800
 3641SOL    HW211823   2.210   0.273   4.947
 3642SOL     OW11824   5.888   0.187   3.683
 3642SOL    HW111825   5.818   0.143   3.627
 3642SOL    HW211826   5.946   0.244   3.625
 3643SOL     OW11827   2.829   4.447   5.740
 3643SOL    HW111828   2.869   4.355   5.738
 3643SOL    HW211829   2.786   4.467   5.652
 3644SOL     OW11830   0.224   1.100   0.273
 3644SOL    HW111831   0.135   1.056   0.270
 3644SOL    HW211832   0.272   1.072   0.356
 3645SOL     OW11833   3.321   6.943   2.940
 3645SOL    HW111834   3.417   6.949   2.967
 3645SOL    HW211835   3.299   6.849   2.913
 3646SOL     OW11836   6.437   5.543   4.438
 3646SOL    HW111837   6.464   5.639   4.438
 3646SOL    HW211838   6.407   5.517   4.530
 3647SOL     OW11839   2.411   2.677   1.606
 3647SOL    HW111840   2.391   2.651   1.511
 3647SOL    HW211841   2.326   2.699   1.653
 3648SOL     OW11842   2.704   5.831   3.130
 3648SOL    HW111843   2.658   5.906   3.177
 3648SOL    HW211844   2.637   5.778   3.078
 3649SOL     OW11845   3.145   3.568   2.118
 3649SOL    HW111846   3.047   3.568   2.138
 3649SOL    HW211847   3.196   3.570   2.204
 3650SOL     OW11848   6.643   6.725   1.477
 3650SOL    HW111849   6.561   6.738   1.534
 3650SOL    HW211850   6.704   6.660   1.522
 3651SOL     OW11851   1.470   5.962   2.455
 3651SOL    HW111852   1.478   6.057   2.425
 3651SOL    HW211853   1.500   5.901   2.382
 3652SOL     OW11854   4.355   5.319   3.175
 3652SOL    HW111855   4.359   5.226   3.137
 3652SOL    HW211856   4.440   5.366   3.153
 3653SOL     OW11857   0.436   2.854   4.210
 3653SOL    HW111858   0.450   2.817   4.118
 3653SOL    HW211859   0.341   2.840   4.237
 3654SOL     OW11860   1.503   6.362   1.208
 3654SOL    HW111861   1.496   6.382   1.111
 3654SOL    HW211862   1.597   6.336   1.230
 3655SOL     OW11863   1.280   0.726   4.155
 3655SOL    HW111864   1.339   0.799   4.190
 3655SOL    HW211865   1.326   0.638   4.165
 3656SOL     OW11866   2.367   2.188   2.205
 3656SOL    HW111867   2.421   2.263   2.243
 3656SOL    HW211868   2.351   2.119   2.275
 3657SOL     OW11869   3.865   5.546   1.217
 3657SOL    HW111870   3.778   5.508   1.246
 3657SOL    HW211871   3.932   5.473   1.205
 3658SOL     OW11872   1.454   5.347   6.006
 3658SOL    HW111873   1.381   5.279   6.016
 3658SOL    HW211874   1.535   5.318   6.057
 3659SOL     OW11875   1.410   4.692   0.098
 3659SOL    HW111876   1.456   4.604   0.087
 3659SOL    HW211877   1.462   4.749   0.162
 3660SOL     OW11878   4.752   5.678   0.935
 3660SOL    HW111879   4.842   5.720   0.925
 3660SOL    HW211880   4.684   5.750   0.950
 3661SOL     OW11881   5.205   1.225   0.800
 3661SOL    HW111882   5.304   1.211   0.800
 3661SOL    HW211883   5.163   1.160   0.864
 3662SOL     OW11884   3.361   6.727   5.359
 3662SOL    HW111885   3.286   6.664   5.380
 3662SOL    HW211886   3.375   6.788   5.438
 3663SOL     OW11887   0.895   3.460   6.169
 3663SOL    HW111888   0.826   3.523   6.205
 3663SOL    HW211889   0.888   3.455   6.069
 3664SOL     OW11890   3.821   1.364   1.077
 3664SOL    HW111891   3.885   1.365   1.001
 3664SOL    HW211892   3.871   1.371   1.163
 3665SOL     OW11893   1.083   6.710   5.913
 3665SOL    HW111894   1.041   6.727   6.002
 3665SOL    HW211895   1.140   6.788   5.887
 3666SOL     OW11896   0.829   5.701   3.766
 3666SOL    HW111897   0.847   5.798   3.774
 3666SOL    HW211898   0.892   5.660   3.700
 3667SOL     OW11899   6.608   1.832   6.399
 3667SOL    HW111900   6.658   1.749   6.421
 3667SOL    HW211901   6.592   1.885   6.482
 3668SOL     OW11902   0.846   6.019   2.026
 3668SOL    HW111903   0.917   6.074   1.983
 3668SOL    HW211904   0.797   5.966   1.957
 3669SOL     OW11905   6.478   2.402   3.122
 3669SOL    HW111906   6.425   2.344   3.059
 3669SOL    HW211907   6.470   2.498   3.094
 3670SOL     OW11908   1.878   5.401   5.827
 3670SOL    HW111909   1.786   5.381   5.793
 3670SOL    HW211910   1.873   5.437   5.920
 3671SOL     OW11911   0.900   0.835   3.394
 3671SOL    HW111912   0.835   0.792   3.333
 3671SOL    HW211913   0.928   0.924   3.357
 3672SOL     OW11914   0.158   0.197   0.901
 3672SOL    HW111915   0.061   0.173   0.896
 3672SOL    HW211916   0.194   0.210   0.809
 3673SOL     OW11917   4.877   0.438   6.924
 3673SOL    HW111918   4.875   0.493   7.008
 3673SOL    HW211919   4.845   0.494   6.847
 3674SOL     OW11920   0.725   6.690   1.270
 3674SOL    HW111921   0.816   6.717   1.303
 3674SOL    HW211922   0.683   6.768   1.223
 3675SOL     OW11923   1.753   1.877   4.994
 3675SOL    HW111924   1.800   1.794   4.963
 3675SOL    HW211925   1.820   1.945   5.022
 3676SOL     OW11926   2.243   5.280   2.654
 3676SOL    HW111927   2.239   5.278   2.754
 3676SOL    HW211928   2.245   5.186   2.619
 3677SOL     OW11929   6.295   6.912   4.210
 3677SOL    HW111930   6.374   6.896   4.150
 3677SOL    HW211931   6.228   6.839   4.196
 3678SOL     OW11932   0.940   1.787   3.796
 3678SOL    HW111933   0.943   1.875   3.748
 3678SOL    HW211934   0.879   1.794   3.875
 3679SOL     OW11935   0.432   1.366   1.772
 3679SOL    HW111936   0.510   1.316   1.735
 3679SOL    HW211937   0.429   1.458   1.733
 3680SOL     OW11938   6.771   3.460   4.737
 3680SOL    HW111939   6.805   3.376   4.694
 3680SOL    HW211940   6.681   3.483   4.698
 3681SOL     OW11941   6.216   6.215   5.195
 3681SOL    HW111942   6.159   6.293   5.168
 3681SOL    HW211943   6.311   6.246   5.206
 3682SOL     OW11944   0.743   1.708   6.263
 3682SOL    HW111945   0.832   1.663   6.270
 3682SOL    HW211946   0.718   1.720   6.167
 3683SOL     OW11947   5.382   6.607   4.108
 3683SOL    HW111948   5.374   6.601   4.008
 3683SOL    HW211949   5.332   6.688   4.140
 3684SOL     OW11950   1.415   3.034   0.715
 3684SOL    HW111951   1.472   3.100   0.665
 3684SOL    HW211952   1.470   2.992   0.788
 3685SOL     OW11953   6.880   6.748   6.990
 3685SOL    HW111954   6.786   6.715   7.004
 3685SOL    HW211955   6.879   6.826   6.927
 3686SOL     OW11956   6.187   4.316   1.325
 3686SOL    HW111957   6.262   4.311   1.258
 3686SOL    HW211958   6.168   4.412   1.347
 3687SOL     OW11959   3.347   1.254   0.005
 3687SOL    HW111960   3.270   1.318   0.011
 3687SOL    HW211961   3.420   1.284   0.066
 3688SOL     OW11962   0.819   3.422   0.218
 3688SOL    HW111963   0.796   3.346   0.278
 3688SOL    HW211964   0.918   3.438   0.222
 3689SOL     OW11965   2.576   1.045   3.815
 3689SOL    HW111966   2.500   1.108   3.799
 3689SOL    HW211967   2.584   1.027   3.913
 3690SOL     OW11968   5.826   6.244   5.301
 3690SOL    HW111969   5.876   6.167   5.339
 3690SOL    HW211970   5.890   6.318   5.278
 3691SOL     OW11971   3.444   2.553   6.796
 3691SOL    HW111972   3.406   2.630   6.845
 3691SOL    HW211973   3.510   2.505   6.854
 3692SOL     OW11974   1.939   0.426   6.028
 3692SOL    HW111975   1.922   0.522   6.050
 3692SOL    HW211976   1.923   0.411   5.930
 3693SOL     OW11977   2.902   2.280   2.971
 3693SOL    HW111978   2.992   2.296   3.012
 3693SOL    HW211979   2.853   2.211   3.026
 3694SOL     OW11980   2.078   6.215   2.765
 3694SOL    HW111981   2.053   6.142   2.702
 3694SOL    HW211982   2.041   6.302   2.731
 3695SOL     OW11983   1.575   2.174   2.106
 3695SOL    HW111984   1.619   2.106   2.165
 3695SOL    HW211985   1.539   2.249   2.161
 3696SOL     OW11986   3.135   6.537   5.708
 3696SOL    HW111987   3.076   6.613   5.736
 3696SOL    HW211988   3.214   6.533   5.769
 3697SOL     OW11989   5.766   0.210   4.382
 3697SOL    HW111990   5.844   0.268   4.407
 3697SOL    HW211991   5.773   0.185   4.285
 3698SOL     OW11992   2.954   6.758   5.748
 3698SOL    HW111993   2.867   6.710   5.755
 3698SOL    HW211994   2.953   6.818   5.669
 3699SOL     OW11995   0.895   3.714   2.344
 3699SOL    HW111996   0.988   3.731   2.379
 3699SOL    HW211997   0.856   3.800   2.312
 3700SOL     OW11998   0.130   6.792   4.137
 3700SOL    HW111999   0.124   6.768   4.234
 3700SOL    HW212000   0.147   6.709   4.084
 3701SOL     OW12001   6.090   0.528   3.907
 3701SOL    HW112002   6.020   0.593   3.876
 3701SOL    HW212003   6.067   0.496   3.999
 3702SOL     OW12004   3.594   1.053   6.870
 3702SOL    HW112005   3.672   1.055   6.808
 3702SOL    HW212006   3.620   1.005   6.954
 3703SOL     OW12007   4.330   4.636   6.586
 3703SOL    HW112008   4.281   4.678   6.509
 3703SOL    HW212009   4.317   4.537   6.585
 3704SOL     OW12010   2.180   0.944   2.154
 3704SOL    HW112011   2.271   0.977   2.180
 3704SOL    HW212012   2.190   0.868   2.090
 3705SOL     OW12013   5.525   0.793   4.133
 3705SOL    HW112014   5.503   0.704   4.172
 3705SOL    HW212015   5.442   0.850   4.132
 3706SOL     OW12016   2.043   2.039   3.796
 3706SOL    HW112017   2.015   2.109   3.730
 3706SOL    HW212018   1.975   2.034   3.870
 3707SOL     OW12019   4.183   2.803   5.388
 3707SOL    HW112020   4.183   2.727   5.324
 3707SOL    HW212021   4.101   2.858   5.375
 3708SOL     OW12022   6.209   6.823   6.006
 3708SOL    HW112023   6.188   6.848   5.911
 3708SOL    HW212024   6.160   6.884   6.068
 3709SOL     OW12025   4.361   0.825   0.454
 3709SOL    HW112026   4.289   0.815   0.523
 3709SOL    HW212027   4.348   0.758   0.382
 3710SOL     OW12028   0.469   4.977   1.216
 3710SOL    HW112029   0.436   4.951   1.307
 3710SOL    HW212030   0.401   4.951   1.147
 3711SOL     OW12031   6.259   4.854   2.966
 3711SOL    HW112032   6.351   4.851   3.005
 3711SOL    HW212033   6.262   4.899   2.877
 3712SOL     OW12034   2.218   6.952   0.568
 3712SOL    HW112035   2.224   6.871   0.510
 3712SOL    HW212036   2.295   6.954   0.631
 3713SOL     OW12037   3.751   5.904   5.970
 3713SOL    HW112038   3.788   5.944   5.887
 3713SOL    HW212039   3.791   5.949   6.050
 3714SOL     OW12040   3.772   0.994   4.711
 3714SOL    HW112041   3.708   0.964   4.782
 3714SOL    HW212042   3.860   0.950   4.724
 3715SOL     OW12043   5.610   3.800   4.548
 3715SOL    HW112044   5.547   3.745   4.494
 3715SOL    HW212045   5.559   3.853   4.616
 3716SOL     OW12046   0.577   1.329   4.239
 3716SOL    HW112047   0.619   1.323   4.330
 3716SOL    HW212048   0.479   1.315   4.246
 3717SOL     OW12049   5.408   6.868   0.311
 3717SOL    HW112050   5.310   6.859   0.327
 3717SOL    HW212051   5.426   6.951   0.258
 3718SOL     OW12052   0.487   5.662   0.441
 3718SOL    HW112053   0.468   5.748   0.394
 3718SOL    HW212054   0.406   5.602   0.434
 3719SOL     OW12055   3.728   4.977   5.405
 3719SOL    HW112056   3.648   4.917   5.405
 3719SOL    HW212057   3.776   4.967   5.318
 3720SOL     OW12058   0.401   1.930   5.493
 3720SOL    HW112059   0.490   1.947   5.451
 3720SOL    HW212060   0.330   1.930   5.422
 3721SOL     OW12061   5.056   3.560   0.872
 3721SOL    HW112062   5.052   3.478   0.815
 3721SOL    HW212063   4.967   3.576   0.915
 3722SOL     OW12064   6.403   5.488   2.244
 3722SOL    HW112065   6.330   5.420   2.247
 3722SOL    HW212066   6.449   5.493   2.332
 3723SOL     OW12067   4.341   1.405   0.724
 3723SOL    HW112068   4.340   1.478   0.792
 3723SOL    HW212069   4.435   1.383   0.698
 3724SOL     OW12070   0.283   5.927   5.400
 3724SOL    HW112071   0.295   5.882   5.312
 3724SOL    HW212072   0.373   5.950   5.438
 3725SOL     OW12073   6.681   6.930   1.028
 3725SOL    HW112074   6.634   6.877   1.098
 3725SOL    HW212075   6.723   6.868   0.961
 3726SOL     OW12076   5.495   3.157   1.724
 3726SOL    HW112077   5.536   3.216   1.794
 3726SOL    HW212078   5.555   3.155   1.644
 3727SOL     OW12079   2.170   3.279   5.172
 3727SOL    HW112080   2.170   3.223   5.255
 3727SOL    HW212081   2.229   3.237   5.103
 3728SOL     OW12082   1.013   3.535   6.955
 3728SOL    HW112083   0.997   3.549   6.857
 3728SOL    HW212084   0.935   3.487   6.994
 3729SOL     OW12085   0.354   2.747   3.290
 3729SOL    HW112086   0.268   2.702   3.314
 3729SOL    HW212087   0.411   2.757   3.372
 3730SOL     OW12088   2.725   0.701   0.059
 3730SOL    HW112089   2.728   0.724   6.986
 3730SOL    HW212090   2.803   0.742   0.105
 3731SOL     OW12091   3.931   6.517   6.706
 3731SOL    HW112092   3.978   6.583   6.766
 3731SOL    HW212093   3.917   6.431   6.756
 3732SOL     OW12094   2.139   3.775   5.102
 3732SOL    HW112095   2.192   3.705   5.149
 3732SOL    HW212096   2.201   3.843   5.063
 3733SOL     OW12097   2.229   3.476   1.210
 3733SOL    HW112098   2.304   3.411   1.204
 3733SOL    HW212099   2.152   3.445   1.154
 3734SOL     OW12100   5.024   0.042   2.460
 3734SOL    HW112101   4.984   0.129   2.430
 3734SOL    HW212102   5.071   0.056   2.547
 3735SOL     OW12103   3.477   1.608   1.976
 3735SOL    HW112104   3.527   1.554   1.908
 3735SOL    HW212105   3.527   1.692   1.994
 3736SOL     OW12106   5.477   1.194   6.888
 3736SOL    HW112107   5.525   1.236   6.812
 3736SOL    HW212108   5.445   1.103   6.861
 3737SOL     OW12109   4.471   7.023   3.313
 3737SOL    HW112110   4.457   6.995   3.218
 3737SOL    HW212111   4.503   6.944   3.367
 3738SOL     OW12112   0.162   0.186   3.947
 3738SOL    HW112113   0.207   0.102   3.915
 3738SOL    HW212114   0.232   0.254   3.969
 3739SOL     OW12115   0.269   4.121   2.318
 3739SOL    HW112116   0.278   4.056   2.393
 3739SOL    HW212117   0.298   4.077   2.233
 3740SOL     OW12118   5.236   1.284   0.251
 3740SOL    HW112119   5.256   1.286   0.153
 3740SOL    HW212120   5.145   1.244   0.266
 3741SOL     OW12121   3.617   2.400   6.101
 3741SOL    HW112122   3.598   2.307   6.130
 3741SOL    HW212123   3.661   2.450   6.176
 3742SOL     OW12124   3.160   3.483   5.676
 3742SOL    HW112125   3.078   3.522   5.718
 3742SOL    HW212126   3.132   3.413   5.609
 3743SOL     OW12127   0.605   5.699   6.378
 3743SOL    HW112128   0.578   5.603   6.382
 3743SOL    HW212129   0.655   5.723   6.461
 3744SOL     OW12130   0.028   5.975   2.801
 3744SOL    HW112131   7.016   5.943   2.713
 3744SOL    HW212132   7.006   6.059   2.828
 3745SOL     OW12133   4.657   6.195   2.172
 3745SOL    HW112134   4.632   6.246   2.090
 3745SOL    HW212135   4.574   6.160   2.216
 3746SOL     OW12136   4.077   1.962   2.454
 3746SOL    HW112137   3.996   2.020   2.452
 3746SOL    HW212138   4.070   1.897   2.530
 3747SOL     OW12139   2.868   6.937   0.570
 3747SOL    HW112140   2.858   0.006   0.536
 3747SOL    HW212141   2.824   6.873   0.506
 3748SOL     OW12142   5.623   1.190   2.416
 3748SOL    HW112143   5.599   1.227   2.326
 3748SOL    HW212144   5.722   1.185   2.425
 3749SOL     OW12145   1.683   6.927   5.098
 3749SOL    HW112146   1.674   7.007   5.157
 3749SOL    HW212147   1.606   6.865   5.115
 3750SOL     OW12148   0.449   4.264   6.540
 3750SOL    HW112149   0.406   4.275   6.450
 3750SOL    HW212150   0.504   4.181   6.540
 3751SOL     OW12151   1.448   3.748   2.262
 3751SOL    HW112152   1.483   3.667   2.310
 3751SOL    HW212153   1.453   3.828   2.323
 3752SOL     OW12154   5.770   6.865   6.416
 3752SOL    HW112155   5.704   6.939   6.428
 3752SOL    HW212156   5.786   6.819   6.503
 3753SOL     OW12157   6.787   0.384   4.094
 3753SOL    HW112158   6.731   0.404   4.013
 3753SOL    HW212159   6.851   0.459   4.110
 3754SOL     OW12160   2.664   1.807   0.926
 3754SOL    HW112161   2.631   1.713   0.933
 3754SOL    HW212162   2.709   1.833   1.011
 3755SOL     OW12163   3.002   5.024   3.724
 3755SOL    HW112164   3.053   4.991   3.644
 3755SOL    HW212165   2.904   5.020   3.704
 3756SOL     OW12166   1.993   6.331   0.435
 3756SOL    HW112167   1.906   6.285   0.417
 3756SOL    HW212168   2.032   6.363   0.348
 3757SOL     OW12169   6.552   4.646   1.863
 3757SOL    HW112170   6.625   4.609   1.919
 3757SOL    HW212171   6.486   4.574   1.842
 3758SOL     OW12172   2.042   0.142   3.901
 3758SOL    HW112173   2.100   0.181   3.829
 3758SOL    HW212174   1.971   0.209   3.926
 3759SOL     OW12175   5.328   0.228   4.114
 3759SOL    HW112176   5.349   0.318   4.074
 3759SOL    HW212177   5.311   0.238   4.212
 3760SOL     OW12178   0.859   1.220   3.390
 3760SOL    HW112179   0.926   1.159   3.349
 3760SOL    HW212180   0.886   1.241   3.484
 3761SOL     OW12181   5.298   0.941   4.499
 3761SOL    HW112182   5.248   0.996   4.566
 3761SOL    HW212183   5.390   0.978   4.487
 3762SOL     OW12184   0.067   2.711   3.593
 3762SOL    HW112185   0.060   2.683   3.497
 3762SOL    HW212186   0.029   2.802   3.605
 3763SOL     OW12187   0.485   4.400   6.955
 3763SOL    HW112188   0.464   4.438   0.020
 3763SOL    HW212189   0.520   4.472   6.895
 3764SOL     OW12190   2.627   0.774   3.190
 3764SOL    HW112191   2.681   0.763   3.106
 3764SOL    HW212192   2.688   0.799   3.265
 3765SOL     OW12193   5.465   3.043   2.911
 3765SOL    HW112194   5.485   3.135   2.879
 3765SOL    HW212195   5.398   3.000   2.849
 3766SOL     OW12196   1.138   3.820   2.410
 3766SOL    HW112197   1.108   3.873   2.489
 3766SOL    HW212198   1.148   3.881   2.331
 3767SOL     OW12199   1.099   5.318   6.046
 3767SOL    HW112200   1.046   5.245   6.002
 3767SOL    HW212201   1.184   5.281   6.082
 3768SOL     OW12202   0.808   6.980   3.062
 3768SOL    HW112203   0.864   0.024   3.108
 3768SOL    HW212204   0.848   6.960   2.972
 3769SOL     OW12205   5.420   5.472   4.527
 3769SOL    HW112206   5.483   5.510   4.459
 3769SOL    HW212207   5.469   5.457   4.613
 3770SOL     OW12208   1.981   1.030   1.473
 3770SOL    HW112209   2.043   0.993   1.403
 3770SOL    HW212210   1.887   1.007   1.449
 3771SOL     OW12211   6.644   5.325   5.393
 3771SOL    HW112212   6.564   5.384   5.397
 3771SOL    HW212213   6.631   5.247   5.454
 3772SOL     OW12214   1.563   6.313   0.967
 3772SOL    HW112215   1.500   6.241   0.937
 3772SOL    HW212216   1.655   6.275   0.974
 3773SOL     OW12217   5.337   4.984   6.610
 3773SOL    HW112218   5.405   4.931   6.660
 3773SOL    HW212219   5.326   5.074   6.653
 3774SOL     OW12220   6.746   5.331   1.694
 3774SOL    HW112221   6.748   5.430   1.702
 3774SOL    HW212222   6.750   5.290   1.785
 3775SOL     OW12223   4.587   4.817   5.205
 3775SOL    HW112224   4.672   4.764   5.212
 3775SOL    HW212225   4.595   4.899   5.262
 3776SOL     OW12226   3.756   2.562   5.693
 3776SOL    HW112227   3.789   2.596   5.781
 3776SOL    HW212228   3.693   2.486   5.709
 3777SOL     OW12229   2.711   5.150   4.500
 3777SOL    HW112230   2.782   5.159   4.431
 3777SOL    HW212231   2.751   5.115   4.585
 3778SOL     OW12232   3.140   5.472   6.811
 3778SOL    HW112233   3.109   5.567   6.807
 3778SOL    HW212234   3.126   5.428   6.723
 3779SOL     OW12235   6.981   4.587   0.168
 3779SOL    HW112236   6.936   4.580   0.079
 3779SOL    HW212237   7.006   4.495   0.200
 3780SOL     OW12238   5.259   4.369   1.601
 3780SOL    HW112239   5.161   4.363   1.583
 3780SOL    HW212240   5.289   4.463   1.591
 3781SOL     OW12241   2.723   6.237   4.610
 3781SOL    HW112242   2.717   6.298   4.531
 3781SOL    HW212243   2.675   6.278   4.688
 3782SOL     OW12244   4.477   4.704   0.886
 3782SOL    HW112245   4.391   4.751   0.866
 3782SOL    HW212246   4.552   4.770   0.883
 3783SOL     OW12247   4.850   5.668   4.544
 3783SOL    HW112248   4.876   5.604   4.472
 3783SOL    HW212249   4.856   5.621   4.633
 3784SOL     OW12250   5.538   2.326   4.457
 3784SOL    HW112251   5.503   2.302   4.548
 3784SOL    HW212252   5.535   2.425   4.445
 3785SOL     OW12253   1.771   3.110   3.615
 3785SOL    HW112254   1.741   3.171   3.541
 3785SOL    HW212255   1.727   3.021   3.604
 3786SOL     OW12256   2.272   2.893   4.547
 3786SOL    HW112257   2.287   2.837   4.466
 3786SOL    HW212258   2.275   2.834   4.628
 3787SOL     OW12259   4.670   7.013   4.212
 3787SOL    HW112260   4.761   7.011   4.171
 3787SOL    HW212261   4.649   6.924   4.252
 3788SOL     OW12262   5.675   2.805   5.340
 3788SOL    HW112263   5.643   2.728   5.396
 3788SOL    HW212264   5.670   2.889   5.393
 3789SOL     OW12265   2.032   2.882   2.558
 3789SOL    HW112266   2.044   2.981   2.560
 3789SOL    HW212267   2.114   2.839   2.522
 3790SOL     OW12268   0.071   6.607   1.875
 3790SOL    HW112269   0.124   6.531   1.835
 3790SOL    HW212270   0.107   6.629   1.965
 3791SOL     OW12271   5.222   1.179   5.902
 3791SOL    HW112272   5.280   1.131   5.836
 3791SOL    HW212273   5.220   1.276   5.880
 3792SOL     OW12274   6.697   0.309   4.844
 3792SOL    HW112275   6.651   0.220   4.846
 3792SOL    HW212276   6.629   0.382   4.850
 3793SOL     OW12277   4.353   4.789   0.243
 3793SOL    HW112278   4.413   4.866   0.220
 3793SOL    HW212279   4.387   4.706   0.198
 3794SOL     OW12280   0.304   4.320   6.311
 3794SOL    HW112281   0.216   4.273   6.305
 3794SOL    HW212282   0.290   4.418   6.296
 3795SOL     OW12283   3.012   5.697   1.333
 3795SOL    HW112284   3.082   5.666   1.397
 3795SOL    HW212285   3.054   5.751   1.261
 3796SOL     OW12286   4.678   1.365   0.039
 3796SOL    HW112287   4.666   1.353   6.965
 3796SOL    HW212288   4.684   1.463   0.060
 3797SOL     OW12289   0.400   4.389   2.277
 3797SOL    HW112290   0.479   4.414   2.222
 3797SOL    HW212291   0.380   4.292   2.266
 3798SOL     OW12292   1.395   5.573   3.637
 3798SOL    HW112293   1.301   5.546   3.659
 3798SOL    HW212294   1.457   5.498   3.658
 3799SOL     OW12295   6.672   0.800   3.449
 3799SOL    HW112296   6.645   0.893   3.476
 3799SOL    HW212297   6.677   0.743   3.531
 3800SOL     OW12298   5.162   2.690   3.169
 3800SOL    HW112299   5.261   2.702   3.169
 3800SOL    HW212300   5.140   2.601   3.130
 3801SOL     OW12301   6.020   1.689   1.356
 3801SOL    HW112302   6.045   1.757   1.287
 3801SOL    HW212303   6.024   1.731   1.447
 3802SOL     OW12304   6.773   3.117   1.808
 3802SOL    HW112305   6.836   3.083   1.877
 3802SOL    HW212306   6.751   3.043   1.744
 3803SOL     OW12307   3.243   3.291   4.469
 3803SOL    HW112308   3.274   3.267   4.561
 3803SOL    HW212309   3.181   3.220   4.436
 3804SOL     OW12310   4.417   6.163   3.518
 3804SOL    HW112311   4.497   6.110   3.547
 3804SOL    HW212312   4.438   6.212   3.434
 3805SOL     OW12313   2.653   2.646   0.017
 3805SOL    HW112314   2.750   2.658   0.035
 3805SOL    HW212315   2.603   2.727   0.048
 3806SOL     OW12316   2.547   4.688   1.160
 3806SOL    HW112317   2.618   4.630   1.199
 3806SOL    HW212318   2.536   4.770   1.215
 3807SOL     OW12319   1.852   4.274   4.573
 3807SOL    HW112320   1.818   4.227   4.491
 3807SOL    HW212321   1.886   4.364   4.548
 3808SOL     OW12322   2.539   6.684   6.397
 3808SOL    HW112323   2.512   6.724   6.485
 3808SOL    HW212324   2.587   6.598   6.413
 3809SOL     OW12325   5.098   1.710   1.263
 3809SOL    HW112326   5.118   1.739   1.169
 3809SOL    HW212327   5.003   1.678   1.269
 3810SOL     OW12328   5.515   2.378   2.197
 3810SOL    HW112329   5.576   2.393   2.119
 3810SOL    HW212330   5.427   2.343   2.164
 3811SOL     OW12331   0.426   5.572   5.472
 3811SOL    HW112332   0.381   5.555   5.385
 3811SOL    HW212333   0.520   5.603   5.456
 3812SOL     OW12334   4.608   5.952   0.939
 3812SOL    HW112335   4.534   5.972   1.004
 3812SOL    HW212336   4.631   6.035   0.889
 3813SOL     OW12337   6.276   4.084   6.881
 3813SOL    HW112338   6.234   4.048   6.797
 3813SOL    HW212339   6.315   4.174   6.862
 3814SOL     OW12340   0.009   0.447   5.175
 3814SOL    HW112341   0.101   0.484   5.189
 3814SOL    HW212342   0.008   0.350   5.197
 3815SOL     OW12343   6.376   3.641   5.614
 3815SOL    HW112344   6.322   3.579   5.557
 3815SOL    HW212345   6.373   3.733   5.575
 3816SOL     OW12346   0.132   5.720   1.070
 3816SOL    HW112347   0.044   5.747   1.031
 3816SOL    HW212348   0.153   5.626   1.044
 3817SOL     OW12349   4.802   3.958   1.861
 3817SOL    HW112350   4.720   3.979   1.809
 3817SOL    HW212351   4.856   4.041   1.873
 3818SOL     OW12352   5.697   6.020   2.840
 3818SOL    HW112353   5.761   6.096   2.834
 3818SOL    HW212354   5.611   6.045   2.795
 3819SOL     OW12355   6.304   4.182   3.748
 3819SOL    HW112356   6.378   4.138   3.799
 3819SOL    HW212357   6.242   4.228   3.813
 3820SOL     OW12358   2.687   6.378   4.351
 3820SOL    HW112359   2.663   6.475   4.340
 3820SOL    HW212360   2.758   6.353   4.285
 3821SOL     OW12361   1.845   0.454   0.130
 3821SOL    HW112362   1.867   0.396   0.051
 3821SOL    HW212363   1.746   0.467   0.135
 3822SOL     OW12364   4.739   0.281   2.160
 3822SOL    HW112365   4.814   0.304   2.097
 3822SOL    HW212366   4.662   0.244   2.108
 3823SOL     OW12367   5.752   5.917   6.462
 3823SOL    HW112368   5.787   5.996   6.512
 3823SOL    HW212369   5.825   5.849   6.452
 3824SOL     OW12370   2.660   3.093   0.228
 3824SOL    HW112371   2.588   3.160   0.212
 3824SOL    HW212372   2.744   3.141   0.254
 3825SOL     OW12373   1.086   4.609   5.284
 3825SOL    HW112374   1.023   4.536   5.258
 3825SOL    HW212375   1.172   4.570   5.315
 3826SOL     OW12376   5.347   4.213   4.004
 3826SOL    HW112377   5.348   4.257   3.914
 3826SOL    HW212378   5.393   4.124   3.999
 3827SOL     OW12379   0.772   1.931   0.874
 3827SOL    HW112380   0.743   1.895   0.785
 3827SOL    HW212381   0.840   1.870   0.913
 3828SOL     OW12382   3.417   3.494   4.072
 3828SOL    HW112383   3.335   3.511   4.125
 3828SOL    HW212384   3.484   3.566   4.089
 3829SOL     OW12385   0.714   3.590   2.519
 3829SOL    HW112386   0.617   3.577   2.500
 3829SOL    HW212387   0.764   3.598   2.433
 3830SOL     OW12388   5.887   0.726   3.919
 3830SOL    HW112389   5.938   0.802   3.959
 3830SOL    HW212390   5.796   0.757   3.893
 3831SOL     OW12391   5.174   1.958   3.936
 3831SOL    HW112392   5.076   1.943   3.923
 3831SOL    HW212393   5.189   2.051   3.969
 3832SOL     OW12394   5.991   0.838   3.606
 3832SOL    HW112395   6.041   0.763   3.564
 3832SOL    HW212396   5.909   0.802   3.651
 3833SOL     OW12397   2.329   1.467   5.452
 3833SOL    HW112398   2.406   1.416   5.492
 3833SOL    HW212399   2.257   1.477   5.521
 3834SOL     OW12400   5.077   3.967   0.750
 3834SOL    HW112401   5.151   3.907   0.782
 3834SOL    HW212402   4.997   3.913   0.727
 3835SOL     OW12403   3.787   5.158   5.069
 3835SOL    HW112404   3.693   5.133   5.045
 3835SOL    HW212405   3.829   5.207   4.992
 3836SOL     OW12406   0.150   6.124   5.687
 3836SOL    HW112407   0.174   6.037   5.731
 3836SOL    HW212408   0.101   6.106   5.602
 3837SOL     OW12409   4.510   4.637   5.495
 3837SOL    HW112410   4.487   4.677   5.406
 3837SOL    HW212411   4.439   4.571   5.521
 3838SOL     OW12412   0.942   1.472   3.824
 3838SOL    HW112413   1.022   1.453   3.882
 3838SOL    HW212414   0.932   1.571   3.813
 3839SOL     OW12415   4.399   0.902   3.945
 3839SOL    HW112416   4.328   0.935   3.883
 3839SOL    HW212417   4.397   0.954   4.030
 3840SOL     OW12418   2.715   1.497   6.935
 3840SOL    HW112419   2.790   1.431   6.925
 3840SOL    HW212420   2.739   1.581   6.886
 3841SOL     OW12421   5.938   4.873   4.250
 3841SOL    HW112422   6.024   4.825   4.231
 3841SOL    HW212423   5.861   4.813   4.227
 3842SOL     OW12424   1.505   3.455   5.195
 3842SOL    HW112425   1.590   3.507   5.183
 3842SOL    HW212426   1.468   3.429   5.106
 3843SOL     OW12427   5.355   2.620   0.431
 3843SOL    HW112428   5.275   2.596   0.485
 3843SOL    HW212429   5.380   2.543   0.373
 3844SOL     OW12430   0.770   6.998   1.359
 3844SOL    HW112431   0.801   0.068   1.371
 3844SOL    HW212432   0.712   6.972   1.436
 3845SOL     OW12433   2.268   5.546   0.863
 3845SOL    HW112434   2.287   5.485   0.940
 3845SOL    HW212435   2.248   5.638   0.897
 3846SOL     OW12436   0.818   2.854   3.065
 3846SOL    HW112437   0.804   2.813   3.155
 3846SOL    HW212438   0.740   2.831   3.006
 3847SOL     OW12439   6.744   1.669   6.781
 3847SOL    HW112440   6.736   1.768   6.794
 3847SOL    HW212441   6.812   1.632   6.844
 3848SOL     OW12442   5.618   3.746   2.659
 3848SOL    HW112443   5.632   3.697   2.573
 3848SOL    HW212444   5.558   3.824   2.644
 3849SOL     OW12445   6.761   5.040   6.794
 3849SOL    HW112446   6.731   4.963   6.850
 3849SOL    HW212447   6.738   5.126   6.839
 3850SOL     OW12448   2.381   2.623   1.326
 3850SOL    HW112449   2.325   2.548   1.293
 3850SOL    HW212450   2.475   2.592   1.340
 3851SOL     OW12451   0.553   5.992   2.497
 3851SOL    HW112452   0.616   6.020   2.425
 3851SOL    HW212453   0.471   6.048   2.494
 3852SOL     OW12454   2.483   6.650   5.559
 3852SOL    HW112455   2.472   6.746   5.588
 3852SOL    HW212456   2.458   6.590   5.635
 3853SOL     OW12457   2.630   0.526   3.469
 3853SOL    HW112458   2.562   0.454   3.486
 3853SOL    HW212459   2.682   0.503   3.386
 3854SOL     OW12460   1.736   2.293   2.354
 3854SOL    HW112461   1.705   2.294   2.449
 3854SOL    HW212462   1.736   2.199   2.321
 3855SOL     OW12463   3.902   6.872   0.377
 3855SOL    HW112464   3.856   6.814   0.310
 3855SOL    HW212465   3.875   6.846   0.469
 3856SOL     OW12466   0.634   2.332   6.847
 3856SOL    HW112467   0.558   2.391   6.818
 3856SOL    HW212468   0.602   2.270   6.919
 3857SOL     OW12469   2.559   0.086   5.806
 3857SOL    HW112470   2.653   0.059   5.830
 3857SOL    HW212471   2.542   0.179   5.837
 3858SOL     OW12472   4.236   0.492   4.691
 3858SOL    HW112473   4.149   0.505   4.644
 3858SOL    HW212474   4.288   0.419   4.644
 3859SOL     OW12475   6.308   0.044   2.193
 3859SOL    HW112476   6.253   7.020   2.262
 3859SOL    HW212477   6.358   7.002   2.139
 3860SOL     OW12478   0.914   6.769   4.321
 3860SOL    HW112479   0.905   6.692   4.257
 3860SOL    HW212480   0.850   6.756   4.397
 3861SOL     OW12481   3.502   5.710   1.613
 3861SOL    HW112482   3.562   5.762   1.553
 3861SOL    HW212483   3.527   5.613   1.608
 3862SOL     OW12484   1.700   0.100   3.676
 3862SOL    HW112485   1.679   0.194   3.705
 3862SOL    HW212486   1.700   0.040   3.756
 3863SOL     OW12487   3.841   0.437   0.531
 3863SOL    HW112488   3.874   0.403   0.619
 3863SOL    HW212489   3.897   0.515   0.502
 3864SOL     OW12490   2.543   0.013   4.595
 3864SOL    HW112491   2.494   0.100   4.586
 3864SOL    HW212492   2.636   0.023   4.561
 3865SOL     OW12493   4.025   0.679   0.522
 3865SOL    HW112494   4.102   0.730   0.483
 3865SOL    HW212495   3.944   0.737   0.525
 3866SOL     OW12496   2.716   2.752   6.699
 3866SOL    HW112497   2.743   2.664   6.739
 3866SOL    HW212498   2.710   2.744   6.600
 3867SOL     OW12499   0.333   3.542   1.941
 3867SOL    HW112500   0.258   3.536   2.007
 3867SOL    HW212501   0.300   3.582   1.856
 3868SOL     OW12502   4.734   0.865   0.356
 3868SOL    HW112503   4.810   0.846   0.418
 3868SOL    HW212504   4.661   0.911   0.406
 3869SOL     OW12505   6.162   2.806   3.596
 3869SOL    HW112506   6.250   2.846   3.621
 3869SOL    HW212507   6.160   2.788   3.498
 3870SOL     OW12508   0.286   0.569   4.317
 3870SOL    HW112509   0.369   0.611   4.354
 3870SOL    HW212510   0.230   0.535   4.392
 3871SOL     OW12511   3.003   4.862   4.315
 3871SOL    HW112512   2.946   4.785   4.286
 3871SOL    HW212513   2.949   4.947   4.311
 3872SOL     OW12514   2.973   3.742   5.713
 3872SOL    HW112515   2.922   3.695   5.641
 3872SOL    HW212516   2.910   3.800   5.765
 3873SOL     OW12517   4.652   1.982   0.208
 3873SOL    HW112518   4.657   2.001   0.110
 3873SOL    HW212519   4.741   1.949   0.240
 3874SOL     OW12520   3.141   0.553   7.000
 3874SOL    HW112521   3.125   0.535   0.073
 3874SOL    HW212522   3.139   0.652   6.984
 3875SOL     OW12523   1.408   2.050   6.014
 3875SOL    HW112524   1.393   2.149   6.016
 3875SOL    HW212525   1.455   2.022   6.098
 3876SOL     OW12526   4.150   5.055   1.122
 3876SOL    HW112527   4.175   4.959   1.118
 3876SOL    HW212528   4.110   5.076   1.211
 3877SOL     OW12529   6.900   1.812   0.070
 3877SOL    HW112530   6.885   1.723   0.026
 3877SOL    HW212531   6.818   1.868   0.060
 3878SOL     OW12532   4.236   0.500   4.285
 3878SOL    HW112533   4.155   0.448   4.256
 3878SOL    HW212534   4.206   0.580   4.337
 3879SOL     OW12535   5.284   5.209   0.226
 3879SOL    HW112536   5.290   5.307   0.246
 3879SOL    HW212537   5.375   5.169   0.231
 3880SOL     OW12538   4.768   4.033   4.198
 3880SOL    HW112539   4.725   4.075   4.119
 3880SOL    HW212540   4.799   4.105   4.261
 3881SOL     OW12541   0.911   4.147   0.356
 3881SOL    HW112542   0.948   4.065   0.312
 3881SOL    HW212543   0.874   4.123   0.446
 3882SOL     OW12544   1.047   1.656   0.730
 3882SOL    HW112545   1.096   1.695   0.652
 3882SOL    HW212546   1.110   1.597   0.782
 3883SOL     OW12547   5.012   6.424   3.390
 3883SOL    HW112548   5.083   6.378   3.337
 3883SOL    HW212549   4.984   6.366   3.467
 3884SOL     OW12550   0.810   5.024   2.246
 3884SOL    HW112551   0.864   4.941   2.260
 3884SOL    HW212552   0.713   5.003   2.259
 3885SOL     OW12553   5.322   6.153   3.359
 3885SOL    HW112554   5.262   6.139   3.437
 3885SOL    HW212555   5.281   6.220   3.297
 3886SOL     OW12556   3.874   6.342   5.917
 3886SOL    HW112557   3.825   6.363   6.001
 3886SOL    HW212558   3.818   6.367   5.838
 3887SOL     OW12559   0.091   5.990   2.123
 3887SOL    HW112560   0.178   5.959   2.085
 3887SOL    HW212561   0.039   5.911   2.155
 3888SOL     OW12562   5.754   6.070   4.256
 3888SOL    HW112563   5.661   6.107   4.261
 3888SOL    HW212564   5.819   6.141   4.285
 3889SOL     OW12565   5.518   3.297   6.461
 3889SOL    HW112566   5.504   3.388   6.499
 3889SOL    HW212567   5.452   3.233   6.503
 3890SOL     OW12568   5.671   3.248   4.526
 3890SOL    HW112569   5.692   3.346   4.530
 3890SOL    HW212570   5.725   3.205   4.454
 3891SOL     OW12571   6.052   4.834   3.197
 3891SOL    HW112572   6.094   4.891   3.126
 3891SOL    HW212573   5.958   4.812   3.172
 3892SOL     OW12574   0.706   2.589   1.617
 3892SOL    HW112575   0.704   2.538   1.703
 3892SOL    HW212576   0.616   2.626   1.598
 3893SOL     OW12577   4.104   3.770   1.483
 3893SOL    HW112578   4.065   3.762   1.574
 3893SOL    HW212579   4.115   3.679   1.443
 3894SOL     OW12580   5.041   0.381   6.354
 3894SOL    HW112581   5.055   0.417   6.446
 3894SOL    HW212582   5.024   0.456   6.291
 3895SOL     OW12583   1.582   6.776   4.513
 3895SOL    HW112584   1.538   6.858   4.476
 3895SOL    HW212585   1.564   6.770   4.611
 3896SOL     OW12586   1.494   1.197   6.940
 3896SOL    HW112587   1.447   1.112   6.917
 3896SOL    HW212588   1.431   1.274   6.927
 3897SOL     OW12589   4.257   5.894   1.912
 3897SOL    HW112590   4.356   5.893   1.920
 3897SOL    HW212591   4.220   5.803   1.929
 3898SOL     OW12592   4.257   2.985   6.442
 3898SOL    HW112593   4.165   2.955   6.417
 3898SOL    HW212594   4.301   3.027   6.363
 3899SOL     OW12595   3.998   6.405   6.255
 3899SOL    HW112596   3.996   6.450   6.166
 3899SOL    HW212597   4.008   6.473   6.327
 3900SOL     OW12598   5.131   3.897   2.818
 3900SOL    HW112599   5.085   3.982   2.842
 3900SOL    HW212600   5.074   3.819   2.844
 3901SOL     OW12601   2.926   0.168   0.012
 3901SOL    HW112602   2.827   0.176   0.016
 3901SOL    HW212603   2.961   0.224   6.961
 3902SOL     OW12604   6.295   3.289   2.445
 3902SOL    HW112605   6.373   3.249   2.493
 3902SOL    HW212606   6.213   3.281   2.502
 3903SOL     OW12607   3.587   5.508   6.763
 3903SOL    HW112608   3.495   5.540   6.744
 3903SOL    HW212609   3.584   5.430   6.825
 3904SOL     OW12610   1.473   0.598   0.318
 3904SOL    HW112611   1.520   0.560   0.239
 3904SOL    HW212612   1.454   0.525   0.384
 3905SOL     OW12613   6.817   6.054   5.627
 3905SOL    HW112614   6.853   5.969   5.666
 3905SOL    HW212615   6.882   6.092   5.561
 3906SOL     OW12616   5.800   6.741   5.430
 3906SOL    HW112617   5.834   6.800   5.357
 3906SOL    HW212618   5.871   6.731   5.501
 3907SOL     OW12619   5.822   1.751   4.266
 3907SOL    HW112620   5.787   1.658   4.259
 3907SOL    HW212621   5.832   1.790   4.174
 3908SOL     OW12622   1.559   1.972   5.674
 3908SOL    HW112623   1.607   2.047   5.720
 3908SOL    HW212624   1.530   2.002   5.583
 3909SOL     OW12625   5.748   5.385   4.217
 3909SOL    HW112626   5.707   5.437   4.293
 3909SOL    HW212627   5.680   5.322   4.180
 3910SOL     OW12628   3.681   3.928   2.890
 3910SOL    HW112629   3.729   3.917   2.977
 3910SOL    HW212630   3.603   3.990   2.903
 3911SOL     OW12631   5.838   1.595   5.584
 3911SOL    HW112632   5.785   1.554   5.658
 3911SOL    HW212633   5.838   1.695   5.595
 3912SOL     OW12634   5.643   2.215   5.725
 3912SOL    HW112635   5.594   2.294   5.687
 3912SOL    HW212636   5.660   2.148   5.653
 3913SOL     OW12637   0.992   6.618   0.398
 3913SOL    HW112638   1.089   6.645   0.397
 3913SOL    HW212639   0.979   6.544   0.463
 3914SOL     OW12640   3.225   6.528   6.361
 3914SOL    HW112641   3.249   6.532   6.458
 3914SOL    HW212642   3.293   6.473   6.312
 3915SOL     OW12643   5.408   5.255   1.710
 3915SOL    HW112644   5.358   5.337   1.682
 3915SOL    HW212645   5.474   5.231   1.639
 3916SOL     OW12646   1.127   0.132   2.921
 3916SOL    HW112647   1.122   0.154   3.018
 3916SOL    HW212648   1.047   0.078   2.895
 3917SOL     OW12649   1.847   6.947   6.883
 3917SOL    HW112650   1.930   6.992   6.851
 3917SOL    HW212651   1.777   6.951   6.812
 3918SOL     OW12652   5.228   4.432   1.874
 3918SOL    HW112653   5.218   4.425   1.775
 3918SOL    HW212654   5.297   4.501   1.896
 3919SOL     OW12655   3.409   0.027   0.150
 3919SOL    HW112656   3.310   0.013   0.151
 3919SOL    HW212657   3.441   0.032   0.056
 3920SOL     OW12658   2.305   2.455   6.834
 3920SOL    HW112659   2.305   2.498   6.743
 3920SOL    HW212660   2.284   2.524   6.903
 3921SOL     OW12661   1.050   4.015   1.612
 3921SOL    HW112662   1.145   4.008   1.643
 3921SOL    HW212663   1.045   3.991   1.515
 3922SOL     OW12664   0.809   4.370   1.322
 3922SOL    HW112665   0.720   4.328   1.305
 3922SOL    HW212666   0.797   4.468   1.339
 3923SOL     OW12667   0.514   0.548   0.383
 3923SOL    HW112668   0.449   0.547   0.306
 3923SOL    HW212669   0.606   0.528   0.349
 3924SOL     OW12670   6.795   4.443   4.559
 3924SOL    HW112671   6.771   4.361   4.611
 3924SOL    HW212672   6.886   4.473   4.586
 3925SOL     OW12673   1.751   5.543   2.315
 3925SOL    HW112674   1.769   5.463   2.257
 3925SOL    HW212675   1.827   5.608   2.306
 3926SOL     OW12676   4.570   4.536   2.247
 3926SOL    HW112677   4.546   4.582   2.162
 3926SOL    HW212678   4.522   4.448   2.252
 3927SOL     OW12679   0.451   2.996   6.164
 3927SOL    HW112680   0.543   3.035   6.170
 3927SOL    HW212681   0.430   2.975   6.069
 3928SOL     OW12682   5.580   5.706   6.939
 3928SOL    HW112683   5.528   5.785   6.905
 3928SOL    HW212684   5.651   5.683   6.873
 3929SOL     OW12685   1.104   1.351   5.149
 3929SOL    HW112686   1.144   1.439   5.124
 3929SOL    HW212687   1.006   1.362   5.162
 3930SOL     OW12688   2.156   1.400   3.425
 3930SOL    HW112689   2.240   1.420   3.476
 3930SOL    HW212690   2.177   1.339   3.349
 3931SOL     OW12691   6.007   1.738   1.633
 3931SOL    HW112692   6.048   1.819   1.676
 3931SOL    HW212693   6.029   1.657   1.687
 3932SOL     OW12694   0.748   2.324   4.212
 3932SOL    HW112695   0.823   2.379   4.249
 3932SOL    HW212696   0.753   2.231   4.250
 3933SOL     OW12697   1.410   0.314   6.341
 3933SOL    HW112698   1.475   0.239   6.342
 3933SOL    HW212699   1.459   0.401   6.339
 3934SOL     OW12700   5.880   0.445   6.017
 3934SOL    HW112701   5.929   0.358   6.021
 3934SOL    HW212702   5.898   0.497   6.100
 3935SOL     OW12703   4.575   0.425   0.796
 3935SOL    HW112704   4.550   0.515   0.760
 3935SOL    HW212705   4.514   0.401   0.872
 3936SOL     OW12706   6.448   5.489   4.024
 3936SOL    HW112707   6.391   5.559   4.066
 3936SOL    HW212708   6.498   5.528   3.947
 3937SOL     OW12709   0.453   1.048   2.618
 3937SOL    HW112710   0.510   1.093   2.550
 3937SOL    HW212711   0.433   0.955   2.589
 3938SOL     OW12712   6.891   1.307   2.969
 3938SOL    HW112713   6.988   1.321   2.948
 3938SOL    HW212714   6.876   1.212   2.997
 3939SOL     OW12715   3.007   1.752   2.197
 3939SOL    HW112716   3.052   1.768   2.285
 3939SOL    HW212717   2.979   1.839   2.157
 3940SOL     OW12718   3.501   3.858   1.150
 3940SOL    HW112719   3.514   3.909   1.235
 3940SOL    HW212720   3.560   3.778   1.150
 3941SOL     OW12721   3.762   4.394   6.274
 3941SOL    HW112722   3.859   4.377   6.257
 3941SOL    HW212723   3.733   4.343   6.355
 3942SOL     OW12724   6.605   6.806   6.745
 3942SOL    HW112725   6.680   6.740   6.742
 3942SOL    HW212726   6.639   6.896   6.718
 3943SOL     OW12727   0.627   3.461   4.795
 3943SOL    HW112728   0.611   3.544   4.742
 3943SOL    HW212729   0.642   3.383   4.734
 3944SOL     OW12730   5.163   2.363   4.863
 3944SOL    HW112731   5.115   2.289   4.816
 3944SOL    HW212732   5.097   2.413   4.920
 3945SOL     OW12733   0.316   1.611   0.811
 3945SOL    HW112734   0.348   1.653   0.727
 3945SOL    HW212735   0.331   1.673   0.888
 3946SOL     OW12736   4.487   4.657   3.170
 3946SOL    HW112737   4.579   4.696   3.176
 3946SOL    HW212738   4.440   4.667   3.257
 3947SOL     OW12739   5.195   6.000   0.252
 3947SOL    HW112740   5.287   5.978   0.284
 3947SOL    HW212741   5.146   5.915   0.230
 3948SOL     OW12742   5.794   4.779   1.551
 3948SOL    HW112743   5.755   4.870   1.541
 3948SOL    HW212744   5.723   4.715   1.578
 3949SOL     OW12745   4.604   5.999   3.146
 3949SOL    HW112746   4.583   6.042   3.058
 3949SOL    HW212747   4.698   6.021   3.172
 3950SOL     OW12748   2.075   5.546   1.160
 3950SOL    HW112749   2.140   5.487   1.111
 3950SOL    HW212750   1.991   5.555   1.107
 3951SOL     OW12751   5.314   0.276   1.803
 3951SOL    HW112752   5.340   0.348   1.867
 3951SOL    HW212753   5.255   0.210   1.849
 3952SOL     OW12754   6.947   2.929   0.550
 3952SOL    HW112755   6.960   2.871   0.631
 3952SOL    HW212756   0.011   2.957   0.515
 3953SOL     OW12757   4.158   3.664   1.905
 3953SOL    HW112758   4.247   3.695   1.872
 3953SOL    HW212759   4.162   3.649   2.003
 3954SOL     OW12760   4.048   4.709   5.618
 3954SOL    HW112761   4.025   4.804   5.594
 3954SOL    HW212762   4.006   4.685   5.705
 3955SOL     OW12763   3.817   0.427   5.568
 3955SOL    HW112764   3.853   0.454   5.657
 3955SOL    HW212765   3.812   0.507   5.509
 3956SOL     OW12766   1.014   0.937   1.925
 3956SOL    HW112767   1.070   0.899   1.998
 3956SOL    HW212768   0.935   0.984   1.964
 3957SOL     OW12769   3.566   0.196   4.207
 3957SOL    HW112770   3.553   0.257   4.284
 3957SOL    HW212771   3.619   0.116   4.236
 3958SOL     OW12772   6.035   1.821   4.993
 3958SOL    HW112773   6.104   1.862   4.933
 3958SOL    HW212774   5.953   1.799   4.941
 3959SOL     OW12775   4.930   5.222   0.368
 3959SOL    HW112776   4.954   5.131   0.333
 3959SOL    HW212777   4.836   5.244   0.341
 3960SOL     OW12778   5.371   2.325   5.347
 3960SOL    HW112779   5.303   2.278   5.291
 3960SOL    HW212780   5.355   2.424   5.345
 3961SOL     OW12781   5.576   6.652   3.340
 3961SOL    HW112782   5.646   6.625   3.273
 3961SOL    HW212783   5.617   6.710   3.410
 3962SOL     OW12784   0.289   5.447   5.701
 3962SOL    HW112785   0.250   5.484   5.786
 3962SOL    HW212786   0.299   5.521   5.634
 3963SOL     OW12787   4.453   6.412   2.043
 3963SOL    HW112788   4.428   6.411   2.140
 3963SOL    HW212789   4.373   6.386   1.988
 3964SOL     OW12790   4.804   3.978   3.037
 3964SOL    HW112791   4.760   4.021   3.116
 3964SOL    HW212792   4.824   3.882   3.058
 3965SOL     OW12793   5.453   3.608   4.352
 3965SOL    HW112794   5.476   3.553   4.271
 3965SOL    HW212795   5.364   3.652   4.338
 3966SOL     OW12796   2.839   5.599   6.801
 3966SOL    HW112797   2.768   5.659   6.838
 3966SOL    HW212798   2.911   5.654   6.758
 3967SOL     OW12799   1.751   5.012   2.400
 3967SOL    HW112800   1.692   5.037   2.477
 3967SOL    HW212801   1.694   4.986   2.322
 3968SOL     OW12802   4.219   0.778   0.773
 3968SOL    HW112803   4.176   0.843   0.710
 3968SOL    HW212804   4.149   0.718   0.811
 3969SOL     OW12805   1.872   6.113   2.084
 3969SOL    HW112806   1.931   6.059   2.023
 3969SOL    HW212807   1.842   6.055   2.160
 3970SOL     OW12808   5.706   6.489   2.230
 3970SOL    HW112809   5.768   6.474   2.153
 3970SOL    HW212810   5.670   6.401   2.261
 3971SOL     OW12811   2.963   5.606   4.087
 3971SOL    HW112812   3.062   5.599   4.089
 3971SOL    HW212813   2.931   5.653   4.169
 3972SOL     OW12814   2.115   4.075   0.088
 3972SOL    HW112815   2.172   4.047   0.165
 3972SOL    HW212816   2.124   4.174   0.074
 3973SOL     OW12817   1.102   5.912   0.616
 3973SOL    HW112818   1.052   5.850   0.677
 3973SOL    HW212819   1.146   5.983   0.671
 3974SOL     OW12820   2.317   0.216   6.001
 3974SOL    HW112821   2.233   0.201   6.053
 3974SOL    HW212822   2.372   0.287   6.045
 3975SOL     OW12823   5.469   2.048   6.446
 3975SOL    HW112824   5.428   2.138   6.466
 3975SOL    HW212825   5.455   2.025   6.350
 3976SOL     OW12826   1.768   5.953   2.278
 3976SOL    HW112827   1.762   5.973   2.376
 3976SOL    HW212828   1.708   5.876   2.256
 3977SOL     OW12829   0.782   3.629   6.638
 3977SOL    HW112830   0.880   3.618   6.656
 3977SOL    HW212831   0.758   3.726   6.645
 3978SOL     OW12832   6.713   4.825   3.864
 3978SOL    HW112833   6.786   4.887   3.893
 3978SOL    HW212834   6.751   4.733   3.851
 3979SOL     OW12835   3.570   0.461   6.320
 3979SOL    HW112836   3.571   0.558   6.294
 3979SOL    HW212837   3.611   0.451   6.410
 3980SOL     OW12838   6.110   6.520   6.421
 3980SOL    HW112839   6.060   6.522   6.507
 3980SOL    HW212840   6.149   6.611   6.403
 3981SOL     OW12841   4.682   6.840   0.452
 3981SOL    HW112842   4.607   6.849   0.518
 3981SOL    HW212843   4.720   6.930   0.432
 3982SOL     OW12844   2.428   0.037   2.429
 3982SOL    HW112845   2.443   6.965   2.449
 3982SOL    HW212846   2.496   0.069   2.363
 3983SOL     OW12847   4.451   5.830   3.711
 3983SOL    HW112848   4.549   5.820   3.731
 3983SOL    HW212849   4.407   5.741   3.714
 3984SOL     OW12850   6.018   2.117   2.750
 3984SOL    HW112851   6.044   2.024   2.723
 3984SOL    HW212852   6.091   2.181   2.725
 3985SOL     OW12853   3.036   5.558   6.504
 3985SOL    HW112854   3.097   5.533   6.429
 3985SOL    HW212855   2.949   5.509   6.496
 3986SOL     OW12856   5.038   1.602   2.137
 3986SOL    HW112857   5.041   1.669   2.211
 3986SOL    HW212858   5.078   1.516   2.168
 3987SOL     OW12859   3.271   4.958   5.122
 3987SOL    HW112860   3.206   4.931   5.193
 3987SOL    HW212861   3.236   5.037   5.072
 3988SOL     OW12862   4.673   5.318   0.297
 3988SOL    HW112863   4.622   5.273   0.371
 3988SOL    HW212864   4.641   5.413   0.288
 3989SOL     OW12865   6.690   1.915   6.873
 3989SOL    HW112866   6.632   1.971   6.814
 3989SOL    HW212867   6.734   1.973   6.941
 3990SOL     OW12868   5.166   2.723   1.817
 3990SOL    HW112869   5.078   2.732   1.862
 3990SOL    HW212870   5.216   2.809   1.822
 3991SOL     OW12871   0.129   0.694   3.298
 3991SOL    HW112872   0.029   0.688   3.294
 3991SOL    HW212873   0.156   0.777   3.347
 3992SOL     OW12874   2.666   2.519   1.114
 3992SOL    HW112875   2.611   2.576   1.053
 3992SOL    HW212876   2.739   2.475   1.061
 3993SOL     OW12877   1.233   3.561   2.470
 3993SOL    HW112878   1.199   3.505   2.394
 3993SOL    HW212879   1.221   3.658   2.448
 3994SOL     OW12880   2.796   6.764   5.058
 3994SOL    HW112881   2.792   6.822   4.976
 3994SOL    HW212882   2.840   6.677   5.035
 3995SOL     OW12883   1.353   2.653   5.003
 3995SOL    HW112884   1.451   2.655   5.022
 3995SOL    HW212885   1.312   2.574   5.050
 3996SOL     OW12886   0.315   6.479   4.987
 3996SOL    HW112887   0.245   6.485   5.057
 3996SOL    HW212888   0.373   6.561   4.991
 3997SOL     OW12889   5.477   0.749   4.466
 3997SOL    HW112890   5.392   0.798   4.484
 3997SOL    HW212891   5.460   0.674   4.402
 3998SOL     OW12892   4.045   2.184   3.789
 3998SOL    HW112893   4.086   2.230   3.868
 3998SOL    HW212894   3.982   2.113   3.821
 3999SOL     OW12895   6.118   2.015   5.158
 3999SOL    HW112896   6.084   1.931   5.116
 3999SOL    HW212897   6.201   1.996   5.210
 4000SOL     OW12898   4.088   0.344   3.448
 4000SOL    HW112899   4.165   0.300   3.401
 4000SOL    HW212900   4.063   0.291   3.529
 4001SOL     OW12901   1.272   2.069   3.347
 4001SOL    HW112902   1.214   2.145   3.317
 4001SOL    HW212903   1.348   2.058   3.283
 4002SOL     OW12904   2.031   3.563   2.247
 4002SOL    HW112905   1.964   3.629   2.211
 4002SOL    HW212906   2.096   3.539   2.176
 4003SOL     OW12907   3.649   0.537   4.585
 4003SOL    HW112908   3.623   0.632   4.570
 4003SOL    HW212909   3.721   0.533   4.654
 4004SOL     OW12910   6.813   1.703   5.207
 4004SOL    HW112911   6.769   1.624   5.163
 4004SOL    HW212912   6.839   1.770   5.139
 4005SOL     OW12913   5.562   5.293   5.802
 4005SOL    HW112914   5.626   5.228   5.761
 4005SOL    HW212915   5.479   5.245   5.830
 4006SOL     OW12916   3.719   5.505   2.296
 4006SOL    HW112917   3.734   5.601   2.271
 4006SOL    HW212918   3.794   5.474   2.354
 4007SOL     OW12919   0.095   2.100   6.571
 4007SOL    HW112920   0.130   2.190   6.548
 4007SOL    HW212921   0.007   2.085   6.526
 4008SOL     OW12922   2.163   2.334   5.106
 4008SOL    HW112923   2.095   2.407   5.101
 4008SOL    HW212924   2.192   2.309   5.014
 4009SOL     OW12925   4.056   3.418   2.767
 4009SOL    HW112926   4.030   3.327   2.800
 4009SOL    HW212927   4.063   3.417   2.668
 4010SOL     OW12928   2.032   2.980   0.123
 4010SOL    HW112929   2.004   3.076   0.120
 4010SOL    HW212930   1.958   2.925   0.163
 4011SOL     OW12931   1.231   2.690   1.576
 4011SOL    HW112932   1.267   2.598   1.590
 4011SOL    HW212933   1.134   2.685   1.553
 4012SOL     OW12934   6.621   3.771   3.597
 4012SOL    HW112935   6.679   3.723   3.663
 4012SOL    HW212936   6.619   3.868   3.620
 4013SOL     OW12937   4.642   2.590   3.356
 4013SOL    HW112938   4.589   2.528   3.414
 4013SOL    HW212939   4.735   2.600   3.393
 4014SOL     OW12940   5.226   5.974   2.949
 4014SOL    HW112941   5.302   5.971   3.013
 4014SOL    HW212942   5.237   6.051   2.887
 4015SOL     OW12943   5.237   3.770   5.965
 4015SOL    HW112944   5.188   3.723   6.038
 4015SOL    HW212945   5.311   3.825   6.004
 4016SOL     OW12946   2.818   6.295   5.305
 4016SOL    HW112947   2.767   6.310   5.389
 4016SOL    HW212948   2.840   6.197   5.296
 4017SOL     OW12949   6.424   5.862   6.904
 4017SOL    HW112950   6.331   5.844   6.937
 4017SOL    HW212951   6.456   5.784   6.851
 4018SOL     OW12952   2.905   5.666   0.475
 4018SOL    HW112953   2.847   5.748   0.478
 4018SOL    HW212954   2.998   5.690   0.501
 4019SOL     OW12955   5.396   5.131   3.455
 4019SOL    HW112956   5.326   5.183   3.503
 4019SOL    HW212957   5.478   5.124   3.513
 4020SOL     OW12958   5.170   1.868   5.739
 4020SOL    HW112959   5.264   1.857   5.706
 4020SOL    HW212960   5.163   1.952   5.793
 4021SOL     OW12961   3.111   4.346   5.913
 4021SOL    HW112962   3.202   4.309   5.933
 4021SOL    HW212963   3.115   4.446   5.912
 4022SOL     OW12964   5.036   0.215   1.539
 4022SOL    HW112965   5.006   0.274   1.464
 4022SOL    HW212966   5.135   0.223   1.549
 4023SOL     OW12967   6.496   0.458   6.111
 4023SOL    HW112968   6.592   0.444   6.134
 4023SOL    HW212969   6.455   0.371   6.083
 4024SOL     OW12970   3.722   4.995   4.002
 4024SOL    HW112971   3.791   4.979   3.931
 4024SOL    HW212972   3.636   5.020   3.958
 4025SOL     OW12973   1.159   4.736   2.900
 4025SOL    HW112974   1.247   4.783   2.910
 4025SOL    HW212975   1.114   4.769   2.817
 4026SOL     OW12976   5.605   6.854   4.414
 4026SOL    HW112977   5.519   6.807   4.436
 4026SOL    HW212978   5.585   6.940   4.367
 4027SOL     OW12979   3.980   5.296   1.401
 4027SOL    HW112980   4.057   5.347   1.439
 4027SOL    HW212981   4.008   5.201   1.387
 4028SOL     OW12982   2.362   0.114   3.789
 4028SOL    HW112983   2.307   0.055   3.849
 4028SOL    HW212984   2.301   0.168   3.731
 4029SOL     OW12985   2.111   4.609   4.837
 4029SOL    HW112986   2.044   4.584   4.908
 4029SOL    HW212987   2.074   4.683   4.781
 4030SOL     OW12988   0.903   1.732   5.825
 4030SOL    HW112989   0.957   1.651   5.847
 4030SOL    HW212990   0.960   1.814   5.832
 4031SOL     OW12991   4.200   5.633   4.712
 4031SOL    HW112992   4.287   5.583   4.722
 4031SOL    HW212993   4.184   5.653   4.616
 4032SOL     OW12994   5.050   0.161   4.738
 4032SOL    HW112995   5.056   0.079   4.795
 4032SOL    HW212996   5.137   0.210   4.743
 4033SOL     OW12997   2.799   3.937   5.601
 4033SOL    HW112998   2.768   3.983   5.517
 4033SOL    HW212999   2.843   3.851   5.577
 4034SOL     OW13000   6.603   2.199   3.891
 4034SOL    HW113001   6.598   2.228   3.795
 4034SOL    HW213002   6.632   2.104   3.895
 4035SOL     OW13003   0.176   5.143   0.643
 4035SOL    HW113004   0.243   5.176   0.577
 4035SOL    HW213005   0.088   5.131   0.598
 4036SOL     OW13006   6.601   6.621   3.333
 4036SOL    HW113007   6.567   6.714   3.321
 4036SOL    HW213008   6.638   6.611   3.426
 4037SOL     OW13009   6.492   4.219   6.202
 4037SOL    HW113010   6.463   4.124   6.214
 4037SOL    HW213011   6.505   4.261   6.292
 4038SOL     OW13012   6.501   4.932   4.076
 4038SOL    HW113013   6.578   4.892   4.027
 4038SOL    HW213014   6.421   4.872   4.066
 4039SOL     OW13015   4.069   6.034   1.049
 4039SOL    HW113016   4.141   6.082   1.100
 4039SOL    HW213017   4.010   5.985   1.113
 4040SOL     OW13018   3.964   6.478   1.198
 4040SOL    HW113019   3.892   6.540   1.227
 4040SOL    HW213020   3.940   6.437   1.110
 4041SOL     OW13021   1.210   0.090   3.998
 4041SOL    HW113022   1.127   0.068   4.050
 4041SOL    HW213023   1.188   0.100   3.901
 4042SOL     OW13024   6.206   5.294   2.316
 4042SOL    HW113025   6.159   5.212   2.348
 4042SOL    HW213026   6.154   5.336   2.242
 4043SOL     OW13027   6.587   3.289   1.716
 4043SOL    HW113028   6.562   3.268   1.621
 4043SOL    HW213029   6.643   3.214   1.753
 4044SOL     OW13030   6.354   6.252   3.115
 4044SOL    HW113031   6.394   6.172   3.070
 4044SOL    HW213032   6.268   6.276   3.070
 4045SOL     OW13033   2.160   5.379   5.773
 4045SOL    HW113034   2.065   5.388   5.804
 4045SOL    HW213035   2.169   5.297   5.716
 4046SOL     OW13036   1.201   3.058   1.073
 4046SOL    HW113037   1.159   3.047   1.164
 4046SOL    HW213038   1.275   3.125   1.079
 4047SOL     OW13039   3.438   4.080   1.507
 4047SOL    HW113040   3.368   4.132   1.555
 4047SOL    HW213041   3.398   3.998   1.466
 4048SOL     OW13042   5.098   1.806   0.973
 4048SOL    HW113043   5.100   1.858   0.888
 4048SOL    HW213044   5.041   1.853   1.040
 4049SOL     OW13045   6.846   0.644   5.996
 4049SOL    HW113046   6.933   0.644   5.947
 4049SOL    HW213047   6.822   0.738   6.020
 4050SOL     OW13048   2.217   0.574   1.357
 4050SOL    HW113049   2.228   0.479   1.329
 4050SOL    HW213050   2.245   0.583   1.453
 4051SOL     OW13051   1.756   4.063   1.025
 4051SOL    HW113052   1.725   3.980   0.979
 4051SOL    HW213053   1.855   4.058   1.041
 4052SOL     OW13054   1.582   6.129   1.506
 4052SOL    HW113055   1.651   6.060   1.528
 4052SOL    HW213056   1.611   6.181   1.425
 4053SOL     OW13057   2.831   4.758   3.600
 4053SOL    HW113058   2.816   4.750   3.699
 4053SOL    HW213059   2.928   4.744   3.580
 4054SOL     OW13060   5.480   1.686   6.800
 4054SOL    HW113061   5.568   1.644   6.821
 4054SOL    HW213062   5.461   1.759   6.866
 4055SOL     OW13063   4.015   2.352   0.428
 4055SOL    HW113064   3.972   2.262   0.428
 4055SOL    HW213065   4.114   2.343   0.443
 4056SOL     OW13066   3.976   2.964   1.001
 4056SOL    HW113067   3.965   2.865   1.011
 4056SOL    HW213068   3.924   3.011   1.072
 4057SOL     OW13069   6.578   2.161   6.780
 4057SOL    HW113070   6.535   2.216   6.708
 4057SOL    HW213071   6.591   2.218   6.861
 4058SOL     OW13072   1.483   0.963   4.826
 4058SOL    HW113073   1.473   1.062   4.818
 4058SOL    HW213074   1.483   0.922   4.735
 4059SOL     OW13075   6.204   1.480   4.992
 4059SOL    HW113076   6.208   1.492   5.091
 4059SOL    HW213077   6.156   1.395   4.971
 4060SOL     OW13078   3.876   6.176   4.643
 4060SOL    HW113079   3.973   6.151   4.644
 4060SOL    HW213080   3.822   6.097   4.613
 4061SOL     OW13081   2.541   3.066   1.716
 4061SOL    HW113082   2.532   3.098   1.622
 4061SOL    HW213083   2.550   2.966   1.716
 4062SOL     OW13084   3.300   6.400   3.047
 4062SOL    HW113085   3.323   6.395   3.145
 4062SOL    HW213086   3.202   6.389   3.036
 4063SOL     OW13087   2.899   5.431   6.169
 4063SOL    HW113088   2.985   5.453   6.215
 4063SOL    HW213089   2.905   5.457   6.072
 4064SOL     OW13090   5.990   0.332   4.471
 4064SOL    HW113091   6.040   0.338   4.385
 4064SOL    HW213092   6.036   0.387   4.540
 4065SOL     OW13093   6.049   5.162   0.178
 4065SOL    HW113094   6.125   5.105   0.210
 4065SOL    HW213095   5.963   5.116   0.194
 4066SOL     OW13096   6.318   5.137   2.046
 4066SOL    HW113097   6.243   5.188   2.004
 4066SOL    HW213098   6.295   5.039   2.047
 4067SOL     OW13099   6.028   0.926   1.923
 4067SOL    HW113100   6.038   0.828   1.902
 4067SOL    HW213101   6.078   0.948   2.007
 4068SOL     OW13102   5.591   1.308   3.972
 4068SOL    HW113103   5.564   1.402   3.995
 4068SOL    HW213104   5.519   1.245   4.000
 4069SOL     OW13105   0.274   5.889   1.252
 4069SOL    HW113106   0.367   5.866   1.225
 4069SOL    HW213107   0.209   5.849   1.186
 4070SOL     OW13108   0.375   3.499   2.870
 4070SOL    HW113109   0.371   3.409   2.827
 4070SOL    HW213110   0.324   3.497   2.956
 4071SOL     OW13111   2.470   0.861   3.646
 4071SOL    HW113112   2.445   0.774   3.687
 4071SOL    HW213113   2.514   0.919   3.714
 4072SOL     OW13114   0.631   0.389   4.483
 4072SOL    HW113115   0.656   0.383   4.386
 4072SOL    HW213116   0.572   0.313   4.507
 4073SOL     OW13117   3.134   5.068   1.299
 4073SOL    HW113118   3.140   4.971   1.323
 4073SOL    HW213119   3.214   5.094   1.247
 4074SOL     OW13120   1.106   2.718   0.645
 4074SOL    HW113121   1.206   2.715   0.636
 4074SOL    HW213122   1.079   2.671   0.729
 4075SOL     OW13123   5.095   0.743   3.983
 4075SOL    HW113124   5.114   0.657   3.935
 4075SOL    HW213125   5.134   0.819   3.932
 4076SOL     OW13126   1.467   2.461   3.451
 4076SOL    HW113127   1.379   2.412   3.453
 4076SOL    HW213128   1.500   2.466   3.357
 4077SOL     OW13129   2.759   1.845   0.669
 4077SOL    HW113130   2.708   1.833   0.754
 4077SOL    HW213131   2.850   1.805   0.679
 4078SOL     OW13132   5.279   4.006   2.342
 4078SOL    HW113133   5.364   3.961   2.315
 4078SOL    HW213134   5.263   3.992   2.440
 4079SOL     OW13135   6.663   0.672   4.043
 4079SOL    HW113136   6.589   0.616   4.081
 4079SOL    HW213137   6.748   0.652   4.090
 4080SOL     OW13138   3.687   2.863   2.359
 4080SOL    HW113139   3.660   2.957   2.338
 4080SOL    HW213140   3.705   2.814   2.274
 4081SOL     OW13141   2.192   2.258   6.492
 4081SOL    HW113142   2.287   2.230   6.474
 4081SOL    HW213143   2.130   2.187   6.457
 4082SOL     OW13144   1.322   2.321   5.436
 4082SOL    HW113145   1.231   2.282   5.428
 4082SOL    HW213146   1.390   2.252   5.414
 4083SOL     OW13147   5.742   5.488   2.591
 4083SOL    HW113148   5.811   5.519   2.525
 4083SOL    HW213149   5.787   5.440   2.666
 4084SOL     OW13150   4.388   0.503   2.780
 4084SOL    HW113151   4.473   0.479   2.827
 4084SOL    HW213152   4.390   0.600   2.756
 4085SOL     OW13153   3.090   4.859   2.313
 4085SOL    HW113154   2.997   4.836   2.282
 4085SOL    HW213155   3.157   4.819   2.251
 4086SOL     OW13156   6.186   4.510   4.738
 4086SOL    HW113157   6.278   4.485   4.768
 4086SOL    HW213158   6.186   4.605   4.707
 4087SOL     OW13159   1.784   0.322   1.942
 4087SOL    HW113160   1.756   0.355   2.032
 4087SOL    HW213161   1.741   0.378   1.871
 4088SOL     OW13162   0.164   1.866   5.321
 4088SOL    HW113163   0.154   1.795   5.252
 4088SOL    HW213164   0.217   1.942   5.282
 4089SOL     OW13165   1.073   0.791   2.902
 4089SOL    HW113166   1.136   0.755   2.834
 4089SOL    HW213167   1.124   0.821   2.982
 4090SOL     OW13168   2.828   2.200   5.933
 4090SOL    HW113169   2.924   2.208   5.908
 4090SOL    HW213170   2.783   2.132   5.875
 4091SOL     OW13171   3.597   5.778   2.008
 4091SOL    HW113172   3.532   5.817   1.943
 4091SOL    HW213173   3.577   5.681   2.022
 4092SOL     OW13174   4.961   2.463   5.519
 4092SOL    HW113175   5.013   2.481   5.603
 4092SOL    HW213176   4.863   2.474   5.537
 4093SOL     OW13177   5.541   4.217   3.589
 4093SOL    HW113178   5.514   4.122   3.581
 4093SOL    HW213179   5.519   4.251   3.680
 4094SOL     OW13180   0.304   5.983   6.971
 4094SOL    HW113181   0.215   5.949   6.942
 4094SOL    HW213182   0.332   6.058   6.911
 4095SOL     OW13183   0.913   5.400   0.794
 4095SOL    HW113184   0.978   5.460   0.840
 4095SOL    HW213185   0.931   5.400   0.696
 4096SOL     OW13186   0.790   0.663   6.934
 4096SOL    HW113187   0.737   0.745   6.915
 4096SOL    HW213188   0.730   0.583   6.934
 4097SOL     OW13189   6.509   3.754   5.157
 4097SOL    HW113190   6.449   3.789   5.085
 4097SOL    HW213191   6.454   3.710   5.228
 4098SOL     OW13192   1.395   5.037   2.523
 4098SOL    HW113193   1.297   5.048   2.508
 4098SOL    HW213194   1.437   4.997   2.442
 4099SOL     OW13195   5.887   4.520   5.778
 4099SOL    HW113196   5.970   4.542   5.830
 4099SOL    HW213197   5.880   4.420   5.767
 4100SOL     OW13198   1.919   1.550   2.836
 4100SOL    HW113199   1.895   1.524   2.930
 4100SOL    HW213200   1.860   1.625   2.806
 4101SOL     OW13201   6.624   5.596   6.783
 4101SOL    HW113202   6.717   5.610   6.750
 4101SOL    HW213203   6.579   5.527   6.726
 4102SOL     OW13204   1.358   6.120   0.376
 4102SOL    HW113205   1.420   6.060   0.326
 4102SOL    HW213206   1.402   6.209   0.391
 4103SOL     OW13207   1.990   6.985   3.614
 4103SOL    HW113208   1.993   6.885   3.621
 4103SOL    HW213209   1.899   7.017   3.638
 4104SOL     OW13210   2.322   5.986   5.570
 4104SOL    HW113211   2.224   6.002   5.576
 4104SOL    HW213212   2.344   5.899   5.613
 4105SOL     OW13213   4.169   0.305   2.375
 4105SOL    HW113214   4.240   0.307   2.445
 4105SOL    HW213215   4.200   0.356   2.295
 4106SOL     OW13216   1.409   1.059   2.788
 4106SOL    HW113217   1.485   0.994   2.792
 4106SOL    HW213218   1.375   1.077   2.880
 4107SOL     OW13219   1.606   0.591   1.376
 4107SOL    HW113220   1.575   0.508   1.331
 4107SOL    HW213221   1.530   0.632   1.427
 4108SOL     OW13222   6.179   6.185   6.084
 4108SOL    HW113223   6.160   6.174   6.182
 4108SOL    HW213224   6.094   6.208   6.036
 4109SOL     OW13225   5.477   6.102   3.716
 4109SOL    HW113226   5.556   6.093   3.776
 4109SOL    HW213227   5.470   6.022   3.657
 4110SOL     OW13228   5.334   2.930   0.758
 4110SOL    HW113229   5.379   2.890   0.677
 4110SOL    HW213230   5.372   3.021   0.776
 4111SOL     OW13231   6.015   4.235   3.977
 4111SOL    HW113232   5.944   4.243   3.908
 4111SOL    HW213233   6.010   4.146   4.021
 4112SOL     OW13234   3.796   6.003   4.303
 4112SOL    HW113235   3.876   6.062   4.292
 4112SOL    HW213236   3.805   5.923   4.244
 4113SOL     OW13237   4.363   5.177   4.661
 4113SOL    HW113238   4.447   5.126   4.681
 4113SOL    HW213239   4.376   5.230   4.577
 4114SOL     OW13240   7.007   1.200   1.678
 4114SOL    HW113241   0.024   1.202   1.588
 4114SOL    HW213242   6.917   1.243   1.674
 4115SOL     OW13243   4.431   5.846   3.343
 4115SOL    HW113244   4.502   5.895   3.291
 4115SOL    HW213245   4.372   5.913   3.388
 4116SOL     OW13246   4.910   3.667   2.851
 4116SOL    HW113247   4.964   3.608   2.791
 4116SOL    HW213248   4.833   3.705   2.800
 4117SOL     OW13249   1.204   1.634   3.462
 4117SOL    HW113250   1.235   1.593   3.376
 4117SOL    HW213251   1.156   1.566   3.517
 4118SOL     OW13252   0.899   6.870   0.507
 4118SOL    HW113253   0.925   6.774   0.496
 4118SOL    HW213254   0.809   6.876   0.550
 4119SOL     OW13255   0.508   0.654   4.441
 4119SOL    HW113256   0.537   0.562   4.466
 4119SOL    HW213257   0.588   0.711   4.422
 4120SOL     OW13258   2.669   1.093   6.740
 4120SOL    HW113259   2.576   1.131   6.748
 4120SOL    HW213260   2.664   1.001   6.702
 4121SOL     OW13261   6.705   0.327   2.154
 4121SOL    HW113262   6.699   0.341   2.056
 4121SOL    HW213263   6.625   0.276   2.186
 4122SOL     OW13264   0.712   4.164   3.046
 4122SOL    HW113265   0.760   4.237   2.997
 4122SOL    HW213266   0.614   4.179   3.040
 4123SOL     OW13267   5.330   4.709   1.106
 4123SOL    HW113268   5.278   4.645   1.162
 4123SOL    HW213269   5.292   4.801   1.116
 4124SOL     OW13270   6.655   5.903   0.037
 4124SOL    HW113271   6.691   5.992   0.009
 4124SOL    HW213272   6.571   5.883   7.010
 4125SOL     OW13273   6.245   2.605   0.358
 4125SOL    HW113274   6.316   2.665   0.321
 4125SOL    HW213275   6.241   2.521   0.304
 4126SOL     OW13276   0.846   3.431   3.449
 4126SOL    HW113277   0.779   3.399   3.516
 4126SOL    HW213278   0.806   3.506   3.396
 4127SOL     OW13279   4.709   2.740   4.087
 4127SOL    HW113280   4.733   2.829   4.047
 4127SOL    HW213281   4.711   2.747   4.186
 4128SOL     OW13282   6.838   2.973   6.780
 4128SOL    HW113283   6.875   3.058   6.742
 4128SOL    HW213284   6.745   2.989   6.813
 4129SOL     OW13285   2.961   1.672   0.822
 4129SOL    HW113286   3.053   1.707   0.837
 4129SOL    HW213287   2.931   1.621   0.902
 4130SOL     OW13288   6.148   2.942   0.614
 4130SOL    HW113289   6.078   2.957   0.685
 4130SOL    HW213290   6.168   2.844   0.608
 4131SOL     OW13291   5.338   6.568   3.180
 4131SOL    HW113292   5.422   6.606   3.217
 4131SOL    HW213293   5.316   6.615   3.094
 4132SOL     OW13294   6.434   5.094   3.181
 4132SOL    HW113295   6.487   5.178   3.172
 4132SOL    HW213296   6.355   5.110   3.241
 4133SOL     OW13297   5.692   0.118   2.815
 4133SOL    HW113298   5.761   0.052   2.845
 4133SOL    HW213299   5.713   0.208   2.853
 4134SOL     OW13300   1.460   3.853   1.115
 4134SOL    HW113301   1.544   3.834   1.065
 4134SOL    HW213302   1.386   3.796   1.081
 4135SOL     OW13303   6.425   0.966   1.623
 4135SOL    HW113304   6.472   0.960   1.711
 4135SOL    HW213305   6.466   0.903   1.558
 4136SOL     OW13306   0.959   5.087   1.020
 4136SOL    HW113307   0.919   5.084   0.928
 4136SOL    HW213308   0.900   5.141   1.080
 4137SOL     OW13309   0.858   2.198   6.617
 4137SOL    HW113310   0.929   2.242   6.561
 4137SOL    HW213311   0.768   2.230   6.587
 4138SOL     OW13312   4.622   0.294   6.912
 4138SOL    HW113313   4.546   0.356   6.894
 4138SOL    HW213314   4.708   0.346   6.911
 4139SOL     OW13315   2.250   4.061   2.951
 4139SOL    HW113316   2.159   4.044   2.914
 4139SOL    HW213317   2.294   4.134   2.899
 4140SOL     OW13318   2.351   0.523   6.548
 4140SOL    HW113319   2.418   0.487   6.612
 4140SOL    HW213320   2.284   0.452   6.526
 4141SOL     OW13321   5.570   0.824   6.023
 4141SOL    HW113322   5.531   0.883   6.094
 4141SOL    HW213323   5.646   0.872   5.978
 4142SOL     OW13324   6.524   5.495   2.770
 4142SOL    HW113325   6.527   5.511   2.869
 4142SOL    HW213326   6.430   5.509   2.738
 4143SOL     OW13327   6.676   3.336   6.513
 4143SOL    HW113328   6.620   3.407   6.471
 4143SOL    HW213329   6.679   3.256   6.453
 4144SOL     OW13330   5.318   1.645   1.406
 4144SOL    HW113331   5.318   1.545   1.418
 4144SOL    HW213332   5.235   1.672   1.357
 4145SOL     OW13333   0.003   0.516   1.654
 4145SOL    HW113334   6.928   0.519   1.662
 4145SOL    HW213335   0.043   0.512   1.745
 4146SOL     OW13336   4.931   6.605   1.866
 4146SOL    HW113337   4.997   6.680   1.862
 4146SOL    HW213338   4.908   6.585   1.962
 4147SOL     OW13339   4.681   5.037   6.674
 4147SOL    HW113340   4.604   4.974   6.665
 4147SOL    HW213341   4.650   5.124   6.712
 4148SOL     OW13342   2.894   1.190   4.940
 4148SOL    HW113343   2.966   1.120   4.942
 4148SOL    HW213344   2.804   1.146   4.935
 4149SOL     OW13345   1.237   3.911   6.590
 4149SOL    HW113346   1.249   3.944   6.496
 4149SOL    HW213347   1.284   3.973   6.653
 4150SOL     OW13348   5.286   1.369   7.014
 4150SOL    HW113349   5.354   1.340   6.947
 4150SOL    HW213350   5.200   1.322   6.997
 4151SOL     OW13351   2.567   6.002   4.564
 4151SOL    HW113352   2.474   6.014   4.599
 4151SOL    HW213353   2.611   6.091   4.555
 4152SOL     OW13354   2.347   4.336   1.333
 4152SOL    HW113355   2.262   4.307   1.378
 4152SOL    HW213356   2.326   4.405   1.264
 4153SOL     OW13357   6.638   5.985   1.801
 4153SOL    HW113358   6.711   5.971   1.734
 4153SOL    HW213359   6.678   6.007   1.890
 4154SOL     OW13360   0.779   6.446   4.338
 4154SOL    HW113361   0.774   6.445   4.438
 4154SOL    HW213362   0.707   6.505   4.302
 4155SOL     OW13363   0.140   0.566   1.913
 4155SOL    HW113364   0.095   0.583   2.000
 4155SOL    HW213365   0.240   0.569   1.925
 4156SOL     OW13366   0.584   4.969   5.887
 4156SOL    HW113367   0.486   4.957   5.873
 4156SOL    HW213368   0.599   5.037   5.959
 4157SOL     OW13369   5.483   5.700   0.992
 4157SOL    HW113370   5.535   5.636   0.935
 4157SOL    HW213371   5.507   5.686   1.088
 4158SOL     OW13372   0.608   3.347   1.406
 4158SOL    HW113373   0.683   3.391   1.356
 4158SOL    HW213374   0.647   3.282   1.472
 4159SOL     OW13375   2.397   0.665   4.656
 4159SOL    HW113376   2.349   0.690   4.572
 4159SOL    HW213377   2.495   0.656   4.637
 4160SOL     OW13378   0.762   0.144   6.747
 4160SOL    HW113379   0.779   0.205   6.670
 4160SOL    HW213380   0.848   0.100   6.774
 4161SOL     OW13381   3.614   3.362   2.737
 4161SOL    HW113382   3.665   3.362   2.823
 4161SOL    HW213383   3.519   3.338   2.755
 4162SOL     OW13384   5.285   5.580   1.339
 4162SOL    HW113385   5.357   5.647   1.324
 4162SOL    HW213386   5.285   5.513   1.265
 4163SOL     OW13387   3.332   5.844   2.145
 4163SOL    HW113388   3.344   5.844   2.045
 4163SOL    HW213389   3.404   5.789   2.187
 4164SOL     OW13390   0.039   0.948   6.210
 4164SOL    HW113391   0.046   0.889   6.290
 4164SOL    HW213392   0.097   1.028   6.223
 4165SOL     OW13393   4.077   0.980   4.541
 4165SOL    HW113394   4.001   1.019   4.489
 4165SOL    HW213395   4.124   1.052   4.592
 4166SOL     OW13396   5.656   2.218   1.280
 4166SOL    HW113397   5.713   2.278   1.336
 4166SOL    HW213398   5.599   2.161   1.340
 4167SOL     OW13399   3.638   5.265   4.360
 4167SOL    HW113400   3.544   5.294   4.342
 4167SOL    HW213401   3.656   5.268   4.458
 4168SOL     OW13402   5.067   3.677   0.152
 4168SOL    HW113403   5.044   3.723   0.238
 4168SOL    HW213404   4.984   3.639   0.111
 4169SOL     OW13405   5.416   2.845   5.939
 4169SOL    HW113406   5.515   2.861   5.935
 4169SOL    HW213407   5.387   2.799   5.855
 4170SOL     OW13408   0.531   2.299   4.401
 4170SOL    HW113409   0.548   2.396   4.418
 4170SOL    HW213410   0.603   2.244   4.442
 4171SOL     OW13411   0.878   1.452   7.004
 4171SOL    HW113412   0.948   1.424   6.937
 4171SOL    HW213413   0.879   1.388   0.056
 4172SOL     OW13414   2.908   3.470   0.616
 4172SOL    HW113415   2.914   3.487   0.715
 4172SOL    HW213416   2.832   3.521   0.578
 4173SOL     OW13417   4.916   1.902   6.494
 4173SOL    HW113418   4.894   1.984   6.547
 4173SOL    HW213419   4.963   1.836   6.553
 4174SOL     OW13420   4.143   0.101   4.827
 4174SOL    HW113421   4.117   0.148   4.912
 4174SOL    HW213422   4.106   0.151   4.749
 4175SOL     OW13423   0.839   4.299   6.569
 4175SOL    HW113424   0.800   4.248   6.645
 4175SOL    HW213425   0.804   4.393   6.570
 4176SOL     OW13426   5.777   6.736   6.189
 4176SOL    HW113427   5.846   6.666   6.171
 4176SOL    HW213428   5.800   6.786   6.272
 4177SOL     OW13429   3.793   4.830   2.892
 4177SOL    HW113430   3.716   4.888   2.863
 4177SOL    HW213431   3.875   4.856   2.840
 4178SOL     OW13432   4.194   6.255   1.604
 4178SOL    HW113433   4.148   6.192   1.666
 4178SOL    HW213434   4.129   6.286   1.534
 4179SOL     OW13435   5.074   3.304   6.510
 4179SOL    HW113436   5.086   3.304   6.411
 4179SOL    HW213437   5.147   3.251   6.553
 4180SOL     OW13438   4.119   3.413   1.071
 4180SOL    HW113439   4.187   3.482   1.096
 4180SOL    HW213440   4.046   3.455   1.018
 4181SOL     OW13441   5.079   6.829   5.687
 4181SOL    HW113442   5.087   6.865   5.779
 4181SOL    HW213443   5.031   6.895   5.629
 4182SOL     OW13444   0.631   6.536   4.821
 4182SOL    HW113445   0.636   6.560   4.917
 4182SOL    HW213446   0.544   6.569   4.783
 4183SOL     OW13447   4.059   2.127   0.799
 4183SOL    HW113448   4.072   2.225   0.810
 4183SOL    HW213449   4.094   2.097   0.710
 4184SOL     OW13450   3.642   5.703   3.754
 4184SOL    HW113451   3.626   5.766   3.831
 4184SOL    HW213452   3.633   5.609   3.786
 4185SOL     OW13453   4.973   3.405   3.585
 4185SOL    HW113454   5.002   3.312   3.560
 4185SOL    HW213455   4.940   3.404   3.680
 4186SOL     OW13456   1.568   5.974   0.264
 4186SOL    HW113457   1.649   6.033   0.259
 4186SOL    HW213458   1.538   5.950   0.172
 4187SOL     OW13459   1.483   3.343   6.810
 4187SOL    HW113460   1.538   3.319   6.730
 4187SOL    HW213461   1.403   3.395   6.781
 4188SOL     OW13462   4.546   0.076   0.060
 4188SOL    HW113463   4.475   0.127   0.109
 4188SOL    HW213464   4.619   0.139   0.033
 4189SOL     OW13465   4.678   4.887   3.631
 4189SOL    HW113466   4.609   4.951   3.664
 4189SOL    HW213467   4.764   4.904   3.678
 4190SOL     OW13468   6.568   5.787   1.254
 4190SOL    HW113469   6.663   5.794   1.223
 4190SOL    HW213470   6.563   5.812   1.351
 4191SOL     OW13471   4.508   3.906   6.594
 4191SOL    HW113472   4.471   3.853   6.518
 4191SOL    HW213473   4.602   3.933   6.572
 4192SOL     OW13474   1.455   3.295   0.076
 4192SOL    HW113475   1.437   3.327   7.008
 4192SOL    HW213476   1.413   3.206   0.090
 4193SOL     OW13477   0.313   0.774   0.417
 4193SOL    HW113478   0.348   0.850   0.362
 4193SOL    HW213479   0.390   0.722   0.454
 4194SOL     OW13480   5.046   1.696   5.884
 4194SOL    HW113481   5.088   1.782   5.854
 4194SOL    HW213482   4.953   1.713   5.916
 4195SOL     OW13483   3.841   6.797   0.653
 4195SOL    HW113484   3.792   6.714   0.679
 4195SOL    HW213485   3.783   6.877   0.669
 4196SOL     OW13486   6.214   3.089   2.247
 4196SOL    HW113487   6.227   3.153   2.323
 4196SOL    HW213488   6.294   3.093   2.187
 4197SOL     OW13489   4.091   1.119   6.665
 4197SOL    HW113490   4.050   1.149   6.578
 4197SOL    HW213491   4.181   1.079   6.647
 4198SOL     OW13492   6.348   2.303   2.254
 4198SOL    HW113493   6.366   2.205   2.247
 4198SOL    HW213494   6.267   2.327   2.201
 4199SOL     OW13495   0.053   4.177   6.242
 4199SOL    HW113496   0.055   4.082   6.273
 4199SOL    HW213497   6.992   4.220   6.270
 4200SOL     OW13498   4.330   1.434   3.920
 4200SOL    HW113499   4.384   1.350   3.910
 4200SOL    HW213500   4.334   1.486   3.834
 4201SOL     OW13501   5.952   6.784   3.908
 4201SOL    HW113502   5.997   6.855   3.854
 4201SOL    HW213503   5.861   6.765   3.870
 4202SOL     OW13504   4.810   4.109   1.506
 4202SOL    HW113505   4.793   4.130   1.409
 4202SOL    HW213506   4.900   4.067   1.515
 4203SOL     OW13507   6.563   4.176   4.976
 4203SOL    HW113508   6.594   4.103   5.038
 4203SOL    HW213509   6.480   4.147   4.929
 4204SOL     OW13510   1.963   3.873   6.467
 4204SOL    HW113511   1.968   3.804   6.395
 4204SOL    HW213512   1.875   3.921   6.461
 4205SOL     OW13513   4.385   6.565   6.240
 4205SOL    HW113514   4.485   6.570   6.251
 4205SOL    HW213515   4.364   6.535   6.147
 4206SOL     OW13516   2.044   2.046   4.819
 4206SOL    HW113517   1.964   2.081   4.770
 4206SOL    HW213518   2.100   1.993   4.756
 4207SOL     OW13519   0.608   1.572   2.215
 4207SOL    HW113520   0.596   1.616   2.126
 4207SOL    HW213521   0.520   1.539   2.248
 4208SOL     OW13522   2.087   2.612   3.610
 4208SOL    HW113523   2.025   2.684   3.640
 4208SOL    HW213524   2.093   2.611   3.510
 4209SOL     OW13525   6.449   6.491   2.077
 4209SOL    HW113526   6.532   6.542   2.056
 4209SOL    HW213527   6.460   6.395   2.050
 4210SOL     OW13528   3.555   4.221   4.810
 4210SOL    HW113529   3.619   4.159   4.764
 4210SOL    HW213530   3.550   4.308   4.760
 4211SOL     OW13531   3.813   2.687   5.264
 4211SOL    HW113532   3.904   2.662   5.230
 4211SOL    HW213533   3.820   2.718   5.359
 4212SOL     OW13534   6.699   2.052   3.217
 4212SOL    HW113535   6.646   2.013   3.292
 4212SOL    HW213536   6.649   2.041   3.131
 4213SOL     OW13537   3.041   0.748   4.339
 4213SOL    HW113538   3.027   0.757   4.437
 4213SOL    HW213539   2.997   0.665   4.305
 4214SOL     OW13540   6.811   6.480   2.995
 4214SOL    HW113541   6.712   6.491   2.994
 4214SOL    HW213542   6.850   6.530   3.072
 4215SOL     OW13543   5.202   6.600   5.622
 4215SOL    HW113544   5.176   6.691   5.654
 4215SOL    HW213545   5.242   6.548   5.698
 4216SOL     OW13546   2.230   5.873   1.977
 4216SOL    HW113547   2.246   5.775   1.988
 4216SOL    HW213548   2.268   5.904   1.890
 4217SOL     OW13549   1.181   0.899   3.142
 4217SOL    HW113550   1.277   0.914   3.118
 4217SOL    HW213551   1.148   0.977   3.195
 4218SOL     OW13552   3.348   1.447   0.403
 4218SOL    HW113553   3.286   1.520   0.433
 4218SOL    HW213554   3.391   1.406   0.484
 4219SOL     OW13555   4.304   5.520   2.617
 4219SOL    HW113556   4.295   5.436   2.564
 4219SOL    HW213557   4.232   5.584   2.590
 4220SOL     OW13558   5.721   1.382   1.631
 4220SOL    HW113559   5.752   1.469   1.593
 4220SOL    HW213560   5.763   1.307   1.580
 4221SOL     OW13561   1.555   6.487   0.564
 4221SOL    HW113562   1.483   6.531   0.618
 4221SOL    HW213563   1.644   6.506   0.605
 4222SOL     OW13564   5.140   2.983   4.218
 4222SOL    HW113565   5.137   3.001   4.316
 4222SOL    HW213566   5.088   2.899   4.198
 4223SOL     OW13567   4.018   3.611   2.184
 4223SOL    HW113568   4.062   3.589   2.270
 4223SOL    HW213569   3.918   3.602   2.194
 4224SOL     OW13570   4.900   4.966   4.541
 4224SOL    HW113571   4.904   5.007   4.631
 4224SOL    HW213572   4.807   4.934   4.523
 4225SOL     OW13573   0.696   2.045   5.880
 4225SOL    HW113574   0.610   2.001   5.856
 4225SOL    HW213575   0.761   2.035   5.804
 4226SOL     OW13576   0.638   6.083   4.542
 4226SOL    HW113577   0.638   5.986   4.566
 4226SOL    HW213578   0.556   6.127   4.578
 4227SOL     OW13579   4.188   5.409   2.109
 4227SOL    HW113580   4.158   5.317   2.087
 4227SOL    HW213581   4.287   5.417   2.095
 4228SOL     OW13582   1.166   5.457   3.784
 4228SOL    HW113583   1.122   5.524   3.724
 4228SOL    HW213584   1.179   5.497   3.875
 4229SOL     OW13585   6.856   5.058   5.637
 4229SOL    HW113586   6.784   5.045   5.705
 4229SOL    HW213587   6.817   5.046   5.545
 4230SOL     OW13588   6.843   0.919   2.172
 4230SOL    HW113589   6.834   0.975   2.090
 4230SOL    HW213590   6.761   0.928   2.228
 4231SOL     OW13591   6.621   1.254   6.364
 4231SOL    HW113592   6.712   1.241   6.404
 4231SOL    HW213593   6.611   1.194   6.285
 4232SOL     OW13594   1.491   5.465   3.965
 4232SOL    HW113595   1.519   5.555   3.934
 4232SOL    HW213596   1.471   5.407   3.886
 4233SOL     OW13597   3.952   5.162   2.455
 4233SOL    HW113598   3.859   5.154   2.418
 4233SOL    HW213599   4.007   5.086   2.422
 4234SOL     OW13600   3.240   5.226   6.097
 4234SOL    HW113601   3.304   5.152   6.117
 4234SOL    HW213602   3.156   5.188   6.058
 4235SOL     OW13603   6.877   5.795   5.789
 4235SOL    HW113604   6.957   5.776   5.732
 4235SOL    HW213605   6.906   5.839   5.874
 4236SOL     OW13606   0.659   5.191   2.676
 4236SOL    HW113607   0.565   5.156   2.675
 4236SOL    HW213608   0.672   5.248   2.757
 4237SOL     OW13609   7.014   4.507   3.810
 4237SOL    HW113610   0.070   4.562   3.790
 4237SOL    HW213611   6.937   4.537   3.754
 4238SOL     OW13612   3.032   6.412   2.975
 4238SOL    HW113613   2.938   6.380   2.988
 4238SOL    HW213614   3.032   6.496   2.921
 4239SOL     OW13615   4.173   0.936   3.795
 4239SOL    HW113616   4.113   0.977   3.864
 4239SOL    HW213617   4.118   0.883   3.730
 4240SOL     OW13618   6.504   6.862   2.116
 4240SOL    HW113619   6.434   6.805   2.075
 4240SOL    HW213620   6.584   6.806   2.139
 4241SOL     OW13621   6.025   3.697   0.492
 4241SOL    HW113622   6.006   3.772   0.428
 4241SOL    HW213623   6.005   3.727   0.585
 4242SOL     OW13624   2.781   1.699   3.479
 4242SOL    HW113625   2.731   1.766   3.424
 4242SOL    HW213626   2.720   1.624   3.504
 4243SOL     OW13627   4.914   0.617   2.909
 4243SOL    HW113628   4.937   0.709   2.941
 4243SOL    HW213629   4.840   0.580   2.966
 4244SOL     OW13630   3.584   3.267   3.553
 4244SOL    HW113631   3.492   3.282   3.515
 4244SOL    HW213632   3.617   3.177   3.525
 4245SOL     OW13633   6.153   1.393   6.524
 4245SOL    HW113634   6.239   1.366   6.568
 4245SOL    HW213635   6.145   1.347   6.436
 4246SOL     OW13636   0.547   3.453   0.533
 4246SOL    HW113637   0.529   3.356   0.518
 4246SOL    HW213638   0.473   3.492   0.587
 4247SOL     OW13639   0.081   5.815   5.587
 4247SOL    HW113640   0.134   5.810   5.672
 4247SOL    HW213641   0.142   5.844   5.513
 4248SOL     OW13642   1.325   2.951   4.937
 4248SOL    HW113643   1.369   2.865   4.962
 4248SOL    HW213644   1.267   2.982   5.012
 4249SOL     OW13645   5.674   4.176   6.150
 4249SOL    HW113646   5.601   4.232   6.188
 4249SOL    HW213647   5.758   4.231   6.144
 4250SOL     OW13648   0.458   4.313   3.002
 4250SOL    HW113649   0.449   4.318   2.902
 4250SOL    HW213650   0.479   4.403   3.038
 4251SOL     OW13651   5.682   3.912   0.538
 4251SOL    HW113652   5.644   3.821   0.523
 4251SOL    HW213653   5.660   3.942   0.631
 4252SOL     OW13654   0.485   5.801   5.643
 4252SOL    HW113655   0.439   5.740   5.579
 4252SOL    HW213656   0.499   5.890   5.600
 4253SOL     OW13657   4.014   6.025   2.665
 4253SOL    HW113658   3.940   5.982   2.614
 4253SOL    HW213659   3.981   6.050   2.756
 4254SOL     OW13660   2.639   4.265   0.935
 4254SOL    HW113661   2.652   4.210   1.018
 4254SOL    HW213662   2.692   4.350   0.943
 4255SOL     OW13663   6.925   1.976   4.540
 4255SOL    HW113664   6.879   2.006   4.457
 4255SOL    HW213665   6.951   1.880   4.531
 4256SOL     OW13666   1.707   1.110   2.196
 4256SOL    HW113667   1.683   1.204   2.172
 4256SOL    HW213668   1.771   1.073   2.129
 4257SOL     OW13669   4.194   2.200   4.560
 4257SOL    HW113670   4.256   2.184   4.637
 4257SOL    HW213671   4.100   2.182   4.590
 4258SOL     OW13672   5.604   6.337   2.550
 4258SOL    HW113673   5.622   6.297   2.460
 4258SOL    HW213674   5.517   6.386   2.548
 4259SOL     OW13675   1.853   3.076   0.568
 4259SOL    HW113676   1.833   3.033   0.480
 4259SOL    HW213677   1.777   3.136   0.595
 4260SOL     OW13678   4.869   5.671   3.527
 4260SOL    HW113679   4.918   5.756   3.545
 4260SOL    HW213680   4.935   5.596   3.522
 4261SOL     OW13681   2.174   1.107   2.901
 4261SOL    HW113682   2.197   1.202   2.882
 4261SOL    HW213683   2.139   1.064   2.817
 4262SOL     OW13684   0.307   5.919   6.609
 4262SOL    HW113685   0.348   6.007   6.588
 4262SOL    HW213686   0.377   5.856   6.643
 4263SOL     OW13687   3.245   5.443   5.874
 4263SOL    HW113688   3.244   5.397   5.963
 4263SOL    HW213689   3.284   5.382   5.805
 4264SOL     OW13690   6.835   0.233   0.539
 4264SOL    HW113691   6.788   0.236   0.451
 4264SOL    HW213692   6.855   0.326   0.570
 4265SOL     OW13693   6.827   2.535   0.754
 4265SOL    HW113694   6.816   2.538   0.853
 4265SOL    HW213695   6.742   2.564   0.710
 4266SOL     OW13696   3.038   4.565   0.601
 4266SOL    HW113697   2.948   4.528   0.623
 4266SOL    HW213698   3.106   4.524   0.662
 4267SOL     OW13699   1.920   3.955   5.668
 4267SOL    HW113700   1.985   3.879   5.664
 4267SOL    HW213701   1.967   4.040   5.643
 4268SOL     OW13702   1.517   1.249   1.140
 4268SOL    HW113703   1.517   1.169   1.079
 4268SOL    HW213704   1.611   1.278   1.157
 4269SOL     OW13705   3.393   3.306   0.477
 4269SOL    HW113706   3.337   3.228   0.506
 4269SOL    HW213707   3.410   3.366   0.555
 4270SOL     OW13708   3.172   2.701   5.298
 4270SOL    HW113709   3.098   2.695   5.366
 4270SOL    HW213710   3.188   2.611   5.257
 4271SOL     OW13711   1.318   7.001   0.258
 4271SOL    HW113712   1.247   0.044   0.273
 4271SOL    HW213713   1.292   6.915   0.301
 4272SOL     OW13714   6.890   4.497   4.230
 4272SOL    HW113715   6.962   4.428   4.222
 4272SOL    HW213716   6.907   4.554   4.311
 4273SOL     OW13717   6.047   6.427   5.172
 4273SOL    HW113718   6.125   6.474   5.212
 4273SOL    HW213719   5.988   6.492   5.124
 4274SOL     OW13720   1.847   0.412   3.946
 4274SOL    HW113721   1.861   0.396   4.044
 4274SOL    HW213722   1.871   0.506   3.924
 4275SOL     OW13723   1.017   7.024   6.764
 4275SOL    HW113724   1.047   6.957   6.696
 4275SOL    HW213725   1.066   0.085   6.750
 4276SOL     OW13726   2.011   4.286   2.356
 4276SOL    HW113727   1.965   4.219   2.298
 4276SOL    HW213728   1.966   4.290   2.445
 4277SOL     OW13729   0.326   5.396   3.723
 4277SOL    HW113730   0.320   5.300   3.694
 4277SOL    HW213731   0.363   5.451   3.649
 4278SOL     OW13732   0.477   6.580   5.301
 4278SOL    HW113733   0.400   6.612   5.357
 4278SOL    HW213734   0.561   6.624   5.333
 4279SOL     OW13735   3.548   5.651   4.181
 4279SOL    HW113736   3.607   5.623   4.257
 4279SOL    HW213737   3.537   5.575   4.118
 4280SOL     OW13738   4.982   3.249   4.084
 4280SOL    HW113739   5.075   3.216   4.069
 4280SOL    HW213740   4.956   3.237   4.180
 4281SOL     OW13741   2.115   4.126   5.191
 4281SOL    HW113742   2.182   4.100   5.122
 4281SOL    HW213743   2.143   4.089   5.280
 4282SOL     OW13744   1.537   2.559   1.462
 4282SOL    HW113745   1.617   2.607   1.497
 4282SOL    HW213746   1.549   2.461   1.475
 4283SOL     OW13747   1.545   0.099   4.597
 4283SOL    HW113748   1.467   0.040   4.618
 4283SOL    HW213749   1.537   0.185   4.648
 4284SOL     OW13750   6.184   1.896   2.678
 4284SOL    HW113751   6.244   1.953   2.621
 4284SOL    HW213752   6.148   1.821   2.622
 4285SOL     OW13753   1.298   5.958   6.188
 4285SOL    HW113754   1.362   5.893   6.229
 4285SOL    HW213755   1.204   5.927   6.205
 4286SOL     OW13756   5.712   5.417   0.294
 4286SOL    HW113757   5.783   5.416   0.364
 4286SOL    HW213758   5.721   5.499   0.238
 4287SOL     OW13759   5.074   6.734   4.973
 4287SOL    HW113760   5.058   6.674   4.894
 4287SOL    HW213761   5.045   6.687   5.056
 4288SOL     OW13762   1.334   6.942   2.908
 4288SOL    HW113763   1.368   6.905   2.822
 4288SOL    HW213764   1.236   6.962   2.899
 4289SOL     OW13765   5.660   3.534   1.329
 4289SOL    HW113766   5.598   3.539   1.251
 4289SOL    HW213767   5.610   3.504   1.410
 4290SOL     OW13768   2.354   1.073   1.636
 4290SOL    HW113769   2.400   0.992   1.598
 4290SOL    HW213770   2.290   1.046   1.707
 4291SOL     OW13771   6.419   4.282   1.149
 4291SOL    HW113772   6.492   4.342   1.181
 4291SOL    HW213773   6.452   4.226   1.073
 4292SOL     OW13774   6.268   5.553   6.837
 4292SOL    HW113775   6.197   5.621   6.818
 4292SOL    HW213776   6.281   5.495   6.758
 4293SOL     OW13777   6.796   2.677   0.306
 4293SOL    HW113778   6.796   2.591   0.256
 4293SOL    HW213779   6.882   2.687   0.355
 4294SOL     OW13780   5.054   2.080   5.882
 4294SOL    HW113781   5.086   2.174   5.890
 4294SOL    HW213782   4.957   2.075   5.908
 4295SOL     OW13783   3.887   6.592   4.668
 4295SOL    HW113784   3.873   6.516   4.604
 4295SOL    HW213785   3.983   6.622   4.663
 4296SOL     OW13786   2.402   1.637   0.709
 4296SOL    HW113787   2.309   1.651   0.742
 4296SOL    HW213788   2.462   1.614   0.786
 4297SOL     OW13789   5.835   0.529   5.743
 4297SOL    HW113790   5.761   0.479   5.698
 4297SOL    HW213791   5.861   0.482   5.827
 4298SOL     OW13792   2.993   5.463   0.676
 4298SOL    HW113793   3.069   5.501   0.728
 4298SOL    HW213794   2.984   5.511   0.589
 4299SOL     OW13795   0.473   3.996   6.469
 4299SOL    HW113796   0.380   4.017   6.500
 4299SOL    HW213797   0.469   3.944   6.384
 4300SOL     OW13798   5.552   0.587   0.212
 4300SOL    HW113799   5.527   0.617   0.120
 4300SOL    HW213800   5.610   0.505   0.206
 4301SOL     OW13801   3.284   1.626   0.169
 4301SOL    HW113802   3.344   1.692   0.213
 4301SOL    HW213803   3.222   1.586   0.237
 4302SOL     OW13804   0.863   6.264   6.638
 4302SOL    HW113805   0.920   6.238   6.716
 4302SOL    HW213806   0.777   6.214   6.642
 4303SOL     OW13807   7.016   2.936   1.755
 4303SOL    HW113808   6.990   2.989   1.836
 4303SOL    HW213809   6.943   2.871   1.734
 4304SOL     OW13810   3.113   3.130   3.893
 4304SOL    HW113811   3.173   3.087   3.826
 4304SOL    HW213812   3.117   3.080   3.980
 4305SOL     OW13813   6.113   1.883   3.752
 4305SOL    HW113814   6.142   1.788   3.755
 4305SOL    HW213815   6.118   1.922   3.845
 4306SOL     OW13816   6.541   5.275   5.815
 4306SOL    HW113817   6.465   5.301   5.755
 4306SOL    HW213818   6.539   5.176   5.829
 4307SOL     OW13819   5.167   3.537   6.271
 4307SOL    HW113820   5.113   3.616   6.242
 4307SOL    HW213821   5.264   3.556   6.257
 4308SOL     OW13822   5.479   6.195   4.809
 4308SOL    HW113823   5.558   6.209   4.750
 4308SOL    HW213824   5.441   6.283   4.836
 4309SOL     OW13825   1.885   1.406   0.766
 4309SOL    HW113826   1.911   1.312   0.747
 4309SOL    HW213827   1.967   1.460   0.785
 4310SOL     OW13828   1.329   0.621   2.439
 4310SOL    HW113829   1.417   0.573   2.446
 4310SOL    HW213830   1.303   0.626   2.342
 4311SOL     OW13831   1.808   6.756   3.781
 4311SOL    HW113832   1.870   6.710   3.845
 4311SOL    HW213833   1.780   6.691   3.710
 4312SOL     OW13834   2.392   5.245   1.780
 4312SOL    HW113835   2.482   5.288   1.772
 4312SOL    HW213836   2.397   5.151   1.745
 4313SOL     OW13837   4.597   0.674   2.614
 4313SOL    HW113838   4.696   0.688   2.607
 4313SOL    HW213839   4.560   0.736   2.684
 4314SOL     OW13840   4.828   3.012   3.060
 4314SOL    HW113841   4.791   3.105   3.066
 4314SOL    HW213842   4.883   2.993   3.141
 4315SOL     OW13843   2.564   1.655   1.804
 4315SOL    HW113844   2.505   1.736   1.817
 4315SOL    HW213845   2.506   1.576   1.786
 4316SOL     OW13846   6.595   0.030   2.673
 4316SOL    HW113847   6.601   0.028   2.573
 4316SOL    HW213848   6.687   0.040   2.712
 4317SOL     OW13849   4.287   1.220   3.170
 4317SOL    HW113850   4.246   1.130   3.156
 4317SOL    HW213851   4.231   1.272   3.235
 4318SOL     OW13852   0.252   2.335   4.039
 4318SOL    HW113853   0.227   2.368   3.948
 4318SOL    HW213854   0.263   2.413   4.101
 4319SOL     OW13855   2.391   3.330   5.876
 4319SOL    HW113856   2.328   3.254   5.894
 4319SOL    HW213857   2.420   3.371   5.963
 4320SOL     OW13858   0.232   5.689   2.489
 4320SOL    HW113859   0.275   5.673   2.578
 4320SOL    HW213860   0.299   5.727   2.425
 4321SOL     OW13861   0.901   0.243   5.640
 4321SOL    HW113862   0.998   0.233   5.618
 4321SOL    HW213863   0.868   0.159   5.684
 4322SOL     OW13864   6.153   0.773   0.519
 4322SOL    HW113865   6.126   0.684   0.555
 4322SOL    HW213866   6.140   0.843   0.590
 4323SOL     OW13867   6.853   2.516   3.588
 4323SOL    HW113868   6.807   2.552   3.669
 4323SOL    HW213869   6.950   2.539   3.591
 4324SOL     OW13870   5.909   4.313   6.008
 4324SOL    HW113871   5.870   4.248   5.942
 4324SOL    HW213872   6.003   4.287   6.028
 4325SOL     OW13873   1.889   1.903   6.744
 4325SOL    HW113874   1.822   1.932   6.813
 4325SOL    HW213875   1.981   1.916   6.780
 4326SOL     OW13876   6.288   2.271   5.379
 4326SOL    HW113877   6.214   2.313   5.431
 4326SOL    HW213878   6.299   2.176   5.408
 4327SOL     OW13879   5.935   6.753   2.612
 4327SOL    HW113880   5.944   6.814   2.690
 4327SOL    HW213881   5.931   6.807   2.528
 4328SOL     OW13882   5.398   4.871   0.267
 4328SOL    HW113883   5.471   4.903   0.327
 4328SOL    HW213884   5.335   4.813   0.319
 4329SOL     OW13885   3.384   1.580   5.847
 4329SOL    HW113886   3.322   1.647   5.886
 4329SOL    HW213887   3.474   1.588   5.890
 4330SOL     OW13888   1.817   0.691   6.452
 4330SOL    HW113889   1.823   0.739   6.540
 4330SOL    HW213890   1.739   0.726   6.400
 4331SOL     OW13891   6.417   2.478   6.958
 4331SOL    HW113892   6.372   2.564   6.983
 4331SOL    HW213893   6.491   2.459   7.022
 4332SOL     OW13894   5.157   3.213   1.398
 4332SOL    HW113895   5.124   3.175   1.485
 4332SOL    HW213896   5.104   3.294   1.375
 4333SOL     OW13897   5.751   1.091   5.177
 4333SOL    HW113898   5.826   1.135   5.226
 4333SOL    HW213899   5.667   1.100   5.230
 4334SOL     OW13900   4.431   0.860   2.057
 4334SOL    HW113901   4.428   0.764   2.029
 4334SOL    HW213902   4.463   0.866   2.152
 4335SOL     OW13903   3.194   4.149   5.165
 4335SOL    HW113904   3.257   4.226   5.175
 4335SOL    HW213905   3.138   4.140   5.248
 4336SOL     OW13906   1.410   6.268   4.004
 4336SOL    HW113907   1.407   6.341   3.935
 4336SOL    HW213908   1.466   6.192   3.969
 4337SOL     OW13909   0.004   5.182   1.138
 4337SOL    HW113910   0.045   5.135   1.216
 4337SOL    HW213911   0.047   5.151   1.053
 4338SOL     OW13912   6.395   6.597   4.022
 4338SOL    HW113913   6.486   6.596   4.065
 4338SOL    HW213914   6.402   6.641   3.933
 4339SOL     OW13915   6.513   1.406   6.173
 4339SOL    HW113916   6.550   1.363   6.256
 4339SOL    HW213917   6.435   1.351   6.140
 4340SOL     OW13918   4.718   3.546   1.741
 4340SOL    HW113919   4.754   3.458   1.712
 4340SOL    HW213920   4.726   3.612   1.666
 4341SOL     OW13921   0.637   4.536   0.699
 4341SOL    HW113922   0.709   4.515   0.632
 4341SOL    HW213923   0.611   4.632   0.689
 4342SOL     OW13924   6.942   3.110   2.806
 4342SOL    HW113925   6.893   3.196   2.794
 4342SOL    HW213926   0.005   3.128   2.850
 4343SOL     OW13927   2.363   1.517   1.137
 4343SOL    HW113928   2.397   1.488   1.227
 4343SOL    HW213929   2.273   1.477   1.120
 4344SOL     OW13930   1.849   4.882   3.058
 4344SOL    HW113931   1.768   4.915   3.108
 4344SOL    HW213932   1.916   4.847   3.123
 4345SOL     OW13933   1.899   1.908   5.903
 4345SOL    HW113934   1.913   2.007   5.909
 4345SOL    HW213935   1.807   1.886   5.935
 4346SOL     OW13936   1.562   3.222   1.924
 4346SOL    HW113937   1.546   3.313   1.886
 4346SOL    HW213938   1.641   3.181   1.878
 4347SOL     OW13939   6.105   6.369   2.841
 4347SOL    HW113940   6.137   6.327   2.756
 4347SOL    HW213941   6.133   6.465   2.844
 4348SOL     OW13942   0.853   3.844   6.912
 4348SOL    HW113943   0.824   3.780   6.983
 4348SOL    HW213944   0.776   3.864   6.851
 4349SOL     OW13945   6.619   0.382   3.835
 4349SOL    HW113946   6.626   0.478   3.806
 4349SOL    HW213947   6.620   0.323   3.755
 4350SOL     OW13948   4.855   1.697   3.725
 4350SOL    HW113949   4.769   1.687   3.774
 4350SOL    HW213950   4.836   1.708   3.627
 4351SOL     OW13951   2.859   6.408   1.082
 4351SOL    HW113952   2.825   6.327   1.035
 4351SOL    HW213953   2.940   6.384   1.136
 4352SOL     OW13954   6.449   1.529   1.772
 4352SOL    HW113955   6.406   1.474   1.700
 4352SOL    HW213956   6.548   1.525   1.762
 4353SOL     OW13957   3.945   5.663   0.339
 4353SOL    HW113958   3.960   5.585   0.278
 4353SOL    HW213959   4.033   5.690   0.379
 4354SOL     OW13960   1.409   0.397   0.973
 4354SOL    HW113961   1.341   0.470   0.975
 4354SOL    HW213962   1.436   0.378   0.879
 4355SOL     OW13963   5.312   0.810   1.078
 4355SOL    HW113964   5.324   0.905   1.105
 4355SOL    HW213965   5.356   0.750   1.144
 4356SOL     OW13966   3.754   4.437   0.394
 4356SOL    HW113967   3.813   4.414   0.472
 4356SOL    HW213968   3.678   4.493   0.425
 4357SOL     OW13969   6.351   0.909   6.624
 4357SOL    HW113970   6.375   0.947   6.535
 4357SOL    HW213971   6.266   0.951   6.657
 4358SOL     OW13972   0.849   0.461   2.040
 4358SOL    HW113973   0.834   0.559   2.048
 4358SOL    HW213974   0.830   0.432   1.946
 4359SOL     OW13975   6.310   2.215   3.815
 4359SOL    HW113976   6.245   2.190   3.887
 4359SOL    HW213977   6.399   2.235   3.856
 4360SOL     OW13978   1.534   3.243   1.426
 4360SOL    HW113979   1.509   3.214   1.334
 4360SOL    HW213980   1.459   3.226   1.488
 4361SOL     OW13981   5.038   1.740   1.846
 4361SOL    HW113982   4.978   1.661   1.860
 4361SOL    HW213983   5.133   1.711   1.855
 4362SOL     OW13984   5.929   4.623   3.973
 4362SOL    HW113985   5.974   4.712   3.974
 4362SOL    HW213986   5.973   4.562   4.038
 4363SOL     OW13987   4.899   1.483   6.044
 4363SOL    HW113988   4.984   1.531   6.065
 4363SOL    HW213989   4.829   1.508   6.111
 4364SOL     OW13990   3.788   3.825   4.988
 4364SOL    HW113991   3.887   3.811   4.997
 4364SOL    HW213992   3.742   3.781   5.065
 4365SOL     OW13993   3.612   1.258   1.477
 4365SOL    HW113994   3.517   1.249   1.509
 4365SOL    HW213995   3.636   1.355   1.474
 4366SOL     OW13996   5.254   5.008   1.007
 4366SOL    HW113997   5.191   4.941   0.969
 4366SOL    HW213998   5.251   5.092   0.953
 4367SOL     OW13999   0.924   6.385   6.404
 4367SOL    HW114000   0.904   6.347   6.494
 4367SOL    HW214001   0.995   6.330   6.359
 4368SOL     OW14002   5.207   3.721   1.804
 4368SOL    HW114003   5.298   3.745   1.769
 4368SOL    HW214004   5.215   3.646   1.869
 4369SOL     OW14005   3.832   5.852   1.747
 4369SOL    HW114006   3.853   5.895   1.834
 4369SOL    HW214007   3.851   5.754   1.753
 4370SOL     OW14008   5.547   5.022   2.836
 4370SOL    HW114009   5.469   5.084   2.841
 4370SOL    HW214010   5.595   5.022   2.924
 4371SOL     OW14011   6.343   1.545   2.559
 4371SOL    HW114012   6.403   1.590   2.626
 4371SOL    HW214013   6.355   1.446   2.565
 4372SOL     OW14014   4.653   6.805   3.394
 4372SOL    HW114015   4.591   6.751   3.338
 4372SOL    HW214016   4.679   6.753   3.475
 4373SOL     OW14017   0.033   1.859   6.253
 4373SOL    HW114018   7.005   1.774   6.262
 4373SOL    HW214019   7.016   1.930   6.309
 4374SOL     OW14020   2.543   2.385   1.311
 4374SOL    HW114021   2.598   2.429   1.240
 4374SOL    HW214022   2.517   2.293   1.281
 4375SOL     OW14023   2.913   6.806   4.145
 4375SOL    HW114024   2.920   6.745   4.066
 4375SOL    HW214025   2.880   6.895   4.115
 4376SOL     OW14026   5.743   1.615   3.682
 4376SOL    HW114027   5.705   1.650   3.767
 4376SOL    HW214028   5.715   1.673   3.606
 4377SOL     OW14029   5.537   4.844   6.709
 4377SOL    HW114030   5.627   4.874   6.742
 4377SOL    HW214031   5.519   4.751   6.742
 4378SOL     OW14032   1.999   0.932   3.860
 4378SOL    HW114033   1.959   1.023   3.865
 4378SOL    HW214034   2.094   0.936   3.888
 4379SOL     OW14035   2.792   2.038   5.265
 4379SOL    HW114036   2.875   2.031   5.321
 4379SOL    HW214037   2.817   2.054   5.170
 4380SOL     OW14038   0.231   1.179   2.151
 4380SOL    HW114039   0.321   1.221   2.153
 4380SOL    HW214040   0.172   1.229   2.088
 4381SOL     OW14041   1.516   5.875   6.322
 4381SOL    HW114042   1.611   5.846   6.308
 4381SOL    HW214043   1.467   5.804   6.373
 4382SOL     OW14044   0.113   3.248   5.048
 4382SOL    HW114045   0.026   3.201   5.059
 4382SOL    HW214046   0.160   3.255   5.136
 4383SOL     OW14047   6.473   2.757   0.268
 4383SOL    HW114048   6.495   2.854   0.267
 4383SOL    HW214049   6.557   2.703   0.261
 4384SOL     OW14050   5.641   6.755   4.025
 4384SOL    HW114051   5.595   6.691   4.087
 4384SOL    HW214052   5.695   6.820   4.078
 4385SOL     OW14053   4.501   1.512   5.318
 4385SOL    HW114054   4.449   1.430   5.296
 4385SOL    HW214055   4.598   1.489   5.328
 4386SOL     OW14056   1.224   3.315   4.674
 4386SOL    HW114057   1.297   3.261   4.715
 4386SOL    HW214058   1.155   3.253   4.634
 4387SOL     OW14059   6.876   1.989   0.503
 4387SOL    HW114060   6.852   2.085   0.486
 4387SOL    HW214061   6.956   1.984   0.563
 4388SOL     OW14062   5.459   2.838   6.746
 4388SOL    HW114063   5.450   2.789   6.659
 4388SOL    HW214064   5.475   2.772   6.820
 4389SOL     OW14065   0.628   3.590   0.998
 4389SOL    HW114066   0.630   3.605   1.097
 4389SOL    HW214067   0.706   3.533   0.972
 4390SOL     OW14068   6.841   1.461   1.185
 4390SOL    HW114069   6.806   1.523   1.256
 4390SOL    HW214070   6.874   1.514   1.107
 4391SOL     OW14071   2.006   6.046   0.504
 4391SOL    HW114072   2.106   6.056   0.510
 4391SOL    HW214073   1.982   5.997   0.421
 4392SOL     OW14074   1.467   2.554   5.417
 4392SOL    HW114075   1.426   2.628   5.365
 4392SOL    HW214076   1.397   2.489   5.446
 4393SOL     OW14077   4.730   0.727   1.961
 4393SOL    HW114078   4.675   0.645   1.978
 4393SOL    HW214079   4.695   0.773   1.879
 4394SOL     OW14080   1.337   0.250   2.359
 4394SOL    HW114081   1.435   0.264   2.343
 4394SOL    HW214082   1.290   0.243   2.271
 4395SOL     OW14083   3.097   5.020   1.684
 4395SOL    HW114084   3.092   4.946   1.751
 4395SOL    HW214085   3.015   5.021   1.628
 4396SOL     OW14086   2.894   0.486   3.540
 4396SOL    HW114087   2.950   0.549   3.488
 4396SOL    HW214088   2.798   0.513   3.534
 4397SOL     OW14089   3.217   1.468   4.325
 4397SOL    HW114090   3.293   1.495   4.265
 4397SOL    HW214091   3.210   1.532   4.401
 4398SOL     OW14092   1.863   2.417   4.988
 4398SOL    HW114093   1.902   2.488   5.046
 4398SOL    HW214094   1.913   2.413   4.902
 4399SOL     OW14095   2.947   0.029   2.289
 4399SOL    HW114096   2.947   0.045   2.190
 4399SOL    HW214097   3.037   0.054   2.327
 4400SOL     OW14098   1.896   5.549   4.747
 4400SOL    HW114099   1.828   5.573   4.678
 4400SOL    HW214100   1.885   5.608   4.827
 4401SOL     OW14101   3.472   6.743   6.355
 4401SOL    HW114102   3.568   6.722   6.337
 4401SOL    HW214103   3.458   6.749   6.454
 4402SOL     OW14104   1.270   0.939   3.538
 4402SOL    HW114105   1.256   0.842   3.558
 4402SOL    HW214106   1.305   0.950   3.445
 4403SOL     OW14107   1.445   5.097   2.028
 4403SOL    HW114108   1.377   5.162   2.062
 4403SOL    HW214109   1.527   5.146   2.000
 4404SOL     OW14110   0.555   6.882   6.097
 4404SOL    HW114111   0.466   6.924   6.078
 4404SOL    HW214112   0.553   6.838   6.187
 4405SOL     OW14113   1.692   6.016   2.813
 4405SOL    HW114114   1.634   6.073   2.755
 4405SOL    HW214115   1.648   6.004   2.903
 4406SOL     OW14116   6.011   3.873   1.880
 4406SOL    HW114117   5.999   3.910   1.972
 4406SOL    HW214118   6.042   3.946   1.819
 4407SOL     OW14119   5.467   6.171   1.991
 4407SOL    HW114120   5.533   6.238   1.958
 4407SOL    HW214121   5.416   6.210   2.068
 4408SOL     OW14122   4.538   1.032   0.460
 4408SOL    HW114123   4.478   1.102   0.422
 4408SOL    HW214124   4.487   0.946   0.470
 4409SOL     OW14125   2.805   0.443   3.276
 4409SOL    HW114126   2.856   0.360   3.297
 4409SOL    HW214127   2.853   0.494   3.205
 4410SOL     OW14128   0.996   6.561   0.899
 4410SOL    HW114129   1.032   6.654   0.907
 4410SOL    HW214130   0.910   6.555   0.950
 4411SOL     OW14131   3.379   4.340   5.250
 4411SOL    HW114132   3.437   4.272   5.294
 4411SOL    HW214133   3.398   4.430   5.290
 4412SOL     OW14134   4.614   6.116   2.878
 4412SOL    HW114135   4.641   6.039   2.820
 4412SOL    HW214136   4.542   6.168   2.832
 4413SOL     OW14137   4.560   6.749   3.873
 4413SOL    HW114138   4.545   6.801   3.957
 4413SOL    HW214139   4.647   6.701   3.878
 4414SOL     OW14140   4.527   4.160   1.429
 4414SOL    HW114141   4.584   4.239   1.453
 4414SOL    HW214142   4.479   4.179   1.343
 4415SOL     OW14143   2.164   2.791   1.697
 4415SOL    HW114144   2.173   2.855   1.773
 4415SOL    HW214145   2.123   2.837   1.618
 4416SOL     OW14146   4.491   2.446   3.528
 4416SOL    HW114147   4.409   2.401   3.563
 4416SOL    HW214148   4.564   2.441   3.596
 4417SOL     OW14149   7.018   3.784   2.995
 4417SOL    HW114150   7.022   3.809   2.898
 4417SOL    HW214151   0.085   3.792   3.035
 4418SOL     OW14152   6.767   6.601   6.118
 4418SOL    HW114153   6.835   6.670   6.092
 4418SOL    HW214154   6.762   6.531   6.047
 4419SOL     OW14155   5.726   5.160   6.296
 4419SOL    HW114156   5.717   5.061   6.297
 4419SOL    HW214157   5.822   5.185   6.307
 4420SOL     OW14158   2.833   2.153   1.065
 4420SOL    HW114159   2.877   2.066   1.090
 4420SOL    HW214160   2.902   2.216   1.029
 4421SOL     OW14161   1.835   2.328   6.504
 4421SOL    HW114162   1.824   2.288   6.595
 4421SOL    HW214163   1.833   2.428   6.512
 4422SOL     OW14164   6.224   3.716   6.431
 4422SOL    HW114165   6.272   3.654   6.368
 4422SOL    HW214166   6.172   3.783   6.378
 4423SOL     OW14167   5.675   4.174   4.888
 4423SOL    HW114168   5.673   4.195   4.790
 4423SOL    HW214169   5.699   4.077   4.900
 4424SOL     OW14170   4.685   5.703   3.335
 4424SOL    HW114171   4.759   5.707   3.401
 4424SOL    HW214172   4.603   5.745   3.373
 4425SOL     OW14173   1.668   5.491   1.343
 4425SOL    HW114174   1.576   5.452   1.353
 4425SOL    HW214175   1.673   5.576   1.395
 4426SOL     OW14176   0.362   0.295   5.063
 4426SOL    HW114177   0.439   0.309   5.125
 4426SOL    HW214178   0.322   0.384   5.038
 4427SOL     OW14179   2.364   6.170   2.832
 4427SOL    HW114180   2.347   6.072   2.846
 4427SOL    HW214181   2.276   6.219   2.833
 4428SOL     OW14182   5.340   6.317   3.804
 4428SOL    HW114183   5.381   6.235   3.765
 4428SOL    HW214184   5.376   6.333   3.896
 4429SOL     OW14185   2.888   5.946   2.953
 4429SOL    HW114186   2.956   5.999   3.002
 4429SOL    HW214187   2.825   5.904   3.018
 4430SOL     OW14188   4.729   3.939   5.957
 4430SOL    HW114189   4.758   3.871   6.024
 4430SOL    HW214190   4.678   4.012   6.004
 4431SOL     OW14191   3.095   6.490   3.708
 4431SOL    HW114192   3.166   6.458   3.644
 4431SOL    HW214193   3.027   6.543   3.657
 4432SOL     OW14194   0.829   3.531   5.913
 4432SOL    HW114195   0.752   3.573   5.961
 4432SOL    HW214196   0.821   3.548   5.815
 4433SOL     OW14197   0.819   0.921   5.615
 4433SOL    HW114198   0.867   1.007   5.594
 4433SOL    HW214199   0.865   0.875   5.690
 4434SOL     OW14200   0.560   0.830   3.050
 4434SOL    HW114201   0.498   0.884   3.108
 4434SOL    HW214202   0.574   0.877   2.963
 4435SOL     OW14203   2.438   4.242   0.268
 4435SOL    HW114204   2.520   4.238   0.211
 4435SOL    HW214205   2.404   4.149   0.282
 4436SOL     OW14206   4.231   1.569   1.717
 4436SOL    HW114207   4.212   1.618   1.802
 4436SOL    HW214208   4.165   1.495   1.706
 4437SOL     OW14209   6.757   4.097   0.369
 4437SOL    HW114210   6.794   4.189   0.355
 4437SOL    HW214211   6.812   4.049   0.438
 4438SOL     OW14212   3.939   0.266   5.392
 4438SOL    HW114213   3.979   0.231   5.477
 4438SOL    HW214214   3.859   0.321   5.413
 4439SOL     OW14215   2.915   0.053   2.990
 4439SOL    HW114216   2.845   0.081   3.056
 4439SOL    HW214217   2.929   0.127   2.924
 4440SOL     OW14218   1.343   5.093   6.867
 4440SOL    HW114219   1.335   5.056   6.960
 4440SOL    HW214220   1.286   5.175   6.859
 4441SOL     OW14221   0.149   1.791   0.354
 4441SOL    HW114222   0.172   1.775   0.450
 4441SOL    HW214223   0.053   1.771   0.338
 4442SOL     OW14224   1.618   4.877   6.625
 4442SOL    HW114225   1.538   4.820   6.606
 4442SOL    HW214226   1.619   4.902   6.722
 4443SOL     OW14227   0.911   5.461   6.230
 4443SOL    HW114228   0.863   5.388   6.278
 4443SOL    HW214229   0.964   5.422   6.154
 4444SOL     OW14230   5.779   4.779   6.822
 4444SOL    HW114231   5.733   4.700   6.784
 4444SOL    HW214232   5.807   4.759   6.917
 4445SOL     OW14233   0.253   4.870   0.419
 4445SOL    HW114234   0.207   4.854   0.506
 4445SOL    HW214235   0.342   4.824   0.420
 4446SOL     OW14236   4.822   1.454   1.073
 4446SOL    HW114237   4.870   1.369   1.096
 4446SOL    HW214238   4.752   1.434   1.005
 4447SOL     OW14239   5.069   5.567   5.942
 4447SOL    HW114240   5.046   5.478   5.981
 4447SOL    HW214241   5.087   5.557   5.844
 4448SOL     OW14242   3.787   6.171   1.484
 4448SOL    HW114243   3.725   6.103   1.446
 4448SOL    HW214244   3.745   6.213   1.565
 4449SOL     OW14245   3.370   1.153   5.342
 4449SOL    HW114246   3.404   1.231   5.290
 4449SOL    HW214247   3.445   1.090   5.363
 4450SOL     OW14248   3.223   6.991   6.915
 4450SOL    HW114249   3.170   7.019   6.994
 4450SOL    HW214250   3.166   6.995   6.833
 4451SOL     OW14251   4.783   4.723   3.033
 4451SOL    HW114252   4.732   4.808   3.045
 4451SOL    HW214253   4.813   4.716   2.938
 4452SOL     OW14254   4.311   6.462   4.606
 4452SOL    HW114255   4.387   6.417   4.561
 4452SOL    HW214256   4.343   6.503   4.692
 4453SOL     OW14257   6.506   4.102   0.520
 4453SOL    HW114258   6.492   4.186   0.468
 4453SOL    HW214259   6.557   4.122   0.603
 4454SOL     OW14260   1.362   3.035   0.082
 4454SOL    HW114261   1.331   3.012   7.014
 4454SOL    HW214262   1.322   2.971   0.147
 4455SOL     OW14263   0.906   6.522   5.516
 4455SOL    HW114264   0.807   6.531   5.526
 4455SOL    HW214265   0.946   6.502   5.605
 4456SOL     OW14266   2.466   0.273   4.562
 4456SOL    HW114267   2.498   0.333   4.636
 4456SOL    HW214268   2.517   0.293   4.479
 4457SOL     OW14269   1.445   2.312   4.638
 4457SOL    HW114270   1.495   2.396   4.652
 4457SOL    HW214271   1.488   2.238   4.689
 4458SOL     OW14272   1.778   3.610   6.678
 4458SOL    HW114273   1.683   3.636   6.663
 4458SOL    HW214274   1.832   3.632   6.596
 4459SOL     OW14275   0.530   2.937   3.075
 4459SOL    HW114276   0.565   3.025   3.107
 4459SOL    HW214277   0.467   2.952   2.999
 4460SOL     OW14278   6.609   2.615   4.465
 4460SOL    HW114279   6.510   2.599   4.466
 4460SOL    HW214280   6.641   2.619   4.371
 4461SOL     OW14281   2.098   0.974   0.774
 4461SOL    HW114282   2.174   0.987   0.711
 4461SOL    HW214283   2.039   1.055   0.773
 4462SOL     OW14284   6.668   4.202   3.331
 4462SOL    HW114285   6.651   4.251   3.417
 4462SOL    HW214286   6.582   4.170   3.293
 4463SOL     OW14287   5.652   1.938   0.711
 4463SOL    HW114288   5.731   1.924   0.650
 4463SOL    HW214289   5.656   2.030   0.749
 4464SOL     OW14290   0.136   5.031   1.315
 4464SOL    HW114291   0.104   5.093   1.387
 4464SOL    HW214292   0.167   4.945   1.356
 4465SOL     OW14293   3.280   5.674   1.070
 4465SOL    HW114294   3.218   5.751   1.055
 4465SOL    HW214295   3.251   5.597   1.013
 4466SOL     OW14296   1.908   2.388   2.736
 4466SOL    HW114297   1.858   2.475   2.731
 4466SOL    HW214298   2.003   2.403   2.707
 4467SOL     OW14299   4.894   6.135   3.279
 4467SOL    HW114300   4.946   6.080   3.214
 4467SOL    HW214301   4.918   6.232   3.268
 4468SOL     OW14302   1.783   2.842   1.909
 4468SOL    HW114303   1.835   2.759   1.930
 4468SOL    HW214304   1.726   2.867   1.987
 4469SOL     OW14305   3.106   5.855   1.112
 4469SOL    HW114306   3.155   5.913   1.178
 4469SOL    HW214307   3.060   5.912   1.045
 4470SOL     OW14308   2.079   0.139   2.822
 4470SOL    HW114309   2.030   0.095   2.747
 4470SOL    HW214310   2.178   0.127   2.808
 4471SOL     OW14311   1.316   0.658   6.575
 4471SOL    HW114312   1.402   0.660   6.525
 4471SOL    HW214313   1.252   0.724   6.536
 4472SOL     OW14314   1.952   2.693   1.217
 4472SOL    HW114315   1.915   2.686   1.309
 4472SOL    HW214316   1.900   2.634   1.155
 4473SOL     OW14317   0.307   2.562   4.194
 4473SOL    HW114318   0.306   2.550   4.293
 4473SOL    HW214319   0.402   2.563   4.162
 4474SOL     OW14320   2.937   5.657   0.916
 4474SOL    HW114321   2.985   5.718   0.853
 4474SOL    HW214322   2.902   5.710   0.993
 4475SOL     OW14323   1.007   3.947   1.089
 4475SOL    HW114324   1.052   3.972   1.003
 4475SOL    HW214325   0.918   3.907   1.070
 4476SOL     OW14326   5.103   1.007   3.816
 4476SOL    HW114327   5.097   0.962   3.727
 4476SOL    HW214328   5.178   1.074   3.814
 4477SOL     OW14329   1.490   1.244   4.753
 4477SOL    HW114330   1.574   1.296   4.744
 4477SOL    HW214331   1.414   1.306   4.776
 4478SOL     OW14332   2.306   0.250   0.953
 4478SOL    HW114333   2.211   0.242   0.982
 4478SOL    HW214334   2.309   0.273   0.855
 4479SOL     OW14335   1.506   2.388   0.063
 4479SOL    HW114336   1.557   2.382   0.148
 4479SOL    HW214337   1.569   2.406   7.012
 4480SOL     OW14338   1.169   6.568   4.037
 4480SOL    HW114339   1.086   6.597   4.083
 4480SOL    HW214340   1.150   6.487   3.981
 4481SOL     OW14341   2.065   3.803   5.905
 4481SOL    HW114342   2.004   3.878   5.928
 4481SOL    HW214343   2.159   3.837   5.902
 4482SOL     OW14344   2.431   6.273   1.268
 4482SOL    HW114345   2.345   6.315   1.237
 4482SOL    HW214346   2.411   6.184   1.310
 4483SOL     OW14347   1.194   3.195   0.354
 4483SOL    HW114348   1.130   3.192   0.431
 4483SOL    HW214349   1.179   3.116   0.295
 4484SOL     OW14350   2.604   1.259   0.020
 4484SOL    HW114351   2.604   1.189   6.973
 4484SOL    HW214352   2.636   1.346   7.007
 4485SOL     OW14353   6.735   2.891   5.386
 4485SOL    HW114354   6.640   2.863   5.398
 4485SOL    HW214355   6.748   2.982   5.425
 4486SOL     OW14356   4.592   5.069   4.884
 4486SOL    HW114357   4.632   4.989   4.839
 4486SOL    HW214358   4.520   5.039   4.948
 4487SOL     OW14359   0.559   3.060   6.620
 4487SOL    HW114360   0.483   2.997   6.629
 4487SOL    HW214361   0.628   3.039   6.690
 4488SOL     OW14362   0.226   4.116   3.946
 4488SOL    HW114363   0.168   4.146   3.870
 4488SOL    HW214364   0.173   4.119   4.031
 4489SOL     OW14365   4.047   6.135   6.086
 4489SOL    HW114366   4.123   6.158   6.147
 4489SOL    HW214367   4.003   6.219   6.054
 4490SOL     OW14368   5.275   1.397   1.676
 4490SOL    HW114369   5.191   1.343   1.677
 4490SOL    HW214370   5.308   1.403   1.582
 4491SOL     OW14371   1.273   3.147   3.297
 4491SOL    HW114372   1.341   3.194   3.240
 4491SOL    HW214373   1.183   3.191   3.285
 4492SOL     OW14374   6.666   0.571   2.397
 4492SOL    HW114375   6.681   0.599   2.302
 4492SOL    HW214376   6.686   0.473   2.406
 4493SOL     OW14377   5.603   1.579   5.093
 4493SOL    HW114378   5.552   1.613   5.172
 4493SOL    HW214379   5.701   1.581   5.113
 4494SOL     OW14380   1.355   0.979   1.547
 4494SOL    HW114381   1.391   0.903   1.600
 4494SOL    HW214382   1.425   1.050   1.538
 4495SOL     OW14383   4.231   6.246   0.722
 4495SOL    HW114384   4.326   6.269   0.743
 4495SOL    HW214385   4.227   6.163   0.667
 4496SOL     OW14386   3.536   6.386   6.309
 4496SOL    HW114387   3.488   6.299   6.300
 4496SOL    HW214388   3.575   6.394   6.400
 4497SOL     OW14389   4.356   0.968   6.049
 4497SOL    HW114390   4.354   0.872   6.077
 4497SOL    HW214391   4.428   0.982   5.981
 4498SOL     OW14392   0.232   5.299   4.780
 4498SOL    HW114393   0.181   5.385   4.785
 4498SOL    HW214394   0.175   5.224   4.816
 4499SOL     OW14395   5.682   2.100   2.197
 4499SOL    HW114396   5.721   2.139   2.114
 4499SOL    HW214397   5.584   2.084   2.183
 4500SOL     OW14398   3.795   5.434   6.983
 4500SOL    HW114399   3.741   5.362   6.939
 4500SOL    HW214400   3.734   5.509   7.010
 4501SOL     OW14401   5.756   0.365   2.923
 4501SOL    HW114402   5.715   0.418   2.998
 4501SOL    HW214403   5.854   0.384   2.919
 4502SOL     OW14404   6.849   3.774   6.384
 4502SOL    HW114405   6.752   3.754   6.397
 4502SOL    HW214406   6.894   3.778   6.473
 4503SOL     OW14407   3.408   1.070   2.734
 4503SOL    HW114408   3.408   1.012   2.815
 4503SOL    HW214409   3.482   1.042   2.673
 4504SOL     OW14410   0.187   1.714   2.795
 4504SOL    HW114411   0.099   1.737   2.754
 4504SOL    HW214412   0.187   1.743   2.891
 4505SOL     OW14413   5.715   4.771   3.809
 4505SOL    HW114414   5.784   4.700   3.824
 4505SOL    HW214415   5.673   4.758   3.719
 4506SOL     OW14416   5.590   3.067   5.703
 4506SOL    HW114417   5.505   3.099   5.744
 4506SOL    HW214418   5.572   3.038   5.609
 4507SOL     OW14419   6.160   2.309   3.218
 4507SOL    HW114420   6.184   2.357   3.302
 4507SOL    HW214421   6.145   2.212   3.238
 4508SOL     OW14422   0.120   5.127   0.904
 4508SOL    HW114423   0.141   5.130   0.806
 4508SOL    HW214424   0.161   5.045   0.944
 4509SOL     OW14425   4.924   2.805   1.957
 4509SOL    HW114426   4.857   2.874   1.984
 4509SOL    HW214427   4.976   2.777   2.037
 4510SOL     OW14428   3.799   1.281   3.962
 4510SOL    HW114429   3.836   1.365   3.921
 4510SOL    HW214430   3.765   1.221   3.890
 4511SOL     OW14431   0.297   4.386   6.704
 4511SOL    HW114432   0.337   4.335   6.628
 4511SOL    HW214433   0.367   4.402   6.774
 4512SOL     OW14434   2.999   3.583   5.291
 4512SOL    HW114435   2.974   3.532   5.208
 4512SOL    HW214436   3.075   3.645   5.270
 4513SOL     OW14437   0.859   6.991   0.903
 4513SOL    HW114438   0.818   0.013   0.982
 4513SOL    HW214439   0.789   6.978   0.832
 4514SOL     OW14440   3.756   4.588   6.542
 4514SOL    HW114441   3.740   4.612   6.446
 4514SOL    HW214442   3.691   4.516   6.570
 4515SOL     OW14443   4.391   0.707   6.134
 4515SOL    HW114444   4.482   0.673   6.157
 4515SOL    HW214445   4.322   0.648   6.177
 4516SOL     OW14446   2.791   2.120   5.665
 4516SOL    HW114447   2.832   2.059   5.597
 4516SOL    HW214448   2.709   2.078   5.702
 4517SOL     OW14449   4.289   0.807   5.090
 4517SOL    HW114450   4.222   0.737   5.066
 4517SOL    HW214451   4.246   0.874   5.151
 4518SOL     OW14452   0.823   6.298   1.105
 4518SOL    HW114453   0.816   6.396   1.091
 4518SOL    HW214454   0.740   6.265   1.150
 4519SOL     OW14455   4.673   6.801   0.085
 4519SOL    HW114456   4.659   6.854   0.168
 4519SOL    HW214457   4.771   6.782   0.073
 4520SOL     OW14458   4.276   5.476   5.335
 4520SOL    HW114459   4.241   5.406   5.272
 4520SOL    HW214460   4.215   5.484   5.413
 4521SOL     OW14461   4.634   2.575   3.878
 4521SOL    HW114462   4.643   2.623   3.965
 4521SOL    HW214463   4.712   2.597   3.820
 4522SOL     OW14464   6.016   4.201   3.559
 4522SOL    HW114465   6.085   4.207   3.487
 4522SOL    HW214466   5.950   4.129   3.536
 4523SOL     OW14467   0.557   3.279   5.934
 4523SOL    HW114468   0.476   3.226   5.909
 4523SOL    HW214469   0.627   3.270   5.862
 4524SOL     OW14470   1.566   3.500   2.326
 4524SOL    HW114471   1.560   3.429   2.395
 4524SOL    HW214472   1.630   3.571   2.357
 4525SOL     OW14473   3.370   2.476   5.438
 4525SOL    HW114474   3.343   2.427   5.355
 4525SOL    HW214475   3.368   2.574   5.420
 4526SOL     OW14476   0.880   6.850   6.129
 4526SOL    HW114477   0.837   6.892   6.210
 4526SOL    HW214478   0.811   6.802   6.075
 4527SOL     OW14479   0.023   1.285   2.650
 4527SOL    HW114480   0.082   1.219   2.604
 4527SOL    HW214481   0.075   1.334   2.720
 4528SOL     OW14482   5.356   0.862   4.970
 4528SOL    HW114483   5.443   0.856   4.921
 4528SOL    HW214484   5.296   0.787   4.941
 4529SOL     OW14485   2.245   1.037   3.981
 4529SOL    HW114486   2.309   0.960   3.973
 4529SOL    HW214487   2.266   1.106   3.913
 4530SOL     OW14488   4.275   5.748   6.517
 4530SOL    HW114489   4.202   5.702   6.466
 4530SOL    HW214490   4.276   5.845   6.494
 4531SOL     OW14491   1.107   5.905   5.588
 4531SOL    HW114492   1.097   5.852   5.503
 4531SOL    HW214493   1.203   5.902   5.618
 4532SOL     OW14494   5.513   0.872   2.979
 4532SOL    HW114495   5.489   0.781   2.947
 4532SOL    HW214496   5.479   0.885   3.072
 4533SOL     OW14497   2.801   0.362   1.023
 4533SOL    HW114498   2.794   0.342   1.121
 4533SOL    HW214499   2.835   0.281   0.975
 4534SOL     OW14500   4.624   1.643   3.850
 4534SOL    HW114501   4.571   1.621   3.768
 4534SOL    HW214502   4.569   1.700   3.911
 4535SOL     OW14503   1.735   0.541   0.897
 4535SOL    HW114504   1.727   0.576   0.990
 4535SOL    HW214505   1.736   0.441   0.900
 4536SOL     OW14506   3.147   0.297   5.482
 4536SOL    HW114507   3.213   0.299   5.557
 4536SOL    HW214508   3.141   0.387   5.440
 4537SOL     OW14509   2.988   3.858   3.541
 4537SOL    HW114510   3.083   3.873   3.568
 4537SOL    HW214511   2.938   3.817   3.616
 4538SOL     OW14512   0.542   2.059   0.901
 4538SOL    HW114513   0.630   2.015   0.887
 4538SOL    HW214514   0.513   2.102   0.816
 4539SOL     OW14515   1.521   6.084   5.600
 4539SOL    HW114516   1.593   6.026   5.564
 4539SOL    HW214517   1.444   6.027   5.629
 4540SOL     OW14518   0.852   2.334   0.212
 4540SOL    HW114519   0.897   2.421   0.233
 4540SOL    HW214520   0.915   2.275   0.161
 4541SOL     OW14521   4.155   2.889   6.014
 4541SOL    HW114522   4.117   2.803   6.048
 4541SOL    HW214523   4.118   2.908   5.923
 4542SOL     OW14524   0.600   1.828   0.049
 4542SOL    HW114525   0.664   1.752   0.040
 4542SOL    HW214526   0.515   1.807   0.001
 4543SOL     OW14527   3.799   2.096   0.411
 4543SOL    HW114528   3.759   2.180   0.449
 4543SOL    HW214529   3.793   2.098   0.311
 4544SOL     OW14530   5.522   6.522   0.652
 4544SOL    HW114531   5.428   6.491   0.671
 4544SOL    HW214532   5.541   6.604   0.706
 4545SOL     OW14533   1.994   3.018   5.093
 4545SOL    HW114534   2.001   3.065   5.005
 4545SOL    HW214535   2.078   2.968   5.112
 4546SOL     OW14536   3.402   0.624   4.847
 4546SOL    HW114537   3.368   0.673   4.767
 4546SOL    HW214538   3.326   0.582   4.896
 4547SOL     OW14539   6.930   0.291   0.165
 4547SOL    HW114540   6.887   0.380   0.177
 4547SOL    HW214541   6.991   0.294   0.086
 4548SOL     OW14542   2.705   1.687   2.705
 4548SOL    HW114543   2.788   1.724   2.664
 4548SOL    HW214544   2.715   1.588   2.717
 4549SOL     OW14545   0.380   3.164   4.423
 4549SOL    HW114546   0.464   3.112   4.437
 4549SOL    HW214547   0.391   3.226   4.345
 4550SOL     OW14548   2.141   5.252   3.971
 4550SOL    HW114549   2.124   5.214   4.062
 4550SOL    HW214550   2.070   5.319   3.949
 4551SOL     OW14551   2.254   2.111   5.465
 4551SOL    HW114552   2.347   2.103   5.430
 4551SOL    HW214553   2.207   2.187   5.418
 4552SOL     OW14554   5.355   1.067   1.124
 4552SOL    HW114555   5.410   1.125   1.063
 4552SOL    HW214556   5.322   1.122   1.201
 4553SOL     OW14557   0.421   5.515   0.115
 4553SOL    HW114558   0.327   5.480   0.125
 4553SOL    HW214559   0.418   5.613   0.098
 4554SOL     OW14560   6.354   6.507   3.259
 4554SOL    HW114561   6.449   6.519   3.287
 4554SOL    HW214562   6.340   6.413   3.229
 4555SOL     OW14563   1.259   0.982   0.824
 4555SOL    HW114564   1.240   0.887   0.801
 4555SOL    HW214565   1.206   1.008   0.905
 4556SOL     OW14566   5.683   5.104   4.364
 4556SOL    HW114567   5.734   5.085   4.280
 4556SOL    HW214568   5.592   5.065   4.357
 4557SOL     OW14569   0.149   4.760   4.294
 4557SOL    HW114570   0.113   4.681   4.345
 4557SOL    HW214571   0.179   4.730   4.203
 4558SOL     OW14572   1.688   3.843   4.700
 4558SOL    HW114573   1.780   3.812   4.725
 4558SOL    HW214574   1.632   3.764   4.675
 4559SOL     OW14575   0.144   3.002   4.023
 4559SOL    HW114576   0.152   3.042   3.932
 4559SOL    HW214577   0.149   2.902   4.016
 4560SOL     OW14578   5.316   3.860   3.030
 4560SOL    HW114579   5.396   3.802   3.043
 4560SOL    HW214580   5.269   3.834   2.946
 4561SOL     OW14581   4.490   2.326   3.891
 4561SOL    HW114582   4.546   2.405   3.865
 4561SOL    HW214583   4.477   2.267   3.812
 4562SOL     OW14584   3.639   0.898   0.868
 4562SOL    HW114585   3.604   0.945   0.788
 4562SOL    HW214586   3.729   0.934   0.892
 4563SOL     OW14587   0.375   4.626   2.381
 4563SOL    HW114588   0.371   4.535   2.341
 4563SOL    HW214589   0.315   4.688   2.329
 4564SOL     OW14590   2.132   3.784   1.982
 4564SOL    HW114591   2.128   3.818   2.076
 4564SOL    HW214592   2.162   3.689   1.982
 4565SOL     OW14593   1.973   6.312   6.704
 4565SOL    HW114594   2.016   6.256   6.633
 4565SOL    HW214595   2.044   6.362   6.754
 4566SOL     OW14596   6.802   4.602   3.601
 4566SOL    HW114597   6.834   4.689   3.563
 4566SOL    HW214598   6.826   4.528   3.538
 4567SOL     OW14599   0.399   0.065   6.794
 4567SOL    HW114600   0.459   0.092   6.870
 4567SOL    HW214601   0.306   0.095   6.813
 4568SOL     OW14602   1.484   5.073   2.882
 4568SOL    HW114603   1.557   5.126   2.926
 4568SOL    HW214604   1.396   5.113   2.903
 4569SOL     OW14605   1.967   0.923   3.568
 4569SOL    HW114606   2.009   0.910   3.658
 4569SOL    HW214607   2.030   0.973   3.509
 4570SOL     OW14608   4.979   5.824   1.601
 4570SOL    HW114609   4.970   5.724   1.597
 4570SOL    HW214610   4.889   5.864   1.616
 4571SOL     OW14611   2.566   2.919   6.282
 4571SOL    HW114612   2.554   3.016   6.305
 4571SOL    HW214613   2.501   2.864   6.334
 4572SOL     OW14614   3.174   3.092   2.099
 4572SOL    HW114615   3.128   3.046   2.023
 4572SOL    HW214616   3.222   3.173   2.064
 4573SOL     OW14617   3.342   5.372   1.055
 4573SOL    HW114618   3.245   5.364   1.030
 4573SOL    HW214619   3.389   5.426   0.986
 4574SOL     OW14620   4.935   0.904   1.625
 4574SOL    HW114621   4.973   0.824   1.671
 4574SOL    HW214622   4.860   0.941   1.680
 4575SOL     OW14623   0.720   0.376   6.072
 4575SOL    HW114624   0.644   0.315   6.092
 4575SOL    HW214625   0.731   0.386   5.973
 4576SOL     OW14626   2.877   4.688   5.856
 4576SOL    HW114627   2.845   4.601   5.817
 4576SOL    HW214628   2.862   4.761   5.790
 4577SOL     OW14629   0.835   1.840   2.626
 4577SOL    HW114630   0.908   1.891   2.580
 4577SOL    HW214631   0.772   1.803   2.558
 4578SOL     OW14632   1.293   1.885   1.950
 4578SOL    HW114633   1.218   1.936   1.909
 4578SOL    HW214634   1.257   1.803   1.995
 4579SOL     OW14635   4.981   0.655   3.327
 4579SOL    HW114636   5.024   0.565   3.319
 4579SOL    HW214637   4.971   0.680   3.423
 4580SOL     OW14638   0.415   1.809   0.987
 4580SOL    HW114639   0.438   1.906   0.994
 4580SOL    HW214640   0.489   1.754   1.028
 4581SOL     OW14641   3.402   0.792   0.866
 4581SOL    HW114642   3.352   0.815   0.783
 4581SOL    HW214643   3.486   0.846   0.870
 4582SOL     OW14644   6.455   1.500   4.019
 4582SOL    HW114645   6.543   1.520   4.063
 4582SOL    HW214646   6.462   1.520   3.921
 4583SOL     OW14647   2.002   0.286   0.784
 4583SOL    HW114648   2.003   0.376   0.738
 4583SOL    HW214649   2.026   0.298   0.880
 4584SOL     OW14650   0.855   1.429   4.261
 4584SOL    HW114651   0.836   1.524   4.284
 4584SOL    HW214652   0.774   1.388   4.220
 4585SOL     OW14653   1.699   3.045   3.244
 4585SOL    HW114654   1.627   2.991   3.287
 4585SOL    HW214655   1.764   3.075   3.313
 4586SOL     OW14656   5.935   5.059   6.617
 4586SOL    HW114657   5.918   5.150   6.581
 4586SOL    HW214658   6.013   5.061   6.680
 4587SOL     OW14659   3.381   3.116   5.131
 4587SOL    HW114660   3.421   3.137   5.041
 4587SOL    HW214661   3.370   3.017   5.140
 4588SOL     OW14662   3.117   3.854   6.335
 4588SOL    HW114663   3.039   3.807   6.375
 4588SOL    HW214664   3.191   3.789   6.316
 4589SOL     OW14665   5.951   6.529   2.063
 4589SOL    HW114666   6.037   6.478   2.054
 4589SOL    HW214667   5.950   6.603   1.995
 4590SOL     OW14668   3.346   5.115   1.129
 4590SOL    HW114669   3.433   5.080   1.094
 4590SOL    HW214670   3.329   5.206   1.091
 4591SOL     OW14671   2.177   0.124   5.170
 4591SOL    HW114672   2.268   0.128   5.210
 4591SOL    HW214673   2.133   0.037   5.195
 4592SOL     OW14674   1.606   1.697   3.807
 4592SOL    HW114675   1.544   1.669   3.734
 4592SOL    HW214676   1.572   1.661   3.894
 4593SOL     OW14677   1.562   5.561   4.384
 4593SOL    HW114678   1.655   5.594   4.373
 4593SOL    HW214679   1.553   5.512   4.471
 4594SOL     OW14680   1.702   0.114   3.069
 4594SOL    HW114681   1.799   0.091   3.058
 4594SOL    HW214682   1.670   0.084   3.159
 4595SOL     OW14683   5.393   1.807   6.110
 4595SOL    HW114684   5.377   1.905   6.118
 4595SOL    HW214685   5.345   1.759   6.184
 4596SOL     OW14686   6.705   0.660   2.142
 4596SOL    HW114687   6.792   0.708   2.154
 4596SOL    HW214688   6.722   0.566   2.113
 4597SOL     OW14689   2.639   6.135   0.360
 4597SOL    HW114690   2.729   6.157   0.322
 4597SOL    HW214691   2.607   6.049   0.321
 4598SOL     OW14692   0.850   4.438   0.560
 4598SOL    HW114693   0.861   4.341   0.542
 4598SOL    HW214694   0.924   4.470   0.619
 4599SOL     OW14695   2.883   6.319   1.921
 4599SOL    HW114696   2.954   6.380   1.956
 4599SOL    HW214697   2.837   6.361   1.843
 4600SOL     OW14698   0.660   6.297   6.388
 4600SOL    HW114699   0.615   6.269   6.303
 4600SOL    HW214700   0.759   6.286   6.378
 4601SOL     OW14701   1.735   0.703   5.376
 4601SOL    HW114702   1.800   0.772   5.345
 4601SOL    HW214703   1.698   0.731   5.465
 4602SOL     OW14704   3.199   2.020   5.949
 4602SOL    HW114705   3.257   2.054   6.023
 4602SOL    HW214706   3.166   2.097   5.894
 4603SOL     OW14707   4.753   0.065   1.346
 4603SOL    HW114708   4.803   7.004   1.354
 4603SOL    HW214709   4.663   0.048   1.306
 4604SOL     OW14710   6.409   0.059   4.941
 4604SOL    HW114711   6.503   0.037   4.914
 4604SOL    HW214712   6.346   0.037   4.866
 4605SOL     OW14713   4.020   0.643   1.607
 4605SOL    HW114714   4.045   0.610   1.517
 4605SOL    HW214715   3.928   0.611   1.631
 4606SOL     OW14716   0.111   6.538   5.477
 4606SOL    HW114717   0.155   6.617   5.519
 4606SOL    HW214718   0.035   6.569   5.419
 4607SOL     OW14719   2.251   2.159   0.536
 4607SOL    HW114720   2.278   2.252   0.513
 4607SOL    HW214721   2.332   2.100   0.537
 4608SOL     OW14722   6.765   2.169   4.714
 4608SOL    HW114723   6.681   2.132   4.674
 4608SOL    HW214724   6.842   2.107   4.695
 4609SOL     OW14725   5.149   5.491   6.487
 4609SOL    HW114726   5.140   5.588   6.467
 4609SOL    HW214727   5.176   5.442   6.404
 4610SOL     OW14728   5.150   4.364   6.950
 4610SOL    HW114729   5.065   4.411   6.926
 4610SOL    HW214730   5.213   4.428   6.993
 4611SOL     OW14731   1.071   0.743   6.447
 4611SOL    HW114732   1.007   0.765   6.521
 4611SOL    HW214733   1.098   0.828   6.401
 4612SOL     OW14734   2.016   1.835   1.479
 4612SOL    HW114735   2.027   1.739   1.504
 4612SOL    HW214736   1.919   1.854   1.463
 4613SOL     OW14737   1.337   4.568   2.045
 4613SOL    HW114738   1.376   4.482   2.011
 4613SOL    HW214739   1.242   4.552   2.073
 4614SOL     OW14740   6.638   4.422   4.341
 4614SOL    HW114741   6.710   4.453   4.279
 4614SOL    HW214742   6.674   4.416   4.434
 4615SOL     OW14743   1.261   3.571   5.965
 4615SOL    HW114744   1.245   3.666   5.938
 4615SOL    HW214745   1.280   3.568   6.063
 4616SOL     OW14746   0.163   2.642   5.444
 4616SOL    HW114747   0.169   2.601   5.535
 4616SOL    HW214748   0.094   2.715   5.445
 4617SOL     OW14749   0.184   2.347   3.254
 4617SOL    HW114750   0.119   2.297   3.310
 4617SOL    HW214751   0.276   2.309   3.267
 4618SOL     OW14752   2.248   4.216   6.179
 4618SOL    HW114753   2.204   4.305   6.196
 4618SOL    HW214754   2.252   4.199   6.080
 4619SOL     OW14755   4.870   6.295   6.276
 4619SOL    HW114756   4.860   6.214   6.219
 4619SOL    HW214757   4.967   6.320   6.282
 4620SOL     OW14758   0.777   4.873   2.635
 4620SOL    HW114759   0.722   4.953   2.612
 4620SOL    HW214760   0.746   4.835   2.722
 4621SOL     OW14761   3.581   7.024   2.745
 4621SOL    HW114762   3.644   7.015   2.668
 4621SOL    HW214763   3.487   7.016   2.713
 4622SOL     OW14764   5.051   6.443   0.868
 4622SOL    HW114765   5.059   6.353   0.823
 4622SOL    HW214766   5.134   6.495   0.852
 4623SOL     OW14767   2.685   4.480   1.271
 4623SOL    HW114768   2.722   4.490   1.363
 4623SOL    HW214769   2.668   4.383   1.252
 4624SOL     OW14770   4.132   1.328   2.092
 4624SOL    HW114771   4.096   1.290   2.007
 4624SOL    HW214772   4.221   1.370   2.075
 4625SOL     OW14773   2.298   6.331   1.518
 4625SOL    HW114774   2.239   6.271   1.464
 4625SOL    HW214775   2.325   6.410   1.463
 4626SOL     OW14776   4.410   3.786   1.712
 4626SOL    HW114777   4.479   3.858   1.708
 4626SOL    HW214778   4.390   3.754   1.619
 4627SOL     OW14779   5.598   0.438   5.215
 4627SOL    HW114780   5.686   0.392   5.226
 4627SOL    HW214781   5.527   0.387   5.264
 4628SOL     OW14782   5.699   5.002   3.597
 4628SOL    HW114783   5.799   5.004   3.594
 4628SOL    HW214784   5.666   4.915   3.560
 4629SOL     OW14785   2.375   5.377   0.143
 4629SOL    HW114786   2.321   5.295   0.162
 4629SOL    HW214787   2.349   5.414   0.053
 4630SOL     OW14788   1.826   3.087   1.779
 4630SOL    HW114789   1.906   3.138   1.811
 4630SOL    HW214790   1.824   2.997   1.824
 4631SOL     OW14791   0.382   0.511   3.185
 4631SOL    HW114792   0.351   0.421   3.215
 4631SOL    HW214793   0.318   0.581   3.217
 4632SOL     OW14794   3.358   5.032   2.664
 4632SOL    HW114795   3.278   5.084   2.695
 4632SOL    HW214796   3.342   4.999   2.571
 4633SOL     OW14797   4.730   1.199   4.687
 4633SOL    HW114798   4.649   1.216   4.742
 4633SOL    HW214799   4.718   1.240   4.596
 4634SOL     OW14800   3.027   4.047   5.378
 4634SOL    HW114801   3.073   4.034   5.466
 4634SOL    HW214802   2.974   4.132   5.381
 4635SOL     OW14803   4.189   6.400   1.914
 4635SOL    HW114804   4.154   6.347   1.837
 4635SOL    HW214805   4.160   6.495   1.905
 4636SOL     OW14806   1.773   5.461   7.011
 4636SOL    HW114807   1.846   5.487   0.049
 4636SOL    HW214808   1.795   5.374   6.968
 4637SOL     OW14809   3.195   1.468   3.236
 4637SOL    HW114810   3.231   1.476   3.143
 4637SOL    HW214811   3.136   1.546   3.257
 4638SOL     OW14812   3.788   5.055   6.752
 4638SOL    HW114813   3.847   5.127   6.715
 4638SOL    HW214814   3.824   4.966   6.726
 4639SOL     OW14815   3.781   2.297   1.608
 4639SOL    HW114816   3.725   2.294   1.691
 4639SOL    HW214817   3.804   2.204   1.580
 4640SOL     OW14818   6.341   3.075   6.795
 4640SOL    HW114819   6.389   3.162   6.784
 4640SOL    HW214820   6.287   3.078   6.879
 4641SOL     OW14821   1.376   5.994   4.412
 4641SOL    HW114822   1.411   6.079   4.373
 4641SOL    HW214823   1.285   6.011   4.451
 4642SOL     OW14824   6.481   0.867   4.440
 4642SOL    HW114825   6.418   0.885   4.515
 4642SOL    HW214826   6.463   0.931   4.365
 4643SOL     OW14827   0.583   2.113   7.020
 4643SOL    HW114828   0.590   2.017   0.024
 4643SOL    HW214829   0.595   2.173   0.075
 4644SOL     OW14830   1.388   1.003   0.551
 4644SOL    HW114831   1.348   1.004   0.643
 4644SOL    HW214832   1.374   0.913   0.510
 4645SOL     OW14833   6.748   1.657   4.604
 4645SOL    HW114834   6.821   1.662   4.536
 4645SOL    HW214835   6.672   1.604   4.568
 4646SOL     OW14836   2.481   4.648   4.237
 4646SOL    HW114837   2.524   4.648   4.328
 4646SOL    HW214838   2.391   4.604   4.243
 4647SOL     OW14839   1.349   6.288   1.557
 4647SOL    HW114840   1.421   6.219   1.548
 4647SOL    HW214841   1.352   6.350   1.479
 4648SOL     OW14842   2.855   1.407   4.314
 4648SOL    HW114843   2.917   1.367   4.247
 4648SOL    HW214844   2.761   1.404   4.279
 4649SOL     OW14845   6.470   1.794   0.405
 4649SOL    HW114846   6.560   1.762   0.434
 4649SOL    HW214847   6.406   1.717   0.405
 4650SOL     OW14848   5.050   6.221   0.688
 4650SOL    HW114849   5.032   6.141   0.744
 4650SOL    HW214850   5.052   6.195   0.591
 4651SOL     OW14851   6.839   3.279   6.200
 4651SOL    HW114852   6.856   3.348   6.270
 4651SOL    HW214853   6.794   3.200   6.241
 4652SOL     OW14854   0.503   6.053   5.514
 4652SOL    HW114855   0.589   6.062   5.564
 4652SOL    HW214856   0.499   6.124   5.443
 4653SOL     OW14857   6.458   5.506   0.023
 4653SOL    HW114858   6.390   5.529   6.979
 4653SOL    HW214859   6.548   5.502   7.005
 4654SOL     OW14860   1.709   0.243   5.857
 4654SOL    HW114861   1.654   0.323   5.881
 4654SOL    HW214862   1.784   0.271   5.797
 4655SOL     OW14863   4.802   2.796   1.455
 4655SOL    HW114864   4.765   2.709   1.488
 4655SOL    HW214865   4.752   2.871   1.497
 4656SOL     OW14866   0.078   1.743   1.372
 4656SOL    HW114867   0.176   1.755   1.360
 4656SOL    HW214868   0.032   1.831   1.365
 4657SOL     OW14869   4.142   1.251   2.571
 4657SOL    HW114870   4.169   1.184   2.502
 4657SOL    HW214871   4.224   1.285   2.619
 4658SOL     OW14872   1.492   2.805   5.770
 4658SOL    HW114873   1.549   2.881   5.738
 4658SOL    HW214874   1.424   2.783   5.700
 4659SOL     OW14875   1.658   4.269   6.987
 4659SOL    HW114876   1.724   4.199   7.014
 4659SOL    HW214877   1.642   4.264   6.889
 4660SOL     OW14878   1.004   6.151   3.325
 4660SOL    HW114879   1.082   6.197   3.366
 4660SOL    HW214880   1.021   6.052   3.324
 4661SOL     OW14881   0.798   1.848   5.575
 4661SOL    HW114882   0.796   1.786   5.497
 4661SOL    HW214883   0.790   1.795   5.660
 4662SOL     OW14884   1.894   0.110   5.432
 4662SOL    HW114885   1.855   0.077   5.518
 4662SOL    HW214886   1.962   0.045   5.398
 4663SOL     OW14887   1.222   6.783   0.509
 4663SOL    HW114888   1.314   6.818   0.492
 4663SOL    HW214889   1.167   6.854   0.552
 4664SOL     OW14890   6.457   0.143   6.856
 4664SOL    HW114891   6.442   0.204   6.934
 4664SOL    HW214892   6.555   0.121   6.850
 4665SOL     OW14893   1.139   0.460   4.199
 4665SOL    HW114894   1.193   0.479   4.117
 4665SOL    HW214895   1.042   0.472   4.179
 4666SOL     OW14896   2.219   1.893   4.650
 4666SOL    HW114897   2.171   1.812   4.617
 4666SOL    HW214898   2.300   1.864   4.702
 4667SOL     OW14899   6.510   3.916   1.190
 4667SOL    HW114900   6.475   3.867   1.270
 4667SOL    HW214901   6.574   3.987   1.220
 4668SOL     OW14902   5.023   1.674   4.147
 4668SOL    HW114903   4.924   1.686   4.154
 4668SOL    HW214904   5.060   1.659   4.239
 4669SOL     OW14905   5.302   6.955   5.964
 4669SOL    HW114906   5.311   7.003   5.876
 4669SOL    HW214907   5.342   7.011   6.036
 4670SOL     OW14908   0.387   2.968   0.313
 4670SOL    HW114909   0.297   2.976   0.271
 4670SOL    HW214910   0.378   2.960   0.412
 4671SOL     OW14911   0.241   3.673   0.850
 4671SOL    HW114912   0.171   3.725   0.800
 4671SOL    HW214913   0.331   3.699   0.816
 4672SOL     OW14914   2.561   4.407   6.507
 4672SOL    HW114915   2.476   4.429   6.458
 4672SOL    HW214916   2.544   4.407   6.605
 4673SOL     OW14917   6.025   1.162   0.657
 4673SOL    HW114918   5.987   1.208   0.737
 4673SOL    HW214919   5.955   1.105   0.614
 4674SOL     OW14920   1.194   2.786   1.066
 4674SOL    HW114921   1.144   2.755   1.147
 4674SOL    HW214922   1.188   2.885   1.058
 4675SOL     OW14923   2.211   5.689   6.710
 4675SOL    HW114924   2.134   5.733   6.663
 4675SOL    HW214925   2.297   5.728   6.676
 4676SOL     OW14926   0.388   6.195   3.805
 4676SOL    HW114927   0.452   6.219   3.878
 4676SOL    HW214928   0.393   6.097   3.786
 4677SOL     OW14929   4.299   0.158   6.552
 4677SOL    HW114930   4.292   0.059   6.542
 4677SOL    HW214931   4.212   0.195   6.584
 4678SOL     OW14932   1.817   4.656   6.591
 4678SOL    HW114933   1.747   4.727   6.592
 4678SOL    HW214934   1.792   4.585   6.525
 4679SOL     OW14935   2.900   6.515   5.971
 4679SOL    HW114936   2.947   6.505   5.883
 4679SOL    HW214937   2.968   6.517   6.045
 4680SOL     OW14938   1.926   4.596   0.168
 4680SOL    HW114939   2.013   4.632   0.135
 4680SOL    HW214940   1.889   4.659   0.236
 4681SOL     OW14941   6.777   6.253   5.275
 4681SOL    HW114942   6.813   6.172   5.320
 4681SOL    HW214943   6.820   6.262   5.185
 4682SOL     OW14944   4.063   6.598   0.413
 4682SOL    HW114945   4.029   6.634   0.499
 4682SOL    HW214946   3.992   6.543   0.369
 4683SOL     OW14947   0.062   4.229   3.766
 4683SOL    HW114948   0.000   4.151   3.754
 4683SOL    HW214949   0.008   4.310   3.788
 4684SOL     OW14950   1.476   1.045   5.211
 4684SOL    HW114951   1.384   1.071   5.180
 4684SOL    HW214952   1.514   1.118   5.268
 4685SOL     OW14953   5.017   4.544   4.970
 4685SOL    HW114954   5.101   4.496   4.943
 4685SOL    HW214955   4.945   4.527   4.904
 4686SOL     OW14956   5.054   6.125   0.442
 4686SOL    HW114957   4.965   6.160   0.412
 4686SOL    HW214958   5.102   6.085   0.364
 4687SOL     OW14959   5.385   6.778   4.577
 4687SOL    HW114960   5.395   6.686   4.540
 4687SOL    HW214961   5.366   6.773   4.675
 4688SOL     OW14962   1.006   2.186   0.057
 4688SOL    HW114963   1.033   2.274   0.018
 4688SOL    HW214964   0.946   2.138   7.018
 4689SOL     OW14965   1.484   5.116   4.781
 4689SOL    HW114966   1.434   5.032   4.758
 4689SOL    HW214967   1.426   5.195   4.760
 4690SOL     OW14968   1.457   2.856   0.445
 4690SOL    HW114969   1.531   2.841   0.510
 4690SOL    HW214970   1.371   2.867   0.494
 4691SOL     OW14971   3.921   4.509   0.179
 4691SOL    HW114972   4.014   4.545   0.195
 4691SOL    HW214973   3.881   4.482   0.266
 4692SOL     OW14974   6.875   5.637   3.364
 4692SOL    HW114975   6.897   5.716   3.307
 4692SOL    HW214976   6.938   5.562   3.342
 4693SOL     OW14977   0.465   0.658   3.825
 4693SOL    HW114978   0.516   0.644   3.910
 4693SOL    HW214979   0.371   0.684   3.846
 4694SOL     OW14980   2.334   1.122   6.416
 4694SOL    HW114981   2.367   1.169   6.335
 4694SOL    HW214982   2.303   1.030   6.391
 4695SOL     OW14983   3.482   3.056   1.721
 4695SOL    HW114984   3.537   3.101   1.650
 4695SOL    HW214985   3.403   3.112   1.742
 4696SOL     OW14986   6.248   3.087   0.417
 4696SOL    HW114987   6.325   3.136   0.458
 4696SOL    HW214988   6.193   3.045   0.489
 4697SOL     OW14989   0.680   5.006   0.239
 4697SOL    HW114990   0.660   5.024   0.143
 4697SOL    HW214991   0.670   5.091   0.291
 4698SOL     OW14992   5.859   3.250   1.601
 4698SOL    HW114993   5.799   3.300   1.663
 4698SOL    HW214994   5.843   3.152   1.611
 4699SOL     OW14995   6.436   0.365   3.572
 4699SOL    HW114996   6.401   0.390   3.482
 4699SOL    HW214997   6.385   0.415   3.642
 4700SOL     OW14998   6.015   0.191   0.872
 4700SOL    HW114999   6.051   0.238   0.791
 4700SOL    HW215000   6.075   0.114   0.894
 4701SOL     OW15001   0.690   1.050   0.339
 4701SOL    HW115002   0.777   1.083   0.376
 4701SOL    HW215003   0.622   1.046   0.411
 4702SOL     OW15004   3.061   3.674   6.897
 4702SOL    HW115005   3.051   3.584   6.940
 4702SOL    HW215006   2.981   3.730   6.918
 4703SOL     OW15007   1.472   1.537   1.836
 4703SOL    HW115008   1.500   1.443   1.857
 4703SOL    HW215009   1.473   1.591   1.920
 4704SOL     OW15010   4.470   6.880   0.238
 4704SOL    HW115011   4.462   6.954   0.172
 4704SOL    HW215012   4.380   6.861   0.278
 4705SOL     OW15013   3.636   4.131   3.886
 4705SOL    HW115014   3.690   4.084   3.817
 4705SOL    HW215015   3.668   4.106   3.977
 4706SOL     OW15016   4.685   5.430   0.807
 4706SOL    HW115017   4.713   5.436   0.711
 4706SOL    HW215018   4.724   5.507   0.858
 4707SOL     OW15019   3.270   6.300   1.016
 4707SOL    HW115020   3.343   6.271   1.079
 4707SOL    HW215021   3.257   6.399   1.024
 4708SOL     OW15022   2.093   2.377   2.155
 4708SOL    HW115023   2.026   2.399   2.084
 4708SOL    HW215024   2.102   2.278   2.163
 4709SOL     OW15025   4.111   4.026   6.420
 4709SOL    HW115026   4.059   4.050   6.503
 4709SOL    HW215027   4.209   4.033   6.439
 4710SOL     OW15028   5.400   2.052   0.808
 4710SOL    HW115029   5.402   2.075   0.905
 4710SOL    HW215030   5.492   2.026   0.779
 4711SOL     OW15031   2.922   6.805   3.105
 4711SOL    HW115032   2.834   6.763   3.129
 4711SOL    HW215033   2.905   6.887   3.050
 4712SOL     OW15034   1.126   4.623   0.133
 4712SOL    HW115035   1.115   4.588   0.226
 4712SOL    HW215036   1.201   4.688   0.130
 4713SOL     OW15037   2.804   5.398   0.863
 4713SOL    HW115038   2.790   5.489   0.902
 4713SOL    HW215039   2.873   5.403   0.791
 4714SOL     OW15040   3.556   2.650   0.638
 4714SOL    HW115041   3.520   2.602   0.558
 4714SOL    HW215042   3.536   2.597   0.720
 4715SOL     OW15043   5.782   4.032   4.505
 4715SOL    HW115044   5.783   3.943   4.552
 4715SOL    HW215045   5.875   4.056   4.477
 4716SOL     OW15046   3.405   5.589   0.375
 4716SOL    HW115047   3.373   5.603   0.282
 4716SOL    HW215048   3.472   5.660   0.398
 4717SOL     OW15049   1.071   5.648   3.592
 4717SOL    HW115050   1.110   5.736   3.568
 4717SOL    HW215051   1.063   5.591   3.510
 4718SOL     OW15052   6.123   1.096   6.445
 4718SOL    HW115053   6.082   1.161   6.380
 4718SOL    HW215054   6.216   1.074   6.415
 4719SOL     OW15055   4.383   2.822   1.278
 4719SOL    HW115056   4.400   2.872   1.193
 4719SOL    HW215057   4.416   2.876   1.355
 4720SOL     OW15058   2.914   0.648   4.078
 4720SOL    HW115059   2.956   0.736   4.054
 4720SOL    HW215060   2.860   0.614   4.000
 4721SOL     OW15061   1.413   2.185   1.344
 4721SOL    HW115062   1.348   2.179   1.420
 4721SOL    HW215063   1.409   2.277   1.304
 4722SOL     OW15064   2.781   0.336   1.698
 4722SOL    HW115065   2.720   0.404   1.659
 4722SOL    HW215066   2.764   0.247   1.655
 4723SOL     OW15067   3.106   7.000   6.659
 4723SOL    HW115068   3.008   7.012   6.644
 4723SOL    HW215069   3.146   6.953   6.580
 4724SOL     OW15070   3.741   5.194   1.940
 4724SOL    HW115071   3.770   5.101   1.917
 4724SOL    HW215072   3.695   5.194   2.028
 4725SOL     OW15073   5.703   5.256   3.474
 4725SOL    HW115074   5.717   5.157   3.484
 4725SOL    HW215075   5.615   5.281   3.515
 4726SOL     OW15076   0.871   6.096   5.987
 4726SOL    HW115077   0.782   6.054   6.000
 4726SOL    HW215078   0.933   6.030   5.945
 4727SOL     OW15079   0.137   6.693   0.527
 4727SOL    HW115080   0.131   6.737   0.616
 4727SOL    HW215081   0.220   6.723   0.480
 4728SOL     OW15082   0.254   1.493   6.856
 4728SOL    HW115083   0.154   1.483   6.855
 4728SOL    HW215084   0.296   1.406   6.830
 4729SOL     OW15085   3.221   0.492   0.769
 4729SOL    HW115086   3.319   0.477   0.775
 4729SOL    HW215087   3.191   0.484   0.674
 4730SOL     OW15088   1.731   6.588   5.173
 4730SOL    HW115089   1.784   6.519   5.223
 4730SOL    HW215090   1.662   6.542   5.117
 4731SOL     OW15091   5.645   1.941   5.826
 4731SOL    HW115092   5.669   1.894   5.911
 4731SOL    HW215093   5.683   2.033   5.828
 4732SOL     OW15094   0.318   1.836   0.648
 4732SOL    HW115095   0.405   1.872   0.614
 4732SOL    HW215096   0.303   1.869   0.741
 4733SOL     OW15097   6.593   3.092   4.249
 4733SOL    HW115098   6.508   3.063   4.294
 4733SOL    HW215099   6.657   3.127   4.318
 4734SOL     OW15100   4.109   4.541   5.931
 4734SOL    HW115101   4.111   4.603   6.010
 4734SOL    HW215102   4.070   4.453   5.960
 4735SOL     OW15103   0.354   4.883   3.573
 4735SOL    HW115104   0.330   4.786   3.573
 4735SOL    HW215105   0.376   4.912   3.666
 4736SOL     OW15106   1.544   0.908   1.272
 4736SOL    HW115107   1.490   0.991   1.266
 4736SOL    HW215108   1.488   0.829   1.246
 4737SOL     OW15109   3.052   5.416   1.543
 4737SOL    HW115110   3.026   5.494   1.600
 4737SOL    HW215111   3.090   5.343   1.600
 4738SOL     OW15112   6.856   6.644   2.697
 4738SOL    HW115113   6.918   6.717   2.724
 4738SOL    HW215114   6.895   6.593   2.621
 4739SOL     OW15115   4.624   0.537   1.331
 4739SOL    HW115116   4.696   0.592   1.374
 4739SOL    HW215117   4.627   0.444   1.367
 4740SOL     OW15118   0.810   2.329   3.944
 4740SOL    HW115119   0.910   2.331   3.939
 4740SOL    HW215120   0.781   2.335   4.040
 4741SOL     OW15121   3.925   4.371   1.228
 4741SOL    HW115122   3.848   4.392   1.167
 4741SOL    HW215123   3.930   4.440   1.300
 4742SOL     OW15124   3.371   0.757   0.586
 4742SOL    HW115125   3.279   0.795   0.573
 4742SOL    HW215126   3.371   0.661   0.556
 4743SOL     OW15127   1.591   4.547   1.047
 4743SOL    HW115128   1.588   4.507   1.138
 4743SOL    HW215129   1.504   4.591   1.026
 4744SOL     OW15130   2.453   5.769   1.527
 4744SOL    HW115131   2.552   5.753   1.534
 4744SOL    HW215132   2.409   5.685   1.494
 4745SOL     OW15133   0.595   3.972   0.148
 4745SOL    HW115134   0.593   4.042   0.076
 4745SOL    HW215135   0.516   3.912   0.137
 4746SOL     OW15136   4.342   5.834   4.363
 4746SOL    HW115137   4.286   5.876   4.434
 4746SOL    HW215138   4.438   5.839   4.389
 4747SOL     OW15139   1.841   1.507   6.967
 4747SOL    HW115140   1.807   1.588   7.016
 4747SOL    HW215141   1.883   1.444   0.008
 4748SOL     OW15142   1.752   6.563   1.918
 4748SOL    HW115143   1.784   6.469   1.930
 4748SOL    HW215144   1.654   6.563   1.899
 4749SOL     OW15145   3.328   2.055   0.141
 4749SOL    HW115146   3.349   2.129   0.078
 4749SOL    HW215147   3.285   2.093   0.223
 4750SOL     OW15148   5.009   2.900   5.704
 4750SOL    HW115149   4.920   2.944   5.690
 4750SOL    HW215150   5.081   2.961   5.670
 4751SOL     OW15151   4.740   0.708   3.230
 4751SOL    HW115152   4.826   0.679   3.272
 4751SOL    HW215153   4.673   0.730   3.302
 4752SOL     OW15154   4.882   2.179   6.609
 4752SOL    HW115155   4.791   2.165   6.648
 4752SOL    HW215156   4.908   2.275   6.618
 4753SOL     OW15157   2.928   6.068   4.686
 4753SOL    HW115158   2.849   6.116   4.648
 4753SOL    HW215159   2.912   6.051   4.783
 4754SOL     OW15160   4.559   4.395   6.324
 4754SOL    HW115161   4.649   4.415   6.287
 4754SOL    HW215162   4.566   4.323   6.393
 4755SOL     OW15163   0.643   1.192   1.695
 4755SOL    HW115164   0.742   1.195   1.708
 4755SOL    HW215165   0.621   1.129   1.620
 4756SOL     OW15166   6.355   4.081   5.921
 4756SOL    HW115167   6.424   4.024   5.965
 4756SOL    HW215168   6.398   4.135   5.849
 4757SOL     OW15169   1.688   3.539   0.640
 4757SOL    HW115170   1.782   3.555   0.607
 4757SOL    HW215171   1.645   3.627   0.661
 4758SOL     OW15172   2.373   6.385   3.162
 4758SOL    HW115173   2.338   6.325   3.234
 4758SOL    HW215174   2.423   6.331   3.094
 4759SOL     OW15175   0.133   6.220   1.431
 4759SOL    HW115176   0.185   6.285   1.376
 4759SOL    HW215177   0.114   6.261   1.521
 4760SOL     OW15178   1.421   5.902   0.569
 4760SOL    HW115179   1.411   5.825   0.506
 4760SOL    HW215180   1.401   5.987   0.521
 4761SOL     OW15181   5.881   6.403   1.740
 4761SOL    HW115182   5.919   6.487   1.780
 4761SOL    HW215183   5.929   6.324   1.776
 4762SOL     OW15184   1.740   0.676   2.364
 4762SOL    HW115185   1.807   0.687   2.437
 4762SOL    HW215186   1.769   0.604   2.301
 4763SOL     OW15187   5.421   5.289   2.229
 4763SOL    HW115188   5.354   5.330   2.291
 4763SOL    HW215189   5.405   5.322   2.136
 4764SOL     OW15190   5.113   2.561   0.552
 4764SOL    HW115191   5.061   2.503   0.489
 4764SOL    HW215192   5.106   2.523   0.645
 4765SOL     OW15193   4.116   1.513   5.254
 4765SOL    HW115194   4.085   1.424   5.221
 4765SOL    HW215195   4.145   1.506   5.349
 4766SOL     OW15196   0.766   0.501   4.703
 4766SOL    HW115197   0.725   0.452   4.626
 4766SOL    HW215198   0.701   0.504   4.779
 4767SOL     OW15199   2.245   4.077   3.216
 4767SOL    HW115200   2.181   4.149   3.242
 4767SOL    HW215201   2.255   4.077   3.116
 4768SOL     OW15202   4.720   2.912   6.430
 4768SOL    HW115203   4.789   2.843   6.454
 4768SOL    HW215204   4.755   3.003   6.454
 4769SOL     OW15205   1.949   3.545   0.585
 4769SOL    HW115206   2.007   3.626   0.580
 4769SOL    HW215207   1.963   3.489   0.503
 4770SOL     OW15208   0.152   1.501   4.175
 4770SOL    HW115209   0.232   1.559   4.161
 4770SOL    HW215210   0.076   1.557   4.210
 4771SOL     OW15211   1.654   6.995   4.159
 4771SOL    HW115212   1.665   6.984   4.060
 4771SOL    HW215213   1.559   7.018   4.179
 4772SOL     OW15214   3.317   5.148   2.048
 4772SOL    HW115215   3.219   5.163   2.040
 4772SOL    HW215216   3.352   5.198   2.128
 4773SOL     OW15217   2.652   5.320   4.699
 4773SOL    HW115218   2.635   5.275   4.611
 4773SOL    HW215219   2.614   5.265   4.773
 4774SOL     OW15220   1.055   4.346   0.254
 4774SOL    HW115221   1.002   4.283   0.311
 4774SOL    HW215222   1.046   4.320   0.158
 4775SOL     OW15223   5.895   6.322   5.707
 4775SOL    HW115224   5.930   6.248   5.650
 4775SOL    HW215225   5.818   6.367   5.660
 4776SOL     OW15226   0.193   1.184   6.255
 4776SOL    HW115227   0.284   1.144   6.259
 4776SOL    HW215228   0.198   1.274   6.212
 4777SOL     OW15229   1.985   0.033   2.602
 4777SOL    HW115230   1.977   0.003   2.507
 4777SOL    HW215231   1.912   0.098   2.623
 4778SOL     OW15232   2.169   1.066   0.109
 4778SOL    HW115233   2.246   1.125   0.130
 4778SOL    HW215234   2.174   0.983   0.164
 4779SOL     OW15235   5.296   0.287   4.741
 4779SOL    HW115236   5.298   0.355   4.667
 4779SOL    HW215237   5.320   0.332   4.827
 4780SOL     OW15238   5.028   2.604   5.765
 4780SOL    HW115239   4.956   2.582   5.831
 4780SOL    HW215240   5.012   2.695   5.727
 4781SOL     OW15241   2.457   6.291   2.012
 4781SOL    HW115242   2.391   6.256   1.945
 4781SOL    HW215243   2.510   6.214   2.048
 4782SOL     OW15244   6.613   6.986   4.513
 4782SOL    HW115245   6.706   7.009   4.484
 4782SOL    HW215246   6.548   0.023   4.468
 4783SOL     OW15247   0.031   3.580   5.984
 4783SOL    HW115248   6.973   3.619   6.024
 4783SOL    HW215249   0.079   3.650   5.933
 4784SOL     OW15250   5.245   3.089   6.619
 4784SOL    HW115251   5.299   3.167   6.651
 4784SOL    HW215252   5.255   3.013   6.682
 4785SOL     OW15253   0.112   6.944   4.985
 4785SOL    HW115254   0.147   6.870   4.928
 4785SOL    HW215255   0.127   0.007   4.939
 4786SOL     OW15256   0.780   6.132   0.583
 4786SOL    HW115257   0.687   6.103   0.561
 4786SOL    HW215258   0.842   6.054   0.575
 4787SOL     OW15259   3.925   1.592   4.166
 4787SOL    HW115260   3.950   1.525   4.097
 4787SOL    HW215261   3.990   1.668   4.164
 4788SOL     OW15262   6.963   6.113   0.327
 4788SOL    HW115263   6.956   6.119   0.426
 4788SOL    HW215264   6.872   6.121   0.286
 4789SOL     OW15265   5.732   0.954   2.814
 4789SOL    HW115266   5.659   0.917   2.872
 4789SOL    HW215267   5.692   0.993   2.731
 4790SOL     OW15268   6.843   1.912   5.035
 4790SOL    HW115269   6.822   1.839   4.970
 4790SOL    HW215270   6.897   1.982   4.988
 4791SOL     OW15271   0.885   0.293   0.618
 4791SOL    HW115272   0.846   0.325   0.704
 4791SOL    HW215273   0.985   0.295   0.624
 4792SOL     OW15274   2.099   3.539   2.507
 4792SOL    HW115275   2.132   3.445   2.510
 4792SOL    HW215276   2.058   3.557   2.417
 4793SOL     OW15277   0.843   3.486   5.634
 4793SOL    HW115278   0.886   3.467   5.546
 4793SOL    HW215279   0.765   3.548   5.620
 4794SOL     OW15280   4.428   1.988   4.590
 4794SOL    HW115281   4.368   2.013   4.513
 4794SOL    HW215282   4.390   2.024   4.675
 4795SOL     OW15283   0.056   0.825   6.476
 4795SOL    HW115284   7.002   0.880   6.505
 4795SOL    HW215285   0.125   0.825   6.548
 4796SOL     OW15286   4.572   1.162   5.650
 4796SOL    HW115287   4.655   1.144   5.597
 4796SOL    HW215288   4.531   1.248   5.620
 4797SOL     OW15289   1.666   5.221   5.628
 4797SOL    HW115290   1.688   5.150   5.561
 4797SOL    HW215291   1.640   5.178   5.715
 4798SOL     OW15292   4.070   5.489   0.095
 4798SOL    HW115293   4.092   5.406   0.144
 4798SOL    HW215294   3.982   5.479   0.048
 4799SOL     OW15295   4.582   2.566   6.725
 4799SOL    HW115296   4.537   2.508   6.657
 4799SOL    HW215297   4.533   2.653   6.731
 4800SOL     OW15298   0.210   4.394   0.151
 4800SOL    HW115299   0.165   4.380   0.239
 4800SOL    HW215300   0.292   4.449   0.163
 4801SOL     OW15301   4.931   2.505   1.766
 4801SOL    HW115302   4.999   2.528   1.697
 4801SOL    HW215303   4.841   2.500   1.724
 4802SOL     OW15304   6.479   0.202   4.391
 4802SOL    HW115305   6.410   0.219   4.321
 4802SOL    HW215306   6.452   0.245   4.477
 4803SOL     OW15307   5.074   3.783   6.229
 4803SOL    HW115308   5.111   3.860   6.281
 4803SOL    HW215309   4.975   3.788   6.228
 4804SOL     OW15310   5.310   1.840   0.446
 4804SOL    HW115311   5.261   1.799   0.369
 4804SOL    HW215312   5.246   1.892   0.503
 4805SOL     OW15313   6.313   1.688   0.132
 4805SOL    HW115314   6.399   1.659   0.090
 4805SOL    HW215315   6.305   1.787   0.126
 4806SOL     OW15316   1.226   1.340   3.551
 4806SOL    HW115317   1.308   1.314   3.601
 4806SOL    HW215318   1.230   1.304   3.458
 4807SOL     OW15319   0.274   4.233   5.645
 4807SOL    HW115320   0.335   4.306   5.615
 4807SOL    HW215321   0.184   4.272   5.666
 4808SOL     OW15322   3.851   5.835   1.458
 4808SOL    HW115323   3.857   5.844   1.558
 4808SOL    HW215324   3.761   5.866   1.427
 4809SOL     OW15325   3.059   3.841   1.725
 4809SOL    HW115326   3.121   3.836   1.804
 4809SOL    HW215327   3.072   3.928   1.678
 4810SOL     OW15328   1.209   5.411   4.164
 4810SOL    HW115329   1.287   5.397   4.226
 4810SOL    HW215330   1.236   5.476   4.093
 4811SOL     OW15331   3.222   3.476   4.268
 4811SOL    HW115332   3.123   3.471   4.256
 4811SOL    HW215333   3.250   3.413   4.340
 4812SOL     OW15334   1.276   0.524   2.996
 4812SOL    HW115335   1.263   0.560   3.089
 4812SOL    HW215336   1.326   0.592   2.942
 4813SOL     OW15337   0.086   1.638   5.586
 4813SOL    HW115338   0.082   1.542   5.557
 4813SOL    HW215339   0.163   1.683   5.540
 4814SOL     OW15340   6.419   3.781   1.407
 4814SOL    HW115341   6.344   3.846   1.394
 4814SOL    HW215342   6.451   3.786   1.502
 4815SOL     OW15343   5.907   4.624   2.037
 4815SOL    HW115344   5.831   4.565   2.063
 4815SOL    HW215345   5.990   4.569   2.027
 4816SOL     OW15346   3.180   1.003   2.569
 4816SOL    HW115347   3.245   1.041   2.634
 4816SOL    HW215348   3.091   1.046   2.581
 4817SOL     OW15349   4.126   1.605   0.953
 4817SOL    HW115350   4.073   1.613   1.037
 4817SOL    HW215351   4.198   1.674   0.952
 4818SOL     OW15352   4.403   0.007   4.893
 4818SOL    HW115353   4.320   0.055   4.865
 4818SOL    HW215354   4.449   6.995   4.813
 4819SOL     OW15355   3.080   0.761   0.743
 4819SOL    HW115356   2.991   0.725   0.716
 4819SOL    HW215357   3.128   0.691   0.797
 4820SOL     OW15358   5.761   4.148   1.861
 4820SOL    HW115359   5.710   4.089   1.924
 4820SOL    HW215360   5.748   4.116   1.767
 4821SOL     OW15361   0.256   5.411   1.481
 4821SOL    HW115362   0.238   5.450   1.571
 4821SOL    HW215363   0.247   5.483   1.412
 4822SOL     OW15364   0.709   3.949   1.998
 4822SOL    HW115365   0.783   3.915   1.940
 4822SOL    HW215366   0.629   3.888   1.990
 4823SOL     OW15367   1.716   1.378   3.904
 4823SOL    HW115368   1.698   1.289   3.946
 4823SOL    HW215369   1.800   1.373   3.850
 4824SOL     OW15370   5.506   2.766   1.541
 4824SOL    HW115371   5.410   2.781   1.516
 4824SOL    HW215372   5.555   2.852   1.538
 4825SOL     OW15373   0.177   3.225   3.491
 4825SOL    HW115374   0.274   3.213   3.468
 4825SOL    HW215375   0.162   3.197   3.585
 4826SOL     OW15376   0.018   6.408   6.855
 4826SOL    HW115377   0.041   6.472   6.781
 4826SOL    HW215378   0.011   6.457   6.941
 4827SOL     OW15379   5.691   1.286   1.304
 4827SOL    HW115380   5.627   1.210   1.320
 4827SOL    HW215381   5.784   1.256   1.325
 4828SOL     OW15382   4.926   3.374   6.737
 4828SOL    HW115383   4.980   3.369   6.652
 4828SOL    HW215384   4.932   3.287   6.785
 4829SOL     OW15385   3.511   0.144   5.149
 4829SOL    HW115386   3.438   0.212   5.146
 4829SOL    HW215387   3.589   0.177   5.096
 4830SOL     OW15388   4.080   6.226   4.939
 4830SOL    HW115389   3.994   6.263   4.973
 4830SOL    HW215390   4.072   6.209   4.841
 4831SOL     OW15391   6.602   3.760   5.764
 4831SOL    HW115392   6.673   3.794   5.701
 4831SOL    HW215393   6.527   3.721   5.711
 4832SOL     OW15394   2.182   2.692   6.216
 4832SOL    HW115395   2.162   2.599   6.247
 4832SOL    HW215396   2.221   2.689   6.124
 4833SOL     OW15397   5.639   1.736   2.800
 4833SOL    HW115398   5.605   1.829   2.786
 4833SOL    HW215399   5.736   1.731   2.775
 4834SOL     OW15400   5.274   1.052   2.880
 4834SOL    HW115401   5.232   1.091   2.961
 4834SOL    HW215402   5.318   0.965   2.903
 4835SOL     OW15403   2.266   0.625   5.478
 4835SOL    HW115404   2.342   0.591   5.534
 4835SOL    HW215405   2.180   0.609   5.526
 4836SOL     OW15406   5.350   2.732   2.145
 4836SOL    HW115407   5.396   2.700   2.062
 4836SOL    HW215408   5.255   2.755   2.124
 4837SOL     OW15409   0.392   4.123   0.865
 4837SOL    HW115410   0.442   4.084   0.943
 4837SOL    HW215411   0.452   4.186   0.815
 4838SOL     OW15412   2.589   5.586   2.454
 4838SOL    HW115413   2.538   5.501   2.470
 4838SOL    HW215414   2.686   5.565   2.444
 4839SOL     OW15415   0.836   6.994   0.063
 4839SOL    HW115416   0.761   0.018   0.019
 4839SOL    HW215417   0.842   6.902   0.026
 4840SOL     OW15418   6.552   6.432   6.895
 4840SOL    HW115419   6.510   6.494   6.828
 4840SOL    HW215420   6.499   6.347   6.899
 4841SOL     OW15421   2.419   6.020   2.596
 4841SOL    HW115422   2.432   6.098   2.657
 4841SOL    HW215423   2.414   5.936   2.650
 4842SOL     OW15424   3.573   6.675   1.248
 4842SOL    HW115425   3.581   6.724   1.335
 4842SOL    HW215426   3.486   6.697   1.206
 4843SOL     OW15427   0.682   2.966   6.857
 4843SOL    HW115428   0.645   2.877   6.882
 4843SOL    HW215429   0.716   3.012   6.939
 4844SOL     OW15430   0.456   1.266   5.643
 4844SOL    HW115431   0.358   1.272   5.663
 4844SOL    HW215432   0.489   1.354   5.611
 4845SOL     OW15433   5.823   5.042   3.884
 4845SOL    HW115434   5.781   5.128   3.855
 4845SOL    HW215435   5.796   4.969   3.821
 4846SOL     OW15436   0.674   5.475   0.528
 4846SOL    HW115437   0.769   5.506   0.536
 4846SOL    HW215438   0.617   5.552   0.499
 4847SOL     OW15439   4.829   2.316   4.520
 4847SOL    HW115440   4.743   2.331   4.570
 4847SOL    HW215441   4.815   2.248   4.449
 4848SOL     OW15442   2.975   2.044   2.111
 4848SOL    HW115443   2.891   1.990   2.109
 4848SOL    HW215444   2.957   2.136   2.075
 4849SOL     OW15445   0.886   6.673   6.739
 4849SOL    HW115446   0.848   6.766   6.729
 4849SOL    HW215447   0.875   6.624   6.653
 4850SOL     OW15448   3.603   0.587   2.361
 4850SOL    HW115449   3.689   0.538   2.344
 4850SOL    HW215450   3.588   0.595   2.459
 4851SOL     OW15451   5.613   0.692   5.383
 4851SOL    HW115452   5.581   0.615   5.327
 4851SOL    HW215453   5.603   0.777   5.331
 4852SOL     OW15454   1.631   1.954   1.009
 4852SOL    HW115455   1.636   2.037   0.953
 4852SOL    HW215456   1.719   1.937   1.052
 4853SOL     OW15457   3.040   1.542   1.585
 4853SOL    HW115458   3.036   1.637   1.615
 4853SOL    HW215459   3.055   1.483   1.664
 4854SOL     OW15460   4.091   0.031   0.131
 4854SOL    HW115461   4.081   0.081   0.217
 4854SOL    HW215462   4.055   0.087   0.056
 4855SOL     OW15463   0.050   2.488   2.544
 4855SOL    HW115464   6.997   2.454   2.598
 4855SOL    HW215465   0.066   2.584   2.567
 4856SOL     OW15466   2.103   4.323   3.241
 4856SOL    HW115467   2.027   4.298   3.301
 4856SOL    HW215468   2.154   4.398   3.282
 4857SOL     OW15469   0.290   1.677   6.068
 4857SOL    HW115470   0.217   1.677   5.999
 4857SOL    HW215471   0.283   1.595   6.123
 4858SOL     OW15472   1.182   1.071   3.753
 4858SOL    HW115473   1.092   1.044   3.787
 4858SOL    HW215474   1.202   1.022   3.669
 4859SOL     OW15475   3.041   5.262   5.626
 4859SOL    HW115476   3.109   5.245   5.697
 4859SOL    HW215477   3.086   5.267   5.537
 4860SOL     OW15478   4.588   4.571   0.653
 4860SOL    HW115479   4.594   4.472   0.668
 4860SOL    HW215480   4.545   4.614   0.733
 4861SOL     OW15481   4.873   3.745   5.628
 4861SOL    HW115482   4.815   3.699   5.696
 4861SOL    HW215483   4.933   3.678   5.585
 4862SOL     OW15484   1.256   6.491   1.743
 4862SOL    HW115485   1.287   6.401   1.712
 4862SOL    HW215486   1.239   6.550   1.663
 4863SOL     OW15487   5.545   4.327   6.741
 4863SOL    HW115488   5.600   4.257   6.786
 4863SOL    HW215489   5.450   4.294   6.733
 4864SOL     OW15490   3.179   0.751   3.653
 4864SOL    HW115491   3.211   0.830   3.601
 4864SOL    HW215492   3.079   0.748   3.649
 4865SOL     OW15493   2.328   6.333   5.072
 4865SOL    HW115494   2.402   6.399   5.059
 4865SOL    HW215495   2.262   6.369   5.138
 4866SOL     OW15496   6.291   3.921   6.626
 4866SOL    HW115497   6.197   3.956   6.625
 4866SOL    HW215498   6.291   3.825   6.597
 4867SOL     OW15499   4.743   6.890   3.037
 4867SOL    HW115500   4.797   6.887   3.121
 4867SOL    HW215501   4.796   6.935   2.964
 4868SOL     OW15502   6.710   4.625   1.609
 4868SOL    HW115503   6.638   4.631   1.679
 4868SOL    HW215504   6.765   4.708   1.611
 4869SOL     OW15505   0.940   0.598   0.575
 4869SOL    HW115506   0.976   0.672   0.517
 4869SOL    HW215507   0.926   0.516   0.520
 4870SOL     OW15508   0.358   5.986   2.001
 4870SOL    HW115509   0.399   5.901   2.034
 4870SOL    HW215510   0.411   6.020   1.923
 4871SOL     OW15511   1.774   1.804   4.093
 4871SOL    HW115512   1.781   1.868   4.016
 4871SOL    HW215513   1.710   1.840   4.161
 4872SOL     OW15514   5.610   6.321   3.059
 4872SOL    HW115515   5.554   6.394   3.019
 4872SOL    HW215516   5.609   6.330   3.159
 4873SOL     OW15517   6.321   5.594   5.524
 4873SOL    HW115518   6.229   5.613   5.490
 4873SOL    HW215519   6.379   5.567   5.448
 4874SOL     OW15520   5.040   2.943   3.237
 4874SOL    HW115521   5.089   3.020   3.195
 4874SOL    HW215522   5.094   2.860   3.229
 4875SOL     OW15523   5.514   5.921   5.327
 4875SOL    HW115524   5.579   5.969   5.385
 4875SOL    HW215525   5.561   5.847   5.279
 4876SOL     OW15526   1.304   1.140   2.536
 4876SOL    HW115527   1.251   1.082   2.475
 4876SOL    HW215528   1.330   1.088   2.618
 4877SOL     OW15529   6.859   1.294   5.458
 4877SOL    HW115530   6.824   1.378   5.500
 4877SOL    HW215531   6.796   1.264   5.386
 4878SOL     OW15532   6.915   2.593   2.335
 4878SOL    HW115533   6.869   2.507   2.315
 4878SOL    HW215534   6.994   2.576   2.393
 4879SOL     OW15535   5.551   1.330   2.844
 4879SOL    HW115536   5.458   1.321   2.879
 4879SOL    HW215537   5.610   1.261   2.885
 4880SOL     OW15538   6.681   3.112   6.340
 4880SOL    HW115539   6.582   3.105   6.350
 4880SOL    HW215540   6.719   3.023   6.316
 4881SOL     OW15541   1.875   2.381   1.540
 4881SOL    HW115542   1.925   2.425   1.615
 4881SOL    HW215543   1.927   2.303   1.506
 4882SOL     OW15544   4.168   2.050   4.279
 4882SOL    HW115545   4.151   2.088   4.370
 4882SOL    HW215546   4.261   2.072   4.251
 4883SOL     OW15547   6.180   4.170   0.757
 4883SOL    HW115548   6.128   4.149   0.840
 4883SOL    HW215549   6.117   4.199   0.685
 4884SOL     OW15550   2.411   0.119   1.203
 4884SOL    HW115551   2.398   0.151   1.109
 4884SOL    HW215552   2.366   0.183   1.266
 4885SOL     OW15553   1.500   4.412   0.127
 4885SOL    HW115554   1.527   4.378   0.218
 4885SOL    HW215555   1.542   4.355   0.057
 4886SOL     OW15556   2.453   1.235   1.919
 4886SOL    HW115557   2.447   1.297   1.997
 4886SOL    HW215558   2.363   1.226   1.876
 4887SOL     OW15559   6.147   6.435   1.271
 4887SOL    HW115560   6.064   6.488   1.256
 4887SOL    HW215561   6.165   6.378   1.191
 4888SOL     OW15562   3.929   7.009   2.867
 4888SOL    HW115563   3.939   6.950   2.947
 4888SOL    HW215564   3.851   6.978   2.813
 4889SOL     OW15565   6.906   3.093   3.809
 4889SOL    HW115566   6.814   3.100   3.770
 4889SOL    HW215567   6.902   3.042   3.895
 4890SOL     OW15568   6.432   1.367   4.821
 4890SOL    HW115569   6.523   1.335   4.846
 4890SOL    HW215570   6.374   1.370   4.903
 4891SOL     OW15571   2.674   5.265   6.282
 4891SOL    HW115572   2.634   5.182   6.242
 4891SOL    HW215573   2.751   5.295   6.225
 4892SOL     OW15574   4.740   5.789   2.953
 4892SOL    HW115575   4.670   5.830   3.012
 4892SOL    HW215576   4.696   5.740   2.878
 4893SOL     OW15577   0.832   3.500   1.285
 4893SOL    HW115578   0.899   3.542   1.346
 4893SOL    HW215579   0.766   3.568   1.255
 4894SOL     OW15580   5.201   7.019   1.869
 4894SOL    HW115581   5.141   0.018   1.792
 4894SOL    HW215582   5.202   6.920   1.880
 4895SOL     OW15583   0.276   4.430   4.917
 4895SOL    HW115584   0.285   4.334   4.891
 4895SOL    HW215585   0.265   4.437   5.016
 4896SOL     OW15586   2.022   4.822   4.664
 4896SOL    HW115587   1.965   4.887   4.615
 4896SOL    HW215588   2.069   4.868   4.740
 4897SOL     OW15589   1.913   6.466   5.387
 4897SOL    HW115590   1.983   6.484   5.318
 4897SOL    HW215591   1.890   6.369   5.386
 4898SOL     OW15592   5.043   1.448   3.486
 4898SOL    HW115593   5.103   1.485   3.416
 4898SOL    HW215594   5.054   1.501   3.570
 4899SOL     OW15595   6.719   6.599   1.989
 4899SOL    HW115596   6.723   6.564   2.082
 4899SOL    HW215597   6.788   6.671   1.978
 4900SOL     OW15598   3.841   6.006   5.733
 4900SOL    HW115599   3.770   6.071   5.707
 4900SOL    HW215600   3.930   6.051   5.730
 4901SOL     OW15601   1.297   1.280   6.060
 4901SOL    HW115602   1.228   1.213   6.088
 4901SOL    HW215603   1.269   1.323   5.974
 4902SOL     OW15604   1.956   6.669   5.553
 4902SOL    HW115605   1.917   6.749   5.507
 4902SOL    HW215606   1.934   6.587   5.499
 4903SOL     OW15607   4.856   4.091   2.567
 4903SOL    HW115608   4.790   4.111   2.639
 4903SOL    HW215609   4.869   3.992   2.560
 4904SOL     OW15610   1.484   6.849   0.492
 4904SOL    HW115611   1.531   6.897   0.566
 4904SOL    HW215612   1.549   6.790   0.444
 4905SOL     OW15613   2.993   6.188   3.296
 4905SOL    HW115614   2.917   6.248   3.320
 4905SOL    HW215615   3.029   6.145   3.378
 4906SOL     OW15616   4.957   3.373   5.014
 4906SOL    HW115617   4.949   3.337   4.921
 4906SOL    HW215618   4.904   3.458   5.021
 4907SOL     OW15619   4.637   1.630   0.037
 4907SOL    HW115620   4.552   1.657   7.017
 4907SOL    HW215621   4.623   1.631   0.136
 4908SOL     OW15622   3.945   6.957   6.757
 4908SOL    HW115623   3.869   6.933   6.817
 4908SOL    HW215624   3.912   6.969   6.664
 4909SOL     OW15625   5.173   4.769   4.473
 4909SOL    HW115626   5.184   4.780   4.374
 4909SOL    HW215627   5.090   4.816   4.503
 4910SOL     OW15628   4.593   2.307   6.002
 4910SOL    HW115629   4.622   2.386   6.057
 4910SOL    HW215630   4.669   2.243   5.992
 4911SOL     OW15631   6.563   2.466   2.237
 4911SOL    HW115632   6.527   2.559   2.230
 4911SOL    HW215633   6.489   2.400   2.223
 4912SOL     OW15634   5.679   2.893   3.878
 4912SOL    HW115635   5.700   2.894   3.976
 4912SOL    HW215636   5.616   2.818   3.858
 4913SOL     OW15637   0.706   3.801   5.738
 4913SOL    HW115638   0.737   3.797   5.643
 4913SOL    HW215639   0.606   3.805   5.740
 4914SOL     OW15640   4.475   0.526   3.414
 4914SOL    HW115641   4.569   0.508   3.442
 4914SOL    HW215642   4.419   0.544   3.495
 4915SOL     OW15643   3.249   5.128   5.778
 4915SOL    HW115644   3.278   5.069   5.703
 4915SOL    HW215645   3.329   5.161   5.827
 4916SOL     OW15646   5.683   2.498   4.190
 4916SOL    HW115647   5.625   2.507   4.109
 4916SOL    HW215648   5.639   2.543   4.268
 4917SOL     OW15649   4.283   6.580   0.026
 4917SOL    HW115650   4.202   6.531   0.059
 4917SOL    HW215651   4.257   6.673   0.001
 4918SOL     OW15652   6.037   4.692   2.889
 4918SOL    HW115653   6.106   4.753   2.929
 4918SOL    HW215654   5.979   4.745   2.827
 4919SOL     OW15655   3.008   3.880   2.398
 4919SOL    HW115656   3.076   3.876   2.325
 4919SOL    HW215657   2.942   3.952   2.379
 4920SOL     OW15658   6.665   1.536   5.940
 4920SOL    HW115659   6.754   1.580   5.953
 4920SOL    HW215660   6.647   1.475   6.017
 4921SOL     OW15661   0.112   0.185   2.797
 4921SOL    HW115662   0.141   0.113   2.861
 4921SOL    HW215663   0.192   0.219   2.747
 4922SOL     OW15664   3.385   1.882   6.184
 4922SOL    HW115665   3.334   1.805   6.144
 4922SOL    HW215666   3.325   1.933   6.245
 4923SOL     OW15667   3.770   1.696   1.680
 4923SOL    HW115668   3.715   1.657   1.754
 4923SOL    HW215669   3.861   1.719   1.714
 4924SOL     OW15670   2.713   0.589   5.324
 4924SOL    HW115671   2.769   0.635   5.255
 4924SOL    HW215672   2.674   0.657   5.386
 4925SOL     OW15673   5.970   6.450   3.871
 4925SOL    HW115674   5.876   6.444   3.837
 4925SOL    HW215675   5.985   6.540   3.912
 4926SOL     OW15676   5.300   2.783   1.112
 4926SOL    HW115677   5.219   2.791   1.054
 4926SOL    HW215678   5.374   2.839   1.073
 4927SOL     OW15679   3.606   1.331   6.436
 4927SOL    HW115680   3.584   1.399   6.366
 4927SOL    HW215681   3.619   1.242   6.392
 4928SOL     OW15682   6.794   2.639   1.007
 4928SOL    HW115683   6.863   2.711   1.008
 4928SOL    HW215684   6.769   2.615   1.101
 4929SOL     OW15685   0.851   6.075   5.254
 4929SOL    HW115686   0.813   6.155   5.207
 4929SOL    HW215687   0.934   6.046   5.207
 4930SOL     OW15688   5.110   6.056   2.031
 4930SOL    HW115689   5.038   5.999   2.073
 4930SOL    HW215690   5.084   6.152   2.038
 4931SOL     OW15691   6.870   5.494   0.193
 4931SOL    HW115692   6.891   5.496   0.291
 4931SOL    HW215693   6.902   5.578   0.150
 4932SOL     OW15694   3.665   3.372   2.024
 4932SOL    HW115695   3.604   3.293   2.036
 4932SOL    HW215696   3.723   3.357   1.944
 4933SOL     OW15697   2.111   6.312   5.594
 4933SOL    HW115698   2.132   6.398   5.547
 4933SOL    HW215699   2.039   6.263   5.545
 4934SOL     OW15700   3.919   5.452   2.486
 4934SOL    HW115701   3.909   5.502   2.572
 4934SOL    HW215702   3.925   5.354   2.506
 4935SOL     OW15703   0.426   1.054   6.298
 4935SOL    HW115704   0.413   0.961   6.264
 4935SOL    HW215705   0.497   1.099   6.243
 4936SOL     OW15706   3.770   2.780   0.755
 4936SOL    HW115707   3.742   2.725   0.834
 4936SOL    HW215708   3.691   2.796   0.696
 4937SOL     OW15709   4.687   2.709   5.141
 4937SOL    HW115710   4.620   2.654   5.091
 4937SOL    HW215711   4.759   2.739   5.078
 4938SOL     OW15712   4.076   5.177   5.913
 4938SOL    HW115713   4.173   5.161   5.896
 4938SOL    HW215714   4.030   5.198   5.827
 4939SOL     OW15715   4.820   3.407   6.133
 4939SOL    HW115716   4.897   3.384   6.194
 4939SOL    HW215717   4.778   3.323   6.100
 4940SOL     OW15718   1.689   5.919   4.162
 4940SOL    HW115719   1.741   5.908   4.077
 4940SOL    HW215720   1.600   5.874   4.153
 4941SOL     OW15721   5.425   0.251   1.086
 4941SOL    HW115722   5.497   0.292   1.141
 4941SOL    HW215723   5.439   0.274   0.990
 4942SOL     OW15724   5.052   3.399   5.667
 4942SOL    HW115725   5.116   3.424   5.740
 4942SOL    HW215726   4.959   3.395   5.704
 4943SOL     OW15727   5.199   2.369   1.477
 4943SOL    HW115728   5.147   2.450   1.506
 4943SOL    HW215729   5.281   2.360   1.534
 4944SOL     OW15730   2.343   4.486   2.066
 4944SOL    HW115731   2.261   4.477   2.123
 4944SOL    HW215732   2.417   4.526   2.120
 4945SOL     OW15733   0.331   6.231   4.892
 4945SOL    HW115734   0.317   6.161   4.962
 4945SOL    HW215735   0.331   6.321   4.935
 4946SOL     OW15736   0.014   4.435   2.310
 4946SOL    HW115737   0.003   4.533   2.293
 4946SOL    HW215738   0.026   4.387   2.223
 4947SOL     OW15739   6.886   0.183   1.498
 4947SOL    HW115740   6.860   0.093   1.463
 4947SOL    HW215741   6.881   0.250   1.424
 4948SOL     OW15742   1.909   1.032   2.032
 4948SOL    HW115743   1.869   0.951   1.989
 4948SOL    HW215744   2.003   1.012   2.059
 4949SOL     OW15745   4.981   1.720   4.606
 4949SOL    HW115746   4.915   1.663   4.557
 4949SOL    HW215747   4.933   1.771   4.678
 4950SOL     OW15748   2.727   5.398   5.558
 4950SOL    HW115749   2.646   5.402   5.617
 4950SOL    HW215750   2.704   5.432   5.467
 4951SOL     OW15751   4.671   1.874   4.028
 4951SOL    HW115752   4.593   1.905   3.974
 4951SOL    HW215753   4.647   1.873   4.125
 4952SOL     OW15754   0.258   4.755   4.988
 4952SOL    HW115755   0.332   4.809   4.949
 4952SOL    HW215756   0.215   4.700   4.916
 4953SOL     OW15757   1.783   5.662   1.591
 4953SOL    HW115758   1.873   5.620   1.606
 4953SOL    HW215759   1.722   5.637   1.666
 4954SOL     OW15760   6.359   6.278   0.193
 4954SOL    HW115761   6.326   6.264   0.100
 4954SOL    HW215762   6.299   6.342   0.241
 4955SOL     OW15763   1.461   0.230   1.889
 4955SOL    HW115764   1.522   0.203   1.963
 4955SOL    HW215765   1.367   0.234   1.923
 4956SOL     OW15766   5.448   6.515   4.524
 4956SOL    HW115767   5.536   6.522   4.571
 4956SOL    HW215768   5.430   6.420   4.500
 4957SOL     OW15769   1.732   6.584   3.567
 4957SOL    HW115770   1.686   6.510   3.616
 4957SOL    HW215771   1.736   6.562   3.470
 4958SOL     OW15772   0.410   6.177   6.552
 4958SOL    HW115773   0.490   6.227   6.521
 4958SOL    HW215774   0.327   6.229   6.529
 4959SOL     OW15775   0.502   1.059   0.919
 4959SOL    HW115776   0.441   1.023   0.990
 4959SOL    HW215777   0.590   1.085   0.961
 4960SOL     OW15778   3.838   6.291   5.041
 4960SOL    HW115779   3.838   6.317   5.138
 4960SOL    HW215780   3.756   6.236   5.022
 4961SOL     OW15781   4.230   0.903   5.739
 4961SOL    HW115782   4.141   0.909   5.784
 4961SOL    HW215783   4.300   0.880   5.807
 4962SOL     OW15784   6.363   2.434   1.919
 4962SOL    HW115785   6.334   2.528   1.902
 4962SOL    HW215786   6.290   2.385   1.967
 4963SOL     OW15787   6.765   4.371   1.637
 4963SOL    HW115788   6.864   4.356   1.638
 4963SOL    HW215789   6.746   4.466   1.615
 4964SOL     OW15790   3.408   6.483   2.821
 4964SOL    HW115791   3.374   6.422   2.893
 4964SOL    HW215792   3.355   6.567   2.820
 4965SOL     OW15793   0.282   6.705   4.501
 4965SOL    HW115794   0.296   6.607   4.491
 4965SOL    HW215795   0.357   6.755   4.458
 4966SOL     OW15796   3.527   5.433   4.019
 4966SOL    HW115797   3.457   5.396   3.958
 4966SOL    HW215798   3.606   5.372   4.021
 4967SOL     OW15799   4.842   2.142   6.087
 4967SOL    HW115800   4.849   2.213   6.157
 4967SOL    HW215801   4.895   2.062   6.116
 4968SOL     OW15802   5.674   3.945   5.924
 4968SOL    HW115803   5.771   3.951   5.899
 4968SOL    HW215804   5.625   4.024   5.886
 4969SOL     OW15805   0.676   2.355   1.255
 4969SOL    HW115806   0.727   2.440   1.244
 4969SOL    HW215807   0.680   2.302   1.171
 4970SOL     OW15808   1.174   2.833   6.061
 4970SOL    HW115809   1.232   2.868   5.988
 4970SOL    HW215810   1.127   2.910   6.105
 4971SOL     OW15811   6.456   5.675   3.777
 4971SOL    HW115812   6.521   5.704   3.707
 4971SOL    HW215813   6.365   5.665   3.736
 4972SOL     OW15814   1.512   2.085   5.440
 4972SOL    HW115815   1.596   2.133   5.465
 4972SOL    HW215816   1.529   2.022   5.365
 4973SOL     OW15817   5.905   5.642   3.399
 4973SOL    HW115818   5.842   5.565   3.413
 4973SOL    HW215819   5.875   5.695   3.319
 4974SOL     OW15820   4.325   6.691   1.558
 4974SOL    HW115821   4.362   6.723   1.471
 4974SOL    HW215822   4.251   6.752   1.586
 4975SOL     OW15823   5.400   5.940   7.017
 4975SOL    HW115824   5.306   5.911   6.999
 4975SOL    HW215825   5.438   5.887   0.068
 4976SOL     OW15826   3.675   0.812   4.507
 4976SOL    HW115827   3.686   0.889   4.570
 4976SOL    HW215828   3.626   0.843   4.426
 4977SOL     OW15829   3.405   3.801   0.213
 4977SOL    HW115830   3.503   3.802   0.195
 4977SOL    HW215831   3.356   3.775   0.130
 4978SOL     OW15832   6.180   3.149   6.254
 4978SOL    HW115833   6.106   3.200   6.210
 4978SOL    HW215834   6.240   3.111   6.185
 4979SOL     OW15835   0.929   2.442   4.364
 4979SOL    HW115836   0.988   2.516   4.333
 4979SOL    HW215837   0.908   2.455   4.461
 4980SOL     OW15838   2.795   5.432   3.081
 4980SOL    HW115839   2.803   5.450   3.179
 4980SOL    HW215840   2.713   5.476   3.045
 4981SOL     OW15841   5.167   6.351   5.522
 4981SOL    HW115842   5.181   6.277   5.588
 4981SOL    HW215843   5.179   6.439   5.568
 4982SOL     OW15844   2.371   2.201   7.012
 4982SOL    HW115845   2.401   2.167   6.923
 4982SOL    HW215846   2.371   2.301   7.012
 4983SOL     OW15847   5.405   2.870   4.524
 4983SOL    HW115848   5.495   2.881   4.482
 4983SOL    HW215849   5.373   2.776   4.511
 4984SOL     OW15850   4.798   4.314   2.425
 4984SOL    HW115851   4.786   4.298   2.327
 4984SOL    HW215852   4.859   4.244   2.462
 4985SOL     OW15853   5.335   4.257   2.722
 4985SOL    HW115854   5.246   4.250   2.769
 4985SOL    HW215855   5.334   4.337   2.662
 4986SOL     OW15856   4.814   4.625   2.753
 4986SOL    HW115857   4.815   4.578   2.664
 4986SOL    HW215858   4.854   4.716   2.742
 4987SOL     OW15859   0.348   3.990   1.322
 4987SOL    HW115860   0.286   3.956   1.251
 4987SOL    HW215861   0.302   3.985   1.410
 4988SOL     OW15862   0.685   2.128   5.554
 4988SOL    HW115863   0.693   2.029   5.547
 4988SOL    HW215864   0.658   2.167   5.466
 4989SOL     OW15865   0.442   1.048   0.527
 4989SOL    HW115866   0.365   1.063   0.588
 4989SOL    HW215867   0.447   1.123   0.461
 4990SOL     OW15868   0.427   1.853   5.913
 4990SOL    HW115869   0.370   1.777   5.945
 4990SOL    HW215870   0.370   1.918   5.862
 4991SOL     OW15871   1.594   2.378   4.922
 4991SOL    HW115872   1.684   2.370   4.964
 4991SOL    HW215873   1.524   2.371   4.993
 4992SOL     OW15874   3.869   0.522   4.763
 4992SOL    HW115875   3.839   0.427   4.761
 4992SOL    HW215876   3.936   0.534   4.837
 4993SOL     OW15877   2.274   5.630   3.743
 4993SOL    HW115878   2.237   5.659   3.655
 4993SOL    HW215879   2.217   5.666   3.817
 4994SOL     OW15880   0.226   6.816   2.428
 4994SOL    HW115881   0.176   6.832   2.343
 4994SOL    HW215882   0.196   6.882   2.497
 4995SOL     OW15883   6.325   2.961   5.825
 4995SOL    HW115884   6.358   3.033   5.765
 4995SOL    HW215885   6.288   2.886   5.770
 4996SOL     OW15886   0.072   1.186   3.943
 4996SOL    HW115887   0.130   1.129   4.002
 4996SOL    HW215888   0.101   1.282   3.950
 4997SOL     OW15889   0.412   2.588   3.760
 4997SOL    HW115890   0.474   2.511   3.752
 4997SOL    HW215891   0.319   2.559   3.737
 4998SOL     OW15892   1.083   5.482   4.728
 4998SOL    HW115893   1.118   5.574   4.710
 4998SOL    HW215894   1.152   5.429   4.776
 4999SOL     OW15895   5.884   4.554   0.949
 4999SOL    HW115896   5.924   4.469   0.985
 4999SOL    HW215897   5.918   4.571   0.857
 5000SOL     OW15898   7.004   5.817   4.156
 5000SOL    HW115899   6.973   5.730   4.193
 5000SOL    HW215900   6.956   5.837   4.071
 5001SOL     OW15901   4.699   4.258   5.288
 5001SOL    HW115902   4.669   4.295   5.200
 5001SOL    HW215903   4.789   4.296   5.311
 5002SOL     OW15904   2.195   2.020   1.407
 5002SOL    HW115905   2.170   2.006   1.311
 5002SOL    HW215906   2.152   1.948   1.463
 5003SOL     OW15907   6.673   5.334   3.472
 5003SOL    HW115908   6.681   5.416   3.528
 5003SOL    HW215909   6.650   5.255   3.530
 5004SOL     OW15910   2.881   4.836   6.626
 5004SOL    HW115911   2.875   4.818   6.527
 5004SOL    HW215912   2.796   4.807   6.670
 5005SOL     OW15913   4.246   2.465   6.829
 5005SOL    HW115914   4.280   2.559   6.830
 5005SOL    HW215915   4.310   2.406   6.878
 5006SOL     OW15916   5.531   4.280   3.314
 5006SOL    HW115917   5.538   4.276   3.413
 5006SOL    HW215918   5.619   4.255   3.273
 5007SOL     OW15919   4.175   1.589   4.995
 5007SOL    HW115920   4.117   1.588   5.077
 5007SOL    HW215921   4.269   1.565   5.020
 5008SOL     OW15922   6.650   0.956   4.041
 5008SOL    HW115923   6.747   0.982   4.049
 5008SOL    HW215924   6.638   0.863   4.075
 5009SOL     OW15925   1.731   6.124   3.417
 5009SOL    HW115926   1.688   6.041   3.381
 5009SOL    HW215927   1.830   6.115   3.409
 5010SOL     OW15928   2.973   3.180   4.582
 5010SOL    HW115929   2.995   3.197   4.486
 5010SOL    HW215930   2.937   3.087   4.591
 5011SOL     OW15931   0.705   3.115   3.258
 5011SOL    HW115932   0.795   3.072   3.266
 5011SOL    HW215933   0.714   3.205   3.217
 5012SOL     OW15934   5.435   3.413   0.132
 5012SOL    HW115935   5.522   3.411   0.181
 5012SOL    HW215936   5.422   3.327   0.082
 5013SOL     OW15937   4.793   1.487   5.813
 5013SOL    HW115938   4.825   1.472   5.719
 5013SOL    HW215939   4.870   1.482   5.876
 5014SOL     OW15940   6.072   6.905   0.171
 5014SOL    HW115941   5.975   6.900   0.196
 5014SOL    HW215942   6.082   6.955   0.084
 5015SOL     OW15943   5.491   2.050   3.386
 5015SOL    HW115944   5.518   2.129   3.332
 5015SOL    HW215945   5.392   2.053   3.401
 5016SOL     OW15946   2.210   6.812   2.003
 5016SOL    HW115947   2.140   6.741   1.998
 5016SOL    HW215948   2.189   6.885   1.938
 5017SOL     OW15949   2.455   2.268   1.586
 5017SOL    HW115950   2.431   2.317   1.502
 5017SOL    HW215951   2.415   2.315   1.665
 5018SOL     OW15952   6.519   5.314   4.270
 5018SOL    HW115953   6.498   5.380   4.198
 5018SOL    HW215954   6.479   5.345   4.356
 5019SOL     OW15955   3.174   5.470   6.234
 5019SOL    HW115956   3.267   5.507   6.238
 5019SOL    HW215957   3.178   5.376   6.198
 5020SOL     OW15958   4.851   5.053   6.150
 5020SOL    HW115959   4.870   5.131   6.091
 5020SOL    HW215960   4.826   5.085   6.241
 5021SOL     OW15961   2.465   4.692   5.669
 5021SOL    HW115962   2.528   4.614   5.661
 5021SOL    HW215963   2.448   4.730   5.578
 5022SOL     OW15964   1.557   4.626   0.711
 5022SOL    HW115965   1.605   4.676   0.784
 5022SOL    HW215966   1.623   4.571   0.660
 5023SOL     OW15967   6.760   2.418   3.353
 5023SOL    HW115968   6.768   2.451   3.447
 5023SOL    HW215969   6.693   2.344   3.349
 5024SOL     OW15970   5.837   3.551   5.610
 5024SOL    HW115971   5.930   3.521   5.629
 5024SOL    HW215972   5.774   3.474   5.622
 5025SOL     OW15973   6.372   1.281   3.514
 5025SOL    HW115974   6.319   1.201   3.542
 5025SOL    HW215975   6.412   1.264   3.424
 5026SOL     OW15976   0.667   6.051   3.155
 5026SOL    HW115977   0.609   6.083   3.079
 5026SOL    HW215978   0.612   6.047   3.238
 5027SOL     OW15979   0.773   6.216   3.510
 5027SOL    HW115980   0.677   6.240   3.497
 5027SOL    HW215981   0.813   6.187   3.423
 5028SOL     OW15982   1.429   0.666   2.731
 5028SOL    HW115983   1.472   0.606   2.664
 5028SOL    HW215984   1.330   0.654   2.727
 5029SOL     OW15985   0.211   0.991   2.872
 5029SOL    HW115986   0.197   0.944   2.785
 5029SOL    HW215987   0.268   1.073   2.857
 5030SOL     OW15988   2.180   5.711   6.984
 5030SOL    HW115989   2.148   5.722   6.889
 5030SOL    HW215990   2.156   5.793   0.012
 5031SOL     OW15991   5.910   0.845   5.549
 5031SOL    HW115992   5.935   0.749   5.559
 5031SOL    HW215993   5.953   0.898   5.621
 5032SOL     OW15994   0.600   6.171   1.196
 5032SOL    HW115995   0.543   6.150   1.276
 5032SOL    HW215996   0.555   6.139   1.113
 5033SOL     OW15997   0.255   4.514   5.526
 5033SOL    HW115998   0.181   4.480   5.583
 5033SOL    HW215999   0.292   4.599   5.565
 5034SOL     OW16000   6.839   3.926   6.914
 5034SOL    HW116001   6.773   3.986   6.960
 5034SOL    HW216002   6.861   3.849   6.975
 5035SOL     OW16003   5.710   4.322   1.273
 5035SOL    HW116004   5.650   4.396   1.303
 5035SOL    HW216005   5.728   4.261   1.350
 5036SOL     OW16006   1.510   0.861   2.432
 5036SOL    HW116007   1.442   0.803   2.477
 5036SOL    HW216008   1.602   0.828   2.454
 5037SOL     OW16009   4.629   2.617   2.683
 5037SOL    HW116010   4.650   2.651   2.775
 5037SOL    HW216011   4.553   2.552   2.688
 5038SOL     OW16012   2.622   6.335   5.526
 5038SOL    HW116013   2.662   6.329   5.618
 5038SOL    HW216014   2.526   6.360   5.533
 5039SOL     OW16015   1.145   1.927   3.547
 5039SOL    HW116016   1.198   1.977   3.479
 5039SOL    HW216017   1.168   1.830   3.543
 5040SOL     OW16018   2.733   3.593   6.280
 5040SOL    HW116019   2.787   3.646   6.215
 5040SOL    HW216020   2.732   3.640   6.368
 5041SOL     OW16021   0.949   5.582   0.526
 5041SOL    HW116022   0.949   5.615   0.431
 5041SOL    HW216023   1.043   5.557   0.552
 5042SOL     OW16024   6.428   1.912   6.064
 5042SOL    HW116025   6.420   1.985   6.132
 5042SOL    HW216026   6.404   1.824   6.107
 5043SOL     OW16027   5.186   0.467   3.257
 5043SOL    HW116028   5.199   0.396   3.326
 5043SOL    HW216029   5.144   0.427   3.176
 5044SOL     OW16030   5.270   4.557   2.718
 5044SOL    HW116031   5.201   4.513   2.660
 5044SOL    HW216032   5.352   4.575   2.665
 5045SOL     OW16033   6.169   3.470   6.088
 5045SOL    HW116034   6.236   3.398   6.072
 5045SOL    HW216035   6.079   3.428   6.105
 5046SOL     OW16036   3.162   3.140   4.855
 5046SOL    HW116037   3.098   3.126   4.779
 5046SOL    HW216038   3.202   3.053   4.882
 5047SOL     OW16039   1.116   1.514   2.305
 5047SOL    HW116040   1.019   1.492   2.316
 5047SOL    HW216041   1.161   1.440   2.256
 5048SOL     OW16042   6.123   3.582   1.589
 5048SOL    HW116043   6.191   3.524   1.633
 5048SOL    HW216044   6.042   3.528   1.567
 5049SOL     OW16045   1.122   2.071   1.836
 5049SOL    HW116046   1.128   2.127   1.919
 5049SOL    HW216047   1.041   2.097   1.784
 5050SOL     OW16048   1.000   3.603   0.477
 5050SOL    HW116049   0.920   3.569   0.526
 5050SOL    HW216050   1.036   3.531   0.418
 5051SOL     OW16051   2.092   3.785   0.586
 5051SOL    HW116052   2.187   3.805   0.610
 5051SOL    HW216053   2.052   3.863   0.538
 5052SOL     OW16054   5.410   3.643   0.703
 5052SOL    HW116055   5.449   3.647   0.611
 5052SOL    HW216056   5.482   3.659   0.770
 5053SOL     OW16057   2.138   4.663   0.386
 5053SOL    HW116058   2.092   4.629   0.468
 5053SOL    HW216059   2.230   4.623   0.381
 5054SOL     OW16060   3.759   5.971   4.899
 5054SOL    HW116061   3.715   5.997   4.985
 5054SOL    HW216062   3.727   6.031   4.826
 5055SOL     OW16063   1.731   1.883   3.633
 5055SOL    HW116064   1.828   1.881   3.660
 5055SOL    HW216065   1.679   1.819   3.690
 5056SOL     OW16066   2.537   2.601   5.182
 5056SOL    HW116067   2.495   2.516   5.213
 5056SOL    HW216068   2.508   2.676   5.242
 5057SOL     OW16069   0.554   4.529   3.110
 5057SOL    HW116070   0.554   4.464   3.185
 5057SOL    HW216071   0.642   4.576   3.106
 5058SOL     OW16072   3.246   3.055   0.503
 5058SOL    HW116073   3.147   3.047   0.497
 5058SOL    HW216074   3.278   3.016   0.589
 5059SOL     OW16075   4.366   1.647   3.183
 5059SOL    HW116076   4.387   1.559   3.225
 5059SOL    HW216077   4.448   1.684   3.139
 5060SOL     OW16078   0.406   3.319   5.147
 5060SOL    HW116079   0.450   3.358   5.227
 5060SOL    HW216080   0.334   3.381   5.115
 5061SOL     OW16081   3.729   1.954   5.585
 5061SOL    HW116082   3.633   1.981   5.593
 5061SOL    HW216083   3.736   1.865   5.540
 5062SOL     OW16084   5.109   0.921   3.548
 5062SOL    HW116085   5.092   0.986   3.474
 5062SOL    HW216086   5.185   0.861   3.523
 5063SOL     OW16087   1.124   1.360   1.607
 5063SOL    HW116088   1.203   1.306   1.635
 5063SOL    HW216089   1.114   1.356   1.508
 5064SOL     OW16090   4.835   5.202   0.900
 5064SOL    HW116091   4.796   5.293   0.882
 5064SOL    HW216092   4.889   5.172   0.821
 5065SOL     OW16093   2.056   1.289   2.088
 5065SOL    HW116094   2.001   1.220   2.040
 5065SOL    HW216095   1.996   1.344   2.146
 5066SOL     OW16096   1.979   4.781   2.574
 5066SOL    HW116097   2.072   4.802   2.544
 5066SOL    HW216098   1.948   4.852   2.637
 5067SOL     OW16099   5.720   2.673   0.849
 5067SOL    HW116100   5.632   2.652   0.806
 5067SOL    HW216101   5.720   2.768   0.880
 5068SOL     OW16102   2.577   5.772   0.854
 5068SOL    HW116103   2.529   5.822   0.782
 5068SOL    HW216104   2.645   5.712   0.813
 5069SOL     OW16105   4.125   5.022   5.356
 5069SOL    HW116106   4.099   5.116   5.334
 5069SOL    HW216107   4.103   5.003   5.452
 5070SOL     OW16108   5.918   3.730   4.969
 5070SOL    HW116109   5.827   3.695   4.990
 5070SOL    HW216110   5.927   3.743   4.870
 5071SOL     OW16111   2.671   6.761   3.601
 5071SOL    HW116112   2.608   6.817   3.654
 5071SOL    HW216113   2.642   6.759   3.506
 5072SOL     OW16114   0.872   1.021   1.181
 5072SOL    HW116115   0.971   1.019   1.198
 5072SOL    HW216116   0.824   0.998   1.266
 5073SOL     OW16117   2.911   1.126   3.121
 5073SOL    HW116118   2.933   1.185   3.199
 5073SOL    HW216119   2.962   1.155   3.041
 5074SOL     OW16120   3.447   2.266   1.715
 5074SOL    HW116121   3.545   2.276   1.726
 5074SOL    HW216122   3.406   2.356   1.697
 5075SOL     OW16123   0.123   3.628   6.944
 5075SOL    HW116124   0.150   3.719   6.974
 5075SOL    HW216125   0.193   3.591   6.883
 5076SOL     OW16126   0.135   0.149   6.450
 5076SOL    HW116127   0.037   0.128   6.453
 5076SOL    HW216128   0.156   0.197   6.364
 5077SOL     OW16129   0.888   4.293   4.089
 5077SOL    HW116130   0.818   4.222   4.101
 5077SOL    HW216131   0.959   4.260   4.027
 5078SOL     OW16132   7.025   1.869   3.793
 5078SOL    HW116133   6.965   1.933   3.743
 5078SOL    HW216134   0.047   1.918   3.866
 5079SOL     OW16135   1.931   2.970   5.346
 5079SOL    HW116136   1.837   2.999   5.328
 5079SOL    HW216137   1.990   2.997   5.270
 5080SOL     OW16138   5.613   5.736   0.598
 5080SOL    HW116139   5.665   5.819   0.578
 5080SOL    HW216140   5.517   5.750   0.576
 5081SOL     OW16141   2.486   5.284   5.356
 5081SOL    HW116142   2.512   5.188   5.370
 5081SOL    HW216143   2.564   5.334   5.318
 5082SOL     OW16144   5.056   5.951   1.349
 5082SOL    HW116145   5.076   5.906   1.436
 5082SOL    HW216146   5.135   6.006   1.322
 5083SOL     OW16147   1.648   0.380   3.765
 5083SOL    HW116148   1.716   0.379   3.838
 5083SOL    HW216149   1.562   0.341   3.799
 5084SOL     OW16150   2.654   4.211   5.470
 5084SOL    HW116151   2.667   4.135   5.406
 5084SOL    HW216152   2.607   4.179   5.552
 5085SOL     OW16153   0.454   4.163   4.829
 5085SOL    HW116154   0.471   4.218   4.911
 5085SOL    HW216155   0.504   4.077   4.836
 5086SOL     OW16156   2.021   5.578   1.640
 5086SOL    HW116157   2.066   5.628   1.566
 5086SOL    HW216158   2.090   5.532   1.696
 5087SOL     OW16159   6.461   4.603   2.592
 5087SOL    HW116160   6.373   4.570   2.627
 5087SOL    HW216161   6.487   4.548   2.512
 5088SOL     OW16162   5.329   5.715   1.960
 5088SOL    HW116163   5.322   5.794   2.022
 5088SOL    HW216164   5.267   5.728   1.883
 5089SOL     OW16165   5.362   5.816   5.772
 5089SOL    HW116166   5.427   5.741   5.786
 5089SOL    HW216167   5.318   5.805   5.682
 5090SOL     OW16168   2.938   6.545   4.943
 5090SOL    HW116169   2.972   6.532   5.035
 5090SOL    HW216170   2.977   6.476   4.882
 5091SOL     OW16171   0.149   6.620   6.200
 5091SOL    HW116172   0.189   6.679   6.130
 5091SOL    HW216173   0.125   6.674   6.280
 5092SOL     OW16174   3.430   3.199   4.107
 5092SOL    HW116175   3.429   3.182   4.008
 5092SOL    HW216176   3.445   3.296   4.124
 5093SOL     OW16177   2.996   2.181   2.693
 5093SOL    HW116178   2.963   2.230   2.612
 5093SOL    HW216179   2.976   2.235   2.775
 5094SOL     OW16180   1.212   6.133   5.066
 5094SOL    HW116181   1.234   6.148   4.969
 5094SOL    HW216182   1.237   6.214   5.119
 5095SOL     OW16183   6.662   0.771   3.033
 5095SOL    HW116184   6.737   0.804   2.976
 5095SOL    HW216185   6.687   0.684   3.075
 5096SOL     OW16186   6.013   3.210   5.208
 5096SOL    HW116187   5.925   3.245   5.241
 5096SOL    HW216188   6.005   3.111   5.192
 5097SOL     OW16189   1.425   0.632   5.864
 5097SOL    HW116190   1.409   0.583   5.950
 5097SOL    HW216191   1.443   0.566   5.791
 5098SOL     OW16192   3.628   3.590   0.582
 5098SOL    HW116193   3.549   3.537   0.552
 5098SOL    HW216194   3.597   3.664   0.642
 5099SOL     OW16195   1.687   6.643   2.161
 5099SOL    HW116196   1.740   6.578   2.215
 5099SOL    HW216197   1.696   6.622   2.064
 5100SOL     OW16198   4.909   3.687   2.321
 5100SOL    HW116199   4.946   3.723   2.236
 5100SOL    HW216200   4.880   3.593   2.307
 5101SOL     OW16201   3.856   0.322   6.367
 5101SOL    HW116202   3.918   0.244   6.355
 5101SOL    HW216203   3.827   0.356   6.278
 5102SOL     OW16204   5.304   5.289   4.370
 5102SOL    HW116205   5.370   5.344   4.421
 5102SOL    HW216206   5.238   5.249   4.433
 5103SOL     OW16207   1.384   0.997   6.778
 5103SOL    HW116208   1.329   0.916   6.795
 5103SOL    HW216209   1.346   1.047   6.700
 5104SOL     OW16210   4.028   3.327   1.971
 5104SOL    HW116211   4.085   3.272   1.910
 5104SOL    HW216212   3.979   3.396   1.918
 5105SOL     OW16213   4.820   3.140   6.522
 5105SOL    HW116214   4.735   3.163   6.570
 5105SOL    HW216215   4.895   3.194   6.561
 5106SOL     OW16216   4.097   2.430   1.056
 5106SOL    HW116217   4.108   2.441   0.957
 5106SOL    HW216218   4.175   2.471   1.104
 5107SOL     OW16219   5.272   4.170   0.083
 5107SOL    HW116220   5.200   4.103   0.102
 5107SOL    HW216221   5.238   4.237   0.017
 5108SOL     OW16222   4.007   4.733   0.447
 5108SOL    HW116223   3.959   4.814   0.479
 5108SOL    HW216224   4.030   4.674   0.525
 5109SOL     OW16225   1.298   3.010   1.727
 5109SOL    HW116226   1.367   2.959   1.677
 5109SOL    HW216227   1.225   2.949   1.757
 5110SOL     OW16228   4.634   0.041   5.481
 5110SOL    HW116229   4.639   6.989   5.546
 5110SOL    HW216230   4.546   0.086   5.490
 5111SOL     OW16231   0.557   5.707   4.770
 5111SOL    HW116232   0.577   5.614   4.801
 5111SOL    HW216233   0.492   5.750   4.833
 5112SOL     OW16234   0.155   6.708   3.004
 5112SOL    HW116235   0.243   6.665   3.024
 5112SOL    HW216236   0.144   6.790   3.060
 5113SOL     OW16237   1.761   4.003   0.245
 5113SOL    HW116238   1.736   4.090   0.286
 5113SOL    HW216239   1.783   4.016   0.148
 5114SOL     OW16240   4.505   4.704   1.642
 5114SOL    HW116241   4.542   4.640   1.709
 5114SOL    HW216242   4.408   4.720   1.661
 5115SOL     OW16243   2.091   3.555   0.964
 5115SOL    HW116244   2.005   3.513   0.934
 5115SOL    HW216245   2.148   3.575   0.884
 5116SOL     OW16246   1.309   6.955   5.957
 5116SOL    HW116247   1.408   6.953   5.972
 5116SOL    HW216248   1.265   7.001   6.034
 5117SOL     OW16249   0.209   2.123   3.595
 5117SOL    HW116250   0.301   2.095   3.622
 5117SOL    HW216251   0.151   2.042   3.586
 5118SOL     OW16252   4.333   5.150   6.950
 5118SOL    HW116253   4.413   5.142   7.010
 5118SOL    HW216254   4.250   5.151   7.006
 5119SOL     OW16255   5.780   0.769   0.743
 5119SOL    HW116256   5.758   0.677   0.711
 5119SOL    HW216257   5.703   0.804   0.797
 5120SOL     OW16258   5.387   6.409   6.605
 5120SOL    HW116259   5.407   6.314   6.580
 5120SOL    HW216260   5.453   6.470   6.561
 5121SOL     OW16261   1.280   3.205   6.086
 5121SOL    HW116262   1.322   3.163   6.006
 5121SOL    HW216263   1.188   3.168   6.099
 5122SOL     OW16264   5.099   4.590   3.945
 5122SOL    HW116265   5.091   4.496   3.911
 5122SOL    HW216266   5.087   4.654   3.869
 5123SOL     OW16267   4.729   2.989   1.637
 5123SOL    HW116268   4.669   2.967   1.714
 5123SOL    HW216269   4.808   3.042   1.671
 5124SOL     OW16270   1.928   6.178   5.416
 5124SOL    HW116271   1.831   6.158   5.426
 5124SOL    HW216272   1.957   6.160   5.322
 5125SOL     OW16273   6.522   1.715   3.592
 5125SOL    HW116274   6.442   1.752   3.546
 5125SOL    HW216275   6.596   1.783   3.588
 5126SOL     OW16276   1.850   0.541   1.494
 5126SOL    HW116277   1.870   0.608   1.565
 5126SOL    HW216278   1.763   0.564   1.450
 5127SOL     OW16279   2.252   5.790   0.421
 5127SOL    HW116280   2.183   5.803   0.349
 5127SOL    HW216281   2.275   5.693   0.428
 5128SOL     OW16282   6.466   0.231   2.266
 5128SOL    HW116283   6.427   0.318   2.234
 5128SOL    HW216284   6.414   0.155   2.228
 5129SOL     OW16285   6.572   6.942   0.443
 5129SOL    HW116286   6.473   6.943   0.459
 5129SOL    HW216287   6.603   6.848   0.430
 5130SOL     OW16288   6.695   4.485   2.910
 5130SOL    HW116289   6.789   4.488   2.876
 5130SOL    HW216290   6.679   4.560   2.974
 5131SOL     OW16291   2.534   2.542   2.874
 5131SOL    HW116292   2.486   2.609   2.816
 5131SOL    HW216293   2.528   2.571   2.969
 5132SOL     OW16294   3.060   5.904   5.263
 5132SOL    HW116295   3.099   5.872   5.177
 5132SOL    HW216296   3.070   6.003   5.269
 5133SOL     OW16297   3.792   6.368   5.336
 5133SOL    HW116298   3.704   6.415   5.346
 5133SOL    HW216299   3.788   6.280   5.384
 5134SOL     OW16300   6.444   4.494   6.606
 5134SOL    HW116301   6.349   4.523   6.600
 5134SOL    HW216302   6.456   4.407   6.559
 5135SOL     OW16303   5.523   1.725   4.284
 5135SOL    HW116304   5.430   1.743   4.250
 5135SOL    HW216305   5.541   1.785   4.363
 5136SOL     OW16306   3.662   1.223   4.663
 5136SOL    HW116307   3.635   1.209   4.568
 5136SOL    HW216308   3.728   1.153   4.690
 5137SOL     OW16309   3.669   3.886   6.658
 5137SOL    HW116310   3.708   3.973   6.688
 5137SOL    HW216311   3.659   3.825   6.737
 5138SOL     OW16312   2.298   2.915   5.903
 5138SOL    HW116313   2.266   2.992   5.848
 5138SOL    HW216314   2.292   2.938   6.000
 5139SOL     OW16315   0.483   0.163   4.080
 5139SOL    HW116316   0.397   0.209   4.103
 5139SOL    HW216317   0.524   0.209   4.001
 5140SOL     OW16318   3.706   2.850   1.613
 5140SOL    HW116319   3.671   2.935   1.653
 5140SOL    HW216320   3.649   2.774   1.642
 5141SOL     OW16321   0.003   3.873   5.622
 5141SOL    HW116322   0.066   3.940   5.583
 5141SOL    HW216323   0.047   3.825   5.697
 5142SOL     OW16324   5.649   3.646   3.600
 5142SOL    HW116325   5.593   3.657   3.682
 5142SOL    HW216326   5.718   3.575   3.616
 5143SOL     OW16327   0.004   5.098   4.519
 5143SOL    HW116328   0.031   5.194   4.522
 5143SOL    HW216329   6.960   5.080   4.589
 5144SOL     OW16330   2.097   1.028   4.526
 5144SOL    HW116331   2.017   1.086   4.513
 5144SOL    HW216332   2.105   0.966   4.448
 5145SOL     OW16333   3.415   5.988   5.484
 5145SOL    HW116334   3.497   5.947   5.524
 5145SOL    HW216335   3.365   5.919   5.432
 5146SOL     OW16336   2.616   4.553   0.181
 5146SOL    HW116337   2.661   4.597   0.103
 5146SOL    HW216338   2.630   4.454   0.175
 5147SOL     OW16339   6.485   5.016   6.644
 5147SOL    HW116340   6.452   5.110   6.654
 5147SOL    HW216341   6.577   5.008   6.683
 5148SOL     OW16342   0.458   6.706   1.817
 5148SOL    HW116343   0.384   6.641   1.800
 5148SOL    HW216344   0.540   6.656   1.846
 5149SOL     OW16345   6.608   1.110   6.115
 5149SOL    HW116346   6.691   1.161   6.095
 5149SOL    HW216347   6.614   1.019   6.072
 5150SOL     OW16348   1.416   4.972   3.502
 5150SOL    HW116349   1.345   4.904   3.518
 5150SOL    HW216350   1.447   5.009   3.590
 5151SOL     OW16351   4.979   1.137   6.321
 5151SOL    HW116352   4.982   1.136   6.221
 5151SOL    HW216353   5.012   1.225   6.355
 5152SOL     OW16354   0.937   5.182   0.555
 5152SOL    HW116355   0.861   5.222   0.506
 5152SOL    HW216356   0.903   5.130   0.634
 5153SOL     OW16357   2.026   1.890   0.912
 5153SOL    HW116358   2.070   1.977   0.890
 5153SOL    HW216359   2.003   1.889   1.010
 5154SOL     OW16360   2.013   3.358   4.848
 5154SOL    HW116361   2.085   3.290   4.865
 5154SOL    HW216362   2.027   3.400   4.758
 5155SOL     OW16363   3.326   0.932   2.068
 5155SOL    HW116364   3.271   0.891   2.141
 5155SOL    HW216365   3.423   0.929   2.093
 5156SOL     OW16366   5.929   3.140   5.893
 5156SOL    HW116367   5.973   3.057   5.926
 5156SOL    HW216368   5.972   3.168   5.807
 5157SOL     OW16369   5.853   2.810   4.236
 5157SOL    HW116370   5.900   2.843   4.154
 5157SOL    HW216371   5.853   2.710   4.237
 5158SOL     OW16372   3.890   1.154   0.704
 5158SOL    HW116373   3.901   1.087   0.776
 5158SOL    HW216374   3.897   1.246   0.742
 5159SOL     OW16375   1.735   2.948   4.625
 5159SOL    HW116376   1.750   2.860   4.670
 5159SOL    HW216377   1.636   2.966   4.621
 5160SOL     OW16378   2.005   2.738   4.122
 5160SOL    HW116379   2.045   2.801   4.056
 5160SOL    HW216380   1.913   2.769   4.147
 5161SOL     OW16381   1.522   3.580   6.361
 5161SOL    HW116382   1.472   3.584   6.447
 5161SOL    HW216383   1.535   3.485   6.334
 5162SOL     OW16384   6.252   5.888   4.737
 5162SOL    HW116385   6.187   5.955   4.701
 5162SOL    HW216386   6.271   5.909   4.833
 5163SOL     OW16387   5.069   3.456   1.314
 5163SOL    HW116388   5.140   3.509   1.359
 5163SOL    HW216389   5.102   3.425   1.225
 5164SOL     OW16390   5.969   5.246   5.578
 5164SOL    HW116391   6.002   5.278   5.489
 5164SOL    HW216392   6.001   5.308   5.650
 5165SOL     OW16393   6.498   4.078   3.926
 5165SOL    HW116394   6.495   3.979   3.919
 5165SOL    HW216395   6.498   4.105   4.022
 5166SOL     OW16396   1.463   0.549   1.796
 5166SOL    HW116397   1.522   0.507   1.728
 5166SOL    HW216398   1.480   0.508   1.886
 5167SOL     OW16399   1.281   6.879   5.687
 5167SOL    HW116400   1.326   6.941   5.623
 5167SOL    HW216401   1.307   6.903   5.781
 5168SOL     OW16402   3.797   1.767   3.123
 5168SOL    HW116403   3.715   1.744   3.176
 5168SOL    HW216404   3.823   1.689   3.066
 5169SOL     OW16405   3.766   4.222   6.504
 5169SOL    HW116406   3.773   4.122   6.510
 5169SOL    HW216407   3.808   4.263   6.585
 5170SOL     OW16408   4.893   4.686   4.379
 5170SOL    HW116409   4.887   4.605   4.321
 5170SOL    HW216410   4.949   4.756   4.333
 5171SOL     OW16411   2.605   4.659   4.822
 5171SOL    HW116412   2.579   4.562   4.828
 5171SOL    HW216413   2.692   4.673   4.869
 5172SOL     OW16414   2.118   4.892   0.209
 5172SOL    HW116415   2.082   4.898   0.116
 5172SOL    HW216416   2.119   4.796   0.238
 5173SOL     OW16417   6.325   3.706   6.144
 5173SOL    HW116418   6.252   3.766   6.110
 5173SOL    HW216419   6.297   3.611   6.135
 5174SOL     OW16420   1.496   4.483   5.969
 5174SOL    HW116421   1.447   4.469   6.055
 5174SOL    HW216422   1.502   4.395   5.920
 5175SOL     OW16423   0.493   5.197   6.371
 5175SOL    HW116424   0.451   5.283   6.342
 5175SOL    HW216425   0.443   5.161   6.450
 5176SOL     OW16426   5.726   3.492   6.731
 5176SOL    HW116427   5.732   3.422   6.660
 5176SOL    HW216428   5.630   3.514   6.749
 5177SOL     OW16429   5.201   6.559   6.759
 5177SOL    HW116430   5.123   6.592   6.704
 5177SOL    HW216431   5.249   6.487   6.708
 5178SOL     OW16432   2.772   2.315   1.486
 5178SOL    HW116433   2.700   2.345   1.424
 5178SOL    HW216434   2.813   2.230   1.452
 5179SOL     OW16435   2.919   5.940   5.491
 5179SOL    HW116436   2.957   5.920   5.400
 5179SOL    HW216437   2.828   5.899   5.499
 5180SOL     OW16438   3.251   2.393   0.628
 5180SOL    HW116439   3.324   2.380   0.696
 5180SOL    HW216440   3.175   2.332   0.649
 5181SOL     OW16441   2.897   5.251   2.257
 5181SOL    HW116442   2.959   5.252   2.178
 5181SOL    HW216443   2.931   5.186   2.325
 5182SOL     OW16444   4.689   4.335   1.569
 5182SOL    HW116445   4.719   4.344   1.664
 5182SOL    HW216446   4.732   4.255   1.528
 5183SOL     OW16447   3.884   0.769   2.691
 5183SOL    HW116448   3.911   0.686   2.741
 5183SOL    HW216449   3.787   0.787   2.708
 5184SOL     OW16450   1.004   1.936   3.021
 5184SOL    HW116451   0.973   1.982   3.104
 5184SOL    HW216452   0.925   1.899   2.972
 5185SOL     OW16453   3.406   0.457   2.228
 5185SOL    HW116454   3.318   0.505   2.230
 5185SOL    HW216455   3.476   0.514   2.271
 5186SOL     OW16456   6.135   4.431   0.223
 5186SOL    HW116457   6.126   4.486   0.306
 5186SOL    HW216458   6.059   4.366   0.217
 5187SOL     OW16459   5.133   1.959   4.392
 5187SOL    HW116460   5.054   1.964   4.331
 5187SOL    HW216461   5.154   1.863   4.411
 5188SOL     OW16462   1.038   2.853   4.676
 5188SOL    HW116463   1.129   2.867   4.636
 5188SOL    HW216464   0.999   2.942   4.700
 5189SOL     OW16465   4.378   5.219   6.547
 5189SOL    HW116466   4.447   5.240   6.617
 5189SOL    HW216467   4.424   5.204   6.459
 5190SOL     OW16468   1.808   2.441   3.411
 5190SOL    HW116469   1.803   2.501   3.330
 5190SOL    HW216470   1.761   2.485   3.487
 5191SOL     OW16471   4.438   0.494   1.711
 5191SOL    HW116472   4.351   0.460   1.747
 5191SOL    HW216473   4.510   0.427   1.728
 5192SOL     OW16474   5.759   4.385   2.021
 5192SOL    HW116475   5.778   4.375   2.119
 5192SOL    HW216476   5.761   4.296   1.977
 5193SOL     OW16477   4.881   3.163   2.587
 5193SOL    HW116478   4.918   3.204   2.670
 5193SOL    HW216479   4.908   3.067   2.582
 5194SOL     OW16480   5.779   1.885   6.426
 5194SOL    HW116481   5.717   1.818   6.386
 5194SOL    HW216482   5.746   1.910   6.518
 5195SOL     OW16483   6.261   6.367   5.615
 5195SOL    HW116484   6.233   6.286   5.668
 5195SOL    HW216485   6.300   6.338   5.528
 5196SOL     OW16486   0.577   3.491   1.697
 5196SOL    HW116487   0.594   3.408   1.749
 5196SOL    HW216488   0.547   3.468   1.604
 5197SOL     OW16489   3.534   6.094   5.098
 5197SOL    HW116490   3.562   6.177   5.050
 5197SOL    HW216491   3.435   6.087   5.099
 5198SOL     OW16492   4.486   0.318   5.709
 5198SOL    HW116493   4.479   0.402   5.762
 5198SOL    HW216494   4.579   0.283   5.713
 5199SOL     OW16495   0.364   5.081   1.822
 5199SOL    HW116496   0.356   4.981   1.822
 5199SOL    HW216497   0.275   5.121   1.800
 5200SOL     OW16498   0.513   7.012   5.318
 5200SOL    HW116499   0.570   7.002   5.237
 5200SOL    HW216500   0.567   6.991   5.400
 5201SOL     OW16501   5.982   4.292   4.769
 5201SOL    HW116502   5.888   4.325   4.758
 5201SOL    HW216503   6.046   4.366   4.750
 5202SOL     OW16504   3.706   3.388   5.560
 5202SOL    HW116505   3.721   3.369   5.463
 5202SOL    HW216506   3.607   3.389   5.578
 5203SOL     OW16507   1.789   0.224   6.436
 5203SOL    HW116508   1.795   0.267   6.526
 5203SOL    HW216509   1.772   0.294   6.366
 5204SOL     OW16510   2.559   1.063   0.832
 5204SOL    HW116511   2.515   0.974   0.845
 5204SOL    HW216512   2.652   1.049   0.800
 5205SOL     OW16513   6.822   6.318   0.701
 5205SOL    HW116514   6.796   6.319   0.604
 5205SOL    HW216515   6.877   6.399   0.722
 5206SOL     OW16516   1.360   5.007   3.243
 5206SOL    HW116517   1.266   5.012   3.209
 5206SOL    HW216518   1.359   5.006   3.343
 5207SOL     OW16519   6.236   6.484   4.420
 5207SOL    HW116520   6.238   6.533   4.333
 5207SOL    HW216521   6.263   6.545   4.494
 5208SOL     OW16522   6.095   1.680   0.593
 5208SOL    HW116523   6.115   1.691   0.691
 5208SOL    HW216524   6.016   1.736   0.569
 5209SOL     OW16525   5.582   6.289   3.322
 5209SOL    HW116526   5.664   6.315   3.373
 5209SOL    HW216527   5.509   6.265   3.386
 5210SOL     OW16528   5.591   4.578   0.979
 5210SOL    HW116529   5.689   4.593   0.968
 5210SOL    HW216530   5.557   4.634   1.055
 5211SOL     OW16531   5.401   2.468   4.995
 5211SOL    HW116532   5.350   2.455   4.911
 5211SOL    HW216533   5.452   2.385   5.017
 5212SOL     OW16534   0.407   3.539   6.943
 5212SOL    HW116535   0.434   3.442   6.944
 5212SOL    HW216536   0.438   3.581   6.858
 5213SOL     OW16537   3.744   3.408   2.980
 5213SOL    HW116538   3.842   3.392   2.984
 5213SOL    HW216539   3.726   3.506   2.966
 5214SOL     OW16540   5.642   3.664   5.031
 5214SOL    HW116541   5.607   3.603   4.960
 5214SOL    HW216542   5.653   3.612   5.116
 5215SOL     OW16543   0.614   4.214   4.585
 5215SOL    HW116544   0.527   4.204   4.634
 5215SOL    HW216545   0.681   4.151   4.622
 5216SOL     OW16546   5.214   5.145   1.246
 5216SOL    HW116547   5.265   5.109   1.168
 5216SOL    HW216548   5.116   5.129   1.231
 5217SOL     OW16549   5.048   6.379   3.011
 5217SOL    HW116550   4.984   6.326   2.955
 5217SOL    HW216551   5.011   6.471   3.025
 5218SOL     OW16552   6.368   0.402   0.333
 5218SOL    HW116553   6.351   0.495   0.302
 5218SOL    HW216554   6.367   0.400   0.433
 5219SOL     OW16555   3.537   0.761   5.631
 5219SOL    HW116556   3.455   0.748   5.576
 5219SOL    HW216557   3.516   0.823   5.707
 5220SOL     OW16558   2.157   5.324   4.370
 5220SOL    HW116559   2.225   5.395   4.386
 5220SOL    HW216560   2.082   5.333   4.435
 5221SOL     OW16561   5.789   5.426   1.569
 5221SOL    HW116562   5.820   5.367   1.495
 5221SOL    HW216563   5.783   5.374   1.654
 5222SOL     OW16564   6.814   3.534   1.456
 5222SOL    HW116565   6.734   3.545   1.398
 5222SOL    HW216566   6.838   3.437   1.463
 5223SOL     OW16567   6.722   3.159   0.624
 5223SOL    HW116568   6.778   3.083   0.593
 5223SOL    HW216569   6.771   3.211   0.694
 5224SOL     OW16570   0.462   1.376   5.191
 5224SOL    HW116571   0.463   1.313   5.269
 5224SOL    HW216572   0.527   1.451   5.208
 5225SOL     OW16573   6.950   1.293   4.598
 5225SOL    HW116574   6.951   1.319   4.694
 5225SOL    HW216575   6.953   1.193   4.591
 5226SOL     OW16576   0.508   6.514   3.884
 5226SOL    HW116577   0.518   6.539   3.788
 5226SOL    HW216578   0.589   6.464   3.915
 5227SOL     OW16579   0.512   4.050   5.614
 5227SOL    HW116580   0.432   4.108   5.600
 5227SOL    HW216581   0.552   4.070   5.703
 5228SOL     OW16582   0.869   1.641   5.379
 5228SOL    HW116583   0.931   1.568   5.408
 5228SOL    HW216584   0.912   1.694   5.306
 5229SOL     OW16585   3.386   1.601   6.215
 5229SOL    HW116586   3.319   1.537   6.176
 5229SOL    HW216587   3.378   1.601   6.315
 5230SOL     OW16588   6.859   6.966   1.765
 5230SOL    HW116589   6.768   6.936   1.735
 5230SOL    HW216590   6.868   0.039   1.750
 5231SOL     OW16591   6.464   3.341   1.963
 5231SOL    HW116592   6.507   3.317   1.876
 5231SOL    HW216593   6.503   3.426   1.998
 5232SOL     OW16594   1.825   2.385   5.767
 5232SOL    HW116595   1.752   2.431   5.717
 5232SOL    HW216596   1.890   2.344   5.703
 5233SOL     OW16597   2.984   6.262   2.587
 5233SOL    HW116598   3.045   6.216   2.652
 5233SOL    HW216599   2.938   6.337   2.633
 5234SOL     OW16600   3.090   2.217   6.237
 5234SOL    HW116601   3.148   2.232   6.157
 5234SOL    HW216602   3.036   2.134   6.225
 5235SOL     OW16603   2.397   1.720   1.377
 5235SOL    HW116604   2.299   1.740   1.378
 5235SOL    HW216605   2.446   1.799   1.341
 5236SOL     OW16606   3.404   5.260   1.402
 5236SOL    HW116607   3.368   5.204   1.327
 5236SOL    HW216608   3.342   5.254   1.481
 5237SOL     OW16609   1.724   2.027   2.299
 5237SOL    HW116610   1.683   1.939   2.320
 5237SOL    HW216611   1.816   2.013   2.261
 5238SOL     OW16612   0.224   0.024   2.982
 5238SOL    HW116613   0.163   7.017   3.055
 5238SOL    HW216614   0.318   0.023   3.015
 5239SOL     OW16615   2.615   3.867   0.748
 5239SOL    HW116616   2.677   3.823   0.813
 5239SOL    HW216617   2.653   3.956   0.721
 5240SOL     OW16618   2.318   4.109   5.580
 5240SOL    HW116619   2.398   4.090   5.637
 5240SOL    HW216620   2.306   4.036   5.514
 5241SOL     OW16621   1.117   6.710   2.461
 5241SOL    HW116622   1.161   6.620   2.459
 5241SOL    HW216623   1.186   6.781   2.446
 5242SOL     OW16624   4.522   0.482   6.404
 5242SOL    HW116625   4.548   0.486   6.308
 5242SOL    HW216626   4.519   0.575   6.441
 5243SOL     OW16627   2.421   6.399   2.477
 5243SOL    HW116628   2.364   6.322   2.448
 5243SOL    HW216629   2.479   6.428   2.401
 5244SOL     OW16630   4.973   1.237   0.227
 5244SOL    HW116631   4.877   1.214   0.244
 5244SOL    HW216632   4.983   1.337   0.224
 5245SOL     OW16633   3.259   4.357   1.298
 5245SOL    HW116634   3.236   4.260   1.287
 5245SOL    HW216635   3.236   4.386   1.391
 5246SOL     OW16636   6.115   3.920   6.217
 5246SOL    HW116637   6.048   3.912   6.143
 5246SOL    HW216638   6.072   3.962   6.297
 5247SOL     OW16639   4.412   1.977   6.669
 5247SOL    HW116640   4.333   2.003   6.614
 5247SOL    HW216641   4.382   1.952   6.761
 5248SOL     OW16642   5.387   1.080   3.824
 5248SOL    HW116643   5.453   1.139   3.778
 5248SOL    HW216644   5.397   1.090   3.923
 5249SOL     OW16645   0.486   5.001   0.812
 5249SOL    HW116646   0.540   4.945   0.876
 5249SOL    HW216647   0.391   5.005   0.844
 5250SOL     OW16648   2.506   5.506   1.198
 5250SOL    HW116649   2.528   5.588   1.146
 5250SOL    HW216650   2.585   5.444   1.198
 5251SOL     OW16651   0.498   4.785   0.641
 5251SOL    HW116652   0.527   4.800   0.547
 5251SOL    HW216653   0.518   4.866   0.696
 5252SOL     OW16654   3.720   5.781   2.607
 5252SOL    HW116655   3.672   5.722   2.673
 5252SOL    HW216656   3.819   5.771   2.619
 5253SOL     OW16657   6.638   6.125   4.896
 5253SOL    HW116658   6.637   6.217   4.857
 5253SOL    HW216659   6.597   6.060   4.831
 5254SOL     OW16660   5.026   5.882   3.617
 5254SOL    HW116661   5.060   5.954   3.678
 5254SOL    HW216662   5.104   5.835   3.575
 5255SOL     OW16663   6.476   1.467   5.253
 5255SOL    HW116664   6.380   1.446   5.235
 5255SOL    HW216665   6.485   1.509   5.343
 5256SOL     OW16666   6.782   1.625   2.252
 5256SOL    HW116667   6.781   1.525   2.255
 5256SOL    HW216668   6.730   1.658   2.173
 5257SOL     OW16669   4.579   1.615   6.122
 5257SOL    HW116670   4.607   1.639   6.215
 5257SOL    HW216671   4.640   1.660   6.056
 5258SOL     OW16672   5.089   1.253   4.405
 5258SOL    HW116673   5.117   1.276   4.312
 5258SOL    HW216674   5.117   1.325   4.468
 5259SOL     OW16675   6.067   4.739   3.454
 5259SOL    HW116676   6.120   4.654   3.459
 5259SOL    HW216677   6.054   4.765   3.358
 5260SOL     OW16678   1.710   0.246   0.889
 5260SOL    HW116679   1.795   0.252   0.837
 5260SOL    HW216680   1.665   0.159   0.869
 5261SOL     OW16681   5.310   4.209   6.750
 5261SOL    HW116682   5.241   4.265   6.796
 5261SOL    HW216683   5.321   4.123   6.800
 5262SOL     OW16684   1.757   1.333   1.968
 5262SOL    HW116685   1.807   1.378   2.042
 5262SOL    HW216686   1.795   1.360   1.880
 5263SOL     OW16687   1.421   6.288   2.187
 5263SOL    HW116688   1.360   6.218   2.151
 5263SOL    HW216689   1.390   6.378   2.159
 5264SOL     OW16690   6.283   1.993   1.479
 5264SOL    HW116691   6.227   2.017   1.399
 5264SOL    HW216692   6.285   2.069   1.543
 5265SOL     OW16693   6.903   5.425   5.435
 5265SOL    HW116694   6.815   5.393   5.400
 5265SOL    HW216695   6.915   5.391   5.529
 5266SOL     OW16696   1.538   0.554   6.456
 5266SOL    HW116697   1.582   0.553   6.546
 5266SOL    HW216698   1.605   0.535   6.385
 5267SOL     OW16699   5.269   2.459   4.075
 5267SOL    HW116700   5.363   2.477   4.048
 5267SOL    HW216701   5.225   2.545   4.102
 5268SOL     OW16702   5.487   0.348   5.890
 5268SOL    HW116703   5.521   0.428   5.939
 5268SOL    HW216704   5.564   0.300   5.848
 5269SOL     OW16705   0.536   6.924   4.189
 5269SOL    HW116706   0.491   6.897   4.274
 5269SOL    HW216707   0.513   7.019   4.168
 5270SOL     OW16708   1.064   1.591   6.234
 5270SOL    HW116709   1.047   1.588   6.136
 5270SOL    HW216710   1.111   1.677   6.257
 5271SOL     OW16711   1.160   5.129   3.054
 5271SOL    HW116712   1.165   5.134   2.955
 5271SOL    HW216713   1.107   5.048   3.081
 5272SOL     OW16714   4.152   0.411   0.020
 5272SOL    HW116715   4.127   0.322   7.007
 5272SOL    HW216716   4.135   0.482   6.977
 5273SOL     OW16717   2.390   1.783   2.497
 5273SOL    HW116718   2.310   1.750   2.547
 5273SOL    HW216719   2.473   1.767   2.550
 5274SOL     OW16720   5.486   5.243   1.421
 5274SOL    HW116721   5.521   5.310   1.356
 5274SOL    HW216722   5.398   5.208   1.388
 5275SOL     OW16723   4.505   1.573   6.699
 5275SOL    HW116724   4.488   1.537   6.791
 5275SOL    HW216725   4.425   1.624   6.668
 5276SOL     OW16726   4.048   6.621   2.310
 5276SOL    HW116727   4.039   6.697   2.246
 5276SOL    HW216728   3.981   6.631   2.384
 5277SOL     OW16729   2.063   2.834   2.067
 5277SOL    HW116730   2.062   2.933   2.053
 5277SOL    HW216731   2.155   2.804   2.091
 5278SOL     OW16732   4.052   3.531   1.688
 5278SOL    HW116733   4.083   3.588   1.764
 5278SOL    HW216734   4.111   3.451   1.680
 5279SOL     OW16735   1.990   6.345   2.213
 5279SOL    HW116736   1.909   6.392   2.248
 5279SOL    HW216737   1.963   6.277   2.145
 5280SOL     OW16738   4.411   0.403   5.160
 5280SOL    HW116739   4.438   0.308   5.141
 5280SOL    HW216740   4.420   0.421   5.258
 5281SOL     OW16741   0.136   2.615   3.302
 5281SOL    HW116742   0.169   2.522   3.314
 5281SOL    HW216743   0.076   2.619   3.222
 5282SOL     OW16744   5.031   1.264   1.715
 5282SOL    HW116745   4.998   1.356   1.737
 5282SOL    HW216746   5.022   1.206   1.796
 5283SOL     OW16747   5.455   5.394   5.578
 5283SOL    HW116748   5.469   5.389   5.677
 5283SOL    HW216749   5.463   5.303   5.539
 5284SOL     OW16750   4.927   2.445   3.398
 5284SOL    HW116751   4.867   2.402   3.465
 5284SOL    HW216752   5.004   2.488   3.445
 5285SOL     OW16753   4.095   6.166   2.449
 5285SOL    HW116754   4.062   6.115   2.528
 5285SOL    HW216755   4.080   6.113   2.366
 5286SOL     OW16756   2.644   5.280   2.176
 5286SOL    HW116757   2.587   5.220   2.233
 5286SOL    HW216758   2.736   5.285   2.214
 5287SOL     OW16759   0.325   1.680   1.790
 5287SOL    HW116760   0.365   1.685   1.881
 5287SOL    HW216761   0.248   1.616   1.791
 5288SOL     OW16762   4.172   1.016   0.627
 5288SOL    HW116763   4.208   1.081   0.560
 5288SOL    HW216764   4.178   1.056   0.719
 5289SOL     OW16765   2.544   6.121   1.055
 5289SOL    HW116766   2.463   6.077   1.017
 5289SOL    HW216767   2.519   6.170   1.138
 5290SOL     OW16768   5.327   6.041   0.721
 5290SOL    HW116769   5.261   6.109   0.690
 5290SOL    HW216770   5.420   6.077   0.710
 5291SOL     OW16771   1.121   5.229   6.528
 5291SOL    HW116772   1.063   5.148   6.537
 5291SOL    HW216773   1.209   5.202   6.488
 5292SOL     OW16774   5.381   1.912   6.942
 5292SOL    HW116775   5.476   1.906   6.972
 5292SOL    HW216776   5.346   2.004   6.961
 5293SOL     OW16777   1.602   1.746   3.309
 5293SOL    HW116778   1.565   1.776   3.396
 5293SOL    HW216779   1.668   1.813   3.275
 5294SOL     OW16780   4.481   2.572   5.329
 5294SOL    HW116781   4.562   2.565   5.270
 5294SOL    HW216782   4.400   2.587   5.272
 5295SOL     OW16783   5.902   0.899   2.374
 5295SOL    HW116784   5.811   0.879   2.410
 5295SOL    HW216785   5.968   0.902   2.448
 5296SOL     OW16786   0.253   3.474   0.313
 5296SOL    HW116787   0.215   3.566   0.310
 5296SOL    HW216788   0.351   3.478   0.294
 5297SOL     OW16789   1.338   3.010   2.497
 5297SOL    HW116790   1.402   2.982   2.569
 5297SOL    HW216791   1.250   3.033   2.539
 5298SOL     OW16792   1.135   5.248   1.542
 5298SOL    HW116793   1.089   5.159   1.548
 5298SOL    HW216794   1.166   5.263   1.449
 5299SOL     OW16795   3.386   0.347   1.407
 5299SOL    HW116796   3.307   0.353   1.346
 5299SOL    HW216797   3.407   0.438   1.444
 5300SOL     OW16798   6.751   5.450   4.040
 5300SOL    HW116799   6.715   5.363   4.006
 5300SOL    HW216800   6.827   5.479   3.982
 5301SOL     OW16801   4.816   0.347   0.811
 5301SOL    HW116802   4.722   0.380   0.804
 5301SOL    HW216803   4.816   0.252   0.841
 5302SOL     OW16804   6.531   4.302   3.567
 5302SOL    HW116805   6.447   4.271   3.612
 5302SOL    HW216806   6.546   4.398   3.589
 5303SOL     OW16807   0.616   5.662   3.183
 5303SOL    HW116808   0.636   5.620   3.094
 5303SOL    HW216809   0.530   5.627   3.218
 5304SOL     OW16810   4.769   2.037   5.427
 5304SOL    HW116811   4.846   2.099   5.443
 5304SOL    HW216812   4.683   2.085   5.445
 5305SOL     OW16813   2.965   1.328   3.353
 5305SOL    HW116814   3.054   1.346   3.310
 5305SOL    HW216815   2.949   1.396   3.425
 5306SOL     OW16816   2.890   6.628   4.337
 5306SOL    HW116817   2.860   6.684   4.260
 5306SOL    HW216818   2.974   6.579   4.312
 5307SOL     OW16819   4.439   6.987   6.712
 5307SOL    HW116820   4.416   6.926   6.637
 5307SOL    HW216821   4.402   0.054   6.694
 5308SOL     OW16822   6.839   1.363   2.121
 5308SOL    HW116823   6.881   1.339   2.209
 5308SOL    HW216824   6.843   1.284   2.059
 5309SOL     OW16825   3.548   3.688   4.589
 5309SOL    HW116826   3.634   3.707   4.637
 5309SOL    HW216827   3.471   3.702   4.651
 5310SOL     OW16828   5.615   2.903   0.160
 5310SOL    HW116829   5.525   2.865   0.179
 5310SOL    HW216830   5.653   2.859   0.078
 5311SOL     OW16831   1.133   6.149   6.423
 5311SOL    HW116832   1.047   6.100   6.439
 5311SOL    HW216833   1.152   6.152   6.325
 5312SOL     OW16834   0.406   3.288   2.123
 5312SOL    HW116835   0.499   3.278   2.089
 5312SOL    HW216836   0.375   3.382   2.107
 5313SOL     OW16837   1.138   6.651   0.118
 5313SOL    HW116838   1.044   6.634   0.149
 5313SOL    HW216839   1.201   6.595   0.172
 5314SOL     OW16840   3.600   5.066   1.040
 5314SOL    HW116841   3.632   4.979   1.003
 5314SOL    HW216842   3.678   5.129   1.049
 5315SOL     OW16843   5.330   2.522   1.875
 5315SOL    HW116844   5.301   2.477   1.960
 5315SOL    HW216845   5.259   2.585   1.845
 5316SOL     OW16846   5.727   5.304   4.550
 5316SOL    HW116847   5.730   5.230   4.482
 5316SOL    HW216848   5.645   5.294   4.606
 5317SOL     OW16849   6.101   5.449   2.981
 5317SOL    HW116850   6.142   5.409   3.063
 5317SOL    HW216851   6.024   5.392   2.952
 5318SOL     OW16852   0.431   2.157   4.122
 5318SOL    HW116853   0.482   2.201   4.196
 5318SOL    HW216854   0.362   2.220   4.087
 5319SOL     OW16855   3.575   0.046   1.403
 5319SOL    HW116856   3.663   0.083   1.373
 5319SOL    HW216857   3.518   0.119   1.439
 5320SOL     OW16858   6.181   3.966   5.726
 5320SOL    HW116859   6.233   4.016   5.795
 5320SOL    HW216860   6.243   3.936   5.653
 5321SOL     OW16861   1.946   5.150   6.079
 5321SOL    HW116862   1.930   5.192   5.990
 5321SOL    HW216863   2.028   5.189   6.120
 5322SOL     OW16864   2.332   6.291   0.864
 5322SOL    HW116865   2.292   6.301   0.773
 5322SOL    HW216866   2.281   6.222   0.916
 5323SOL     OW16867   5.595   3.644   0.485
 5323SOL    HW116868   5.620   3.547   0.495
 5323SOL    HW216869   5.604   3.670   0.389
 5324SOL     OW16870   4.103   3.533   1.373
 5324SOL    HW116871   4.010   3.502   1.358
 5324SOL    HW216872   4.167   3.457   1.363
 5325SOL     OW16873   4.398   6.107   4.670
 5325SOL    HW116874   4.437   6.026   4.713
 5325SOL    HW216875   4.468   6.154   4.617
 5326SOL     OW16876   0.310   0.412   2.499
 5326SOL    HW116877   0.317   0.491   2.438
 5326SOL    HW216878   0.257   0.438   2.580
 5327SOL     OW16879   6.992   0.161   4.174
 5327SOL    HW116880   6.969   0.248   4.218
 5327SOL    HW216881   0.042   0.175   4.109
 5328SOL     OW16882   3.846   5.165   0.272
 5328SOL    HW116883   3.776   5.237   0.265
 5328SOL    HW216884   3.932   5.206   0.301
 5329SOL     OW16885   6.974   5.793   0.373
 5329SOL    HW116886   0.003   5.834   0.446
 5329SOL    HW216887   6.971   5.694   0.385
 5330SOL     OW16888   3.424   4.438   0.156
 5330SOL    HW116889   3.435   4.488   0.242
 5330SOL    HW216890   3.512   4.396   0.131
 5331SOL     OW16891   5.609   1.893   6.641
 5331SOL    HW116892   5.558   1.932   6.564
 5331SOL    HW216893   5.550   1.830   6.691
 5332SOL     OW16894   5.158   3.396   6.944
 5332SOL    HW116895   5.125   3.466   6.880
 5332SOL    HW216896   5.221   3.335   6.897
 5333SOL     OW16897   1.840   1.739   4.590
 5333SOL    HW116898   1.805   1.646   4.594
 5333SOL    HW216899   1.787   1.798   4.651
 5334SOL     OW16900   3.233   6.077   1.684
 5334SOL    HW116901   3.299   6.104   1.614
 5334SOL    HW216902   3.157   6.141   1.686
 5335SOL     OW16903   0.234   4.810   1.771
 5335SOL    HW116904   0.299   4.734   1.767
 5335SOL    HW216905   0.174   4.807   1.692
 5336SOL     OW16906   1.420   3.311   5.413
 5336SOL    HW116907   1.452   3.327   5.320
 5336SOL    HW216908   1.375   3.393   5.447
 5337SOL     OW16909   6.943   4.014   0.868
 5337SOL    HW116910   6.943   4.065   0.954
 5337SOL    HW216911   6.948   3.916   0.887
 5338SOL     OW16912   6.376   3.833   0.482
 5338SOL    HW116913   6.451   3.893   0.509
 5338SOL    HW216914   6.393   3.798   0.390
 5339SOL     OW16915   5.444   3.029   2.045
 5339SOL    HW116916   5.379   2.975   1.991
 5339SOL    HW216917   5.419   3.125   2.041
 5340SOL     OW16918   4.471   3.435   1.637
 5340SOL    HW116919   4.531   3.501   1.683
 5340SOL    HW216920   4.411   3.392   1.705
 5341SOL     OW16921   4.856   4.452   3.414
 5341SOL    HW116922   4.919   4.395   3.361
 5341SOL    HW216923   4.862   4.547   3.382
 5342SOL     OW16924   6.376   5.784   5.124
 5342SOL    HW116925   6.351   5.838   5.044
 5342SOL    HW216926   6.296   5.733   5.155
 5343SOL     OW16927   3.870   3.431   6.399
 5343SOL    HW116928   3.824   3.434   6.310
 5343SOL    HW216929   3.802   3.427   6.471
 5344SOL     OW16930   6.976   1.410   6.840
 5344SOL    HW116931   6.968   1.313   6.861
 5344SOL    HW216932   6.979   1.422   6.740
 5345SOL     OW16933   5.055   1.153   6.721
 5345SOL    HW116934   5.056   1.172   6.819
 5345SOL    HW216935   5.118   1.078   6.701
 5346SOL     OW16936   3.159   5.886   3.177
 5346SOL    HW116937   3.112   5.809   3.135
 5346SOL    HW216938   3.119   5.971   3.143
 5347SOL     OW16939   5.159   1.656   4.385
 5347SOL    HW116940   5.106   1.683   4.466
 5347SOL    HW216941   5.243   1.610   4.414
 5348SOL     OW16942   4.947   2.747   5.043
 5348SOL    HW116943   4.924   2.798   4.960
 5348SOL    HW216944   4.933   2.649   5.028
 5349SOL     OW16945   0.581   3.624   1.294
 5349SOL    HW116946   0.507   3.599   1.357
 5349SOL    HW216947   0.572   3.720   1.269
 5350SOL     OW16948   1.060   0.112   0.006
 5350SOL    HW116949   0.987   0.051   0.036
 5350SOL    HW216950   1.065   0.112   6.931
 5351SOL     OW16951   6.912   5.833   3.150
 5351SOL    HW116952   6.868   5.772   3.084
 5351SOL    HW216953   7.012   5.823   3.143
 5352SOL     OW16954   1.624   2.664   5.948
 5352SOL    HW116955   1.685   2.605   5.895
 5352SOL    HW216956   1.559   2.708   5.887
 5353SOL     OW16957   3.877   5.329   3.668
 5353SOL    HW116958   3.912   5.420   3.649
 5353SOL    HW216959   3.947   5.261   3.645
 5354SOL     OW16960   3.741   5.726   0.982
 5354SOL    HW116961   3.767   5.692   1.072
 5354SOL    HW216962   3.814   5.784   0.946
 5355SOL     OW16963   4.680   5.939   5.153
 5355SOL    HW116964   4.694   5.847   5.115
 5355SOL    HW216965   4.693   6.006   5.080
 5356SOL     OW16966   1.147   6.177   0.856
 5356SOL    HW116967   1.053   6.166   0.822
 5356SOL    HW216968   1.178   6.270   0.837
 5357SOL     OW16969   6.569   3.575   2.598
 5357SOL    HW116970   6.589   3.484   2.560
 5357SOL    HW216971   6.654   3.628   2.602
 5358SOL     OW16972   5.953   0.477   6.582
 5358SOL    HW116973   5.997   0.559   6.620
 5358SOL    HW216974   6.008   0.443   6.505
 5359SOL     OW16975   3.112   2.712   6.852
 5359SOL    HW116976   3.211   2.713   6.866
 5359SOL    HW216977   3.073   2.798   6.883
 5360SOL     OW16978   5.400   5.302   3.950
 5360SOL    HW116979   5.355   5.345   4.028
 5360SOL    HW216980   5.447   5.371   3.895
 5361SOL     OW16981   1.501   4.555   2.920
 5361SOL    HW116982   1.583   4.553   2.864
 5361SOL    HW216983   1.504   4.634   2.981
 5362SOL     OW16984   6.329   1.311   2.901
 5362SOL    HW116985   6.275   1.395   2.909
 5362SOL    HW216986   6.282   1.248   2.839
 5363SOL     OW16987   5.482   5.374   3.563
 5363SOL    HW116988   5.445   5.396   3.473
 5363SOL    HW216989   5.483   5.456   3.619
 5364SOL     OW16990   4.426   2.387   2.208
 5364SOL    HW116991   4.339   2.339   2.203
 5364SOL    HW216992   4.443   2.417   2.302
 5365SOL     OW16993   2.823   3.818   5.123
 5365SOL    HW116994   2.871   3.736   5.154
 5365SOL    HW216995   2.883   3.871   5.062
 5366SOL     OW16996   6.187   5.821   3.055
 5366SOL    HW116997   6.197   5.915   3.022
 5366SOL    HW216998   6.090   5.802   3.074
 5367SOL     OW16999   6.080   6.108   1.568
 5367SOL    HW117000   6.151   6.037   1.568
 5367SOL    HW217001   5.998   6.074   1.523
 5368SOL     OW17002   0.383   6.227   4.609
 5368SOL    HW117003   0.307   6.187   4.557
 5368SOL    HW217004   0.363   6.221   4.707
 5369SOL     OW17005   4.506   6.123   2.527
 5369SOL    HW117006   4.481   6.039   2.574
 5369SOL    HW217007   4.455   6.130   2.441
 5370SOL     OW17008   1.765   2.785   0.106
 5370SOL    HW117009   1.800   2.742   0.189
 5370SOL    HW217010   1.685   2.840   0.129
 5371SOL     OW17011   6.151   5.620   4.907
 5371SOL    HW117012   6.241   5.632   4.864
 5371SOL    HW217013   6.079   5.647   4.843
 5372SOL     OW17014   1.969   6.821   3.112
 5372SOL    HW117015   1.939   6.912   3.085
 5372SOL    HW217016   2.033   6.785   3.044
 5373SOL     OW17017   2.897   1.171   6.443
 5373SOL    HW117018   2.923   1.182   6.347
 5373SOL    HW217019   2.798   1.167   6.450
 5374SOL     OW17020   1.010   3.609   1.449
 5374SOL    HW117021   1.061   3.596   1.533
 5374SOL    HW217022   1.021   3.704   1.418
 5375SOL     OW17023   2.359   4.462   5.138
 5375SOL    HW117024   2.424   4.390   5.163
 5375SOL    HW217025   2.276   4.452   5.193
 5376SOL     OW17026   1.149   0.294   0.675
 5376SOL    HW117027   1.174   0.359   0.747
 5376SOL    HW217028   1.206   0.310   0.595
 5377SOL     OW17029   1.494   2.073   2.755
 5377SOL    HW117030   1.424   2.077   2.825
 5377SOL    HW217031   1.473   1.999   2.690
 5378SOL     OW17032   4.589   6.533   2.660
 5378SOL    HW117033   4.545   6.454   2.702
 5378SOL    HW217034   4.683   6.510   2.637
 5379SOL     OW17035   2.204   2.013   3.401
 5379SOL    HW117036   2.208   1.991   3.304
 5379SOL    HW217037   2.118   2.061   3.421
 5380SOL     OW17038   4.525   5.832   1.243
 5380SOL    HW117039   4.499   5.740   1.215
 5380SOL    HW217040   4.623   5.837   1.258
 5381SOL     OW17041   3.582   1.319   3.183
 5381SOL    HW117042   3.515   1.355   3.118
 5381SOL    HW217043   3.660   1.382   3.188
 5382SOL     OW17044   3.962   1.201   2.967
 5382SOL    HW117045   4.016   1.118   2.960
 5382SOL    HW217046   3.904   1.211   2.886
 5383SOL     OW17047   2.054   2.974   4.679
 5383SOL    HW117048   2.020   2.893   4.726
 5383SOL    HW217049   2.131   2.948   4.620
 5384SOL     OW17050   5.125   6.051   6.224
 5384SOL    HW117051   5.155   6.034   6.317
 5384SOL    HW217052   5.182   6.122   6.182
 5385SOL     OW17053   4.484   3.690   0.192
 5385SOL    HW117054   4.495   3.617   0.124
 5385SOL    HW217055   4.412   3.664   0.257
 5386SOL     OW17056   4.556   4.940   4.199
 5386SOL    HW117057   4.623   4.985   4.140
 5386SOL    HW217058   4.464   4.965   4.170
 5387SOL     OW17059   0.823   2.091   4.345
 5387SOL    HW117060   0.918   2.099   4.374
 5387SOL    HW217061   0.764   2.091   4.426
 5388SOL     OW17062   6.709   6.602   4.396
 5388SOL    HW117063   6.782   6.640   4.453
 5388SOL    HW217064   6.704   6.653   4.310
 5389SOL     OW17065   5.368   1.495   4.446
 5389SOL    HW117066   5.356   1.402   4.479
 5389SOL    HW217067   5.459   1.505   4.405
 5390SOL     OW17068   6.248   3.816   2.945
 5390SOL    HW117069   6.259   3.876   3.025
 5390SOL    HW217070   6.288   3.727   2.965
 5391SOL     OW17071   3.309   2.476   1.115
 5391SOL    HW117072   3.372   2.484   1.192
 5391SOL    HW217073   3.227   2.529   1.133
 5392SOL     OW17074   5.315   0.498   4.569
 5392SOL    HW117075   5.387   0.543   4.622
 5392SOL    HW217076   5.250   0.567   4.535
 5393SOL     OW17077   4.027   1.068   4.023
 5393SOL    HW117078   3.964   1.143   4.000
 5393SOL    HW217079   4.076   1.090   4.107
 5394SOL     OW17080   6.791   2.781   1.706
 5394SOL    HW117081   6.749   2.734   1.784
 5394SOL    HW217082   6.784   2.723   1.625
 5395SOL     OW17083   0.550   1.457   0.945
 5395SOL    HW117084   0.511   1.507   0.868
 5395SOL    HW217085   0.581   1.367   0.914
 5396SOL     OW17086   3.389   2.869   0.664
 5396SOL    HW117087   3.428   2.778   0.657
 5396SOL    HW217088   3.430   2.918   0.741
 5397SOL     OW17089   6.966   0.070   2.348
 5397SOL    HW117090   6.936   0.149   2.402
 5397SOL    HW217091   6.889   0.037   2.292
 5398SOL     OW17092   6.740   2.406   3.055
 5398SOL    HW117093   6.643   2.394   3.077
 5398SOL    HW217094   6.792   2.422   3.139
 5399SOL     OW17095   1.982   3.289   1.129
 5399SOL    HW117096   2.023   3.215   1.076
 5399SOL    HW217097   1.952   3.362   1.068
 5400SOL     OW17098   4.492   2.970   1.476
 5400SOL    HW117099   4.553   2.958   1.554
 5400SOL    HW217100   4.509   3.059   1.434
 5401SOL     OW17101   5.011   3.042   1.053
 5401SOL    HW117102   4.933   3.072   1.109
 5401SOL    HW217103   5.096   3.075   1.093
 5402SOL     OW17104   0.866   6.424   1.984
 5402SOL    HW117105   0.844   6.504   2.041
 5402SOL    HW217106   0.962   6.429   1.955
 5403SOL     OW17107   4.867   2.300   6.337
 5403SOL    HW117108   4.840   2.396   6.342
 5403SOL    HW217109   4.831   2.251   6.417
 5404SOL     OW17110   5.131   6.894   0.284
 5404SOL    HW117111   5.044   6.845   0.277
 5404SOL    HW217112   5.120   6.986   0.249
 5405SOL     OW17113   0.393   5.162   7.016
 5405SOL    HW117114   0.387   5.202   6.924
 5405SOL    HW217115   0.307   5.176   0.039
 5406SOL     OW17116   3.375   1.234   5.859
 5406SOL    HW117117   3.422   1.230   5.948
 5406SOL    HW217118   3.296   1.293   5.866
 5407SOL     OW17119   1.116   6.661   3.506
 5407SOL    HW117120   1.020   6.639   3.488
 5407SOL    HW217121   1.123   6.715   3.589
 5408SOL     OW17122   2.508   1.995   4.596
 5408SOL    HW117123   2.455   1.920   4.635
 5408SOL    HW217124   2.583   1.959   4.540
 5409SOL     OW17125   0.738   2.614   2.625
 5409SOL    HW117126   0.671   2.544   2.599
 5409SOL    HW217127   0.730   2.634   2.723
 5410SOL     OW17128   6.671   2.845   0.559
 5410SOL    HW117129   6.768   2.868   0.553
 5410SOL    HW217130   6.652   2.763   0.506
 5411SOL     OW17131   3.686   5.473   0.794
 5411SOL    HW117132   3.641   5.540   0.854
 5411SOL    HW217133   3.624   5.396   0.779
 5412SOL     OW17134   1.203   2.275   4.953
 5412SOL    HW117135   1.227   2.363   4.912
 5412SOL    HW217136   1.131   2.232   4.900
 5413SOL     OW17137   0.507   4.987   5.244
 5413SOL    HW117138   0.478   4.966   5.151
 5413SOL    HW217139   0.507   5.086   5.258
 5414SOL     OW17140   5.637   4.598   5.594
 5414SOL    HW117141   5.609   4.564   5.684
 5414SOL    HW217142   5.599   4.539   5.523
 5415SOL     OW17143   2.359   1.468   6.703
 5415SOL    HW117144   2.412   1.493   6.622
 5415SOL    HW217145   2.354   1.547   6.765
 5416SOL     OW17146   3.434   5.733   0.058
 5416SOL    HW117147   3.380   5.729   6.999
 5416SOL    HW217148   3.474   5.644   0.076
 5417SOL     OW17149   5.615   0.222   3.165
 5417SOL    HW117150   5.579   0.294   3.225
 5417SOL    HW217151   5.674   0.264   3.096
 5418SOL     OW17152   0.160   3.778   5.834
 5418SOL    HW117153   0.193   3.846   5.899
 5418SOL    HW217154   0.232   3.710   5.817
 5419SOL     OW17155   4.018   1.881   6.593
 5419SOL    HW117156   3.962   1.837   6.522
 5419SOL    HW217157   4.105   1.910   6.554
 5420SOL     OW17158   1.224   2.172   1.559
 5420SOL    HW117159   1.141   2.169   1.502
 5420SOL    HW217160   1.207   2.123   1.644
 5421SOL     OW17161   3.913   5.599   1.709
 5421SOL    HW117162   4.010   5.594   1.733
 5421SOL    HW217163   3.901   5.579   1.612
 5422SOL     OW17164   2.430   5.434   3.635
 5422SOL    HW117165   2.357   5.503   3.641
 5422SOL    HW217166   2.404   5.354   3.690
 5423SOL     OW17167   4.691   6.715   1.460
 5423SOL    HW117168   4.612   6.672   1.415
 5423SOL    HW217169   4.737   6.647   1.516
 5424SOL     OW17170   4.172   3.818   5.444
 5424SOL    HW117171   4.221   3.746   5.396
 5424SOL    HW217172   4.223   3.904   5.436
 5425SOL     OW17173   1.290   5.150   6.121
 5425SOL    HW117174   1.303   5.176   6.217
 5425SOL    HW217175   1.276   5.051   6.115
 5426SOL     OW17176   6.566   4.693   1.357
 5426SOL    HW117177   6.505   4.633   1.408
 5426SOL    HW217178   6.609   4.758   1.419
 5427SOL     OW17179   4.706   2.710   0.300
 5427SOL    HW117180   4.801   2.739   0.288
 5427SOL    HW217181   4.674   2.736   0.391
 5428SOL     OW17182   4.822   5.207   3.472
 5428SOL    HW117183   4.870   5.285   3.430
 5428SOL    HW217184   4.731   5.199   3.432
 5429SOL     OW17185   2.819   0.207   4.275
 5429SOL    HW117186   2.883   0.276   4.241
 5429SOL    HW217187   2.822   0.126   4.217
 5430SOL     OW17188   2.050   3.606   5.718
 5430SOL    HW117189   2.118   3.613   5.644
 5430SOL    HW217190   2.071   3.672   5.789
 5431SOL     OW17191   4.461   4.572   0.082
 5431SOL    HW117192   4.440   4.538   7.015
 5431SOL    HW217193   4.441   4.500   0.149
 5432SOL     OW17194   0.126   5.065   6.444
 5432SOL    HW117195   0.216   5.084   6.484
 5432SOL    HW217196   0.067   5.023   6.514
 5433SOL     OW17197   3.728   0.093   0.997
 5433SOL    HW117198   3.827   0.086   1.009
 5433SOL    HW217199   3.682   0.069   1.082
 5434SOL     OW17200   4.979   6.747   4.186
 5434SOL    HW117201   4.979   6.741   4.286
 5434SOL    HW217202   5.016   6.662   4.149
 5435SOL     OW17203   7.018   4.991   6.683
 5435SOL    HW117204   0.058   5.054   6.726
 5435SOL    HW217205   6.925   5.016   6.710
 5436SOL     OW17206   1.926   4.864   2.261
 5436SOL    HW117207   1.870   4.912   2.328
 5436SOL    HW217208   2.023   4.888   2.274
 5437SOL     OW17209   3.361   6.648   0.918
 5437SOL    HW117210   3.424   6.671   0.843
 5437SOL    HW217211   3.327   6.732   0.960
 5438SOL     OW17212   3.859   6.308   1.977
 5438SOL    HW117213   3.893   6.329   2.069
 5438SOL    HW217214   3.929   6.330   1.910
 5439SOL     OW17215   1.307   4.195   0.802
 5439SOL    HW117216   1.340   4.220   0.893
 5439SOL    HW217217   1.213   4.163   0.808
 5440SOL     OW17218   5.588   6.837   3.576
 5440SOL    HW117219   5.652   6.788   3.636
 5440SOL    HW217220   5.515   6.878   3.632
 5441SOL     OW17221   5.555   2.197   4.711
 5441SOL    HW117222   5.489   2.125   4.733
 5441SOL    HW217223   5.645   2.172   4.744
 5442SOL     OW17224   2.872   0.501   6.647
 5442SOL    HW117225   2.938   0.474   6.717
 5442SOL    HW217226   2.920   0.537   6.567
 5443SOL     OW17227   5.790   1.409   3.182
 5443SOL    HW117228   5.691   1.423   3.184
 5443SOL    HW217229   5.830   1.450   3.264
 5444SOL     OW17230   0.583   1.488   6.117
 5444SOL    HW117231   0.502   1.478   6.175
 5444SOL    HW217232   0.579   1.576   6.070
 5445SOL     OW17233   5.764   6.470   5.480
 5445SOL    HW117234   5.755   6.446   5.384
 5445SOL    HW217235   5.777   6.569   5.489
 5446SOL     OW17236   1.096   4.243   5.858
 5446SOL    HW117237   1.097   4.274   5.953
 5446SOL    HW217238   1.057   4.314   5.800
 5447SOL     OW17239   6.509   1.866   1.709
 5447SOL    HW117240   6.482   1.953   1.749
 5447SOL    HW217241   6.431   1.804   1.706
 5448SOL     OW17242   5.848   5.248   2.349
 5448SOL    HW117243   5.790   5.295   2.282
 5448SOL    HW217244   5.791   5.218   2.426
 5449SOL     OW17245   1.889   1.034   1.731
 5449SOL    HW117246   1.926   1.049   1.639
 5449SOL    HW217247   1.883   1.122   1.779
 5450SOL     OW17248   4.523   5.842   1.958
 5450SOL    HW117249   4.567   5.930   1.942
 5450SOL    HW217250   4.586   5.768   1.933
 5451SOL     OW17251   6.667   6.625   3.608
 5451SOL    HW117252   6.683   6.675   3.693
 5451SOL    HW217253   6.590   6.562   3.620
 5452SOL     OW17254   2.343   4.296   2.513
 5452SOL    HW117255   2.345   4.393   2.488
 5452SOL    HW217256   2.251   4.273   2.546
 5453SOL     OW17257   6.530   4.231   4.191
 5453SOL    HW117258   6.549   4.288   4.271
 5453SOL    HW217259   6.516   4.289   4.111
 5454SOL     OW17260   5.839   3.931   2.645
 5454SOL    HW117261   5.885   3.956   2.730
 5454SOL    HW217262   5.762   3.872   2.665
 5455SOL     OW17263   2.859   1.932   3.603
 5455SOL    HW117264   2.876   1.836   3.583
 5455SOL    HW217265   2.792   1.940   3.677
 5456SOL     OW17266   6.044   2.168   0.210
 5456SOL    HW117267   6.043   2.071   0.188
 5456SOL    HW217268   5.951   2.205   0.200
 5457SOL     OW17269   6.371   1.209   0.041
 5457SOL    HW117270   6.452   1.263   0.017
 5457SOL    HW217271   6.303   1.218   6.993
 5458SOL     OW17272   4.879   4.335   6.566
 5458SOL    HW117273   4.943   4.403   6.531
 5458SOL    HW217274   4.926   4.248   6.578
 5459SOL     OW17275   2.197   2.862   5.179
 5459SOL    HW117276   2.214   2.826   5.271
 5459SOL    HW217277   2.284   2.867   5.129
 5460SOL     OW17278   0.444   0.637   1.385
 5460SOL    HW117279   0.367   0.574   1.371
 5460SOL    HW217280   0.453   0.656   1.483
 5461SOL     OW17281   6.003   1.545   6.225
 5461SOL    HW117282   5.942   1.529   6.148
 5461SOL    HW217283   6.028   1.457   6.266
 5462SOL     OW17284   5.334   5.171   5.821
 5462SOL    HW117285   5.345   5.072   5.833
 5462SOL    HW217286   5.259   5.189   5.758
 5463SOL     OW17287   1.301   4.071   5.818
 5463SOL    HW117288   1.382   4.124   5.842
 5463SOL    HW217289   1.224   4.133   5.801
 5464SOL     OW17290   1.796   5.276   4.830
 5464SOL    HW117291   1.832   5.369   4.833
 5464SOL    HW217292   1.750   5.255   4.916
 5465SOL     OW17293   0.942   0.082   5.153
 5465SOL    HW117294   0.994   0.020   5.094
 5465SOL    HW217295   0.928   0.039   5.242
 5466SOL     OW17296   5.467   1.568   4.703
 5466SOL    HW117297   5.379   1.598   4.740
 5466SOL    HW217298   5.452   1.513   4.621
 5467SOL     OW17299   4.862   3.193   4.479
 5467SOL    HW117300   4.802   3.265   4.514
 5467SOL    HW217301   4.948   3.234   4.448
 5468SOL     OW17302   6.749   2.112   1.393
 5468SOL    HW117303   6.704   2.037   1.344
 5468SOL    HW217304   6.684   2.153   1.457
 5469SOL     OW17305   3.113   1.006   4.554
 5469SOL    HW117306   3.177   1.010   4.478
 5469SOL    HW217307   3.107   1.096   4.597
 5470SOL     OW17308   4.202   5.502   3.938
 5470SOL    HW117309   4.227   5.566   4.011
 5470SOL    HW217310   4.110   5.467   3.955
 5471SOL     OW17311   4.840   0.264   2.399
 5471SOL    HW117312   4.803   0.251   2.306
 5471SOL    HW217313   4.857   0.361   2.414
 5472SOL     OW17314   2.659   3.651   0.557
 5472SOL    HW117315   2.619   3.736   0.591
 5472SOL    HW217316   2.597   3.608   0.492
 5473SOL     OW17317   3.094   4.795   1.867
 5473SOL    HW117318   3.147   4.839   1.939
 5473SOL    HW217319   3.121   4.698   1.860
 5474SOL     OW17320   1.453   4.965   2.265
 5474SOL    HW117321   1.450   4.865   2.254
 5474SOL    HW217322   1.433   5.009   2.178
 5475SOL     OW17323   1.195   1.106   5.180
 5475SOL    HW117324   1.158   1.195   5.154
 5475SOL    HW217325   1.155   1.077   5.267
 5476SOL     OW17326   1.995   6.636   4.978
 5476SOL    HW117327   1.939   6.553   4.980
 5476SOL    HW217328   1.936   6.716   4.967
 5477SOL     OW17329   2.134   3.453   3.747
 5477SOL    HW117330   2.145   3.376   3.684
 5477SOL    HW217331   2.073   3.521   3.706
 5478SOL     OW17332   5.068   4.872   5.824
 5478SOL    HW117333   5.078   4.902   5.919
 5478SOL    HW217334   5.112   4.938   5.764
 5479SOL     OW17335   5.220   2.377   4.340
 5479SOL    HW117336   5.274   2.395   4.257
 5479SOL    HW217337   5.266   2.307   4.394
 5480SOL     OW17338   1.421   3.240   4.447
 5480SOL    HW117339   1.339   3.253   4.502
 5480SOL    HW217340   1.444   3.142   4.444
 5481SOL     OW17341   4.071   1.487   6.521
 5481SOL    HW117342   3.971   1.487   6.520
 5481SOL    HW217343   4.106   1.558   6.460
 5482SOL     OW17344   5.462   3.366   1.947
 5482SOL    HW117345   5.405   3.446   1.927
 5482SOL    HW217346   5.529   3.389   2.016
 5483SOL     OW17347   6.967   3.026   0.022
 5483SOL    HW117348   6.912   3.109   0.028
 5483SOL    HW217349   6.951   2.982   6.958
 5484SOL     OW17350   6.496   0.059   5.344
 5484SOL    HW117351   6.402   0.088   5.363
 5484SOL    HW217352   6.554   0.140   5.334
 5485SOL     OW17353   3.735   7.001   4.663
 5485SOL    HW117354   3.829   6.968   4.672
 5485SOL    HW217355   3.672   6.924   4.671
 5486SOL     OW17356   1.000   1.078   4.052
 5486SOL    HW117357   0.979   1.064   3.956
 5486SOL    HW217358   1.079   1.139   4.061
 5487SOL     OW17359   4.497   5.171   0.465
 5487SOL    HW117360   4.486   5.091   0.524
 5487SOL    HW217361   4.415   5.229   0.472
 5488SOL     OW17362   5.333   1.092   6.147
 5488SOL    HW117363   5.287   1.008   6.175
 5488SOL    HW217364   5.296   1.123   6.060
 5489SOL     OW17365   6.918   4.231   3.160
 5489SOL    HW117366   6.978   4.154   3.139
 5489SOL    HW217367   6.831   4.197   3.194
 5490SOL     OW17368   2.138   2.250   6.789
 5490SOL    HW117369   2.199   2.312   6.839
 5490SOL    HW217370   2.169   2.242   6.694
 5491SOL     OW17371   0.283   5.978   1.532
 5491SOL    HW117372   0.215   6.046   1.508
 5491SOL    HW217373   0.275   5.899   1.471
 5492SOL     OW17374   1.748   1.067   4.845
 5492SOL    HW117375   1.655   1.029   4.849
 5492SOL    HW217376   1.744   1.161   4.813
 5493SOL     OW17377   3.331   2.720   0.194
 5493SOL    HW117378   3.238   2.688   0.216
 5493SOL    HW217379   3.362   2.784   0.264
 5494SOL     OW17380   6.110   3.060   1.974
 5494SOL    HW117381   6.179   3.008   1.924
 5494SOL    HW217382   6.134   3.060   2.072
 5495SOL     OW17383   3.616   2.843   3.150
 5495SOL    HW117384   3.578   2.833   3.058
 5495SOL    HW217385   3.711   2.811   3.151
 5496SOL     OW17386   3.631   5.044   1.347
 5496SOL    HW117387   3.598   5.076   1.258
 5496SOL    HW217388   3.638   5.122   1.409
 5497SOL     OW17389   6.274   0.209   1.976
 5497SOL    HW117390   6.364   0.205   1.932
 5497SOL    HW217391   6.271   0.144   2.051
 5498SOL     OW17392   4.512   0.152   5.118
 5498SOL    HW117393   4.462   0.110   5.042
 5498SOL    HW217394   4.611   0.142   5.102
 5499SOL     OW17395   0.132   1.406   5.216
 5499SOL    HW117396   0.126   1.497   5.176
 5499SOL    HW217397   0.132   1.338   5.143
 5500SOL     OW17398   2.280   5.384   1.078
 5500SOL    HW117399   2.365   5.399   1.129
 5500SOL    HW217400   2.263   5.286   1.071
 5501SOL     OW17401   2.082   0.407   2.727
 5501SOL    HW117402   2.170   0.422   2.773
 5501SOL    HW217403   2.044   0.319   2.754
 5502SOL     OW17404   4.579   3.624   0.477
 5502SOL    HW117405   4.487   3.639   0.441
 5502SOL    HW217406   4.623   3.550   0.426
 5503SOL     OW17407   0.558   6.567   4.263
 5503SOL    HW117408   0.575   6.625   4.184
 5503SOL    HW217409   0.463   6.533   4.260
 5504SOL     OW17410   3.515   2.099   4.442
 5504SOL    HW117411   3.535   2.009   4.480
 5504SOL    HW217412   3.583   2.121   4.373
 5505SOL     OW17413   3.376   4.651   6.038
 5505SOL    HW117414   3.332   4.668   6.126
 5505SOL    HW217415   3.412   4.558   6.035
 5506SOL     OW17416   0.425   6.903   5.716
 5506SOL    HW117417   0.333   6.864   5.718
 5506SOL    HW217418   0.481   6.861   5.787
 5507SOL     OW17419   3.737   5.959   4.576
 5507SOL    HW117420   3.724   5.967   4.478
 5507SOL    HW217421   3.657   5.997   4.624
 5508SOL     OW17422   2.440   0.490   5.894
 5508SOL    HW117423   2.482   0.436   5.968
 5508SOL    HW217424   2.343   0.503   5.914
 5509SOL     OW17425   6.155   6.303   7.018
 5509SOL    HW117426   6.133   6.336   0.085
 5509SOL    HW217427   6.163   6.380   6.955
 5510SOL     OW17428   5.858   0.123   6.440
 5510SOL    HW117429   5.920   0.190   6.399
 5510SOL    HW217430   5.859   0.039   6.385
 5511SOL     OW17431   0.164   1.878   1.872
 5511SOL    HW117432   0.217   1.800   1.838
 5511SOL    HW217433   0.215   1.922   1.946
 5512SOL     OW17434   0.525   0.256   1.002
 5512SOL    HW117435   0.431   0.268   1.032
 5512SOL    HW217436   0.535   0.284   0.907
 5513SOL     OW17437   3.256   5.348   4.829
 5513SOL    HW117438   3.268   5.400   4.913
 5513SOL    HW217439   3.256   5.250   4.849
 5514SOL     OW17440   6.202   5.251   3.638
 5514SOL    HW117441   6.126   5.316   3.642
 5514SOL    HW217442   6.190   5.181   3.708
 5515SOL     OW17443   6.722   2.738   2.467
 5515SOL    HW117444   6.757   2.777   2.553
 5515SOL    HW217445   6.797   2.694   2.418
 5516SOL     OW17446   1.508   3.349   6.169
 5516SOL    HW117447   1.426   3.300   6.138
 5516SOL    HW217448   1.547   3.401   6.094
 5517SOL     OW17449   2.003   1.599   1.628
 5517SOL    HW117450   2.059   1.648   1.696
 5517SOL    HW217451   1.907   1.617   1.646
 5518SOL     OW17452   5.362   5.065   4.987
 5518SOL    HW117453   5.407   4.981   4.956
 5518SOL    HW217454   5.283   5.084   4.928
 5519SOL     OW17455   5.557   3.700   3.362
 5519SOL    HW117456   5.580   3.664   3.452
 5519SOL    HW217457   5.470   3.662   3.332
 5520SOL     OW17458   1.492   3.212   1.108
 5520SOL    HW117459   1.592   3.214   1.111
 5520SOL    HW217460   1.462   3.225   1.013
 5521SOL     OW17461   4.569   5.557   1.385
 5521SOL    HW117462   4.545   5.569   1.289
 5521SOL    HW217463   4.556   5.461   1.411
 5522SOL     OW17464   2.116   3.258   2.412
 5522SOL    HW117465   2.054   3.185   2.381
 5522SOL    HW217466   2.143   3.314   2.334
 5523SOL     OW17467   3.349   0.845   1.430
 5523SOL    HW117468   3.404   0.837   1.347
 5523SOL    HW217469   3.268   0.900   1.412
 5524SOL     OW17470   6.473   5.787   6.265
 5524SOL    HW117471   6.435   5.859   6.206
 5524SOL    HW217472   6.490   5.705   6.210
 5525SOL     OW17473   6.599   5.910   4.422
 5525SOL    HW117474   6.539   5.988   4.437
 5525SOL    HW217475   6.694   5.942   4.418
 5526SOL     OW17476   5.568   3.076   4.746
 5526SOL    HW117477   5.512   3.001   4.712
 5526SOL    HW217478   5.575   3.147   4.676
 5527SOL     OW17479   2.521   3.361   0.884
 5527SOL    HW117480   2.442   3.416   0.859
 5527SOL    HW217481   2.520   3.343   0.983
 5528SOL     OW17482   0.139   3.130   2.989
 5528SOL    HW117483   0.156   3.046   3.039
 5528SOL    HW217484   0.099   3.198   3.051
 5529SOL     OW17485   1.936   1.472   5.135
 5529SOL    HW117486   2.002   1.527   5.187
 5529SOL    HW217487   1.844   1.508   5.149
 5530SOL     OW17488   0.767   3.157   0.745
 5530SOL    HW117489   0.841   3.091   0.734
 5530SOL    HW217490   0.696   3.139   0.677
 5531SOL     OW17491   1.894   2.844   5.927
 5531SOL    HW117492   1.922   2.754   5.959
 5531SOL    HW217493   1.818   2.834   5.863
 5532SOL     OW17494   2.381   1.988   0.938
 5532SOL    HW117495   2.419   2.069   0.981
 5532SOL    HW217496   2.454   1.921   0.923
 5533SOL     OW17497   4.203   0.167   0.391
 5533SOL    HW117498   4.252   0.148   0.476
 5533SOL    HW217499   4.104   0.156   0.407
 5534SOL     OW17500   6.654   4.741   5.305
 5534SOL    HW117501   6.710   4.823   5.292
 5534SOL    HW217502   6.682   4.671   5.240
 5535SOL     OW17503   5.907   3.778   3.393
 5535SOL    HW117504   5.909   3.685   3.356
 5535SOL    HW217505   5.927   3.843   3.320
 5536SOL     OW17506   2.121   0.544   3.709
 5536SOL    HW117507   2.128   0.559   3.807
 5536SOL    HW217508   2.033   0.580   3.676
 5537SOL     OW17509   4.420   1.427   4.747
 5537SOL    HW117510   4.465   1.358   4.804
 5537SOL    HW217511   4.365   1.487   4.804
 5538SOL     OW17512   5.756   2.274   1.586
 5538SOL    HW117513   5.823   2.284   1.659
 5538SOL    HW217514   5.694   2.352   1.586
 5539SOL     OW17515   3.083   6.455   0.156
 5539SOL    HW117516   3.180   6.473   0.172
 5539SOL    HW217517   3.028   6.494   0.229
 5540SOL     OW17518   4.961   0.852   6.944
 5540SOL    HW117519   4.886   0.853   7.010
 5540SOL    HW217520   4.923   0.859   6.851
 5541SOL     OW17521   4.557   3.505   6.431
 5541SOL    HW117522   4.579   3.549   6.345
 5541SOL    HW217523   4.632   3.517   6.496
 5542SOL     OW17524   4.163   4.693   6.778
 5542SOL    HW117525   4.232   4.684   6.707
 5542SOL    HW217526   4.120   4.783   6.773
 5543SOL     OW17527   1.982   0.362   0.405
 5543SOL    HW117528   1.990   0.376   0.307
 5543SOL    HW217529   2.037   0.283   0.432
 5544SOL     OW17530   3.664   5.729   6.373
 5544SOL    HW117531   3.607   5.804   6.341
 5544SOL    HW217532   3.750   5.727   6.321
 5545SOL     OW17533   4.647   0.583   3.004
 5545SOL    HW117534   4.670   0.628   3.090
 5545SOL    HW217535   4.597   0.647   2.945
 5546SOL     OW17536   0.317   5.020   4.598
 5546SOL    HW117537   0.227   5.042   4.559
 5546SOL    HW217538   0.381   5.094   4.579
 5547SOL     OW17539   5.214   1.642   4.769
 5547SOL    HW117540   5.182   1.595   4.851
 5547SOL    HW217541   5.135   1.673   4.716
 5548SOL     OW17542   0.363   4.526   4.590
 5548SOL    HW117543   0.432   4.529   4.663
 5548SOL    HW217544   0.335   4.619   4.567
 5549SOL     OW17545   4.084   3.026   0.507
 5549SOL    HW117546   4.024   3.033   0.586
 5549SOL    HW217547   4.049   2.957   0.444
 5550SOL     OW17548   1.785   4.205   1.769
 5550SOL    HW117549   1.729   4.248   1.698
 5550SOL    HW217550   1.728   4.150   1.829
 5551SOL     OW17551   1.787   5.587   3.382
 5551SOL    HW117552   1.817   5.576   3.287
 5551SOL    HW217553   1.728   5.510   3.407
 5552SOL     OW17554   0.269   6.711   7.022
 5552SOL    HW117555   0.332   6.642   0.032
 5552SOL    HW217556   0.176   6.688   0.027
 5553SOL     OW17557   5.029   0.192   6.936
 5553SOL    HW117558   4.968   0.271   6.926
 5553SOL    HW217559   5.007   0.123   6.867
 5554SOL     OW17560   5.903   2.026   1.510
 5554SOL    HW117561   5.875   1.954   1.574
 5554SOL    HW217562   5.844   2.106   1.522
 5555SOL     OW17563   2.013   5.067   2.508
 5555SOL    HW117564   1.938   5.083   2.444
 5555SOL    HW217565   1.982   5.008   2.582
 5556SOL     OW17566   0.259   1.004   4.686
 5556SOL    HW117567   0.238   1.098   4.714
 5556SOL    HW217568   0.301   1.005   4.595
 5557SOL     OW17569   3.252   5.766   2.829
 5557SOL    HW117570   3.298   5.802   2.910
 5557SOL    HW217571   3.184   5.832   2.797
 5558SOL     OW17572   4.098   4.252   6.993
 5558SOL    HW117573   4.112   4.350   7.004
 5558SOL    HW217574   4.180   4.211   6.952
 5559SOL     OW17575   2.508   0.926   2.490
 5559SOL    HW117576   2.517   0.922   2.590
 5559SOL    HW217577   2.428   0.873   2.462
 5560SOL     OW17578   0.707   6.477   3.130
 5560SOL    HW117579   0.630   6.457   3.070
 5560SOL    HW217580   0.774   6.533   3.080
 5561SOL     OW17581   3.672   6.787   3.306
 5561SOL    HW117582   3.659   6.873   3.256
 5561SOL    HW217583   3.681   6.712   3.241
 5562SOL     OW17584   3.854   4.400   0.652
 5562SOL    HW117585   3.880   4.319   0.705
 5562SOL    HW217586   3.927   4.469   0.658
 5563SOL     OW17587   2.552   4.495   2.728
 5563SOL    HW117588   2.560   4.441   2.645
 5563SOL    HW217589   2.638   4.544   2.745
 5564SOL     OW17590   5.324   0.778   5.846
 5564SOL    HW117591   5.265   0.708   5.884
 5564SOL    HW217592   5.406   0.787   5.903
 5565SOL     OW17593   3.326   2.317   6.126
 5565SOL    HW117594   3.320   2.389   6.196
 5565SOL    HW217595   3.419   2.281   6.124
 5566SOL     OW17596   1.467   3.743   6.675
 5566SOL    HW117597   1.376   3.755   6.635
 5566SOL    HW217598   1.519   3.828   6.666
 5567SOL     OW17599   0.036   4.231   1.391
 5567SOL    HW117600   0.024   4.165   1.466
 5567SOL    HW217601   0.008   4.189   1.305
 5568SOL     OW17602   4.276   5.344   1.345
 5568SOL    HW117603   4.274   5.244   1.345
 5568SOL    HW217604   4.324   5.376   1.427
 5569SOL     OW17605   2.247   3.024   3.577
 5569SOL    HW117606   2.326   3.082   3.598
 5569SOL    HW217607   2.164   3.079   3.581
 5570SOL     OW17608   0.383   3.711   2.656
 5570SOL    HW117609   0.382   3.650   2.735
 5570SOL    HW217610   0.312   3.683   2.592
 5571SOL     OW17611   6.040   4.891   2.006
 5571SOL    HW117612   6.005   4.979   2.037
 5571SOL    HW217613   5.970   4.820   2.021
 5572SOL     OW17614   1.704   4.150   5.089
 5572SOL    HW117615   1.743   4.128   4.999
 5572SOL    HW217616   1.692   4.066   5.141
 5573SOL     OW17617   2.807   5.316   3.543
 5573SOL    HW117618   2.792   5.220   3.568
 5573SOL    HW217619   2.806   5.372   3.626
 5574SOL     OW17620   0.755   2.726   6.560
 5574SOL    HW117621   0.810   2.655   6.516
 5574SOL    HW217622   0.752   2.807   6.501
 5575SOL     OW17623   0.386   6.987   1.880
 5575SOL    HW117624   0.423   6.965   1.790
 5575SOL    HW217625   0.385   6.904   1.937
 5576SOL     OW17626   1.537   4.654   3.431
 5576SOL    HW117627   1.449   4.686   3.464
 5576SOL    HW217628   1.605   4.727   3.441
 5577SOL     OW17629   1.639   2.575   5.636
 5577SOL    HW117630   1.603   2.664   5.663
 5577SOL    HW217631   1.575   2.530   5.573
 5578SOL     OW17632   3.771   3.654   3.516
 5578SOL    HW117633   3.832   3.616   3.586
 5578SOL    HW217634   3.705   3.715   3.560
 5579SOL     OW17635   0.330   3.651   1.398
 5579SOL    HW117636   0.272   3.711   1.453
 5579SOL    HW217637   0.293   3.643   1.306
 5580SOL     OW17638   5.123   1.648   5.313
 5580SOL    HW117639   5.095   1.693   5.397
 5580SOL    HW217640   5.186   1.573   5.334
 5581SOL     OW17641   1.315   2.274   6.703
 5581SOL    HW117642   1.363   2.221   6.634
 5581SOL    HW217643   1.250   2.215   6.752
 5582SOL     OW17644   2.446   2.545   6.005
 5582SOL    HW117645   2.511   2.485   5.958
 5582SOL    HW217646   2.488   2.634   6.020
 5583SOL     OW17647   5.685   0.798   2.512
 5583SOL    HW117648   5.633   0.855   2.575
 5583SOL    HW217649   5.642   0.708   2.505
 5584SOL     OW17650   1.172   3.605   4.892
 5584SOL    HW117651   1.192   3.702   4.903
 5584SOL    HW217652   1.077   3.594   4.860
 5585SOL     OW17653   4.391   4.866   2.455
 5585SOL    HW117654   4.486   4.885   2.478
 5585SOL    HW217655   4.384   4.835   2.360
 5586SOL     OW17656   6.501   3.296   6.730
 5586SOL    HW117657   6.416   3.336   6.697
 5586SOL    HW217658   6.572   3.308   6.661
 5587SOL     OW17659   5.810   0.989   6.378
 5587SOL    HW117660   5.853   0.923   6.316
 5587SOL    HW217661   5.875   1.061   6.402
 5588SOL     OW17662   3.129   6.900   1.305
 5588SOL    HW117663   3.142   6.806   1.339
 5588SOL    HW217664   3.160   6.906   1.211
 5589SOL     OW17665   5.799   4.776   5.819
 5589SOL    HW117666   5.853   4.804   5.898
 5589SOL    HW217667   5.807   4.677   5.807
 5590SOL     OW17668   5.611   5.745   4.100
 5590SOL    HW117669   5.657   5.671   4.149
 5590SOL    HW217670   5.675   5.819   4.084
 5591SOL     OW17671   5.896   1.153   1.473
 5591SOL    HW117672   5.940   1.202   1.548
 5591SOL    HW217673   5.942   1.065   1.459
 5592SOL     OW17674   0.542   3.872   3.054
 5592SOL    HW117675   0.546   3.773   3.065
 5592SOL    HW217676   0.632   3.907   3.028
 5593SOL     OW17677   0.052   3.259   0.318
 5593SOL    HW117678   0.136   3.306   0.289
 5593SOL    HW217679   0.053   3.165   0.283
 5594SOL     OW17680   5.651   2.583   5.509
 5594SOL    HW117681   5.581   2.528   5.553
 5594SOL    HW217682   5.740   2.540   5.523
 5595SOL     OW17683   0.567   2.421   5.354
 5595SOL    HW117684   0.523   2.479   5.423
 5595SOL    HW217685   0.666   2.420   5.370
 5596SOL     OW17686   3.825   6.650   3.117
 5596SOL    HW117687   3.784   6.669   3.028
 5596SOL    HW217688   3.907   6.706   3.129
 5597SOL     OW17689   5.659   3.504   3.112
 5597SOL    HW117690   5.588   3.457   3.165
 5597SOL    HW217691   5.645   3.487   3.015
 5598SOL     OW17692   5.573   2.056   5.454
 5598SOL    HW117693   5.643   2.048   5.383
 5598SOL    HW217694   5.501   2.118   5.423
 5599SOL     OW17695   0.438   1.399   3.805
 5599SOL    HW117696   0.517   1.416   3.864
 5599SOL    HW217697   0.356   1.440   3.845
 5600SOL     OW17698   1.380   2.341   4.122
 5600SOL    HW117699   1.478   2.361   4.132
 5600SOL    HW217700   1.367   2.279   4.045
 5601SOL     OW17701   2.760   0.850   5.581
 5601SOL    HW117702   2.705   0.788   5.637
 5601SOL    HW217703   2.710   0.873   5.497
 5602SOL     OW17704   1.434   1.792   0.677
 5602SOL    HW117705   1.526   1.830   0.676
 5602SOL    HW217706   1.370   1.861   0.712
 5603SOL     OW17707   6.071   2.776   6.545
 5603SOL    HW117708   6.083   2.844   6.473
 5603SOL    HW217709   6.073   2.684   6.504
 5604SOL     OW17710   6.715   1.926   6.041
 5604SOL    HW117711   6.616   1.913   6.037
 5604SOL    HW217712   6.736   2.014   6.085
 5605SOL     OW17713   0.324   2.059   5.176
 5605SOL    HW117714   0.267   2.122   5.228
 5605SOL    HW217715   0.414   2.101   5.161
 5606SOL     OW17716   4.677   6.999   2.254
 5606SOL    HW117717   4.764   7.007   2.205
 5606SOL    HW217718   4.670   0.046   2.323
 5607SOL     OW17719   5.785   0.877   2.125
 5607SOL    HW117720   5.832   0.935   2.059
 5607SOL    HW217721   5.827   0.887   2.215
 5608SOL     OW17722   3.947   6.599   5.267
 5608SOL    HW117723   3.913   6.514   5.308
 5608SOL    HW217724   4.046   6.591   5.252
 5609SOL     OW17725   2.454   6.314   5.895
 5609SOL    HW117726   2.446   6.285   5.991
 5609SOL    HW217727   2.376   6.278   5.843
 5610SOL     OW17728   4.703   0.515   6.692
 5610SOL    HW117729   4.698   0.568   6.607
 5610SOL    HW217730   4.610   0.504   6.729
 5611SOL     OW17731   1.665   5.175   3.051
 5611SOL    HW117732   1.636   5.096   3.106
 5611SOL    HW217733   1.631   5.259   3.094
 5612SOL     OW17734   2.625   0.009   5.414
 5612SOL    HW117735   2.687   6.970   5.368
 5612SOL    HW217736   2.578   6.986   5.488
 5613SOL     OW17737   4.015   4.761   1.956
 5613SOL    HW117738   4.115   4.767   1.950
 5613SOL    HW217739   3.985   4.796   2.045
 5614SOL     OW17740   4.466   2.034   3.040
 5614SOL    HW117741   4.373   2.003   3.058
 5614SOL    HW217742   4.521   1.956   3.009
 5615SOL     OW17743   1.321   1.324   1.282
 5615SOL    HW117744   1.235   1.340   1.234
 5615SOL    HW217745   1.389   1.290   1.218
 5616SOL     OW17746   2.392   0.705   4.293
 5616SOL    HW117747   2.463   0.763   4.253
 5616SOL    HW217748   2.418   0.609   4.281
 5617SOL     OW17749   1.698   0.813   5.055
 5617SOL    HW117750   1.744   0.901   5.045
 5617SOL    HW217751   1.601   0.827   5.074
 5618SOL     OW17752   0.037   4.320   2.953
 5618SOL    HW117753   7.007   4.280   3.026
 5618SOL    HW217754   0.036   4.419   2.961
 5619SOL     OW17755   2.305   3.574   5.267
 5619SOL    HW117756   2.281   3.478   5.249
 5619SOL    HW217757   2.302   3.591   5.366
 5620SOL     OW17758   3.772   1.855   5.868
 5620SOL    HW117759   3.767   1.871   5.769
 5620SOL    HW217760   3.797   1.939   5.915
 5621SOL     OW17761   2.227   2.798   5.426
 5621SOL    HW117762   2.325   2.778   5.432
 5621SOL    HW217763   2.187   2.801   5.517
 5622SOL     OW17764   6.142   0.346   6.015
 5622SOL    HW117765   6.231   0.323   6.054
 5622SOL    HW217766   6.153   0.422   5.950
 5623SOL     OW17767   0.800   5.965   0.214
 5623SOL    HW117768   0.751   6.050   0.232
 5623SOL    HW217769   0.894   5.974   0.247
 5624SOL     OW17770   0.869   4.127   3.287
 5624SOL    HW117771   0.955   4.119   3.236
 5624SOL    HW217772   0.792   4.102   3.227
 5625SOL     OW17773   6.593   2.491   5.331
 5625SOL    HW117774   6.690   2.478   5.313
 5625SOL    HW217775   6.539   2.446   5.259
 5626SOL     OW17776   3.986   6.892   4.683
 5626SOL    HW117777   4.016   6.810   4.634
 5626SOL    HW217778   4.065   6.944   4.714
 5627SOL     OW17779   1.426   6.107   0.878
 5627SOL    HW117780   1.330   6.121   0.900
 5627SOL    HW217781   1.453   6.014   0.903
 5628SOL     OW17782   1.839   1.173   4.471
 5628SOL    HW117783   1.774   1.240   4.507
 5628SOL    HW217784   1.789   1.106   4.414
 5629SOL     OW17785   3.573   3.612   2.534
 5629SOL    HW117786   3.671   3.623   2.514
 5629SOL    HW217787   3.545   3.518   2.513
 5630SOL     OW17788   0.440   4.338   1.954
 5630SOL    HW117789   0.450   4.426   2.001
 5630SOL    HW217790   0.531   4.298   1.938
 5631SOL     OW17791   5.071   0.765   0.320
 5631SOL    HW117792   5.080   0.695   0.390
 5631SOL    HW217793   5.063   0.855   0.363
 5632SOL     OW17794   4.019   3.671   0.208
 5632SOL    HW117795   3.932   3.687   0.254
 5632SOL    HW217796   4.064   3.591   0.248
 5633SOL     OW17797   6.117   2.382   4.497
 5633SOL    HW117798   6.110   2.331   4.412
 5633SOL    HW217799   6.031   2.374   4.548
 5634SOL     OW17800   4.172   5.928   4.541
 5634SOL    HW117801   4.092   5.898   4.593
 5634SOL    HW217802   4.222   5.997   4.593
 5635SOL     OW17803   3.174   2.015   4.993
 5635SOL    HW117804   3.105   1.996   4.922
 5635SOL    HW217805   3.166   2.110   5.023
 5636SOL     OW17806   3.989   5.575   3.653
 5636SOL    HW117807   3.946   5.665   3.662
 5636SOL    HW217808   4.087   5.582   3.671
 5637SOL     OW17809   5.482   0.389   3.346
 5637SOL    HW117810   5.512   0.427   3.434
 5637SOL    HW217811   5.390   0.352   3.355
 5638SOL     OW17812   5.513   3.285   6.187
 5638SOL    HW117813   5.483   3.308   6.279
 5638SOL    HW217814   5.583   3.350   6.158
 5639SOL     OW17815   2.942   1.196   6.178
 5639SOL    HW117816   2.922   1.281   6.129
 5639SOL    HW217817   2.899   1.119   6.130
 5640SOL     OW17818   2.487   0.179   3.497
 5640SOL    HW117819   2.426   0.210   3.569
 5640SOL    HW217820   2.464   0.085   3.472
 5641SOL     OW17821   5.644   5.467   5.117
 5641SOL    HW117822   5.624   5.378   5.159
 5641SOL    HW217823   5.687   5.454   5.028
 5642SOL     OW17824   1.510   1.764   6.443
 5642SOL    HW117825   1.526   1.769   6.542
 5642SOL    HW217826   1.594   1.735   6.397
 5643SOL     OW17827   5.774   2.516   4.809
 5643SOL    HW117828   5.835   2.462   4.751
 5643SOL    HW217829   5.732   2.456   4.877
 5644SOL     OW17830   3.556   0.167   6.269
 5644SOL    HW117831   3.580   0.259   6.300
 5644SOL    HW217832   3.639   0.120   6.239
 5645SOL     OW17833   5.088   2.654   4.685
 5645SOL    HW117834   5.072   2.556   4.692
 5645SOL    HW217835   5.009   2.697   4.641
 5646SOL     OW17836   1.892   4.516   2.511
 5646SOL    HW117837   1.968   4.463   2.549
 5646SOL    HW217838   1.917   4.613   2.507
 5647SOL     OW17839   6.876   5.941   2.561
 5647SOL    HW117840   6.897   6.023   2.508
 5647SOL    HW217841   6.819   5.880   2.505
 5648SOL     OW17842   4.452   6.658   3.273
 5648SOL    HW117843   4.418   6.648   3.367
 5648SOL    HW217844   4.375   6.648   3.209
 5649SOL     OW17845   0.987   6.285   4.206
 5649SOL    HW117846   0.893   6.288   4.239
 5649SOL    HW217847   1.043   6.350   4.258
 5650SOL     OW17848   6.623   4.598   6.789
 5650SOL    HW117849   6.670   4.510   6.780
 5650SOL    HW217850   6.557   4.608   6.714
 5651SOL     OW17851   2.162   0.923   1.780
 5651SOL    HW117852   2.070   0.962   1.770
 5651SOL    HW217853   2.155   0.823   1.790
 5652SOL     OW17854   1.312   5.737   1.319
 5652SOL    HW117855   1.279   5.692   1.236
 5652SOL    HW217856   1.394   5.791   1.297
 5653SOL     OW17857   6.969   6.924   0.988
 5653SOL    HW117858   6.978   7.021   0.966
 5653SOL    HW217859   0.016   6.872   0.941
 5654SOL     OW17860   3.054   5.316   4.139
 5654SOL    HW117861   3.123   5.273   4.080
 5654SOL    HW217862   3.056   5.415   4.127
 5655SOL     OW17863   6.143   2.833   4.831
 5655SOL    HW117864   6.156   2.917   4.884
 5655SOL    HW217865   6.058   2.789   4.859
 5656SOL     OW17866   6.980   3.479   0.078
 5656SOL    HW117867   0.005   3.393   0.095
 5656SOL    HW217868   0.004   3.532   0.009
 5657SOL     OW17869   4.805   5.894   5.405
 5657SOL    HW117870   4.761   5.918   5.319
 5657SOL    HW217871   4.903   5.914   5.399
 5658SOL     OW17872   2.539   2.808   6.021
 5658SOL    HW117873   2.589   2.843   6.100
 5658SOL    HW217874   2.464   2.870   5.999
 5659SOL     OW17875   3.902   3.725   6.598
 5659SOL    HW117876   3.838   3.798   6.624
 5659SOL    HW217877   3.868   3.637   6.631
 5660SOL     OW17878   4.739   0.788   6.130
 5660SOL    HW117879   4.831   0.803   6.094
 5660SOL    HW217880   4.690   0.875   6.135
 5661SOL     OW17881   1.230   5.117   5.086
 5661SOL    HW117882   1.177   5.065   5.154
 5661SOL    HW217883   1.327   5.094   5.095
 5662SOL     OW17884   2.588   6.326   2.754
 5662SOL    HW117885   2.502   6.287   2.788
 5662SOL    HW217886   2.582   6.337   2.655
 5663SOL     OW17887   1.348   3.002   6.260
 5663SOL    HW117888   1.395   3.027   6.345
 5663SOL    HW217889   1.318   3.085   6.213
 5664SOL     OW17890   4.709   4.848   4.765
 5664SOL    HW117891   4.634   4.782   4.773
 5664SOL    HW217892   4.796   4.800   4.775
 5665SOL     OW17893   1.914   2.211   0.632
 5665SOL    HW117894   1.968   2.142   0.680
 5665SOL    HW217895   1.914   2.296   0.686
 5666SOL     OW17896   5.494   1.394   4.920
 5666SOL    HW117897   5.468   1.421   4.827
 5666SOL    HW217898   5.549   1.466   4.961
 5667SOL     OW17899   2.480   5.209   4.407
 5667SOL    HW117900   2.577   5.197   4.428
 5667SOL    HW217901   2.451   5.137   4.343
 5668SOL     OW17902   5.137   3.717   3.596
 5668SOL    HW117903   5.202   3.641   3.587
 5668SOL    HW217904   5.081   3.703   3.677
 5669SOL     OW17905   6.112   4.588   5.942
 5669SOL    HW117906   6.086   4.585   6.038
 5669SOL    HW217907   6.168   4.508   5.919
 5670SOL     OW17908   0.415   2.026   3.159
 5670SOL    HW117909   0.356   2.068   3.090
 5670SOL    HW217910   0.510   2.029   3.127
 5671SOL     OW17911   6.924   6.448   3.437
 5671SOL    HW117912   6.936   6.503   3.354
 5671SOL    HW217913   6.934   6.506   3.517
 5672SOL     OW17914   4.878   2.856   5.365
 5672SOL    HW117915   4.863   2.761   5.391
 5672SOL    HW217916   4.974   2.869   5.339
 5673SOL     OW17917   0.381   1.023   1.153
 5673SOL    HW117918   0.462   1.043   1.208
 5673SOL    HW217919   0.321   0.961   1.203
 5674SOL     OW17920   2.133   4.949   5.471
 5674SOL    HW117921   2.064   4.923   5.538
 5674SOL    HW217922   2.104   4.920   5.380
 5675SOL     OW17923   2.712   2.379   0.708
 5675SOL    HW117924   2.695   2.281   0.701
 5675SOL    HW217925   2.791   2.395   0.767
 5676SOL     OW17926   2.727   1.906   2.083
 5676SOL    HW117927   2.644   1.856   2.107
 5676SOL    HW217928   2.729   1.923   1.985
 5677SOL     OW17929   6.553   1.198   0.934
 5677SOL    HW117930   6.632   1.259   0.927
 5677SOL    HW217931   6.584   1.103   0.931
 5678SOL     OW17932   3.072   2.010   1.847
 5678SOL    HW117933   3.059   2.104   1.816
 5678SOL    HW217934   3.036   2.000   1.940
 5679SOL     OW17935   6.131   3.579   4.962
 5679SOL    HW117936   6.170   3.581   5.054
 5679SOL    HW217937   6.056   3.645   4.956
 5680SOL     OW17938   1.382   6.083   5.291
 5680SOL    HW117939   1.367   5.984   5.298
 5680SOL    HW217940   1.317   6.130   5.351
 5681SOL     OW17941   1.403   3.487   4.336
 5681SOL    HW117942   1.350   3.484   4.250
 5681SOL    HW217943   1.427   3.394   4.363
 5682SOL     OW17944   1.926   4.464   1.983
 5682SOL    HW117945   1.900   4.504   2.071
 5682SOL    HW217946   2.022   4.436   1.987
 5683SOL     OW17947   6.866   1.208   6.077
 5683SOL    HW117948   6.895   1.302   6.095
 5683SOL    HW217949   6.910   1.147   6.142
 5684SOL     OW17950   2.038   2.382   4.771
 5684SOL    HW117951   1.971   2.327   4.720
 5684SOL    HW217952   2.129   2.342   4.762
 5685SOL     OW17953   2.284   2.014   2.523
 5685SOL    HW117954   2.214   1.997   2.592
 5685SOL    HW217955   2.327   1.927   2.497
 5686SOL     OW17956   4.076   5.358   6.119
 5686SOL    HW117957   3.980   5.382   6.132
 5686SOL    HW217958   4.084   5.290   6.046
 5687SOL     OW17959   2.321   6.715   6.879
 5687SOL    HW117960   2.255   6.748   6.810
 5687SOL    HW217961   2.276   6.709   6.968
 5688SOL     OW17962   1.984   1.812   3.335
 5688SOL    HW117963   2.007   1.845   3.427
 5688SOL    HW217964   1.959   1.716   3.340
 5689SOL     OW17965   0.604   2.916   1.416
 5689SOL    HW117966   0.611   2.998   1.359
 5689SOL    HW217967   0.606   2.942   1.512
 5690SOL     OW17968   1.873   5.040   0.381
 5690SOL    HW117969   1.942   5.081   0.321
 5690SOL    HW217970   1.883   5.077   0.473
 5691SOL     OW17971   3.586   1.263   2.521
 5691SOL    HW117972   3.497   1.307   2.509
 5691SOL    HW217973   3.574   1.164   2.527
 5692SOL     OW17974   4.542   5.031   2.125
 5692SOL    HW117975   4.629   4.983   2.112
 5692SOL    HW217976   4.556   5.109   2.186
 5693SOL     OW17977   4.513   1.007   1.305
 5693SOL    HW117978   4.541   1.102   1.319
 5693SOL    HW217979   4.572   0.964   1.237
 5694SOL     OW17980   0.714   6.174   1.583
 5694SOL    HW117981   0.734   6.252   1.642
 5694SOL    HW217982   0.744   6.090   1.626
 5695SOL     OW17983   2.028   0.337   1.061
 5695SOL    HW117984   2.023   0.416   1.123
 5695SOL    HW217985   1.972   0.262   1.098
 5696SOL     OW17986   1.419   0.499   4.154
 5696SOL    HW117987   1.422   0.440   4.235
 5696SOL    HW217988   1.501   0.555   4.150
 5697SOL     OW17989   6.409   3.229   0.788
 5697SOL    HW117990   6.430   3.178   0.704
 5697SOL    HW217991   6.491   3.236   0.844
 5698SOL     OW17992   2.813   2.328   3.772
 5698SOL    HW117993   2.769   2.363   3.689
 5698SOL    HW217994   2.755   2.348   3.851
 5699SOL     OW17995   1.715   3.112   2.687
 5699SOL    HW117996   1.670   3.126   2.599
 5699SOL    HW217997   1.752   3.019   2.692
 5700SOL     OW17998   6.263   0.219   3.057
 5700SOL    HW117999   6.361   0.218   3.035
 5700SOL    HW218000   6.212   0.261   2.982
 5701SOL     OW18001   0.262   0.830   1.305
 5701SOL    HW118002   0.346   0.776   1.313
 5701SOL    HW218003   0.209   0.822   1.389
 5702SOL     OW18004   2.793   6.777   4.559
 5702SOL    HW118005   2.837   6.718   4.492
 5702SOL    HW218006   2.697   6.752   4.567
 5703SOL     OW18007   6.724   2.836   6.321
 5703SOL    HW118008   6.677   2.773   6.383
 5703SOL    HW218009   6.823   2.828   6.333
 5704SOL     OW18010   4.490   5.324   4.208
 5704SOL    HW118011   4.434   5.253   4.166
 5704SOL    HW218012   4.446   5.356   4.292
 5705SOL     OW18013   6.101   0.055   5.355
 5705SOL    HW118014   6.175   0.120   5.335
 5705SOL    HW218015   6.126   6.989   5.321
 5706SOL     OW18016   5.086   2.042   6.728
 5706SOL    HW118017   5.008   2.096   6.698
 5706SOL    HW218018   5.063   1.945   6.726
 5707SOL     OW18019   5.274   5.782   1.694
 5707SOL    HW118020   5.333   5.854   1.731
 5707SOL    HW218021   5.195   5.825   1.649
 5708SOL     OW18022   4.458   5.901   2.682
 5708SOL    HW118023   4.368   5.870   2.650
 5708SOL    HW218024   4.523   5.826   2.675
 5709SOL     OW18025   7.019   2.023   2.441
 5709SOL    HW118026   6.925   2.032   2.406
 5709SOL    HW218027   0.007   1.932   2.479
 5710SOL     OW18028   3.535   1.838   1.292
 5710SOL    HW118029   3.571   1.850   1.385
 5710SOL    HW218030   3.461   1.771   1.293
 5711SOL     OW18031   5.273   1.843   2.582
 5711SOL    HW118032   5.343   1.886   2.525
 5711SOL    HW218033   5.316   1.776   2.643
 5712SOL     OW18034   6.014   0.322   1.105
 5712SOL    HW118035   6.003   0.415   1.072
 5712SOL    HW218036   6.026   0.260   1.028
 5713SOL     OW18037   2.366   0.458   0.741
 5713SOL    HW118038   2.338   0.507   0.823
 5713SOL    HW218039   2.460   0.426   0.751
 5714SOL     OW18040   6.334   6.977   1.160
 5714SOL    HW118041   6.417   6.922   1.156
 5714SOL    HW218042   6.353   0.038   1.210
 5715SOL     OW18043   0.200   0.451   1.482
 5715SOL    HW118044   0.131   0.459   1.554
 5715SOL    HW218045   0.277   0.397   1.516
 5716SOL     OW18046   6.292   4.959   4.845
 5716SOL    HW118047   6.247   4.881   4.802
 5716SOL    HW218048   6.230   5.036   4.848
 5717SOL     OW18049   1.559   5.373   3.198
 5717SOL    HW118050   1.486   5.342   3.259
 5717SOL    HW218051   1.524   5.446   3.139
 5718SOL     OW18052   0.772   3.177   0.034
 5718SOL    HW118053   0.870   3.181   0.016
 5718SOL    HW218054   0.732   3.268   0.026
 5719SOL     OW18055   1.920   3.304   0.715
 5719SOL    HW118056   1.918   3.387   0.659
 5719SOL    HW218057   1.998   3.248   0.689
 5720SOL     OW18058   2.557   4.999   6.193
 5720SOL    HW118059   2.528   5.063   6.122
 5720SOL    HW218060   2.598   4.919   6.151
 5721SOL     OW18061   1.941   3.361   0.391
 5721SOL    HW118062   1.903   3.272   0.414
 5721SOL    HW218063   1.942   3.372   0.291
 5722SOL     OW18064   1.785   0.942   6.289
 5722SOL    HW118065   1.801   1.028   6.239
 5722SOL    HW218066   1.709   0.955   6.353
 5723SOL     OW18067   4.194   3.124   0.976
 5723SOL    HW118068   4.185   3.196   1.046
 5723SOL    HW218069   4.119   3.058   0.987
 5724SOL     OW18070   5.363   1.920   5.239
 5724SOL    HW118071   5.437   1.874   5.288
 5724SOL    HW218072   5.279   1.914   5.292
 5725SOL     OW18073   6.720   4.007   4.568
 5725SOL    HW118074   6.737   3.909   4.576
 5725SOL    HW218075   6.780   4.047   4.499
 5726SOL     OW18076   5.378   4.309   2.262
 5726SOL    HW118077   5.328   4.392   2.289
 5726SOL    HW218078   5.326   4.228   2.288
 5727SOL     OW18079   0.726   1.827   5.115
 5727SOL    HW118080   0.816   1.848   5.077
 5727SOL    HW218081   0.655   1.871   5.058
 5728SOL     OW18082   4.670   6.847   5.249
 5728SOL    HW118083   4.643   6.943   5.254
 5728SOL    HW218084   4.674   6.819   5.153
 5729SOL     OW18085   2.151   1.891   5.131
 5729SOL    HW118086   2.225   1.951   5.102
 5729SOL    HW218087   2.064   1.942   5.131
 5730SOL     OW18088   0.005   3.887   4.886
 5730SOL    HW118089   0.012   3.851   4.979
 5730SOL    HW218090   0.078   3.954   4.870
 5731SOL     OW18091   0.586   6.817   2.614
 5731SOL    HW118092   0.615   6.902   2.570
 5731SOL    HW218093   0.646   6.743   2.585
 5732SOL     OW18094   0.539   0.032   3.770
 5732SOL    HW118095   0.575   0.121   3.799
 5732SOL    HW218096   0.541   6.993   3.848
 5733SOL     OW18097   3.098   6.798   5.973
 5733SOL    HW118098   3.061   6.783   5.881
 5733SOL    HW218099   3.023   6.801   6.039
 5734SOL     OW18100   2.047   6.228   3.291
 5734SOL    HW118101   2.030   6.145   3.238
 5734SOL    HW218102   2.145   6.236   3.310
 5735SOL     OW18103   3.020   1.056   1.495
 5735SOL    HW118104   3.007   1.123   1.422
 5735SOL    HW218105   3.005   0.964   1.459
 5736SOL     OW18106   1.111   5.264   6.806
 5736SOL    HW118107   1.104   5.251   6.707
 5736SOL    HW218108   1.080   5.356   6.830
 5737SOL     OW18109   5.396   4.417   0.641
 5737SOL    HW118110   5.302   4.444   0.661
 5737SOL    HW218111   5.439   4.384   0.725
 5738SOL     OW18112   1.371   4.088   6.117
 5738SOL    HW118113   1.466   4.071   6.090
 5738SOL    HW218114   1.314   4.091   6.035
 5739SOL     OW18115   1.123   1.581   1.755
 5739SOL    HW118116   1.187   1.640   1.706
 5739SOL    HW218117   1.125   1.490   1.715
 5740SOL     OW18118   4.061   5.639   6.355
 5740SOL    HW118119   3.989   5.597   6.299
 5740SOL    HW218120   4.023   5.714   6.409
 5741SOL     OW18121   6.985   4.587   2.905
 5741SOL    HW118122   6.989   4.621   2.811
 5741SOL    HW218123   7.007   4.660   2.968
 5742SOL     OW18124   6.742   6.471   4.910
 5742SOL    HW118125   6.770   6.564   4.886
 5742SOL    HW218126   6.715   6.423   4.826
 5743SOL     OW18127   1.731   6.722   4.092
 5743SOL    HW118128   1.642   6.677   4.092
 5743SOL    HW218129   1.718   6.821   4.096
 5744SOL     OW18130   5.322   6.623   1.662
 5744SOL    HW118131   5.360   6.530   1.658
 5744SOL    HW218132   5.395   6.689   1.674
 5745SOL     OW18133   0.878   1.977   3.588
 5745SOL    HW118134   0.975   1.957   3.574
 5745SOL    HW218135   0.852   2.057   3.535
 5746SOL     OW18136   6.357   4.470   0.062
 5746SOL    HW118137   6.426   4.483   0.133
 5746SOL    HW218138   6.267   4.462   0.105
 5747SOL     OW18139   0.512   6.455   2.954
 5747SOL    HW118140   0.494   6.375   2.898
 5747SOL    HW218141   0.575   6.516   2.906
 5748SOL     OW18142   2.091   6.494   3.353
 5748SOL    HW118143   2.025   6.425   3.383
 5748SOL    HW218144   2.107   6.485   3.255
 5749SOL     OW18145   2.322   1.570   3.010
 5749SOL    HW118146   2.418   1.541   3.005
 5749SOL    HW218147   2.310   1.628   3.091
 5750SOL     OW18148   6.276   5.457   2.692
 5750SOL    HW118149   6.195   5.445   2.634
 5750SOL    HW218150   6.265   5.539   2.748
 5751SOL     OW18151   1.776   3.077   6.024
 5751SOL    HW118152   1.855   3.136   6.014
 5751SOL    HW218153   1.799   2.984   5.996
 5752SOL     OW18154   0.106   1.357   0.292
 5752SOL    HW118155   0.138   1.276   0.243
 5752SOL    HW218156   0.017   1.338   0.334
 5753SOL     OW18157   4.489   2.194   0.495
 5753SOL    HW118158   4.586   2.192   0.472
 5753SOL    HW218159   4.437   2.143   0.426
 5754SOL     OW18160   6.239   4.819   0.736
 5754SOL    HW118161   6.289   4.880   0.797
 5754SOL    HW218162   6.303   4.776   0.673
 5755SOL     OW18163   3.493   3.449   1.443
 5755SOL    HW118164   3.541   3.533   1.467
 5755SOL    HW218165   3.445   3.414   1.524
 5756SOL     OW18166   6.839   6.719   4.632
 5756SOL    HW118167   6.898   6.786   4.587
 5756SOL    HW218168   6.880   6.692   4.719
 5757SOL     OW18169   0.494   6.039   1.774
 5757SOL    HW118170   0.580   5.988   1.774
 5757SOL    HW218171   0.429   5.996   1.712
 5758SOL     OW18172   1.991   1.338   5.835
 5758SOL    HW118173   1.913   1.329   5.897
 5758SOL    HW218174   2.004   1.253   5.784
 5759SOL     OW18175   6.045   1.758   5.407
 5759SOL    HW118176   6.080   1.780   5.498
 5759SOL    HW218177   5.949   1.787   5.401
 5760SOL     OW18178   1.411   5.488   1.446
 5760SOL    HW118179   1.338   5.538   1.492
 5760SOL    HW218180   1.458   5.429   1.513
 5761SOL     OW18181   5.177   1.059   4.985
 5761SOL    HW118182   5.209   1.131   5.046
 5761SOL    HW218183   5.244   0.986   4.980
 5762SOL     OW18184   5.716   6.066   1.462
 5762SOL    HW118185   5.638   6.105   1.414
 5762SOL    HW218186   5.743   6.127   1.537
 5763SOL     OW18187   1.453   1.543   1.394
 5763SOL    HW118188   1.540   1.560   1.347
 5763SOL    HW218189   1.401   1.475   1.343
 5764SOL     OW18190   4.574   3.323   5.906
 5764SOL    HW118191   4.507   3.392   5.934
 5764SOL    HW218192   4.532   3.259   5.841
 5765SOL     OW18193   5.814   5.011   0.246
 5765SOL    HW118194   5.832   4.916   0.223
 5765SOL    HW218195   5.834   5.026   0.343
 5766SOL     OW18196   2.793   0.884   3.383
 5766SOL    HW118197   2.890   0.881   3.357
 5766SOL    HW218198   2.779   0.953   3.453
 5767SOL     OW18199   6.710   0.174   0.989
 5767SOL    HW118200   6.718   0.079   1.021
 5767SOL    HW218201   6.617   0.191   0.957
 5768SOL     OW18202   6.147   0.413   2.875
 5768SOL    HW118203   6.131   0.506   2.908
 5768SOL    HW218204   6.122   0.407   2.779
 5769SOL     OW18205   2.130   5.759   3.231
 5769SOL    HW118206   2.076   5.676   3.217
 5769SOL    HW218207   2.222   5.735   3.262
 5770SOL     OW18208   6.070   1.318   1.643
 5770SOL    HW118209   6.051   1.367   1.728
 5770SOL    HW218210   6.123   1.236   1.663
 5771SOL     OW18211   0.492   1.326   2.123
 5771SOL    HW118212   0.570   1.326   2.185
 5771SOL    HW218213   0.518   1.284   2.036
 5772SOL     OW18214   6.805   4.366   6.628
 5772SOL    HW118215   6.753   4.281   6.619
 5772SOL    HW218216   6.897   4.354   6.591
 5773SOL     OW18217   5.446   6.080   4.561
 5773SOL    HW118218   5.464   5.982   4.572
 5773SOL    HW218219   5.421   6.119   4.650
 5774SOL     OW18220   2.982   4.941   2.710
 5774SOL    HW118221   2.933   4.854   2.714
 5774SOL    HW218222   3.050   4.937   2.636
 5775SOL     OW18223   1.010   0.421   0.262
 5775SOL    HW118224   1.042   0.507   0.222
 5775SOL    HW218225   1.079   0.350   0.249
 5776SOL     OW18226   4.965   1.222   5.993
 5776SOL    HW118227   5.055   1.216   5.950
 5776SOL    HW218228   4.950   1.314   6.029
 5777SOL     OW18229   5.861   0.921   5.833
 5777SOL    HW118230   5.886   1.009   5.793
 5777SOL    HW218231   5.794   0.875   5.774
 5778SOL     OW18232   2.230   6.969   3.957
 5778SOL    HW118233   2.152   7.023   3.926
 5778SOL    HW218234   2.231   6.967   4.057
 5779SOL     OW18235   4.291   0.817   1.615
 5779SOL    HW118236   4.227   0.744   1.639
 5779SOL    HW218237   4.385   0.787   1.633
 5780SOL     OW18238   5.905   3.427   1.405
 5780SOL    HW118239   5.814   3.468   1.394
 5780SOL    HW218240   5.897   3.344   1.458
 5781SOL     OW18241   2.695   4.850   5.199
 5781SOL    HW118242   2.636   4.771   5.212
 5781SOL    HW218243   2.780   4.821   5.155
 5782SOL     OW18244   3.978   1.514   3.421
 5782SOL    HW118245   3.931   1.460   3.350
 5782SOL    HW218246   4.060   1.465   3.451
 5783SOL     OW18247   2.573   6.385   1.571
 5783SOL    HW118248   2.600   6.467   1.521
 5783SOL    HW218249   2.480   6.359   1.545
 5784SOL     OW18250   1.315   5.385   0.333
 5784SOL    HW118251   1.371   5.378   0.251
 5784SOL    HW218252   1.293   5.293   0.366
 5785SOL     OW18253   2.936   1.049   0.122
 5785SOL    HW118254   2.886   1.120   0.172
 5785SOL    HW218255   2.910   1.051   0.025
 5786SOL     OW18256   0.741   3.449   6.848
 5786SOL    HW118257   0.671   3.378   6.860
 5786SOL    HW218258   0.734   3.487   6.756
 5787SOL     OW18259   0.360   3.292   5.565
 5787SOL    HW118260   0.417   3.354   5.511
 5787SOL    HW218261   0.283   3.343   5.604
 5788SOL     OW18262   1.873   2.497   2.263
 5788SOL    HW118263   1.945   2.438   2.225
 5788SOL    HW218264   1.802   2.441   2.304
 5789SOL     OW18265   2.748   4.965   0.033
 5789SOL    HW118266   2.670   5.020   0.063
 5789SOL    HW218267   2.820   5.026   7.024
 5790SOL     OW18268   6.507   6.014   2.995
 5790SOL    HW118269   6.485   5.932   2.942
 5790SOL    HW218270   6.565   5.989   3.073
 5791SOL     OW18271   4.219   1.355   1.136
 5791SOL    HW118272   4.141   1.380   1.194
 5791SOL    HW218273   4.299   1.409   1.163
 5792SOL     OW18274   4.186   2.299   3.205
 5792SOL    HW118275   4.197   2.310   3.106
 5792SOL    HW218276   4.276   2.306   3.249
 5793SOL     OW18277   3.919   2.541   6.763
 5793SOL    HW118278   3.901   2.529   6.861
 5793SOL    HW218279   3.998   2.487   6.737
 5794SOL     OW18280   3.683   5.836   0.077
 5794SOL    HW118281   3.586   5.813   0.066
 5794SOL    HW218282   3.730   5.825   7.014
 5795SOL     OW18283   2.218   6.960   1.706
 5795SOL    HW118284   2.147   7.023   1.673
 5795SOL    HW218285   2.189   6.866   1.688
 5796SOL     OW18286   5.176   0.876   6.619
 5796SOL    HW118287   5.170   0.783   6.656
 5796SOL    HW218288   5.117   0.883   6.539
 5797SOL     OW18289   0.317   3.002   0.598
 5797SOL    HW118290   0.236   3.060   0.588
 5797SOL    HW218291   0.300   2.932   0.667
 5798SOL     OW18292   1.874   3.364   4.112
 5798SOL    HW118293   1.965   3.368   4.071
 5798SOL    HW218294   1.845   3.456   4.139
 5799SOL     OW18295   2.931   0.162   3.284
 5799SOL    HW118296   3.001   0.136   3.217
 5799SOL    HW218297   2.941   0.105   3.366
 5800SOL     OW18298   1.087   0.079   2.029
 5800SOL    HW118299   1.111   0.008   1.963
 5800SOL    HW218300   1.000   0.055   2.073
 5801SOL     OW18301   1.833   1.360   2.447
 5801SOL    HW118302   1.921   1.333   2.409
 5801SOL    HW218303   1.767   1.286   2.435
 5802SOL     OW18304   0.679   0.329   3.033
 5802SOL    HW118305   0.632   0.245   3.060
 5802SOL    HW218306   0.613   0.393   2.993
 5803SOL     OW18307   0.321   6.440   4.422
 5803SOL    HW118308   0.377   6.362   4.450
 5803SOL    HW218309   0.272   6.417   4.338
 5804SOL     OW18310   6.338   1.918   3.123
 5804SOL    HW118311   6.264   1.905   3.058
 5804SOL    HW218312   6.413   1.968   3.080
 5805SOL     OW18313   1.330   2.876   2.204
 5805SOL    HW118314   1.340   2.952   2.140
 5805SOL    HW218315   1.320   2.913   2.297
 5806SOL     OW18316   6.721   3.698   2.300
 5806SOL    HW118317   6.736   3.710   2.398
 5806SOL    HW218318   6.623   3.692   2.282
 5807SOL     OW18319   1.374   1.094   2.003
 5807SOL    HW118320   1.444   1.145   1.953
 5807SOL    HW218321   1.383   0.996   1.982
 5808SOL     OW18322   0.220   0.487   5.685
 5808SOL    HW118323   0.131   0.530   5.670
 5808SOL    HW218324   0.208   0.390   5.703
 5809SOL     OW18325   0.290   3.120   4.872
 5809SOL    HW118326   0.220   3.150   4.936
 5809SOL    HW218327   0.254   3.123   4.778
 5810SOL     OW18328   2.674   6.161   5.043
 5810SOL    HW118329   2.646   6.203   5.129
 5810SOL    HW218330   2.662   6.226   4.969
 5811SOL     OW18331   3.950   4.336   6.763
 5811SOL    HW118332   3.874   4.395   6.789
 5811SOL    HW218333   3.997   4.304   6.845
 5812SOL     OW18334   5.680   2.669   6.243
 5812SOL    HW118335   5.705   2.762   6.217
 5812SOL    HW218336   5.589   2.648   6.206
 5813SOL     OW18337   5.026   5.158   0.703
 5813SOL    HW118338   5.023   5.061   0.681
 5813SOL    HW218339   5.071   5.207   0.628
 5814SOL     OW18340   6.113   0.950   2.163
 5814SOL    HW118341   6.015   0.957   2.179
 5814SOL    HW218342   6.162   0.959   2.250
 5815SOL     OW18343   6.104   3.048   4.579
 5815SOL    HW118344   6.051   2.997   4.647
 5815SOL    HW218345   6.125   2.988   4.501
 5816SOL     OW18346   6.953   3.846   1.919
 5816SOL    HW118347   6.992   3.932   1.886
 5816SOL    HW218348   6.865   3.830   1.875
 5817SOL     OW18349   6.107   2.961   3.158
 5817SOL    HW118350   6.150   2.891   3.101
 5817SOL    HW218351   6.046   3.017   3.101
 5818SOL     OW18352   2.204   0.486   4.687
 5818SOL    HW118353   2.216   0.416   4.757
 5818SOL    HW218354   2.274   0.556   4.698
 5819SOL     OW18355   3.786   3.759   0.334
 5819SOL    HW118356   3.724   3.806   0.272
 5819SOL    HW218357   3.737   3.729   0.415
 5820SOL     OW18358   6.607   0.115   3.106
 5820SOL    HW118359   6.704   0.094   3.091
 5820SOL    HW218360   6.569   0.156   3.024
 5821SOL     OW18361   6.361   6.958   1.806
 5821SOL    HW118362   6.408   0.016   1.836
 5821SOL    HW218363   6.353   6.894   1.883
 5822SOL     OW18364   0.635   4.270   2.598
 5822SOL    HW118365   0.598   4.186   2.560
 5822SOL    HW218366   0.734   4.263   2.605
 5823SOL     OW18367   2.546   6.938   4.218
 5823SOL    HW118368   2.547   6.875   4.141
 5823SOL    HW218369   2.560   6.888   4.303
 5824SOL     OW18370   1.998   6.869   2.246
 5824SOL    HW118371   2.015   6.791   2.186
 5824SOL    HW218372   2.020   6.845   2.340
 5825SOL     OW18373   4.773   1.529   4.227
 5825SOL    HW118374   4.676   1.519   4.249
 5825SOL    HW218375   4.792   1.486   4.139
 5826SOL     OW18376   1.573   6.199   5.121
 5826SOL    HW118377   1.506   6.139   5.165
 5826SOL    HW218378   1.601   6.160   5.034
 5827SOL     OW18379   1.981   3.839   3.446
 5827SOL    HW118380   2.013   3.933   3.430
 5827SOL    HW218381   1.995   3.785   3.363
 5828SOL     OW18382   4.765   0.617   5.641
 5828SOL    HW118383   4.850   0.632   5.591
 5828SOL    HW218384   4.687   0.625   5.579
 5829SOL     OW18385   2.145   0.803   3.213
 5829SOL    HW118386   2.113   0.877   3.155
 5829SOL    HW218387   2.068   0.747   3.242
 5830SOL     OW18388   4.199   5.075   4.406
 5830SOL    HW118389   4.115   5.104   4.451
 5830SOL    HW218390   4.208   4.976   4.414
 5831SOL     OW18391   2.291   2.305   4.820
 5831SOL    HW118392   2.279   2.230   4.755
 5831SOL    HW218393   2.388   2.332   4.822
 5832SOL     OW18394   2.863   5.574   2.672
 5832SOL    HW118395   2.855   5.530   2.582
 5832SOL    HW218396   2.897   5.668   2.660
 5833SOL     OW18397   3.711   5.515   0.533
 5833SOL    HW118398   3.655   5.598   0.530
 5833SOL    HW218399   3.723   5.486   0.628
 5834SOL     OW18400   6.756   3.444   5.959
 5834SOL    HW118401   6.801   3.401   6.037
 5834SOL    HW218402   6.690   3.512   5.992
 5835SOL     OW18403   4.497   1.404   3.281
 5835SOL    HW118404   4.484   1.389   3.379
 5835SOL    HW218405   4.436   1.343   3.230
 5836SOL     OW18406   4.597   6.268   1.870
 5836SOL    HW118407   4.538   6.269   1.789
 5836SOL    HW218408   4.584   6.353   1.922
 5837SOL     OW18409   3.099   4.507   6.347
 5837SOL    HW118410   3.020   4.518   6.407
 5837SOL    HW218411   3.072   4.452   6.267
 5838SOL     OW18412   3.612   3.240   0.325
 5838SOL    HW118413   3.537   3.267   0.385
 5838SOL    HW218414   3.644   3.149   0.351
 5839SOL     OW18415   2.070   1.945   0.439
 5839SOL    HW118416   2.016   1.923   0.520
 5839SOL    HW218417   2.142   2.010   0.464
 5840SOL     OW18418   0.905   3.825   3.238
 5840SOL    HW118419   0.875   3.863   3.326
 5840SOL    HW218420   0.915   3.900   3.172
 5841SOL     OW18421   5.466   1.525   0.126
 5841SOL    HW118422   5.549   1.471   0.111
 5841SOL    HW218423   5.386   1.467   0.110
 5842SOL     OW18424   3.146   1.937   1.449
 5842SOL    HW118425   3.230   1.971   1.492
 5842SOL    HW218426   3.101   1.872   1.510
 5843SOL     OW18427   3.953   3.348   6.997
 5843SOL    HW118428   3.902   3.355   0.058
 5843SOL    HW218429   4.048   3.374   7.013
 5844SOL     OW18430   0.327   5.453   5.256
 5844SOL    HW118431   0.239   5.407   5.259
 5844SOL    HW218432   0.371   5.435   5.168
 5845SOL     OW18433   1.769   0.193   2.696
 5845SOL    HW118434   1.675   0.172   2.668
 5845SOL    HW218435   1.773   0.204   2.795
 5846SOL     OW18436   0.929   4.436   5.159
 5846SOL    HW118437   0.839   4.392   5.162
 5846SOL    HW218438   0.984   4.393   5.088
 5847SOL     OW18439   1.620   3.970   6.639
 5847SOL    HW118440   1.645   3.977   6.543
 5847SOL    HW218441   1.561   4.046   6.665
 5848SOL     OW18442   2.357   6.202   1.772
 5848SOL    HW118443   2.398   6.111   1.774
 5848SOL    HW218444   2.368   6.241   1.680
 5849SOL     OW18445   2.966   5.225   6.489
 5849SOL    HW118446   2.899   5.295   6.516
 5849SOL    HW218447   3.053   5.243   6.535
 5850SOL     OW18448   0.383   1.843   1.588
 5850SOL    HW118449   0.391   1.809   1.494
 5850SOL    HW218450   0.333   1.776   1.643
 5851SOL     OW18451   6.543   3.639   4.475
 5851SOL    HW118452   6.491   3.581   4.537
 5851SOL    HW218453   6.558   3.590   4.389
 5852SOL     OW18454   4.779   4.305   2.130
 5852SOL    HW118455   4.818   4.233   2.073
 5852SOL    HW218456   4.681   4.314   2.110
 5853SOL     OW18457   4.435   4.891   6.653
 5853SOL    HW118458   4.413   4.794   6.640
 5853SOL    HW218459   4.355   4.938   6.689
 5854SOL     OW18460   3.037   4.858   5.219
 5854SOL    HW118461   3.073   4.775   5.259
 5854SOL    HW218462   2.972   4.901   5.282
 5855SOL     OW18463   2.304   2.300   3.239
 5855SOL    HW118464   2.283   2.256   3.327
 5855SOL    HW218465   2.345   2.233   3.178
 5856SOL     OW18466   0.886   6.670   3.032
 5856SOL    HW118467   0.980   6.679   3.000
 5856SOL    HW218468   0.873   6.726   3.115
 5857SOL     OW18469   5.476   4.578   6.775
 5857SOL    HW118470   5.392   4.573   6.829
 5857SOL    HW218471   5.516   4.487   6.768
 5858SOL     OW18472   2.377   1.453   2.537
 5858SOL    HW118473   2.395   1.494   2.448
 5858SOL    HW218474   2.302   1.502   2.582
 5859SOL     OW18475   5.555   5.639   1.834
 5859SOL    HW118476   5.470   5.658   1.885
 5859SOL    HW218477   5.630   5.693   1.874
 5860SOL     OW18478   0.410   4.301   2.742
 5860SOL    HW118479   0.329   4.330   2.691
 5860SOL    HW218480   0.484   4.280   2.678
 5861SOL     OW18481   4.978   0.879   5.989
 5861SOL    HW118482   5.049   0.902   6.056
 5861SOL    HW218483   5.021   0.859   5.901
 5862SOL     OW18484   6.994   5.068   3.364
 5862SOL    HW118485   6.989   5.123   3.281
 5862SOL    HW218486   0.062   5.073   3.402
 5863SOL     OW18487   4.300   0.073   6.083
 5863SOL    HW118488   4.327   7.003   6.066
 5863SOL    HW218489   4.382   0.129   6.095
 5864SOL     OW18490   3.836   3.397   2.499
 5864SOL    HW118491   3.907   3.327   2.490
 5864SOL    HW218492   3.746   3.354   2.488
 5865SOL     OW18493   6.674   0.410   6.984
 5865SOL    HW118494   6.668   0.434   0.056
 5865SOL    HW218495   6.644   0.487   6.928
 5866SOL     OW18496   3.073   3.109   2.643
 5866SOL    HW118497   3.169   3.096   2.669
 5866SOL    HW218498   3.058   3.073   2.551
 5867SOL     OW18499   3.333   1.467   1.580
 5867SOL    HW118500   3.308   1.370   1.575
 5867SOL    HW218501   3.325   1.508   1.489
 5868SOL     OW18502   1.007   0.548   0.829
 5868SOL    HW118503   0.975   0.582   0.741
 5868SOL    HW218504   0.984   0.451   0.838
 5869SOL     OW18505   1.358   5.806   3.204
 5869SOL    HW118506   1.417   5.748   3.260
 5869SOL    HW218507   1.273   5.757   3.184
 5870SOL     OW18508   4.163   0.372   3.909
 5870SOL    HW118509   4.116   0.458   3.888
 5870SOL    HW218510   4.136   0.340   4.000
 5871SOL     OW18511   4.116   3.286   3.765
 5871SOL    HW118512   4.029   3.274   3.717
 5871SOL    HW218513   4.160   3.197   3.777
 5872SOL     OW18514   4.351   6.456   0.456
 5872SOL    HW118515   4.292   6.526   0.497
 5872SOL    HW218516   4.389   6.491   0.370
 5873SOL     OW18517   3.574   5.998   1.788
 5873SOL    HW118518   3.633   5.925   1.753
 5873SOL    HW218519   3.481   5.964   1.797
 5874SOL     OW18520   0.974   4.075   5.145
 5874SOL    HW118521   0.883   4.061   5.184
 5874SOL    HW218522   1.031   3.995   5.164
 5875SOL     OW18523   3.815   1.775   1.237
 5875SOL    HW118524   3.717   1.794   1.240
 5875SOL    HW218525   3.865   1.860   1.223
 5876SOL     OW18526   3.203   3.802   1.962
 5876SOL    HW118527   3.302   3.808   1.949
 5876SOL    HW218528   3.183   3.735   2.033
 5877SOL     OW18529   5.451   4.814   1.651
 5877SOL    HW118530   5.359   4.779   1.632
 5877SOL    HW218531   5.518   4.742   1.637
 5878SOL     OW18532   1.773   3.697   2.680
 5878SOL    HW118533   1.783   3.794   2.703
 5878SOL    HW218534   1.851   3.646   2.717
 5879SOL     OW18535   1.128   4.161   3.701
 5879SOL    HW118536   1.189   4.211   3.640
 5879SOL    HW218537   1.116   4.213   3.786
 5880SOL     OW18538   3.800   5.971   0.271
 5880SOL    HW118539   3.768   5.908   0.201
 5880SOL    HW218540   3.897   5.993   0.254
 5881SOL     OW18541   1.052   6.025   4.241
 5881SOL    HW118542   1.018   6.118   4.223
 5881SOL    HW218543   1.150   6.029   4.261
 5882SOL     OW18544   4.707   0.325   2.842
 5882SOL    HW118545   4.673   0.412   2.877
 5882SOL    HW218546   4.753   0.275   2.915
 5883SOL     OW18547   0.540   3.419   5.416
 5883SOL    HW118548   0.606   3.344   5.415
 5883SOL    HW218549   0.586   3.504   5.392
 5884SOL     OW18550   0.787   0.855   3.674
 5884SOL    HW118551   0.803   0.868   3.576
 5884SOL    HW218552   0.695   0.887   3.697
 5885SOL     OW18553   6.241   6.317   1.518
 5885SOL    HW118554   6.180   6.237   1.519
 5885SOL    HW218555   6.246   6.354   1.426
 5886SOL     OW18556   0.108   1.167   6.543
 5886SOL    HW118557   0.164   1.170   6.460
 5886SOL    HW218558   0.166   1.140   6.620
 5887SOL     OW18559   3.904   6.125   2.908
 5887SOL    HW118560   3.805   6.135   2.915
 5887SOL    HW218561   3.948   6.214   2.926
 5888SOL     OW18562   0.638   0.956   2.825
 5888SOL    HW118563   0.584   1.008   2.759
 5888SOL    HW218564   0.733   0.951   2.794
 5889SOL     OW18565   2.497   6.822   6.657
 5889SOL    HW118566   2.483   6.921   6.659
 5889SOL    HW218567   2.438   6.779   6.724
 5890SOL     OW18568   3.496   4.373   5.506
 5890SOL    HW118569   3.434   4.442   5.468
 5890SOL    HW218570   3.451   4.284   5.502
 5891SOL     OW18571   2.177   3.715   6.532
 5891SOL    HW118572   2.106   3.786   6.534
 5891SOL    HW218573   2.163   3.652   6.609
 5892SOL     OW18574   2.055   6.582   2.032
 5892SOL    HW118575   2.037   6.512   2.101
 5892SOL    HW218576   1.983   6.580   1.963
 5893SOL     OW18577   2.098   1.091   3.407
 5893SOL    HW118578   2.176   1.147   3.380
 5893SOL    HW218579   2.034   1.084   3.331
 5894SOL     OW18580   0.969   3.236   3.602
 5894SOL    HW118581   0.919   3.300   3.545
 5894SOL    HW218582   0.906   3.167   3.637
 5895SOL     OW18583   5.803   4.019   3.467
 5895SOL    HW118584   5.797   3.922   3.441
 5895SOL    HW218585   5.796   4.076   3.385
 5896SOL     OW18586   4.753   2.870   5.612
 5896SOL    HW118587   4.791   2.827   5.530
 5896SOL    HW218588   4.707   2.956   5.587
 5897SOL     OW18589   4.416   6.423   1.595
 5897SOL    HW118590   4.334   6.372   1.570
 5897SOL    HW218591   4.397   6.521   1.591
 5898SOL     OW18592   2.660   6.687   3.076
 5898SOL    HW118593   2.628   6.663   2.984
 5898SOL    HW218594   2.676   6.603   3.128
 5899SOL     OW18595   5.706   0.677   3.397
 5899SOL    HW118596   5.771   0.743   3.360
 5899SOL    HW218597   5.756   0.600   3.436
 5900SOL     OW18598   3.736   4.886   2.550
 5900SOL    HW118599   3.689   4.928   2.628
 5900SOL    HW218600   3.730   4.947   2.472
 5901SOL     OW18601   3.124   6.457   4.312
 5901SOL    HW118602   3.223   6.445   4.312
 5901SOL    HW218603   3.086   6.428   4.224
 5902SOL     OW18604   6.064   2.023   6.891
 5902SOL    HW118605   6.081   2.121   6.902
 5902SOL    HW218606   6.100   1.992   6.803
 5903SOL     OW18607   6.673   3.811   6.622
 5903SOL    HW118608   6.679   3.712   6.633
 5903SOL    HW218609   6.617   3.850   6.696
 5904SOL     OW18610   0.575   3.685   2.019
 5904SOL    HW118611   0.504   3.622   1.987
 5904SOL    HW218612   0.650   3.632   2.058
 5905SOL     OW18613   6.543   4.959   2.157
 5905SOL    HW118614   6.472   4.902   2.116
 5905SOL    HW218615   6.628   4.907   2.164
 5906SOL     OW18616   0.422   1.258   3.538
 5906SOL    HW118617   0.444   1.345   3.495
 5906SOL    HW218618   0.389   1.274   3.631
 5907SOL     OW18619   2.020   0.494   2.062
 5907SOL    HW118620   1.944   0.442   2.024
 5907SOL    HW218621   2.049   0.452   2.148
 5908SOL     OW18622   0.376   2.586   6.101
 5908SOL    HW118623   0.370   2.672   6.152
 5908SOL    HW218624   0.472   2.567   6.079
 5909SOL     OW18625   6.692   4.175   0.751
 5909SOL    HW118626   6.724   4.086   0.718
 5909SOL    HW218627   6.745   4.201   0.832
 5910SOL     OW18628   1.961   1.613   3.819
 5910SOL    HW118629   1.992   1.631   3.912
 5910SOL    HW218630   1.865   1.586   3.820
 5911SOL     OW18631   6.480   6.100   6.509
 5911SOL    HW118632   6.571   6.085   6.546
 5911SOL    HW218633   6.450   6.193   6.530
 5912SOL     OW18634   0.669   0.351   4.214
 5912SOL    HW118635   0.623   0.268   4.245
 5912SOL    HW218636   0.742   0.326   4.150
 5913SOL     OW18637   6.244   1.942   0.499
 5913SOL    HW118638   6.319   1.876   0.498
 5913SOL    HW218639   6.173   1.913   0.436
 5914SOL     OW18640   1.146   6.224   0.140
 5914SOL    HW118641   1.185   6.302   0.189
 5914SOL    HW218642   1.218   6.157   0.122
 5915SOL     OW18643   3.591   1.684   5.997
 5915SOL    HW118644   3.653   1.760   5.974
 5915SOL    HW218645   3.527   1.714   6.067
 5916SOL     OW18646   0.957   6.922   1.793
 5916SOL    HW118647   0.864   6.944   1.823
 5916SOL    HW218648   0.965   6.824   1.778
 5917SOL     OW18649   3.593   4.072   0.017
 5917SOL    HW118650   3.628   4.090   6.950
 5917SOL    HW218651   3.576   4.158   0.064
 5918SOL     OW18652   2.931   6.765   4.783
 5918SOL    HW118653   2.863   6.779   4.711
 5918SOL    HW218654   2.917   6.676   4.825
 5919SOL     OW18655   3.466   3.121   4.587
 5919SOL    HW118656   3.500   3.214   4.570
 5919SOL    HW218657   3.472   3.101   4.685
 5920SOL     OW18658   6.743   0.223   5.816
 5920SOL    HW118659   6.777   0.135   5.849
 5920SOL    HW218660   6.678   0.208   5.742
 5921SOL     OW18661   2.397   4.222   6.682
 5921SOL    HW118662   2.390   4.128   6.649
 5921SOL    HW218663   2.426   4.222   6.778
 5922SOL     OW18664   5.109   2.739   2.485
 5922SOL    HW118665   5.205   2.722   2.461
 5922SOL    HW218666   5.067   2.653   2.514
 5923SOL     OW18667   5.733   1.318   3.479
 5923SOL    HW118668   5.686   1.399   3.446
 5923SOL    HW218669   5.751   1.327   3.577
 5924SOL     OW18670   5.086   6.850   3.580
 5924SOL    HW118671   5.165   6.872   3.522
 5924SOL    HW218672   5.006   6.898   3.544
 5925SOL     OW18673   4.535   1.168   0.988
 5925SOL    HW118674   4.591   1.229   0.932
 5925SOL    HW218675   4.512   1.214   1.074
 5926SOL     OW18676   5.342   4.436   3.218
 5926SOL    HW118677   5.267   4.375   3.193
 5926SOL    HW218678   5.408   4.386   3.274
 5927SOL     OW18679   0.311   5.327   2.054
 5927SOL    HW118680   0.377   5.258   2.024
 5927SOL    HW218681   0.253   5.289   2.126
 5928SOL     OW18682   2.937   6.714   6.915
 5928SOL    HW118683   2.874   6.773   6.863
 5928SOL    HW218684   2.897   6.623   6.923
 5929SOL     OW18685   1.702   0.891   0.021
 5929SOL    HW118686   1.784   0.835   0.036
 5929SOL    HW218687   1.717   0.950   6.967
 5930SOL     OW18688   1.669   4.047   2.478
 5930SOL    HW118689   1.684   4.121   2.543
 5930SOL    HW218690   1.757   4.018   2.440
 5931SOL     OW18691   5.185   6.400   2.615
 5931SOL    HW118692   5.123   6.477   2.629
 5931SOL    HW218693   5.265   6.432   2.563
 5932SOL     OW18694   3.021   0.346   6.857
 5932SOL    HW118695   3.067   0.414   6.915
 5932SOL    HW218696   3.088   0.304   6.796
 5933SOL     OW18697   6.084   6.105   4.707
 5933SOL    HW118698   6.046   6.170   4.773
 5933SOL    HW218699   6.114   6.155   4.625
 5934SOL     OW18700   2.663   3.568   7.024
 5934SOL    HW118701   2.761   3.547   0.007
 5934SOL    HW218702   2.627   3.590   0.090
 5935SOL     OW18703   1.010   5.884   5.862
 5935SOL    HW118704   1.034   5.792   5.894
 5935SOL    HW218705   1.046   5.896   5.769
 5936SOL     OW18706   3.953   3.076   2.382
 5936SOL    HW118707   4.009   3.152   2.351
 5936SOL    HW218708   3.925   3.020   2.304
 5937SOL     OW18709   0.314   3.287   0.893
 5937SOL    HW118710   0.315   3.339   0.979
 5937SOL    HW218711   0.302   3.350   0.816
 5938SOL     OW18712   0.568   4.359   3.798
 5938SOL    HW118713   0.514   4.294   3.851
 5938SOL    HW218714   0.644   4.392   3.853
 5939SOL     OW18715   3.895   1.333   5.481
 5939SOL    HW118716   3.810   1.384   5.497
 5939SOL    HW218717   3.973   1.396   5.488
 5940SOL     OW18718   4.911   5.555   1.626
 5940SOL    HW118719   4.852   5.498   1.568
 5940SOL    HW218720   4.972   5.497   1.678
 5941SOL     OW18721   0.195   2.341   2.756
 5941SOL    HW118722   0.153   2.316   2.669
 5941SOL    HW218723   0.137   2.311   2.831
 5942SOL     OW18724   5.006   2.906   6.314
 5942SOL    HW118725   5.019   2.852   6.231
 5942SOL    HW218726   5.069   2.984   6.314
 5943SOL     OW18727   2.431   4.101   1.757
 5943SOL    HW118728   2.406   4.083   1.853
 5943SOL    HW218729   2.356   4.150   1.712
 5944SOL     OW18730   6.452   3.131   5.656
 5944SOL    HW118731   6.452   3.134   5.556
 5944SOL    HW218732   6.530   3.182   5.691
 5945SOL     OW18733   6.673   6.754   4.901
 5945SOL    HW118734   6.637   6.814   4.973
 5945SOL    HW218735   6.611   6.757   4.822
 5946SOL     OW18736   2.242   3.971   6.913
 5946SOL    HW118737   2.181   3.941   6.839
 5946SOL    HW218738   2.187   4.006   6.988
 5947SOL     OW18739   4.034   3.266   4.421
 5947SOL    HW118740   4.112   3.328   4.420
 5947SOL    HW218741   4.023   3.226   4.330
 5948SOL     OW18742   4.932   3.432   1.958
 5948SOL    HW118743   4.966   3.477   2.041
 5948SOL    HW218744   4.869   3.494   1.911
 5949SOL     OW18745   0.324   4.790   2.908
 5949SOL    HW118746   0.302   4.715   2.971
 5949SOL    HW218747   0.303   4.877   2.952
 5950SOL     OW18748   3.884   0.300   4.537
 5950SOL    HW118749   3.968   0.247   4.537
 5950SOL    HW218750   3.828   0.276   4.616
 5951SOL     OW18751   0.203   3.876   6.998
 5951SOL    HW118752   0.297   3.905   6.980
 5951SOL    HW218753   0.158   3.944   0.031
 5952SOL     OW18754   4.297   4.548   1.481
 5952SOL    HW118755   4.278   4.637   1.522
 5952SOL    HW218756   4.348   4.491   1.545
 5953SOL     OW18757   6.735   3.021   5.023
 5953SOL    HW118758   6.734   2.971   4.936
 5953SOL    HW218759   6.827   3.015   5.063
 5954SOL     OW18760   1.696   6.199   4.245
 5954SOL    HW118761   1.599   6.210   4.267
 5954SOL    HW218762   1.709   6.111   4.199
 5955SOL     OW18763   5.286   3.529   0.350
 5955SOL    HW118764   5.340   3.481   0.281
 5955SOL    HW218765   5.292   3.628   0.335
 5956SOL     OW18766   5.202   2.704   5.459
 5956SOL    HW118767   5.125   2.653   5.496
 5956SOL    HW218768   5.240   2.656   5.380
 5957SOL     OW18769   6.861   1.475   3.524
 5957SOL    HW118770   6.942   1.532   3.530
 5957SOL    HW218771   6.876   1.400   3.460
 5958SOL     OW18772   2.579   6.765   3.328
 5958SOL    HW118773   2.598   6.670   3.303
 5958SOL    HW218774   2.596   6.824   3.249
 5959SOL     OW18775   5.144   2.329   3.775
 5959SOL    HW118776   5.078   2.379   3.831
 5959SOL    HW218777   5.096   2.278   3.704
 5960SOL     OW18778   4.761   0.354   6.053
 5960SOL    HW118779   4.703   0.277   6.078
 5960SOL    HW218780   4.764   0.363   5.953
 5961SOL     OW18781   2.995   2.175   3.356
 5961SOL    HW118782   2.992   2.220   3.267
 5961SOL    HW218783   2.903   2.145   3.382
 5962SOL     OW18784   4.959   5.731   0.166
 5962SOL    HW118785   4.949   5.632   0.161
 5962SOL    HW218786   4.917   5.765   0.251
 5963SOL     OW18787   2.787   3.795   0.306
 5963SOL    HW118788   2.745   3.716   0.350
 5963SOL    HW218789   2.724   3.834   0.239
 5964SOL     OW18790   2.390   6.752   2.225
 5964SOL    HW118791   2.424   6.658   2.225
 5964SOL    HW218792   2.345   6.772   2.138
 5965SOL     OW18793   2.540   0.101   0.514
 5965SOL    HW118794   2.628   0.132   0.549
 5965SOL    HW218795   2.496   0.176   0.464
 5966SOL     OW18796   2.996   1.676   4.993
 5966SOL    HW118797   3.016   1.596   4.936
 5966SOL    HW218798   3.062   1.680   5.068
 5967SOL     OW18799   4.356   2.142   4.803
 5967SOL    HW118800   4.377   2.220   4.862
 5967SOL    HW218801   4.341   2.060   4.859
 5968SOL     OW18802   5.678   2.549   1.578
 5968SOL    HW118803   5.744   2.544   1.502
 5968SOL    HW218804   5.617   2.626   1.564
 5969SOL     OW18805   5.512   0.367   0.540
 5969SOL    HW118806   5.522   0.284   0.486
 5969SOL    HW218807   5.431   0.417   0.509
 5970SOL     OW18808   6.940   3.740   0.370
 5970SOL    HW118809   6.893   3.743   0.282
 5970SOL    HW218810   0.014   3.737   0.356
 5971SOL     OW18811   6.676   6.542   4.038
 5971SOL    HW118812   6.698   6.619   4.099
 5971SOL    HW218813   6.739   6.467   4.055
 5972SOL     OW18814   5.436   5.290   0.502
 5972SOL    HW118815   5.478   5.332   0.422
 5972SOL    HW218816   5.473   5.198   0.515
 5973SOL     OW18817   3.043   1.412   2.569
 5973SOL    HW118818   2.973   1.362   2.518
 5973SOL    HW218819   3.085   1.480   2.509
 5974SOL     OW18820   5.565   1.717   5.342
 5974SOL    HW118821   5.655   1.759   5.350
 5974SOL    HW218822   5.542   1.671   5.428
 5975SOL     OW18823   4.539   4.502   1.044
 5975SOL    HW118824   4.583   4.535   1.127
 5975SOL    HW218825   4.524   4.579   0.981
 5976SOL     OW18826   2.401   3.365   5.617
 5976SOL    HW118827   2.408   3.368   5.716
 5976SOL    HW218828   2.327   3.303   5.590
 5977SOL     OW18829   6.625   4.420   0.612
 5977SOL    HW118830   6.646   4.340   0.668
 5977SOL    HW218831   6.545   4.400   0.554
 5978SOL     OW18832   2.687   3.697   6.522
 5978SOL    HW118833   2.644   3.663   6.606
 5978SOL    HW218834   2.649   3.787   6.499
 5979SOL     OW18835   6.077   0.494   2.044
 5979SOL    HW118836   6.032   0.408   2.020
 5979SOL    HW218837   6.027   0.539   2.118
 5980SOL     OW18838   2.875   3.030   1.129
 5980SOL    HW118839   2.863   3.002   1.033
 5980SOL    HW218840   2.796   3.001   1.182
 5981SOL     OW18841   3.060   2.101   0.274
 5981SOL    HW118842   2.986   2.073   0.335
 5981SOL    HW218843   3.083   2.197   0.291
 5982SOL     OW18844   4.824   3.042   0.586
 5982SOL    HW118845   4.898   3.009   0.645
 5982SOL    HW218846   4.798   3.134   0.615
 5983SOL     OW18847   6.876   0.869   3.719
 5983SOL    HW118848   6.927   0.801   3.665
 5983SOL    HW218849   6.916   0.959   3.705
 5984SOL     OW18850   5.527   0.064   4.298
 5984SOL    HW118851   5.601   0.128   4.318
 5984SOL    HW218852   5.478   0.093   4.216
 5985SOL     OW18853   6.409   3.085   2.062
 5985SOL    HW118854   6.496   3.046   2.092
 5985SOL    HW218855   6.423   3.180   2.034
 5986SOL     OW18856   3.766   3.386   4.385
 5986SOL    HW118857   3.798   3.390   4.291
 5986SOL    HW218858   3.791   3.297   4.425
 5987SOL     OW18859   0.181   6.291   5.315
 5987SOL    HW118860   0.156   6.388   5.325
 5987SOL    HW218861   0.281   6.283   5.320
 5988SOL     OW18862   0.934   2.574   6.405
 5988SOL    HW118863   1.015   2.621   6.369
 5988SOL    HW218864   0.870   2.555   6.330
 5989SOL     OW18865   0.480   6.587   6.114
 5989SOL    HW118866   0.536   6.505   6.101
 5989SOL    HW218867   0.524   6.648   6.180
 5990SOL     OW18868   2.626   4.805   1.917
 5990SOL    HW118869   2.687   4.734   1.953
 5990SOL    HW218870   2.534   4.767   1.906
 5991SOL     OW18871   4.579   0.581   0.435
 5991SOL    HW118872   4.484   0.592   0.405
 5991SOL    HW218873   4.599   0.645   0.509
 5992SOL     OW18874   3.518   6.048   2.285
 5992SOL    HW118875   3.525   6.098   2.198
 5992SOL    HW218876   3.448   5.978   2.276
 5993SOL     OW18877   5.655   1.850   6.955
 5993SOL    HW118878   5.735   1.791   6.947
 5993SOL    HW218879   5.675   1.926   7.016
 5994SOL     OW18880   0.192   3.316   0.022
 5994SOL    HW118881   0.238   3.230   7.023
 5994SOL    HW218882   0.250   3.369   0.084
 5995SOL     OW18883   4.762   3.719   1.505
 5995SOL    HW118884   4.811   3.684   1.425
 5995SOL    HW218885   4.828   3.753   1.572
 5996SOL     OW18886   2.871   5.957   1.542
 5996SOL    HW118887   2.866   5.999   1.633
 5996SOL    HW218888   2.899   5.862   1.552
 5997SOL     OW18889   6.477   0.501   4.180
 5997SOL    HW118890   6.390   0.546   4.200
 5997SOL    HW218891   6.460   0.419   4.125
 5998SOL     OW18892   6.353   5.827   0.174
 5998SOL    HW118893   6.415   5.801   0.100
 5998SOL    HW218894   6.395   5.807   0.262
 5999SOL     OW18895   5.018   3.182   1.626
 5999SOL    HW118896   4.935   3.196   1.680
 5999SOL    HW218897   5.089   3.246   1.656
 6000SOL     OW18898   0.257   4.326   1.050
 6000SOL    HW118899   0.312   4.404   1.022
 6000SOL    HW218900   0.254   4.258   0.977
 6001SOL     OW18901   6.438   5.612   5.814
 6001SOL    HW118902   6.380   5.556   5.754
 6001SOL    HW218903   6.395   5.620   5.903
 6002SOL     OW18904   5.686   4.604   5.288
 6002SOL    HW118905   5.763   4.585   5.227
 6002SOL    HW218906   5.628   4.674   5.247
 6003SOL     OW18907   1.997   2.631   4.629
 6003SOL    HW118908   2.007   2.537   4.660
 6003SOL    HW218909   1.950   2.633   4.541
 6004SOL     OW18910   5.331   2.146   4.435
 6004SOL    HW118911   5.275   2.071   4.399
 6004SOL    HW218912   5.414   2.154   4.380
 6005SOL     OW18913   4.253   4.385   6.585
 6005SOL    HW118914   4.165   4.401   6.540
 6005SOL    HW218915   4.269   4.286   6.594
 6006SOL     OW18916   3.506   6.123   6.928
 6006SOL    HW118917   3.511   6.026   6.902
 6006SOL    HW218918   3.587   6.148   6.981
 6007SOL     OW18919   2.392   5.761   5.826
 6007SOL    HW118920   2.443   5.697   5.883
 6007SOL    HW218921   2.395   5.731   5.731
 6008SOL     OW18922   3.053   4.085   6.486
 6008SOL    HW118923   3.115   4.153   6.528
 6008SOL    HW218924   3.107   4.021   6.431
 6009SOL     OW18925   4.151   5.397   2.997
 6009SOL    HW118926   4.075   5.338   3.025
 6009SOL    HW218927   4.226   5.387   3.062
 6010SOL     OW18928   0.518   4.679   4.069
 6010SOL    HW118929   0.618   4.681   4.063
 6010SOL    HW218930   0.491   4.613   4.140
 6011SOL     OW18931   6.109   1.681   2.498
 6011SOL    HW118932   6.188   1.620   2.490
 6011SOL    HW218933   6.026   1.626   2.507
 6012SOL     OW18934   6.816   0.247   6.286
 6012SOL    HW118935   6.785   0.285   6.199
 6012SOL    HW218936   6.883   0.309   6.327
 6013SOL     OW18937   6.125   1.228   1.953
 6013SOL    HW118938   6.120   1.146   1.896
 6013SOL    HW218939   6.052   1.291   1.926
 6014SOL     OW18940   3.121   3.802   3.840
 6014SOL    HW118941   3.104   3.704   3.834
 6014SOL    HW218942   3.123   3.830   3.936
 6015SOL     OW18943   6.202   0.533   4.245
 6015SOL    HW118944   6.202   0.542   4.345
 6015SOL    HW218945   6.176   0.621   4.204
 6016SOL     OW18946   4.651   1.824   4.281
 6016SOL    HW118947   4.597   1.741   4.262
 6016SOL    HW218948   4.716   1.805   4.355
 6017SOL     OW18949   0.962   1.210   5.743
 6017SOL    HW118950   0.969   1.273   5.665
 6017SOL    HW218951   0.865   1.197   5.766
 6018SOL     OW18952   2.873   1.122   4.410
 6018SOL    HW118953   2.935   1.197   4.430
 6018SOL    HW218954   2.908   1.069   4.333
 6019SOL     OW18955   6.348   4.345   6.813
 6019SOL    HW118956   6.322   4.388   6.899
 6019SOL    HW218957   6.402   4.410   6.758
 6020SOL     OW18958   0.991   4.903   5.820
 6020SOL    HW118959   1.021   4.847   5.743
 6020SOL    HW218960   0.902   4.871   5.852
 6021SOL     OW18961   6.065   6.992   3.736
 6021SOL    HW118962   5.982   0.021   3.733
 6021SOL    HW218963   6.130   0.001   3.667
 6022SOL     OW18964   6.370   2.440   1.172
 6022SOL    HW118965   6.277   2.433   1.210
 6022SOL    HW218966   6.432   2.383   1.226
 6023SOL     OW18967   3.921   0.340   1.643
 6023SOL    HW118968   3.903   0.334   1.545
 6023SOL    HW218969   3.834   0.352   1.692
 6024SOL     OW18970   1.333   6.096   7.015
 6024SOL    HW118971   1.367   6.189   7.000
 6024SOL    HW218972   1.410   6.032   7.009
 6025SOL     OW18973   3.052   0.268   4.783
 6025SOL    HW118974   2.954   0.251   4.773
 6025SOL    HW218975   3.098   0.252   4.695
 6026SOL     OW18976   5.763   5.973   4.760
 6026SOL    HW118977   5.732   6.058   4.717
 6026SOL    HW218978   5.829   5.994   4.832
 6027SOL     OW18979   5.325   4.681   6.561
 6027SOL    HW118980   5.391   4.642   6.626
 6027SOL    HW218981   5.303   4.774   6.588
 6028SOL     OW18982   6.000   4.975   5.577
 6028SOL    HW118983   5.910   4.936   5.594
 6028SOL    HW218984   5.994   5.075   5.580
 6029SOL     OW18985   2.960   0.985   2.830
 6029SOL    HW118986   3.056   0.976   2.853
 6029SOL    HW218987   2.947   1.062   2.768
 6030SOL     OW18988   6.058   3.178   4.275
 6030SOL    HW118989   5.999   3.142   4.201
 6030SOL    HW218990   6.035   3.132   4.361
 6031SOL     OW18991   7.024   6.092   5.455
 6031SOL    HW118992   0.040   6.164   5.398
 6031SOL    HW218993   0.033   6.003   5.425
 6032SOL     OW18994   3.575   6.055   3.177
 6032SOL    HW118995   3.584   6.057   3.276
 6032SOL    HW218996   3.596   6.145   3.140
 6033SOL     OW18997   1.185   1.545   2.572
 6033SOL    HW118998   1.144   1.533   2.482
 6033SOL    HW218999   1.161   1.635   2.609
 6034SOL     OW19000   1.071   6.463   1.241
 6034SOL    HW119001   1.029   6.459   1.332
 6034SOL    HW219002   1.047   6.380   1.190
 6035SOL     OW19003   2.337   0.468   2.816
 6035SOL    HW119004   2.425   0.422   2.826
 6035SOL    HW219005   2.341   0.535   2.742
 6036SOL     OW19006   6.428   3.314   1.139
 6036SOL    HW119007   6.489   3.301   1.217
 6036SOL    HW219008   6.450   3.248   1.068
 6037SOL     OW19009   5.108   1.787   6.651
 6037SOL    HW119010   5.141   1.747   6.736
 6037SOL    HW219011   5.174   1.770   6.578
 6038SOL     OW19012   1.464   1.426   6.186
 6038SOL    HW119013   1.437   1.438   6.281
 6038SOL    HW219014   1.400   1.363   6.141
 6039SOL     OW19015   4.117   3.450   3.532
 6039SOL    HW119016   4.149   3.372   3.585
 6039SOL    HW219017   4.072   3.417   3.448
 6040SOL     OW19018   0.436   1.527   0.460
 6040SOL    HW119019   0.472   1.609   0.418
 6040SOL    HW219020   0.462   1.447   0.406
 6041SOL     OW19021   2.505   3.867   5.585
 6041SOL    HW119022   2.497   3.829   5.493
 6041SOL    HW219023   2.596   3.848   5.621
 6042SOL     OW19024   3.375   5.686   3.716
 6042SOL    HW119025   3.475   5.697   3.724
 6042SOL    HW219026   3.331   5.774   3.735
 6043SOL     OW19027   2.446   0.267   3.221
 6043SOL    HW119028   2.452   0.221   3.309
 6043SOL    HW219029   2.533   0.259   3.172
 6044SOL     OW19030   1.004   3.355   1.083
 6044SOL    HW119031   1.097   3.343   1.118
 6044SOL    HW219032   0.951   3.410   1.147
 6045SOL     OW19033   5.410   1.780   3.355
 6045SOL    HW119034   5.393   1.819   3.264
 6045SOL    HW219035   5.441   1.853   3.417
 6046SOL     OW19036   3.533   2.881   2.896
 6046SOL    HW119037   3.495   2.970   2.871
 6046SOL    HW219038   3.563   2.833   2.814
 6047SOL     OW19039   0.049   1.717   0.702
 6047SOL    HW119040   0.071   1.633   0.751
 6047SOL    HW219041   0.132   1.756   0.662
 6048SOL     OW19042   5.813   5.920   4.038
 6048SOL    HW119043   5.900   5.955   4.003
 6048SOL    HW219044   5.787   5.971   4.120
 6049SOL     OW19045   4.548   4.991   6.077
 6049SOL    HW119046   4.635   4.961   6.117
 6049SOL    HW219047   4.475   4.928   6.103
 6050SOL     OW19048   3.133   6.121   2.242
 6050SOL    HW119049   3.122   6.220   2.254
 6050SOL    HW219050   3.116   6.075   2.329
 6051SOL     OW19051   0.533   1.230   3.090
 6051SOL    HW119052   0.504   1.234   2.995
 6051SOL    HW219053   0.597   1.305   3.109
 6052SOL     OW19054   4.787   5.893   0.310
 6052SOL    HW119055   4.740   5.922   0.393
 6052SOL    HW219056   4.737   5.925   0.230
 6053SOL     OW19057   3.905   2.653   5.962
 6053SOL    HW119058   3.893   2.744   5.921
 6053SOL    HW219059   3.970   2.659   6.037
 6054SOL     OW19060   3.897   4.136   0.837
 6054SOL    HW119061   3.850   4.070   0.779
 6054SOL    HW219062   3.874   4.119   0.933
 6055SOL     OW19063   3.005   3.955   1.061
 6055SOL    HW119064   2.921   3.902   1.050
 6055SOL    HW219065   3.083   3.893   1.075
 6056SOL     OW19066   5.345   5.871   3.865
 6056SOL    HW119067   5.421   5.928   3.895
 6056SOL    HW219068   5.271   5.929   3.831
 6057SOL     OW19069   4.882   0.623   4.438
 6057SOL    HW119070   4.913   0.528   4.433
 6057SOL    HW219071   4.875   0.661   4.345
 6058SOL     OW19072   6.136   2.733   5.810
 6058SOL    HW119073   6.054   2.790   5.801
 6058SOL    HW219074   6.145   2.701   5.904
 6059SOL     OW19075   4.370   2.772   0.078
 6059SOL    HW119076   4.361   2.858   0.129
 6059SOL    HW219077   4.465   2.760   0.050
 6060SOL     OW19078   2.013   3.274   0.099
 6060SOL    HW119079   1.918   3.301   0.082
 6060SOL    HW219080   2.073   3.352   0.081
 6061SOL     OW19081   2.996   4.632   6.960
 6061SOL    HW119082   3.045   4.684   6.890
 6061SOL    HW219083   3.059   4.608   0.009
 6062SOL     OW19084   2.037   2.046   6.951
 6062SOL    HW119085   2.061   2.130   6.902
 6062SOL    HW219086   2.058   2.057   0.023
 6063SOL     OW19087   4.574   4.222   6.525
 6063SOL    HW119088   4.500   4.192   6.585
 6063SOL    HW219089   4.660   4.222   6.577
 6064SOL     OW19090   6.583   5.285   1.053
 6064SOL    HW119091   6.643   5.234   1.114
 6064SOL    HW219092   6.538   5.360   1.103
 6065SOL     OW19093   1.595   0.235   2.437
 6065SOL    HW119094   1.529   0.203   2.505
 6065SOL    HW219095   1.636   0.156   2.390
 6066SOL     OW19096   5.462   5.644   3.696
 6066SOL    HW119097   5.412   5.682   3.773
 6066SOL    HW219098   5.502   5.718   3.642
 6067SOL     OW19099   6.411   6.615   6.698
 6067SOL    HW119100   6.364   6.633   6.611
 6067SOL    HW219101   6.491   6.675   6.705
 6068SOL     OW19102   4.811   2.428   4.140
 6068SOL    HW119103   4.870   2.431   4.221
 6068SOL    HW219104   4.754   2.510   4.138
 6069SOL     OW19105   0.067   4.422   5.932
 6069SOL    HW119106   0.001   4.466   5.871
 6069SOL    HW219107   0.079   4.326   5.905
 6070SOL     OW19108   2.545   1.060   0.320
 6070SOL    HW119109   2.468   1.122   0.305
 6070SOL    HW219110   2.561   1.005   0.238
 6071SOL     OW19111   5.979   1.103   5.678
 6071SOL    HW119112   6.035   1.176   5.716
 6071SOL    HW219113   5.934   1.135   5.594
 6072SOL     OW19114   0.106   2.735   0.416
 6072SOL    HW119115   0.190   2.684   0.436
 6072SOL    HW219116   0.041   2.722   0.490
 6073SOL     OW19117   5.039   2.813   0.209
 6073SOL    HW119118   5.007   2.907   0.205
 6073SOL    HW219119   5.039   2.782   0.304
 6074SOL     OW19120   0.764   6.601   2.587
 6074SOL    HW119121   0.752   6.590   2.488
 6074SOL    HW219122   0.843   6.548   2.616
 6075SOL     OW19123   5.387   0.431   6.675
 6075SOL    HW119124   5.485   0.453   6.682
 6075SOL    HW219125   5.376   0.339   6.637
 6076SOL     OW19126   0.910   5.924   2.743
 6076SOL    HW119127   0.888   6.018   2.716
 6076SOL    HW219128   0.868   5.860   2.679
 6077SOL     OW19129   5.427   0.014   2.770
 6077SOL    HW119130   5.520   0.051   2.772
 6077SOL    HW219131   5.389   0.013   2.862
 6078SOL     OW19132   4.218   4.105   0.721
 6078SOL    HW119133   4.222   4.065   0.630
 6078SOL    HW219134   4.152   4.180   0.721
 6079SOL     OW19135   2.888   2.961   0.412
 6079SOL    HW119136   2.864   2.902   0.336
 6079SOL    HW219137   2.810   2.967   0.476
 6080SOL     OW19138   6.781   4.853   6.403
 6080SOL    HW119139   6.727   4.781   6.448
 6080SOL    HW219140   6.878   4.834   6.415
 6081SOL     OW19141   1.325   3.983   3.474
 6081SOL    HW119142   1.267   3.925   3.531
 6081SOL    HW219143   1.292   4.078   3.477
 6082SOL     OW19144   4.930   1.238   1.166
 6082SOL    HW119145   4.937   1.162   1.102
 6082SOL    HW219146   4.938   1.203   1.260
 6083SOL     OW19147   4.767   0.768   6.523
 6083SOL    HW119148   4.783   0.842   6.588
 6083SOL    HW219149   4.675   0.778   6.484
 6084SOL     OW19150   0.309   6.134   2.451
 6084SOL    HW119151   0.335   6.201   2.381
 6084SOL    HW219152   0.210   6.125   2.454
 6085SOL     OW19153   0.370   6.926   0.667
 6085SOL    HW119154   0.377   7.025   0.656
 6085SOL    HW219155   0.371   6.882   0.576
 6086SOL     OW19156   3.670   4.156   6.776
 6086SOL    HW119157   3.722   4.234   6.813
 6086SOL    HW219158   3.592   4.190   6.725
 6087SOL     OW19159   5.206   0.068   0.736
 6087SOL    HW119160   5.148   0.083   0.816
 6087SOL    HW219161   5.299   0.047   0.765
 6088SOL     OW19162   5.238   5.796   3.466
 6088SOL    HW119163   5.330   5.832   3.448
 6088SOL    HW219164   5.194   5.774   3.379
 6089SOL     OW19165   6.406   3.659   3.963
 6089SOL    HW119166   6.308   3.662   3.943
 6089SOL    HW219167   6.421   3.607   4.047
 6090SOL     OW19168   4.066   5.786   3.958
 6090SOL    HW119169   3.975   5.755   3.985
 6090SOL    HW219170   4.133   5.758   4.027
 6091SOL     OW19171   1.506   1.667   2.084
 6091SOL    HW119172   1.508   1.763   2.057
 6091SOL    HW219173   1.433   1.652   2.150
 6092SOL     OW19174   2.789   6.150   0.924
 6092SOL    HW119175   2.772   6.101   0.838
 6092SOL    HW219176   2.714   6.134   0.987
 6093SOL     OW19177   2.582   2.404   2.566
 6093SOL    HW119178   2.626   2.411   2.655
 6093SOL    HW219179   2.483   2.394   2.579
 6094SOL     OW19180   0.607   6.017   4.917
 6094SOL    HW119181   0.638   6.110   4.900
 6094SOL    HW219182   0.635   5.958   4.841
 6095SOL     OW19183   4.798   4.943   2.115
 6095SOL    HW119184   4.868   4.943   2.044
 6095SOL    HW219185   4.832   4.894   2.196
 6096SOL     OW19186   5.455   6.067   3.133
 6096SOL    HW119187   5.389   6.091   3.204
 6096SOL    HW219188   5.506   6.149   3.107
 6097SOL     OW19189   1.639   5.201   1.843
 6097SOL    HW119190   1.627   5.105   1.819
 6097SOL    HW219191   1.725   5.234   1.805
 6098SOL     OW19192   6.964   0.352   4.913
 6098SOL    HW119193   6.970   0.425   4.981
 6098SOL    HW219194   6.869   0.339   4.885
 6099SOL     OW19195   3.691   0.645   5.957
 6099SOL    HW119196   3.754   0.624   5.882
 6099SOL    HW219197   3.597   0.631   5.925
 6100SOL     OW19198   0.206   6.114   5.099
 6100SOL    HW119199   0.192   6.187   5.167
 6100SOL    HW219200   0.270   6.047   5.136
 6101SOL     OW19201   0.071   3.312   1.867
 6101SOL    HW119202   0.135   3.380   1.904
 6101SOL    HW219203   7.005   3.352   1.860
 6102SOL     OW19204   3.935   0.368   2.512
 6102SOL    HW119205   3.998   0.347   2.437
 6102SOL    HW219206   3.894   0.283   2.546
 6103SOL     OW19207   6.364   1.755   2.213
 6103SOL    HW119208   6.460   1.733   2.194
 6103SOL    HW219209   6.306   1.680   2.184
 6104SOL     OW19210   0.068   0.846   4.434
 6104SOL    HW119211   0.164   0.872   4.439
 6104SOL    HW219212   0.050   0.775   4.503
 6105SOL     OW19213   2.875   4.735   5.479
 6105SOL    HW119214   2.843   4.784   5.560
 6105SOL    HW219215   2.796   4.704   5.426
 6106SOL     OW19216   6.171   4.983   5.289
 6106SOL    HW119217   6.157   4.889   5.321
 6106SOL    HW219218   6.090   5.013   5.239
 6107SOL     OW19219   5.306   5.811   5.495
 6107SOL    HW119220   5.295   5.712   5.483
 6107SOL    HW219221   5.400   5.837   5.470
 6108SOL     OW19222   2.393   1.263   0.217
 6108SOL    HW119223   2.327   1.338   0.209
 6108SOL    HW219224   2.461   1.270   0.143
 6109SOL     OW19225   6.660   6.934   3.666
 6109SOL    HW119226   6.599   7.011   3.645
 6109SOL    HW219227   6.746   6.969   3.702
 6110SOL     OW19228   1.632   1.424   4.432
 6110SOL    HW119229   1.562   1.494   4.447
 6110SOL    HW219230   1.589   1.342   4.395
 6111SOL     OW19231   1.682   4.312   0.863
 6111SOL    HW119232   1.701   4.219   0.895
 6111SOL    HW219233   1.684   4.375   0.941
 6112SOL     OW19234   4.671   6.575   3.023
 6112SOL    HW119235   4.637   6.628   3.101
 6112SOL    HW219236   4.597   6.563   2.957
 6113SOL     OW19237   3.213   5.243   0.743
 6113SOL    HW119238   3.124   5.259   0.700
 6113SOL    HW219239   3.206   5.167   0.808
 6114SOL     OW19240   5.322   2.184   0.102
 6114SOL    HW119241   5.258   2.156   0.173
 6114SOL    HW219242   5.302   2.279   0.075
 6115SOL     OW19243   1.069   0.436   5.840
 6115SOL    HW119244   0.975   0.464   5.856
 6115SOL    HW219245   1.088   0.439   5.742
 6116SOL     OW19246   5.749   2.246   6.514
 6116SOL    HW119247   5.748   2.193   6.599
 6116SOL    HW219248   5.656   2.277   6.493
 6117SOL     OW19249   1.896   1.906   1.167
 6117SOL    HW119250   1.922   1.997   1.200
 6117SOL    HW219251   1.893   1.843   1.244
 6118SOL     OW19252   5.647   0.624   1.085
 6118SOL    HW119253   5.744   0.628   1.059
 6118SOL    HW219254   5.590   0.644   1.006
 6119SOL     OW19255   0.112   1.883   6.949
 6119SOL    HW119256   0.183   1.813   6.948
 6119SOL    HW219257   0.048   1.865   7.024
 6120SOL     OW19258   2.479   0.964   4.719
 6120SOL    HW119259   2.532   1.014   4.650
 6120SOL    HW219260   2.386   0.949   4.685
 6121SOL     OW19261   0.428   2.578   5.520
 6121SOL    HW119262   0.448   2.603   5.615
 6121SOL    HW219263   0.368   2.646   5.479
 6122SOL     OW19264   4.919   4.761   5.611
 6122SOL    HW119265   4.953   4.796   5.698
 6122SOL    HW219266   4.977   4.794   5.537
 6123SOL     OW19267   5.292   1.438   5.311
 6123SOL    HW119268   5.284   1.384   5.227
 6123SOL    HW219269   5.388   1.452   5.333
 6124SOL     OW19270   2.445   5.839   3.868
 6124SOL    HW119271   2.389   5.770   3.823
 6124SOL    HW219272   2.538   5.837   3.830
 6125SOL     OW19273   2.654   2.069   6.845
 6125SOL    HW119274   2.593   2.146   6.862
 6125SOL    HW219275   2.705   2.084   6.761
 6126SOL     OW19276   5.792   3.321   5.314
 6126SOL    HW119277   5.815   3.318   5.411
 6126SOL    HW219278   5.768   3.415   5.289
 6127SOL     OW19279   4.453   2.063   1.823
 6127SOL    HW119280   4.394   2.143   1.815
 6127SOL    HW219281   4.436   2.017   1.909
 6128SOL     OW19282   5.307   5.497   0.168
 6128SOL    HW119283   5.212   5.491   0.136
 6128SOL    HW219284   5.367   5.448   0.104
 6129SOL     OW19285   1.524   5.780   2.271
 6129SOL    HW119286   1.465   5.805   2.194
 6129SOL    HW219287   1.506   5.685   2.297
 6130SOL     OW19288   6.170   2.297   6.966
 6130SOL    HW119289   6.125   2.288   0.030
 6130SOL    HW219290   6.257   2.345   6.977
 6131SOL     OW19291   6.606   1.241   2.882
 6131SOL    HW119292   6.625   1.174   2.954
 6131SOL    HW219293   6.511   1.271   2.889
 6132SOL     OW19294   3.845   1.734   6.434
 6132SOL    HW119295   3.756   1.780   6.426
 6132SOL    HW219296   3.831   1.641   6.469
 6133SOL     OW19297   1.496   2.044   3.193
 6133SOL    HW119298   1.565   2.099   3.240
 6133SOL    HW219299   1.540   1.966   3.150
 6134SOL     OW19300   6.379   6.818   6.245
 6134SOL    HW119301   6.426   6.730   6.237
 6134SOL    HW219302   6.336   6.841   6.157
 6135SOL     OW19303   6.932   6.980   6.812
 6135SOL    HW119304   6.854   0.011   6.842
 6135SOL    HW219305   7.016   0.009   6.819
 6136SOL     OW19306   1.044   2.819   2.212
 6136SOL    HW119307   1.129   2.769   2.228
 6136SOL    HW219308   0.987   2.815   2.294
 6137SOL     OW19309   6.458   4.235   2.142
 6137SOL    HW119310   6.525   4.201   2.208
 6137SOL    HW219311   6.499   4.309   2.089
 6138SOL     OW19312   4.429   0.209   2.031
 6138SOL    HW119313   4.429   0.150   2.112
 6138SOL    HW219314   4.363   0.172   1.964
 6139SOL     OW19315   1.458   0.456   5.595
 6139SOL    HW119316   1.545   0.410   5.579
 6139SOL    HW219317   1.384   0.389   5.595
 6140SOL     OW19318   1.338   0.206   3.276
 6140SOL    HW119319   1.259   0.152   3.249
 6140SOL    HW219320   1.403   0.148   3.324
 6141SOL     OW19321   0.687   1.216   5.819
 6141SOL    HW119322   0.617   1.209   5.748
 6141SOL    HW219323   0.644   1.215   5.909
 6142SOL     OW19324   0.127   0.856   1.567
 6142SOL    HW119325   0.164   0.827   1.656
 6142SOL    HW219326   0.028   0.850   1.569
 6143SOL     OW19327   0.144   4.053   5.478
 6143SOL    HW119328   0.197   4.108   5.543
 6143SOL    HW219329   0.076   4.111   5.433
 6144SOL     OW19330   3.963   5.153   3.029
 6144SOL    HW119331   4.041   5.108   2.986
 6144SOL    HW219332   3.917   5.212   2.962
 6145SOL     OW19333   4.933   3.524   4.102
 6145SOL    HW119334   4.910   3.549   4.197
 6145SOL    HW219335   4.967   3.430   4.100
 6146SOL     OW19336   5.397   0.034   5.044
 6146SOL    HW119337   5.376   6.994   5.117
 6146SOL    HW219338   5.337   0.114   5.051
 6147SOL     OW19339   1.618   2.432   4.154
 6147SOL    HW119340   1.682   2.394   4.221
 6147SOL    HW219341   1.650   2.522   4.125
 6148SOL     OW19342   3.295   5.900   0.260
 6148SOL    HW119343   3.350   5.854   0.190
 6148SOL    HW219344   3.298   5.999   0.244
 6149SOL     OW19345   2.901   0.813   1.116
 6149SOL    HW119346   2.877   0.748   1.045
 6149SOL    HW219347   2.995   0.844   1.103
 6150SOL     OW19348   0.873   3.778   5.508
 6150SOL    HW119349   0.878   3.869   5.467
 6150SOL    HW219350   0.948   3.766   5.574
 6151SOL     OW19351   4.542   5.516   3.972
 6151SOL    HW119352   4.519   5.446   4.040
 6151SOL    HW219353   4.632   5.496   3.933
 6152SOL     OW19354   1.400   4.753   3.929
 6152SOL    HW119355   1.414   4.809   4.011
 6152SOL    HW219356   1.485   4.749   3.877
 6153SOL     OW19357   5.565   5.419   1.216
 6153SOL    HW119358   5.522   5.416   1.125
 6153SOL    HW219359   5.632   5.493   1.219
 6154SOL     OW19360   4.908   3.397   2.283
 6154SOL    HW119361   4.912   3.413   2.381
 6154SOL    HW219362   4.859   3.311   2.265
 6155SOL     OW19363   1.900   1.214   3.089
 6155SOL    HW119364   1.863   1.236   2.999
 6155SOL    HW219365   1.961   1.135   3.081
 6156SOL     OW19366   4.859   5.346   1.427
 6156SOL    HW119367   4.914   5.264   1.443
 6156SOL    HW219368   4.919   5.422   1.402
 6157SOL     OW19369   1.344   2.625   2.165
 6157SOL    HW119370   1.344   2.723   2.182
 6157SOL    HW219371   1.305   2.607   2.075
 6158SOL     OW19372   2.884   2.329   4.735
 6158SOL    HW119373   2.975   2.358   4.766
 6158SOL    HW219374   2.892   2.283   4.647
 6159SOL     OW19375   6.464   2.902   0.846
 6159SOL    HW119376   6.485   2.995   0.876
 6159SOL    HW219377   6.545   2.860   0.807
 6160SOL     OW19378   1.367   0.728   0.718
 6160SOL    HW119379   1.465   0.716   0.707
 6160SOL    HW219380   1.322   0.723   0.629
 6161SOL     OW19381   4.588   3.206   6.637
 6161SOL    HW119382   4.531   3.126   6.649
 6161SOL    HW219383   4.531   3.285   6.613
 6162SOL     OW19384   6.120   5.119   3.016
 6162SOL    HW119385   6.155   5.066   2.940
 6162SOL    HW219386   6.196   5.152   3.072
 6163SOL     OW19387   5.489   6.122   4.106
 6163SOL    HW119388   5.395   6.090   4.093
 6163SOL    HW219389   5.487   6.216   4.141
 6164SOL     OW19390   2.874   3.749   4.799
 6164SOL    HW119391   2.872   3.735   4.700
 6164SOL    HW219392   2.803   3.815   4.825
 6165SOL     OW19393   4.085   1.324   0.352
 6165SOL    HW119394   4.128   1.400   0.302
 6165SOL    HW219395   4.091   1.341   0.450
 6166SOL     OW19396   1.672   2.961   6.515
 6166SOL    HW119397   1.654   2.873   6.559
 6166SOL    HW219398   1.674   2.949   6.415
 6167SOL     OW19399   1.637   4.011   3.163
 6167SOL    HW119400   1.735   4.028   3.159
 6167SOL    HW219401   1.616   3.960   3.247
 6168SOL     OW19402   0.491   4.088   3.881
 6168SOL    HW119403   0.406   4.113   3.927
 6168SOL    HW219404   0.472   4.021   3.809
 6169SOL     OW19405   2.393   0.235   6.917
 6169SOL    HW119406   2.327   0.202   6.849
 6169SOL    HW219407   2.370   0.329   6.943
 6170SOL     OW19408   3.306   3.758   6.998
 6170SOL    HW119409   3.255   3.698   6.938
 6170SOL    HW219410   3.273   3.852   6.987
 6171SOL     OW19411   2.276   4.156   2.270
 6171SOL    HW119412   2.190   4.206   2.261
 6171SOL    HW219413   2.327   4.191   2.349
 6172SOL     OW19414   1.751   6.295   2.510
 6172SOL    HW119415   1.713   6.257   2.426
 6172SOL    HW219416   1.692   6.272   2.587
 6173SOL     OW19417   1.255   6.057   2.123
 6173SOL    HW119418   1.179   5.991   2.120
 6173SOL    HW219419   1.341   6.008   2.109
 6174SOL     OW19420   5.378   5.244   2.804
 6174SOL    HW119421   5.415   5.305   2.734
 6174SOL    HW219422   5.280   5.264   2.818
 6175SOL     OW19423   5.048   0.399   3.030
 6175SOL    HW119424   5.028   0.489   2.991
 6175SOL    HW219425   4.963   0.347   3.038
 6176SOL     OW19426   6.914   3.488   5.711
 6176SOL    HW119427   6.830   3.509   5.660
 6176SOL    HW219428   6.895   3.485   5.809
 6177SOL     OW19429   6.565   2.337   0.233
 6177SOL    HW119430   6.467   2.337   0.211
 6177SOL    HW219431   6.577   2.356   0.331
 6178SOL     OW19432   5.947   3.226   1.215
 6178SOL    HW119433   5.917   3.307   1.266
 6178SOL    HW219434   6.021   3.252   1.153
 6179SOL     OW19435   0.488   1.556   5.768
 6179SOL    HW119436   0.439   1.597   5.845
 6179SOL    HW219437   0.437   1.573   5.684
 6180SOL     OW19438   3.461   0.090   6.918
 6180SOL    HW119439   3.483   0.155   6.845
 6180SOL    HW219440   3.381   0.036   6.892
 6181SOL     OW19441   5.386   6.477   6.946
 6181SOL    HW119442   5.310   6.503   6.886
 6181SOL    HW219443   5.417   6.385   6.923
 6182SOL     OW19444   4.730   5.888   6.510
 6182SOL    HW119445   4.681   5.837   6.582
 6182SOL    HW219446   4.721   5.986   6.526
 6183SOL     OW19447   3.719   0.524   2.976
 6183SOL    HW119448   3.801   0.493   2.928
 6183SOL    HW219449   3.645   0.458   2.960
 6184SOL     OW19450   0.614   0.104   6.965
 6184SOL    HW119451   0.647   0.160   0.016
 6184SOL    HW219452   0.663   0.130   6.881
 6185SOL     OW19453   0.350   3.638   6.164
 6185SOL    HW119454   0.339   3.592   6.252
 6185SOL    HW219455   0.273   3.617   6.104
 6186SOL     OW19456   5.854   0.223   5.027
 6186SOL    HW119457   5.906   0.141   5.054
 6186SOL    HW219458   5.763   0.196   4.996
 6187SOL     OW19459   4.118   4.968   4.017
 6187SOL    HW119460   4.057   4.999   3.944
 6187SOL    HW219461   4.154   4.877   3.993
 6188SOL     OW19462   2.814   6.304   1.451
 6188SOL    HW119463   2.737   6.324   1.511
 6188SOL    HW219464   2.793   6.225   1.394
 6189SOL     OW19465   6.009   4.421   2.897
 6189SOL    HW119466   6.031   4.518   2.911
 6189SOL    HW219467   6.050   4.366   2.969
 6190SOL     OW19468   5.872   2.483   0.010
 6190SOL    HW119469   5.894   2.472   6.937
 6190SOL    HW219470   5.947   2.530   0.056
 6191SOL     OW19471   6.696   2.305   6.984
 6191SOL    HW119472   6.678   2.326   0.055
 6191SOL    HW219473   6.793   2.322   6.964
 6192SOL     OW19474   3.159   3.024   6.690
 6192SOL    HW119475   3.257   3.007   6.684
 6192SOL    HW219476   3.110   2.946   6.652
 6193SOL     OW19477   5.868   0.258   1.319
 6193SOL    HW119478   5.936   0.275   1.248
 6193SOL    HW219479   5.902   0.292   1.407
 6194SOL     OW19480   2.016   0.812   0.574
 6194SOL    HW119481   2.059   0.869   0.644
 6194SOL    HW219482   1.978   0.871   0.502
 6195SOL     OW19483   3.627   0.489   6.607
 6195SOL    HW119484   3.592   0.566   6.660
 6195SOL    HW219485   3.725   0.498   6.595
 6196SOL     OW19486   0.798   1.321   6.261
 6196SOL    HW119487   0.829   1.383   6.188
 6196SOL    HW219488   0.774   1.375   6.342
 6197SOL     OW19489   2.338   3.521   0.553
 6197SOL    HW119490   2.389   3.435   0.563
 6197SOL    HW219491   2.358   3.580   0.631
 6198SOL     OW19492   3.976   4.870   2.697
 6198SOL    HW119493   4.066   4.834   2.671
 6198SOL    HW219494   3.915   4.865   2.618
 6199SOL     OW19495   1.573   6.838   6.291
 6199SOL    HW119496   1.475   6.814   6.292
 6199SOL    HW219497   1.624   6.769   6.342
 6200SOL     OW19498   4.177   0.348   6.047
 6200SOL    HW119499   4.158   0.294   6.129
 6200SOL    HW219500   4.224   0.291   5.980
 6201SOL     OW19501   2.113   4.609   5.247
 6201SOL    HW119502   2.066   4.540   5.192
 6201SOL    HW219503   2.066   4.620   5.335
 6202SOL     OW19504   3.322   1.612   1.327
 6202SOL    HW119505   3.234   1.658   1.340
 6202SOL    HW219506   3.308   1.528   1.275
 6203SOL     OW19507   4.398   1.697   4.625
 6203SOL    HW119508   4.465   1.626   4.648
 6203SOL    HW219509   4.445   1.784   4.610
 6204SOL     OW19510   1.693   6.523   5.819
 6204SOL    HW119511   1.677   6.505   5.722
 6204SOL    HW219512   1.614   6.571   5.857
 6205SOL     OW19513   5.682   6.198   6.813
 6205SOL    HW119514   5.726   6.109   6.828
 6205SOL    HW219515   5.598   6.203   6.867
 6206SOL     OW19516   5.177   0.132   2.661
 6206SOL    HW119517   5.266   0.141   2.706
 6206SOL    HW219518   5.130   0.220   2.662
 6207SOL     OW19519   1.536   4.084   4.826
 6207SOL    HW119520   1.499   4.131   4.746
 6207SOL    HW219521   1.635   4.072   4.815
 6208SOL     OW19522   5.931   6.773   5.662
 6208SOL    HW119523   6.006   6.813   5.714
 6208SOL    HW219524   5.876   6.715   5.722
 6209SOL     OW19525   3.856   5.214   1.045
 6209SOL    HW119526   3.925   5.192   1.114
 6209SOL    HW219527   3.900   5.254   0.965
 6210SOL     OW19528   5.849   4.280   3.764
 6210SOL    HW119529   5.864   4.377   3.782
 6210SOL    HW219530   5.890   4.256   3.676
 6211SOL     OW19531   3.117   6.961   4.903
 6211SOL    HW119532   3.040   6.897   4.897
 6211SOL    HW219533   3.196   6.923   4.855
 6212SOL     OW19534   6.765   6.322   3.720
 6212SOL    HW119535   6.672   6.356   3.725
 6212SOL    HW219536   6.778   6.270   3.636
 6213SOL     OW19537   0.192   6.628   6.630
 6213SOL    HW119538   0.215   6.654   6.536
 6213SOL    HW219539   0.242   6.686   6.694
 6214SOL     OW19540   6.154   4.610   2.476
 6214SOL    HW119541   6.060   4.577   2.466
 6214SOL    HW219542   6.196   4.567   2.556
 6215SOL     OW19543   3.349   3.413   0.744
 6215SOL    HW119544   3.293   3.332   0.762
 6215SOL    HW219545   3.307   3.493   0.788
 6216SOL     OW19546   5.519   1.869   2.445
 6216SOL    HW119547   5.566   1.956   2.458
 6216SOL    HW219548   5.583   1.793   2.461
 6217SOL     OW19549   5.047   2.919   1.546
 6217SOL    HW119550   4.961   2.877   1.519
 6217SOL    HW219551   5.034   3.016   1.562
 6218SOL     OW19552   3.160   5.256   5.383
 6218SOL    HW119553   3.221   5.333   5.367
 6218SOL    HW219554   3.088   5.255   5.314
 6219SOL     OW19555   0.865   1.824   4.605
 6219SOL    HW119556   0.939   1.886   4.629
 6219SOL    HW219557   0.857   1.753   4.675
 6220SOL     OW19558   1.919   4.293   5.249
 6220SOL    HW119559   1.984   4.225   5.215
 6220SOL    HW219560   1.828   4.252   5.254
 6221SOL     OW19561   3.799   5.148   4.580
 6221SOL    HW119562   3.733   5.079   4.612
 6221SOL    HW219563   3.807   5.220   4.648
 6222SOL     OW19564   0.022   1.403   0.960
 6222SOL    HW119565   0.028   1.503   0.961
 6222SOL    HW219566   6.963   1.374   1.006
 6223SOL     OW19567   4.803   2.855   4.828
 6223SOL    HW119568   4.756   2.914   4.894
 6223SOL    HW219569   4.788   2.889   4.736
 6224SOL     OW19570   2.917   1.398   5.266
 6224SOL    HW119571   2.927   1.308   5.224
 6224SOL    HW219572   3.001   1.423   5.313
 6225SOL     OW19573   3.732   2.736   6.967
 6225SOL    HW119574   3.759   2.645   7.000
 6225SOL    HW219575   3.634   2.734   6.944
 6226SOL     OW19576   5.532   0.621   4.714
 6226SOL    HW119577   5.530   0.721   4.716
 6226SOL    HW219578   5.575   0.587   4.798
 6227SOL     OW19579   3.096   4.777   5.976
 6227SOL    HW119580   3.172   4.713   5.960
 6227SOL    HW219581   3.014   4.742   5.932
 6228SOL     OW19582   6.646   0.410   3.390
 6228SOL    HW119583   6.713   0.481   3.411
 6228SOL    HW219584   6.590   0.393   3.470
 6229SOL     OW19585   2.350   2.743   2.110
 6229SOL    HW119586   2.362   2.644   2.111
 6229SOL    HW219587   2.400   2.782   2.033
 6230SOL     OW19588   2.456   2.242   3.591
 6230SOL    HW119589   2.369   2.291   3.580
 6230SOL    HW219590   2.440   2.159   3.644
 6231SOL     OW19591   0.100   4.758   1.545
 6231SOL    HW119592   0.005   4.788   1.538
 6231SOL    HW219593   0.108   4.665   1.508
 6232SOL     OW19594   1.054   1.030   6.608
 6232SOL    HW119595   0.987   1.045   6.680
 6232SOL    HW219596   1.022   1.070   6.522
 6233SOL     OW19597   4.847   2.242   6.937
 6233SOL    HW119598   4.862   2.281   0.003
 6233SOL    HW219599   4.823   2.145   6.946
 6234SOL     OW19600   2.216   2.383   3.591
 6234SOL    HW119601   2.160   2.300   3.594
 6234SOL    HW219602   2.158   2.464   3.591
 6235SOL     OW19603   2.330   6.580   3.489
 6235SOL    HW119604   2.241   6.536   3.480
 6235SOL    HW219605   2.317   6.680   3.490
 6236SOL     OW19606   6.919   4.226   0.538
 6236SOL    HW119607   6.882   4.153   0.596
 6236SOL    HW219608   7.017   4.209   0.522
 6237SOL     OW19609   4.327   0.172   0.635
 6237SOL    HW119610   4.283   0.088   0.667
 6237SOL    HW219611   4.425   0.169   0.656
 6238SOL     OW19612   4.823   4.903   1.380
 6238SOL    HW119613   4.838   4.824   1.320
 6238SOL    HW219614   4.726   4.930   1.375
 6239SOL     OW19615   2.548   0.322   3.747
 6239SOL    HW119616   2.627   0.297   3.693
 6239SOL    HW219617   2.495   0.240   3.769
 6240SOL     OW19618   1.753   4.083   0.669
 6240SOL    HW119619   1.659   4.053   0.651
 6240SOL    HW219620   1.761   4.181   0.649
 6241SOL     OW19621   4.374   0.252   1.391
 6241SOL    HW119622   4.376   0.257   1.291
 6241SOL    HW219623   4.455   0.297   1.428
 6242SOL     OW19624   4.719   2.136   3.525
 6242SOL    HW119625   4.779   2.108   3.451
 6242SOL    HW219626   4.629   2.093   3.513
 6243SOL     OW19627   6.088   5.961   3.914
 6243SOL    HW119628   6.106   5.877   3.965
 6243SOL    HW219629   6.094   5.944   3.816
 6244SOL     OW19630   2.737   1.618   2.294
 6244SOL    HW119631   2.724   1.686   2.366
 6244SOL    HW219632   2.834   1.612   2.269
 6245SOL     OW19633   3.173   4.284   0.559
 6245SOL    HW119634   3.103   4.335   0.508
 6245SOL    HW219635   3.154   4.186   0.553
 6246SOL     OW19636   2.630   0.943   5.854
 6246SOL    HW119637   2.600   0.850   5.835
 6246SOL    HW219638   2.717   0.960   5.808
 6247SOL     OW19639   0.494   6.062   2.915
 6247SOL    HW119640   0.436   6.067   2.997
 6247SOL    HW219641   0.437   6.042   2.835
 6248SOL     OW19642   0.375   4.880   1.477
 6248SOL    HW119643   0.443   4.808   1.462
 6248SOL    HW219644   0.323   4.860   1.560
 6249SOL     OW19645   5.664   4.159   6.500
 6249SOL    HW119646   5.585   4.219   6.489
 6249SOL    HW219647   5.666   4.122   6.593
 6250SOL     OW19648   5.792   5.961   6.871
 6250SOL    HW119649   5.786   5.865   6.844
 6250SOL    HW219650   5.888   5.987   6.881
 6251SOL     OW19651   4.404   1.660   0.566
 6251SOL    HW119652   4.472   1.589   0.549
 6251SOL    HW219653   4.314   1.627   0.539
 6252SOL     OW19654   2.515   6.247   5.291
 6252SOL    HW119655   2.434   6.305   5.281
 6252SOL    HW219656   2.569   6.278   5.369
 6253SOL     OW19657   1.697   3.988   1.409
 6253SOL    HW119658   1.647   3.916   1.457
 6253SOL    HW219659   1.632   4.051   1.366
 6254SOL     OW19660   5.146   0.575   0.538
 6254SOL    HW119661   5.202   0.541   0.462
 6254SOL    HW219662   5.104   0.498   0.585
 6255SOL     OW19663   0.919   1.218   2.205
 6255SOL    HW119664   0.874   1.134   2.172
 6255SOL    HW219665   0.956   1.269   2.127
 6256SOL     OW19666   3.112   5.188   2.748
 6256SOL    HW119667   3.053   5.261   2.783
 6256SOL    HW219668   3.057   5.106   2.731
 6257SOL     OW19669   5.521   2.543   6.637
 6257SOL    HW119670   5.424   2.551   6.617
 6257SOL    HW219671   5.537   2.465   6.698
 6258SOL     OW19672   5.056   1.620   2.556
 6258SOL    HW119673   5.092   1.698   2.609
 6258SOL    HW219674   4.962   1.602   2.584
 6259SOL     OW19675   2.799   2.533   1.688
 6259SOL    HW119676   2.761   2.457   1.636
 6259SOL    HW219677   2.827   2.500   1.779
 6260SOL     OW19678   3.755   3.605   7.002
 6260SOL    HW119679   3.749   3.557   0.065
 6260SOL    HW219680   3.842   3.655   6.998
 6261SOL     OW19681   4.067   1.415   0.629
 6261SOL    HW119682   4.161   1.422   0.661
 6261SOL    HW219683   4.016   1.355   0.689
 6262SOL     OW19684   0.526   5.135   6.086
 6262SOL    HW119685   0.549   5.232   6.095
 6262SOL    HW219686   0.479   5.105   6.169
 6263SOL     OW19687   6.366   0.186   0.839
 6263SOL    HW119688   6.298   0.112   0.838
 6263SOL    HW219689   6.435   0.169   0.769
 6264SOL     OW19690   2.669   1.497   0.324
 6264SOL    HW119691   2.681   1.525   0.419
 6264SOL    HW219692   2.685   1.399   0.316
 6265SOL     OW19693   3.684   2.809   1.190
 6265SOL    HW119694   3.732   2.853   1.266
 6265SOL    HW219695   3.622   2.739   1.226
 6266SOL     OW19696   2.379   0.035   3.049
 6266SOL    HW119697   2.457   0.093   3.072
 6266SOL    HW219698   2.365   0.036   2.950
 6267SOL     OW19699   3.370   6.985   6.292
 6267SOL    HW119700   3.415   6.904   6.328
 6267SOL    HW219701   3.434   0.037   6.293
 6268SOL     OW19702   3.546   5.230   2.570
 6268SOL    HW119703   3.475   5.169   2.606
 6268SOL    HW219704   3.594   5.273   2.646
 6269SOL     OW19705   6.352   4.721   1.141
 6269SOL    HW119706   6.440   4.707   1.187
 6269SOL    HW219707   6.334   4.643   1.081
 6270SOL     OW19708   0.619   0.532   4.938
 6270SOL    HW119709   0.572   0.506   5.023
 6270SOL    HW219710   0.653   0.626   4.945
 6271SOL     OW19711   5.854   1.404   0.702
 6271SOL    HW119712   5.937   1.419   0.756
 6271SOL    HW219713   5.878   1.387   0.607
 6272SOL     OW19714   1.671   2.212   3.321
 6272SOL    HW119715   1.686   2.301   3.363
 6272SOL    HW219716   1.755   2.157   3.330
 6273SOL     OW19717   3.396   0.906   1.755
 6273SOL    HW119718   3.357   0.902   1.846
 6273SOL    HW219719   3.323   0.913   1.687
 6274SOL     OW19720   4.237   6.802   6.184
 6274SOL    HW119721   4.289   6.747   6.249
 6274SOL    HW219722   4.173   6.860   6.234
 6275SOL     OW19723   2.213   0.928   4.730
 6275SOL    HW119724   2.174   0.841   4.762
 6275SOL    HW219725   2.151   0.969   4.662
 6276SOL     OW19726   1.237   5.626   3.986
 6276SOL    HW119727   1.151   5.675   4.001
 6276SOL    HW219728   1.313   5.679   4.022
 6277SOL     OW19729   5.609   3.543   2.841
 6277SOL    HW119730   5.520   3.565   2.881
 6277SOL    HW219731   5.634   3.613   2.774
 6278SOL     OW19732   5.154   0.672   4.476
 6278SOL    HW119733   5.057   0.656   4.456
 6278SOL    HW219734   5.168   0.767   4.503
 6279SOL     OW19735   4.936   1.981   0.322
 6279SOL    HW119736   4.968   1.931   0.242
 6279SOL    HW219737   4.984   1.947   0.403
 6280SOL     OW19738   0.581   4.607   5.695
 6280SOL    HW119739   0.496   4.659   5.701
 6280SOL    HW219740   0.657   4.669   5.673
 6281SOL     OW19741   2.745   6.804   5.310
 6281SOL    HW119742   2.685   6.726   5.326
 6281SOL    HW219743   2.753   6.820   5.212
 6282SOL     OW19744   1.391   0.028   4.235
 6282SOL    HW119745   1.338   0.112   4.222
 6282SOL    HW219746   1.329   6.974   4.228
 6283SOL     OW19747   6.802   2.290   5.265
 6283SOL    HW119748   6.773   2.197   5.288
 6283SOL    HW219749   6.777   2.310   5.170
 6284SOL     OW19750   1.983   4.366   6.103
 6284SOL    HW119751   2.024   4.408   6.184
 6284SOL    HW219752   2.005   4.420   6.022
 6285SOL     OW19753   1.673   4.502   2.357
 6285SOL    HW119754   1.755   4.509   2.414
 6285SOL    HW219755   1.613   4.430   2.392
 6286SOL     OW19756   5.826   1.137   4.080
 6286SOL    HW119757   5.881   1.106   4.003
 6286SOL    HW219758   5.745   1.185   4.046
 6287SOL     OW19759   4.724   4.364   1.832
 6287SOL    HW119760   4.717   4.462   1.855
 6287SOL    HW219761   4.641   4.317   1.862
 6288SOL     OW19762   5.291   3.409   0.779
 6288SOL    HW119763   5.322   3.491   0.731
 6288SOL    HW219764   5.217   3.366   0.728
 6289SOL     OW19765   1.467   1.167   3.559
 6289SOL    HW119766   1.503   1.079   3.592
 6289SOL    HW219767   1.483   1.175   3.461
 6290SOL     OW19768   5.566   3.791   3.099
 6290SOL    HW119769   5.575   3.795   3.199
 6290SOL    HW219770   5.593   3.700   3.067
 6291SOL     OW19771   3.613   4.132   3.225
 6291SOL    HW119772   3.682   4.062   3.205
 6291SOL    HW219773   3.544   4.131   3.153
 6292SOL     OW19774   1.184   2.190   2.124
 6292SOL    HW119775   1.231   2.211   2.210
 6292SOL    HW219776   1.088   2.171   2.143
 6293SOL     OW19777   4.598   0.206   0.605
 6293SOL    HW119778   4.637   0.197   0.514
 6293SOL    HW219779   4.576   0.302   0.623
 6294SOL     OW19780   4.156   5.217   2.623
 6294SOL    HW119781   4.077   5.195   2.566
 6294SOL    HW219782   4.234   5.239   2.564
 6295SOL     OW19783   6.265   6.744   6.464
 6295SOL    HW119784   6.214   6.822   6.499
 6295SOL    HW219785   6.326   6.774   6.391
 6296SOL     OW19786   6.191   1.079   3.534
 6296SOL    HW119787   6.203   0.984   3.505
 6296SOL    HW219788   6.094   1.097   3.548
 6297SOL     OW19789   5.304   0.034   5.701
 6297SOL    HW119790   5.236   7.017   5.639
 6297SOL    HW219791   5.304   0.133   5.688
 6298SOL     OW19792   1.268   1.864   4.794
 6298SOL    HW119793   1.245   1.907   4.706
 6298SOL    HW219794   1.195   1.801   4.820
 6299SOL     OW19795   6.042   3.035   0.235
 6299SOL    HW119796   5.952   3.037   0.278
 6299SOL    HW219797   6.110   3.069   0.299
 6300SOL     OW19798   5.278   0.071   3.624
 6300SOL    HW119799   5.257   0.156   3.672
 6300SOL    HW219800   5.347   0.020   3.675
 6301SOL     OW19801   3.155   6.688   0.573
 6301SOL    HW119802   3.105   6.743   0.639
 6301SOL    HW219803   3.208   6.618   0.622
 6302SOL     OW19804   1.219   0.682   3.587
 6302SOL    HW119805   1.155   0.634   3.528
 6302SOL    HW219806   1.299   0.624   3.604
 6303SOL     OW19807   1.713   5.926   5.492
 6303SOL    HW119808   1.697   5.882   5.404
 6303SOL    HW219809   1.764   5.864   5.552
 6304SOL     OW19810   3.246   1.321   6.460
 6304SOL    HW119811   3.218   1.380   6.384
 6304SOL    HW219812   3.316   1.258   6.427
 6305SOL     OW19813   6.017   0.934   1.411
 6305SOL    HW119814   6.115   0.946   1.401
 6305SOL    HW219815   5.973   0.940   1.321
 6306SOL     OW19816   6.268   2.815   4.135
 6306SOL    HW119817   6.268   2.716   4.119
 6306SOL    HW219818   6.175   2.850   4.123
 6307SOL     OW19819   2.661   4.665   0.910
 6307SOL    HW119820   2.593   4.674   0.983
 6307SOL    HW219821   2.663   4.750   0.856
 6308SOL     OW19822   2.885   2.256   5.116
 6308SOL    HW119823   2.843   2.310   5.189
 6308SOL    HW219824   2.984   2.270   5.117
 6309SOL     OW19825   5.842   1.973   4.405
 6309SOL    HW119826   5.900   1.974   4.486
 6309SOL    HW219827   5.841   1.881   4.366
 6310SOL     OW19828   1.594   4.760   5.180
 6310SOL    HW119829   1.670   4.707   5.144
 6310SOL    HW219830   1.532   4.784   5.105
 6311SOL     OW19831   5.750   0.486   4.973
 6311SOL    HW119832   5.783   0.392   4.986
 6311SOL    HW219833   5.757   0.536   5.059
 6312SOL     OW19834   4.260   5.131   5.707
 6312SOL    HW119835   4.277   5.040   5.669
 6312SOL    HW219836   4.343   5.165   5.751
 6313SOL     OW19837   2.500   5.195   3.022
 6313SOL    HW119838   2.414   5.155   2.990
 6313SOL    HW219839   2.552   5.227   2.943
 6314SOL     OW19840   3.416   5.869   3.081
 6314SOL    HW119841   3.329   5.868   3.131
 6314SOL    HW219842   3.478   5.935   3.123
 6315SOL     OW19843   3.055   3.393   0.388
 6315SOL    HW119844   3.042   3.414   0.485
 6315SOL    HW219845   3.136   3.441   0.354
 6316SOL     OW19846   5.636   1.720   6.216
 6316SOL    HW119847   5.695   1.763   6.147
 6316SOL    HW219848   5.541   1.726   6.187
 6317SOL     OW19849   6.226   5.956   4.312
 6317SOL    HW119850   6.302   5.896   4.288
 6317SOL    HW219851   6.206   6.018   4.236
 6318SOL     OW19852   2.671   1.536   4.697
 6318SOL    HW119853   2.683   1.575   4.789
 6318SOL    HW219854   2.610   1.457   4.702
 6319SOL     OW19855   0.351   1.666   3.079
 6319SOL    HW119856   0.371   1.678   3.176
 6319SOL    HW219857   0.290   1.740   3.048
 6320SOL     OW19858   6.395   2.885   3.702
 6320SOL    HW119859   6.455   2.805   3.694
 6320SOL    HW219860   6.417   2.935   3.786
 6321SOL     OW19861   2.326   3.899   0.720
 6321SOL    HW119862   2.322   3.974   0.655
 6321SOL    HW219863   2.421   3.883   0.747
 6322SOL     OW19864   1.096   1.292   6.867
 6322SOL    HW119865   1.105   1.195   6.891
 6322SOL    HW219866   1.186   1.335   6.870
 6323SOL     OW19867   3.696   2.336   0.540
 6323SOL    HW119868   3.749   2.407   0.587
 6323SOL    HW219869   3.620   2.378   0.490
 6324SOL     OW19870   4.661   1.088   6.547
 6324SOL    HW119871   4.724   1.162   6.568
 6324SOL    HW219872   4.632   1.095   6.451
 6325SOL     OW19873   1.214   2.262   2.387
 6325SOL    HW119874   1.181   2.353   2.411
 6325SOL    HW219875   1.305   2.270   2.345
 6326SOL     OW19876   4.980   5.970   0.823
 6326SOL    HW119877   4.978   5.923   0.911
 6326SOL    HW219878   4.989   5.903   0.750
 6327SOL     OW19879   4.860   5.616   6.188
 6327SOL    HW119880   4.883   5.521   6.209
 6327SOL    HW219881   4.939   5.660   6.145
 6328SOL     OW19882   2.717   4.168   6.473
 6328SOL    HW119883   2.651   4.242   6.466
 6328SOL    HW219884   2.778   4.185   6.550
 6329SOL     OW19885   0.897   1.609   3.146
 6329SOL    HW119886   0.878   1.596   3.049
 6329SOL    HW219887   0.993   1.634   3.159
 6330SOL     OW19888   3.675   1.737   0.369
 6330SOL    HW119889   3.717   1.809   0.425
 6330SOL    HW219890   3.683   1.649   0.417
 6331SOL     OW19891   6.496   2.990   1.287
 6331SOL    HW119892   6.429   2.961   1.218
 6331SOL    HW219893   6.588   2.972   1.254
 6332SOL     OW19894   5.409   6.371   1.728
 6332SOL    HW119895   5.404   6.389   1.826
 6332SOL    HW219896   5.504   6.351   1.702
 6333SOL     OW19897   2.813   4.730   2.724
 6333SOL    HW119898   2.740   4.775   2.776
 6333SOL    HW219899   2.780   4.709   2.632
 6334SOL     OW19900   2.522   1.853   2.806
 6334SOL    HW119901   2.552   1.948   2.797
 6334SOL    HW219902   2.597   1.792   2.780
 6335SOL     OW19903   6.605   1.531   0.188
 6335SOL    HW119904   6.595   1.607   0.123
 6335SOL    HW219905   6.639   1.567   0.275
 6336SOL     OW19906   0.440   2.604   5.183
 6336SOL    HW119907   0.473   2.540   5.253
 6336SOL    HW219908   0.414   2.690   5.226
 6337SOL     OW19909   6.320   4.404   5.258
 6337SOL    HW119910   6.310   4.420   5.356
 6337SOL    HW219911   6.250   4.339   5.228
 6338SOL     OW19912   4.087   1.039   3.427
 6338SOL    HW119913   4.064   1.029   3.331
 6338SOL    HW219914   4.182   1.008   3.441
 6339SOL     OW19915   6.479   2.094   4.793
 6339SOL    HW119916   6.523   2.183   4.796
 6339SOL    HW219917   6.473   2.057   4.886
 6340SOL     OW19918   1.858   5.536   4.130
 6340SOL    HW119919   1.820   5.457   4.082
 6340SOL    HW219920   1.936   5.571   4.078
 6341SOL     OW19921   0.277   4.191   3.139
 6341SOL    HW119922   0.346   4.236   3.082
 6341SOL    HW219923   0.284   4.092   3.129
 6342SOL     OW19924   1.576   2.911   0.903
 6342SOL    HW119925   1.601   2.955   0.990
 6342SOL    HW219926   1.523   2.829   0.922
 6343SOL     OW19927   4.158   1.519   6.809
 6343SOL    HW119928   4.123   1.512   6.715
 6343SOL    HW219929   4.135   1.435   6.858
 6344SOL     OW19930   0.717   4.096   4.121
 6344SOL    HW119931   0.744   4.016   4.067
 6344SOL    HW219932   0.664   4.065   4.200
 6345SOL     OW19933   3.773   1.883   2.222
 6345SOL    HW119934   3.686   1.919   2.188
 6345SOL    HW219935   3.831   1.958   2.253
 6346SOL     OW19936   1.018   4.831   3.474
 6346SOL    HW119937   0.983   4.790   3.559
 6346SOL    HW219938   1.035   4.928   3.489
 6347SOL     OW19939   3.452   0.602   1.524
 6347SOL    HW119940   3.445   0.594   1.623
 6347SOL    HW219941   3.412   0.689   1.494
 6348SOL     OW19942   1.341   3.079   3.972
 6348SOL    HW119943   1.389   3.029   3.901
 6348SOL    HW219944   1.405   3.140   4.019
 6349SOL     OW19945   2.590   0.315   0.209
 6349SOL    HW119946   2.607   0.230   0.161
 6349SOL    HW219947   2.499   0.313   0.251
 6350SOL     OW19948   1.142   6.431   1.991
 6350SOL    HW119949   1.187   6.452   2.078
 6350SOL    HW219950   1.184   6.486   1.918
 6351SOL     OW19951   6.986   1.062   2.965
 6351SOL    HW119952   0.057   1.035   2.955
 6351SOL    HW219953   6.927   0.985   2.939
 6352SOL     OW19954   0.330   5.567   1.890
 6352SOL    HW119955   0.245   5.619   1.890
 6352SOL    HW219956   0.310   5.469   1.896
 6353SOL     OW19957   0.039   6.809   1.656
 6353SOL    HW119958   7.002   6.863   1.713
 6353SOL    HW219959   0.072   6.730   1.708
 6354SOL     OW19960   0.494   6.828   3.921
 6354SOL    HW119961   0.533   6.737   3.906
 6354SOL    HW219962   0.508   6.856   4.016
 6355SOL     OW19963   2.226   2.497   3.086
 6355SOL    HW119964   2.233   2.429   3.159
 6355SOL    HW219965   2.243   2.452   2.997
 6356SOL     OW19966   3.370   3.536   1.190
 6356SOL    HW119967   3.444   3.559   1.126
 6356SOL    HW219968   3.407   3.485   1.267
 6357SOL     OW19969   4.443   2.307   6.952
 6357SOL    HW119970   4.541   2.312   6.934
 6357SOL    HW219971   4.420   2.364   0.006
 6358SOL     OW19972   0.120   2.512   3.776
 6358SOL    HW119973   0.033   2.471   3.807
 6358SOL    HW219974   0.102   2.603   3.740
 6359SOL     OW19975   0.118   1.114   0.008
 6359SOL    HW119976   0.062   1.074   0.081
 6359SOL    HW219977   0.087   1.078   6.945
 6360SOL     OW19978   3.245   5.561   4.136
 6360SOL    HW119979   3.293   5.544   4.049
 6360SOL    HW219980   3.264   5.654   4.166
 6361SOL     OW19981   3.836   6.007   6.225
 6361SOL    HW119982   3.917   6.031   6.172
 6361SOL    HW219983   3.865   5.978   6.317
 6362SOL     OW19984   6.265   5.252   6.380
 6362SOL    HW119985   6.202   5.320   6.417
 6362SOL    HW219986   6.356   5.291   6.371
 6363SOL     OW19987   0.882   5.974   3.787
 6363SOL    HW119988   0.982   5.984   3.792
 6363SOL    HW219989   0.841   6.006   3.872
 6364SOL     OW19990   2.644   2.408   5.896
 6364SOL    HW119991   2.711   2.337   5.919
 6364SOL    HW219992   2.692   2.495   5.886
 6365SOL     OW19993   5.104   6.194   2.366
 6365SOL    HW119994   5.078   6.099   2.382
 6365SOL    HW219995   5.150   6.231   2.447
 6366SOL     OW19996   0.252   4.955   5.846
 6366SOL    HW119997   0.249   5.038   5.790
 6366SOL    HW219998   0.160   4.934   5.878
 6367SOL     OW19999   5.660   6.223   3.901
 6367SOL    HW120000   5.607   6.181   3.975
 6367SOL    HW220001   5.758   6.209   3.918
 6368SOL     OW20002   2.398   0.144   4.287
 6368SOL    HW120003   2.440   0.056   4.266
 6368SOL    HW220004   2.327   0.132   4.356
 6369SOL     OW20005   2.418   5.478   4.423
 6369SOL    HW120006   2.452   5.386   4.440
 6369SOL    HW220007   2.471   5.543   4.478
 6370SOL     OW20008   6.029   2.895   1.568
 6370SOL    HW120009   5.967   2.929   1.497
 6370SOL    HW220010   6.121   2.888   1.531
 6371SOL     OW20011   5.193   2.052   3.448
 6371SOL    HW120012   5.135   2.114   3.501
 6371SOL    HW220013   5.234   1.985   3.510
 6372SOL     OW20014   2.807   6.019   2.548
 6372SOL    HW120015   2.755   5.996   2.631
 6372SOL    HW220016   2.843   6.113   2.557
 6373SOL     OW20017   3.326   4.765   0.220
 6373SOL    HW120018   3.293   4.740   0.129
 6373SOL    HW220019   3.261   4.733   0.288
 6374SOL     OW20020   3.084   3.077   2.364
 6374SOL    HW120021   2.991   3.038   2.363
 6374SOL    HW220022   3.107   3.110   2.273
 6375SOL     OW20023   1.481   6.565   2.585
 6375SOL    HW120024   1.457   6.527   2.675
 6375SOL    HW220025   1.415   6.535   2.517
 6376SOL     OW20026   0.130   2.274   5.571
 6376SOL    HW120027   0.132   2.275   5.671
 6376SOL    HW220028   0.065   2.343   5.539
 6377SOL     OW20029   1.012   0.827   4.149
 6377SOL    HW120030   1.101   0.782   4.144
 6377SOL    HW220031   1.020   0.921   4.115
 6378SOL     OW20032   4.733   4.153   3.787
 6378SOL    HW120033   4.723   4.205   3.873
 6378SOL    HW220034   4.744   4.217   3.711
 6379SOL     OW20035   2.631   4.643   3.166
 6379SOL    HW120036   2.727   4.651   3.138
 6379SOL    HW220037   2.618   4.684   3.256
 6380SOL     OW20038   0.680   0.895   6.235
 6380SOL    HW120039   0.686   0.796   6.220
 6380SOL    HW220040   0.662   0.941   6.148
 6381SOL     OW20041   3.128   4.018   2.739
 6381SOL    HW120042   3.107   4.088   2.671
 6381SOL    HW220043   3.074   3.936   2.719
 6382SOL     OW20044   1.135   3.986   5.502
 6382SOL    HW120045   1.070   4.061   5.489
 6382SOL    HW220046   1.211   3.995   5.437
 6383SOL     OW20047   3.490   1.206   3.901
 6383SOL    HW120048   3.484   1.298   3.862
 6383SOL    HW220049   3.498   1.139   3.827
 6384SOL     OW20050   6.335   4.550   3.133
 6384SOL    HW120051   6.247   4.512   3.161
 6384SOL    HW220052   6.326   4.649   3.122
 6385SOL     OW20053   0.370   5.826   4.609
 6385SOL    HW120054   0.429   5.760   4.655
 6385SOL    HW220055   0.358   5.800   4.514
 6386SOL     OW20056   2.712   5.265   1.194
 6386SOL    HW120057   2.798   5.298   1.156
 6386SOL    HW220058   2.730   5.185   1.251
 6387SOL     OW20059   6.390   0.916   5.603
 6387SOL    HW120060   6.347   0.831   5.571
 6387SOL    HW220061   6.325   0.991   5.595
 6388SOL     OW20062   2.692   4.657   2.481
 6388SOL    HW120063   2.755   4.687   2.409
 6388SOL    HW220064   2.598   4.657   2.446
 6389SOL     OW20065   1.031   4.915   2.643
 6389SOL    HW120066   0.935   4.896   2.626
 6389SOL    HW220067   1.064   4.980   2.574
 6390SOL     OW20068   0.712   3.372   3.698
 6390SOL    HW120069   0.660   3.307   3.644
 6390SOL    HW220070   0.658   3.402   3.776
 6391SOL     OW20071   3.224   1.011   0.104
 6391SOL    HW120072   3.268   1.097   0.082
 6391SOL    HW220073   3.125   1.018   0.088
 6392SOL     OW20074   1.410   6.942   3.874
 6392SOL    HW120075   1.413   6.853   3.920
 6392SOL    HW220076   1.341   6.999   3.918
 6393SOL     OW20077   5.779   0.145   0.585
 6393SOL    HW120078   5.694   0.094   0.576
 6393SOL    HW220079   5.854   0.082   0.607
 6394SOL     OW20080   2.986   4.737   0.811
 6394SOL    HW120081   3.022   4.664   0.753
 6394SOL    HW220082   2.974   4.703   0.904
 6395SOL     OW20083   5.824   1.747   1.127
 6395SOL    HW120084   5.791   1.652   1.135
 6395SOL    HW220085   5.764   1.798   1.066
 6396SOL     OW20086   5.263   4.400   5.213
 6396SOL    HW120087   5.225   4.367   5.300
 6396SOL    HW220088   5.354   4.438   5.229
 6397SOL     OW20089   0.179   1.161   0.981
 6397SOL    HW120090   0.161   1.260   0.986
 6397SOL    HW220091   0.254   1.138   1.043
 6398SOL     OW20092   3.630   1.894   1.550
 6398SOL    HW120093   3.669   1.820   1.605
 6398SOL    HW220094   3.700   1.965   1.537
 6399SOL     OW20095   2.394   5.430   6.732
 6399SOL    HW120096   2.449   5.513   6.721
 6399SOL    HW220097   2.449   5.349   6.711
 6400SOL     OW20098   2.716   5.742   3.750
 6400SOL    HW120099   2.691   5.652   3.786
 6400SOL    HW220100   2.815   5.752   3.753
 6401SOL     OW20101   0.958   5.054   4.045
 6401SOL    HW120102   1.042   5.019   4.088
 6401SOL    HW220103   0.978   5.142   4.001
 6402SOL     OW20104   2.227   1.685   3.252
 6402SOL    HW120105   2.240   1.639   3.340
 6402SOL    HW220106   2.143   1.740   3.256
 6403SOL     OW20107   0.217   6.241   0.629
 6403SOL    HW120108   0.237   6.205   0.538
 6403SOL    HW220109   0.302   6.252   0.680
 6404SOL     OW20110   5.455   0.629   2.853
 6404SOL    HW120111   5.473   0.541   2.807
 6404SOL    HW220112   5.396   0.614   2.932
 6405SOL     OW20113   2.804   1.261   2.383
 6405SOL    HW120114   2.752   1.193   2.331
 6405SOL    HW220115   2.859   1.316   2.321
 6406SOL     OW20116   2.890   1.740   3.929
 6406SOL    HW120117   2.930   1.786   4.009
 6406SOL    HW220118   2.825   1.671   3.960
 6407SOL     OW20119   3.845   5.667   6.126
 6407SOL    HW120120   3.754   5.628   6.137
 6407SOL    HW220121   3.844   5.735   6.052
 6408SOL     OW20122   6.526   2.014   0.249
 6408SOL    HW120123   6.517   1.935   0.310
 6408SOL    HW220124   6.460   2.006   0.175
 6409SOL     OW20125   1.125   5.080   2.453
 6409SOL    HW120126   1.068   5.030   2.387
 6409SOL    HW220127   1.109   5.178   2.443
 6410SOL     OW20128   0.964   1.394   1.376
 6410SOL    HW120129   0.943   1.451   1.296
 6410SOL    HW220130   0.880   1.357   1.415
 6411SOL     OW20131   1.428   0.714   3.806
 6411SOL    HW120132   1.360   0.780   3.775
 6411SOL    HW220133   1.510   0.762   3.837
 6412SOL     OW20134   0.167   1.918   4.685
 6412SOL    HW120135   0.207   1.842   4.634
 6412SOL    HW220136   0.076   1.938   4.648
 6413SOL     OW20137   6.771   4.666   0.590
 6413SOL    HW120138   6.734   4.581   0.628
 6413SOL    HW220139   6.748   4.673   0.493
 6414SOL     OW20140   5.711   6.931   2.262
 6414SOL    HW120141   5.625   6.924   2.314
 6414SOL    HW220142   5.749   6.839   2.249
 6415SOL     OW20143   1.530   2.027   1.869
 6415SOL    HW120144   1.438   1.993   1.891
 6415SOL    HW220145   1.560   2.090   1.940
 6416SOL     OW20146   1.565   0.186   6.696
 6416SOL    HW120147   1.468   0.198   6.676
 6416SOL    HW220148   1.580   0.094   6.731
 6417SOL     OW20149   0.922   6.997   2.815
 6417SOL    HW120150   0.895   0.033   2.740
 6417SOL    HW220151   0.984   6.927   2.780
 6418SOL     OW20152   6.183   6.187   2.224
 6418SOL    HW120153   6.185   6.263   2.289
 6418SOL    HW220154   6.262   6.193   2.163
 6419SOL     OW20155   2.970   4.839   1.505
 6419SOL    HW120156   2.910   4.794   1.571
 6419SOL    HW220157   2.950   4.805   1.413
 6420SOL     OW20158   1.333   3.594   6.875
 6420SOL    HW120159   1.397   3.655   6.829
 6420SOL    HW220160   1.255   3.576   6.815
 6421SOL     OW20161   5.557   1.817   0.979
 6421SOL    HW120162   5.545   1.818   1.078
 6421SOL    HW220163   5.474   1.851   0.935
 6422SOL     OW20164   5.865   1.890   2.954
 6422SOL    HW120165   5.796   1.819   2.941
 6422SOL    HW220166   5.823   1.980   2.950
 6423SOL     OW20167   5.032   4.044   0.156
 6423SOL    HW120168   4.979   4.128   0.151
 6423SOL    HW220169   4.992   3.982   0.224
 6424SOL     OW20170   6.906   5.310   5.062
 6424SOL    HW120171   6.933   5.227   5.013
 6424SOL    HW220172   6.813   5.299   5.097
 6425SOL     OW20173   0.430   4.622   1.744
 6425SOL    HW120174   0.442   4.592   1.649
 6425SOL    HW220175   0.512   4.602   1.796
 6426SOL     OW20176   6.641   3.047   3.743
 6426SOL    HW120177   6.666   2.964   3.792
 6426SOL    HW220178   6.609   3.023   3.651
 6427SOL     OW20179   1.782   3.332   5.009
 6427SOL    HW120180   1.857   3.340   4.943
 6427SOL    HW220181   1.814   3.361   5.099
 6428SOL     OW20182   6.725   3.065   2.420
 6428SOL    HW120183   6.633   3.103   2.435
 6428SOL    HW220184   6.755   3.018   2.503
 6429SOL     OW20185   1.157   0.871   4.421
 6429SOL    HW120186   1.159   0.792   4.483
 6429SOL    HW220187   1.092   0.853   4.348
 6430SOL     OW20188   5.906   3.587   0.918
 6430SOL    HW120189   5.919   3.591   1.017
 6430SOL    HW220190   5.954   3.663   0.874
 6431SOL     OW20191   5.337   0.051   3.060
 6431SOL    HW120192   5.420   0.058   3.115
 6431SOL    HW220193   5.260   0.027   3.119
 6432SOL     OW20194   5.523   3.238   0.585
 6432SOL    HW120195   5.505   3.290   0.669
 6432SOL    HW220196   5.572   3.296   0.520
 6433SOL     OW20197   2.611   3.880   1.650
 6433SOL    HW120198   2.545   3.948   1.685
 6433SOL    HW220199   2.580   3.788   1.675
 6434SOL     OW20200   1.345   4.755   0.999
 6434SOL    HW120201   1.312   4.690   0.931
 6434SOL    HW220202   1.390   4.832   0.953
 6435SOL     OW20203   4.889   4.472   6.967
 6435SOL    HW120204   4.818   4.467   0.012
 6435SOL    HW220205   4.849   4.505   6.882
 6436SOL     OW20206   1.454   2.972   2.787
 6436SOL    HW120207   1.385   3.044   2.795
 6436SOL    HW220208   1.481   2.941   2.878
 6437SOL     OW20209   1.141   0.843   6.832
 6437SOL    HW120210   1.118   0.748   6.856
 6437SOL    HW220211   1.103   0.864   6.742
 6438SOL     OW20212   1.501   3.323   3.299
 6438SOL    HW120213   1.437   3.379   3.351
 6438SOL    HW220214   1.566   3.381   3.251
 6439SOL     OW20215   0.467   0.429   1.839
 6439SOL    HW120216   0.478   0.382   1.927
 6439SOL    HW220217   0.542   0.493   1.826
 6440SOL     OW20218   0.840   1.489   2.633
 6440SOL    HW120219   0.741   1.472   2.638
 6440SOL    HW220220   0.865   1.508   2.538
 6441SOL     OW20221   3.308   1.338   3.503
 6441SOL    HW120222   3.346   1.251   3.472
 6441SOL    HW220223   3.273   1.389   3.425
 6442SOL     OW20224   3.530   0.899   3.420
 6442SOL    HW120225   3.478   0.821   3.454
 6442SOL    HW220226   3.623   0.869   3.398
 6443SOL     OW20227   3.095   1.241   0.330
 6443SOL    HW120228   3.170   1.270   0.272
 6443SOL    HW220229   3.076   1.144   0.315
 6444SOL     OW20230   0.541   0.702   3.491
 6444SOL    HW120231   0.615   0.684   3.425
 6444SOL    HW220232   0.497   0.789   3.469
 6445SOL     OW20233   3.875   3.029   5.006
 6445SOL    HW120234   3.826   2.945   5.029
 6445SOL    HW220235   3.837   3.068   4.922
 6446SOL     OW20236   6.320   1.568   0.512
 6446SOL    HW120237   6.385   1.549   0.586
 6446SOL    HW220238   6.235   1.603   0.551
 6447SOL     OW20239   1.624   0.869   2.796
 6447SOL    HW120240   1.551   0.814   2.756
 6447SOL    HW220241   1.638   0.841   2.891
 6448SOL     OW20242   5.789   2.160   2.908
 6448SOL    HW120243   5.860   2.129   2.845
 6448SOL    HW220244   5.753   2.248   2.877
 6449SOL     OW20245   3.514   3.013   0.934
 6449SOL    HW120246   3.573   2.967   1.000
 6449SOL    HW220247   3.563   3.091   0.894
 6450SOL     OW20248   6.836   3.252   0.026
 6450SOL    HW120249   6.874   3.344   0.040
 6450SOL    HW220250   6.740   3.260   0.002
 6451SOL     OW20251   2.170   6.857   4.238
 6451SOL    HW120252   2.253   6.801   4.229
 6451SOL    HW220253   2.090   6.797   4.238
 6452SOL     OW20254   4.215   6.291   3.262
 6452SOL    HW120255   4.152   6.218   3.234
 6452SOL    HW220256   4.238   6.347   3.183
 6453SOL     OW20257   1.738   5.523   6.317
 6453SOL    HW120258   1.659   5.463   6.304
 6453SOL    HW220259   1.807   5.476   6.371
 6454SOL     OW20260   3.054   1.328   4.530
 6454SOL    HW120261   2.981   1.396   4.526
 6454SOL    HW220262   3.109   1.332   4.447
 6455SOL     OW20263   6.371   2.886   5.217
 6455SOL    HW120264   6.423   2.857   5.297
 6455SOL    HW220265   6.398   2.830   5.138
 6456SOL     OW20266   6.703   0.779   4.591
 6456SOL    HW120267   6.740   0.860   4.636
 6456SOL    HW220268   6.623   0.806   4.536
 6457SOL     OW20269   6.950   2.870   1.304
 6457SOL    HW120270   7.010   2.926   1.361
 6457SOL    HW220271   6.887   2.819   1.363
 6458SOL     OW20272   1.055   5.850   2.176
 6458SOL    HW120273   0.965   5.883   2.150
 6458SOL    HW220274   1.046   5.784   2.251
 6459SOL     OW20275   5.259   4.674   0.440
 6459SOL    HW120276   5.230   4.612   0.514
 6459SOL    HW220277   5.181   4.726   0.407
 6460SOL     OW20278   3.428   5.043   6.165
 6460SOL    HW120279   3.505   4.982   6.147
 6460SOL    HW220280   3.392   5.024   6.256
 6461SOL     OW20281   3.447   5.634   4.683
 6461SOL    HW120282   3.453   5.593   4.774
 6461SOL    HW220283   3.537   5.630   4.639
 6462SOL     OW20284   2.158   3.360   4.009
 6462SOL    HW120285   2.188   3.266   3.992
 6462SOL    HW220286   2.162   3.413   3.924
 6463SOL     OW20287   1.456   4.371   5.378
 6463SOL    HW120288   1.373   4.376   5.322
 6463SOL    HW220289   1.464   4.280   5.417
 6464SOL     OW20290   0.821   5.167   3.155
 6464SOL    HW120291   0.812   5.107   3.234
 6464SOL    HW220292   0.910   5.211   3.156
 6465SOL     OW20293   6.068   0.530   3.166
 6465SOL    HW120294   6.016   0.601   3.118
 6465SOL    HW220295   6.008   0.451   3.183
 6466SOL     OW20296   6.710   2.274   4.972
 6466SOL    HW120297   6.735   2.229   4.886
 6466SOL    HW220298   6.632   2.335   4.956
 6467SOL     OW20299   2.607   0.903   6.534
 6467SOL    HW120300   2.645   0.878   6.445
 6467SOL    HW220301   2.510   0.881   6.537
 6468SOL     OW20302   4.844   4.653   0.883
 6468SOL    HW120303   4.823   4.594   0.805
 6468SOL    HW220304   4.783   4.732   0.882
 6469SOL     OW20305   0.171   1.286   5.708
 6469SOL    HW120306   0.161   1.342   5.626
 6469SOL    HW220307   0.081   1.263   5.744
 6470SOL     OW20308   6.639   6.450   5.913
 6470SOL    HW120309   6.587   6.482   5.834
 6470SOL    HW220310   6.588   6.377   5.959
 6471SOL     OW20311   5.725   4.956   5.642
 6471SOL    HW120312   5.741   4.913   5.730
 6471SOL    HW220313   5.701   4.887   5.574
 6472SOL     OW20314   1.547   5.816   0.817
 6472SOL    HW120315   1.643   5.838   0.795
 6472SOL    HW220316   1.492   5.822   0.734
 6473SOL     OW20317   2.865   1.691   6.002
 6473SOL    HW120318   2.919   1.740   5.933
 6473SOL    HW220319   2.880   1.592   5.992
 6474SOL     OW20320   1.937   3.441   5.202
 6474SOL    HW120321   2.022   3.394   5.176
 6474SOL    HW220322   1.919   3.425   5.299
 6475SOL     OW20323   4.328   6.446   3.963
 6475SOL    HW120324   4.415   6.411   3.928
 6475SOL    HW220325   4.253   6.415   3.904
 6476SOL     OW20326   4.739   5.410   2.912
 6476SOL    HW120327   4.742   5.310   2.910
 6476SOL    HW220328   4.656   5.443   2.868
 6477SOL     OW20329   0.063   5.904   6.839
 6477SOL    HW120330   0.037   5.831   6.902
 6477SOL    HW220331   0.038   5.879   6.745
 6478SOL     OW20332   4.684   6.569   1.006
 6478SOL    HW120333   4.745   6.507   0.957
 6478SOL    HW220334   4.591   6.533   1.005
 6479SOL     OW20335   3.673   5.310   2.801
 6479SOL    HW120336   3.772   5.306   2.817
 6479SOL    HW220337   3.626   5.320   2.889
 6480SOL     OW20338   3.158   2.275   6.875
 6480SOL    HW120339   3.087   2.207   6.891
 6480SOL    HW220340   3.121   2.351   6.821
 6481SOL     OW20341   5.021   0.703   1.216
 6481SOL    HW120342   5.084   0.629   1.194
 6481SOL    HW220343   4.940   0.697   1.157
 6482SOL     OW20344   0.456   0.500   6.885
 6482SOL    HW120345   0.485   0.513   6.790
 6482SOL    HW220346   0.396   0.575   6.912
 6483SOL     OW20347   1.821   6.502   2.355
 6483SOL    HW120348   1.837   6.576   2.421
 6483SOL    HW220349   1.790   6.421   2.404
 6484SOL     OW20350   5.711   6.450   3.762
 6484SOL    HW120351   5.698   6.361   3.805
 6484SOL    HW220352   5.639   6.466   3.694
 6485SOL     OW20353   1.685   2.659   3.020
 6485SOL    HW120354   1.766   2.606   2.994
 6485SOL    HW220355   1.611   2.641   2.955
 6486SOL     OW20356   1.795   3.104   2.982
 6486SOL    HW120357   1.749   3.077   3.066
 6486SOL    HW220358   1.765   3.046   2.906
 6487SOL     OW20359   5.932   6.207   3.978
 6487SOL    HW120360   6.000   6.134   3.979
 6487SOL    HW220361   5.973   6.290   3.940
 6488SOL     OW20362   3.356   5.707   5.922
 6488SOL    HW120363   3.289   5.634   5.934
 6488SOL    HW220364   3.413   5.689   5.842
 6489SOL     OW20365   1.881   1.611   5.784
 6489SOL    HW120366   1.784   1.630   5.801
 6489SOL    HW220367   1.892   1.514   5.762
 6490SOL     OW20368   3.173   0.831   0.319
 6490SOL    HW120369   3.212   0.900   0.258
 6490SOL    HW220370   3.155   0.871   0.408
 6491SOL     OW20371   3.588   1.819   6.445
 6491SOL    HW120372   3.560   1.915   6.442
 6491SOL    HW220373   3.509   1.762   6.470
 6492SOL     OW20374   6.035   5.828   0.108
 6492SOL    HW120375   6.085   5.901   0.155
 6492SOL    HW220376   6.051   5.741   0.155
 6493SOL     OW20377   0.804   6.363   5.906
 6493SOL    HW120378   0.706   6.347   5.889
 6493SOL    HW220379   0.850   6.276   5.924
 6494SOL     OW20380   1.428   0.308   3.913
 6494SOL    HW120381   1.468   0.376   3.974
 6494SOL    HW220382   1.383   0.237   3.967
 6495SOL     OW20383   5.220   4.978   2.908
 6495SOL    HW120384   5.259   4.886   2.907
 6495SOL    HW220385   5.241   5.022   2.995
 6496SOL     OW20386   2.226   0.030   2.253
 6496SOL    HW120387   2.177   6.968   2.250
 6496SOL    HW220388   2.282   0.034   2.336
 6497SOL     OW20389   0.722   4.543   6.803
 6497SOL    HW120390   0.743   4.496   6.889
 6497SOL    HW220391   0.795   4.608   6.782
 6498SOL     OW20392   1.749   4.536   4.011
 6498SOL    HW120393   1.837   4.499   4.043
 6498SOL    HW220394   1.737   4.514   3.914
 6499SOL     OW20395   6.219   1.156   4.131
 6499SOL    HW120396   6.123   1.129   4.138
 6499SOL    HW220397   6.244   1.164   4.035
 6500SOL     OW20398   5.573   4.722   3.578
 6500SOL    HW120399   5.623   4.636   3.573
 6500SOL    HW220400   5.514   4.732   3.498
 6501SOL     OW20401   0.162   3.844   1.192
 6501SOL    HW120402   0.143   3.817   1.097
 6501SOL    HW220403   0.080   3.831   1.248
 6502SOL     OW20404   1.228   5.646   2.646
 6502SOL    HW120405   1.188   5.631   2.556
 6502SOL    HW220406   1.172   5.601   2.715
 6503SOL     OW20407   4.653   0.078   4.640
 6503SOL    HW120408   4.567   0.085   4.589
 6503SOL    HW220409   4.722   0.135   4.596
 6504SOL     OW20410   2.838   1.000   0.789
 6504SOL    HW120411   2.896   1.044   0.721
 6504SOL    HW220412   2.866   1.027   0.881
 6505SOL     OW20413   5.534   5.012   0.965
 6505SOL    HW120414   5.569   5.034   1.056
 6505SOL    HW220415   5.435   4.997   0.969
 6506SOL     OW20416   2.320   2.485   0.656
 6506SOL    HW120417   2.388   2.459   0.588
 6506SOL    HW220418   2.271   2.566   0.624
 6507SOL     OW20419   2.442   0.960   1.991
 6507SOL    HW120420   2.450   1.057   1.965
 6507SOL    HW220421   2.413   0.907   1.911
 6508SOL     OW20422   1.773   1.756   2.729
 6508SOL    HW120423   1.801   1.815   2.654
 6508SOL    HW220424   1.714   1.683   2.694
 6509SOL     OW20425   0.264   2.263   4.413
 6509SOL    HW120426   0.214   2.350   4.406
 6509SOL    HW220427   0.362   2.280   4.409
 6510SOL     OW20428   5.500   4.770   6.221
 6510SOL    HW120429   5.433   4.801   6.288
 6510SOL    HW220430   5.454   4.734   6.140
 6511SOL     OW20431   6.322   5.936   6.085
 6511SOL    HW120432   6.246   5.872   6.098
 6511SOL    HW220433   6.288   6.030   6.087
 6512SOL     OW20434   4.941   6.638   3.708
 6512SOL    HW120435   4.981   6.729   3.690
 6512SOL    HW220436   4.852   6.632   3.663
 6513SOL     OW20437   3.304   0.098   2.702
 6513SOL    HW120438   3.307   0.099   2.802
 6513SOL    HW220439   3.334   0.186   2.667
 6514SOL     OW20440   3.454   6.985   3.573
 6514SOL    HW120441   3.544   7.007   3.610
 6514SOL    HW220442   3.431   0.024   3.501
 6515SOL     OW20443   1.357   0.572   5.082
 6515SOL    HW120444   1.408   0.647   5.123
 6515SOL    HW220445   1.394   0.551   4.991
 6516SOL     OW20446   1.297   1.367   5.790
 6516SOL    HW120447   1.227   1.332   5.728
 6516SOL    HW220448   1.376   1.305   5.790
 6517SOL     OW20449   1.304   1.937   6.888
 6517SOL    HW120450   1.226   1.954   6.826
 6517SOL    HW220451   1.281   1.970   6.979
 6518SOL     OW20452   6.466   6.051   1.157
 6518SOL    HW120453   6.436   6.139   1.194
 6518SOL    HW220454   6.481   5.987   1.233
 6519SOL     OW20455   2.431   1.920   3.525
 6519SOL    HW120456   2.425   1.964   3.614
 6519SOL    HW220457   2.364   1.961   3.463
 6520SOL     OW20458   5.527   5.715   1.285
 6520SOL    HW120459   5.527   5.702   1.384
 6520SOL    HW220460   5.621   5.720   1.251
 6521SOL     OW20461   1.080   1.885   5.538
 6521SOL    HW120462   1.113   1.806   5.486
 6521SOL    HW220463   0.993   1.862   5.582
 6522SOL     OW20464   2.264   5.238   5.543
 6522SOL    HW120465   2.214   5.156   5.516
 6522SOL    HW220466   2.345   5.249   5.485
 6523SOL     OW20467   1.781   1.937   6.498
 6523SOL    HW120468   1.823   1.916   6.586
 6523SOL    HW220469   1.782   2.036   6.483
 6524SOL     OW20470   3.263   4.014   4.302
 6524SOL    HW120471   3.343   3.989   4.357
 6524SOL    HW220472   3.193   4.053   4.361
 6525SOL     OW20473   0.172   2.746   4.008
 6525SOL    HW120474   0.199   2.691   4.087
 6525SOL    HW220475   0.210   2.706   3.925
 6526SOL     OW20476   1.650   6.417   4.633
 6526SOL    HW120477   1.593   6.335   4.627
 6526SOL    HW220478   1.731   6.406   4.575
 6527SOL     OW20479   1.483   1.212   4.344
 6527SOL    HW120480   1.409   1.146   4.356
 6527SOL    HW220481   1.486   1.243   4.249
 6528SOL     OW20482   6.493   0.777   3.833
 6528SOL    HW120483   6.525   0.841   3.902
 6528SOL    HW220484   6.557   0.700   3.824
 6529SOL     OW20485   6.980   2.383   2.051
 6529SOL    HW120486   7.009   2.332   2.131
 6529SOL    HW220487   0.013   2.358   1.973
 6530SOL     OW20488   6.801   2.366   0.489
 6530SOL    HW120489   6.703   2.382   0.477
 6530SOL    HW220490   6.832   2.410   0.573
 6531SOL     OW20491   4.751   2.955   4.461
 6531SOL    HW120492   4.797   3.043   4.449
 6531SOL    HW220493   4.659   2.970   4.498
 6532SOL     OW20494   0.479   1.700   6.394
 6532SOL    HW120495   0.465   1.727   6.489
 6532SOL    HW220496   0.531   1.772   6.347
 6533SOL     OW20497   4.814   0.648   1.029
 6533SOL    HW120498   4.737   0.613   0.976
 6533SOL    HW220499   4.899   0.629   0.981
 6534SOL     OW20500   2.009   3.823   1.028
 6534SOL    HW120501   2.032   3.872   0.944
 6534SOL    HW220502   2.030   3.726   1.017
 6535SOL     OW20503   1.473   3.938   5.619
 6535SOL    HW120504   1.396   3.985   5.661
 6535SOL    HW220505   1.464   3.943   5.519
 6536SOL     OW20506   0.153   2.606   7.021
 6536SOL    HW120507   0.149   2.512   0.031
 6536SOL    HW220508   0.138   2.605   6.922
 6537SOL     OW20509   1.096   7.016   0.604
 6537SOL    HW120510   1.060   0.083   0.618
 6537SOL    HW220511   1.022   6.956   0.573
 6538SOL     OW20512   2.027   3.252   6.292
 6538SOL    HW120513   2.019   3.155   6.316
 6538SOL    HW220514   1.956   3.304   6.338
 6539SOL     OW20515   2.466   1.631   6.880
 6539SOL    HW120516   2.471   1.709   6.943
 6539SOL    HW220517   2.521   1.556   6.916
 6540SOL     OW20518   3.217   0.891   4.026
 6540SOL    HW120519   3.135   0.906   3.972
 6540SOL    HW220520   3.250   0.979   4.060
 6541SOL     OW20521   2.235   2.267   5.809
 6541SOL    HW120522   2.261   2.184   5.760
 6541SOL    HW220523   2.213   2.245   5.904
 6542SOL     OW20524   6.151   4.278   3.101
 6542SOL    HW120525   6.202   4.212   3.046
 6542SOL    HW220526   6.207   4.309   3.178
 6543SOL     OW20527   6.905   5.742   0.104
 6543SOL    HW120528   6.950   5.804   0.169
 6543SOL    HW220529   6.829   5.790   0.060
 6544SOL     OW20530   6.527   6.435   4.524
 6544SOL    HW120531   6.429   6.453   4.532
 6544SOL    HW220532   6.571   6.509   4.474
 6545SOL     OW20533   5.313   2.206   5.751
 6545SOL    HW120534   5.257   2.230   5.831
 6545SOL    HW220535   5.353   2.116   5.764
 6546SOL     OW20536   2.910   4.243   6.257
 6546SOL    HW120537   2.835   4.225   6.321
 6546SOL    HW220538   2.884   4.317   6.195
 6547SOL     OW20539   4.598   2.212   6.693
 6547SOL    HW120540   4.554   2.301   6.695
 6547SOL    HW220541   4.529   2.141   6.677
 6548SOL     OW20542   6.660   5.228   5.146
 6548SOL    HW120543   6.579   5.227   5.088
 6548SOL    HW220544   6.634   5.257   5.238
 6549SOL     OW20545   3.587   1.526   1.033
 6549SOL    HW120546   3.675   1.478   1.037
 6549SOL    HW220547   3.604   1.625   1.026
 6550SOL     OW20548   0.847   5.445   3.537
 6550SOL    HW120549   0.816   5.538   3.516
 6550SOL    HW220550   0.929   5.424   3.483
 6551SOL     OW20551   2.008   5.323   2.398
 6551SOL    HW120552   1.909   5.333   2.400
 6551SOL    HW220553   2.036   5.256   2.467
 6552SOL     OW20554   3.643   4.894   6.091
 6552SOL    HW120555   3.721   4.957   6.093
 6552SOL    HW220556   3.676   4.800   6.104
 6553SOL     OW20557   0.015   2.736   2.647
 6553SOL    HW120558   0.006   2.797   2.568
 6553SOL    HW220559   7.024   2.789   2.731
 6554SOL     OW20560   0.371   2.856   5.281
 6554SOL    HW120561   0.405   2.888   5.369
 6554SOL    HW220562   0.394   2.923   5.210
 6555SOL     OW20563   0.140   1.503   2.268
 6555SOL    HW120564   0.184   1.520   2.180
 6555SOL    HW220565   0.100   1.588   2.303
 6556SOL     OW20566   3.684   6.937   4.260
 6556SOL    HW120567   3.621   6.860   4.275
 6556SOL    HW220568   3.768   6.922   4.311
 6557SOL     OW20569   6.499   5.782   0.950
 6557SOL    HW120570   6.495   5.770   1.049
 6557SOL    HW220571   6.557   5.860   0.928
 6558SOL     OW20572   6.435   5.265   6.715
 6558SOL    HW120573   6.345   5.263   6.760
 6558SOL    HW220574   6.441   5.346   6.656
 6559SOL     OW20575   3.598   3.379   0.861
 6559SOL    HW120576   3.629   3.299   0.810
 6559SOL    HW220577   3.501   3.395   0.843
 6560SOL     OW20578   3.907   2.279   0.118
 6560SOL    HW120579   4.003   2.267   0.142
 6560SOL    HW220580   3.861   2.190   0.121
 6561SOL     OW20581   4.066   3.792   4.722
 6561SOL    HW120582   4.053   3.857   4.647
 6561SOL    HW220583   4.153   3.745   4.711
 6562SOL     OW20584   5.943   3.885   5.810
 6562SOL    HW120585   6.027   3.934   5.787
 6562SOL    HW220586   5.964   3.813   5.877
 6563SOL     OW20587   1.725   5.321   2.118
 6563SOL    HW120588   1.762   5.228   2.127
 6563SOL    HW220589   1.640   5.317   2.066
 6564SOL     OW20590   1.003   5.620   2.401
 6564SOL    HW120591   0.906   5.635   2.422
 6564SOL    HW220592   1.023   5.522   2.407
 6565SOL     OW20593   6.445   3.266   5.395
 6565SOL    HW120594   6.491   3.212   5.325
 6565SOL    HW220595   6.511   3.327   5.439
 6566SOL     OW20596   3.600   6.926   0.287
 6566SOL    HW120597   3.566   7.005   0.236
 6566SOL    HW220598   3.599   6.947   0.385
 6567SOL     OW20599   5.588   3.045   1.470
 6567SOL    HW120600   5.675   3.054   1.422
 6567SOL    HW220601   5.515   3.082   1.414
 6568SOL     OW20602   3.989   4.506   1.441
 6568SOL    HW120603   3.977   4.450   1.524
 6568SOL    HW220604   4.085   4.500   1.412
 6569SOL     OW20605   0.277   4.584   6.293
 6569SOL    HW120606   0.312   4.653   6.356
 6569SOL    HW220607   0.189   4.612   6.257
 6570SOL     OW20608   6.375   2.455   0.892
 6570SOL    HW120609   6.282   2.450   0.856
 6570SOL    HW220610   6.374   2.439   0.991
 6571SOL     OW20611   2.711   5.898   3.509
 6571SOL    HW120612   2.801   5.941   3.507
 6571SOL    HW220613   2.708   5.830   3.583
 6572SOL     OW20614   1.011   3.642   6.412
 6572SOL    HW120615   1.056   3.613   6.328
 6572SOL    HW220616   0.912   3.648   6.397
 6573SOL     OW20617   2.118   1.927   2.765
 6573SOL    HW120618   2.170   1.842   2.775
 6573SOL    HW220619   2.033   1.909   2.715
 6574SOL     OW20620   2.714   5.012   3.159
 6574SOL    HW120621   2.655   5.068   3.100
 6574SOL    HW220622   2.743   4.930   3.109
 6575SOL     OW20623   0.859   1.176   3.046
 6575SOL    HW120624   0.878   1.207   2.953
 6575SOL    HW220625   0.766   1.140   3.052
 6576SOL     OW20626   1.086   6.186   5.564
 6576SOL    HW120627   1.092   6.249   5.642
 6576SOL    HW220628   1.119   6.096   5.592
 6577SOL     OW20629   6.354   1.752   4.247
 6577SOL    HW120630   6.312   1.837   4.279
 6577SOL    HW220631   6.299   1.713   4.174
 6578SOL     OW20632   6.237   5.107   3.388
 6578SOL    HW120633   6.267   5.016   3.414
 6578SOL    HW220634   6.240   5.168   3.468
 6579SOL     OW20635   0.436   3.555   2.402
 6579SOL    HW120636   0.346   3.589   2.428
 6579SOL    HW220637   0.456   3.471   2.451
 6580SOL     OW20638   6.234   2.524   1.610
 6580SOL    HW120639   6.157   2.552   1.667
 6580SOL    HW220640   6.202   2.501   1.519
 6581SOL     OW20641   2.512   1.995   5.617
 6581SOL    HW120642   2.515   2.008   5.518
 6581SOL    HW220643   2.421   1.965   5.643
 6582SOL     OW20644   6.851   0.041   2.754
 6582SOL    HW120645   6.883   6.971   2.752
 6582SOL    HW220646   6.930   0.102   2.753
 6583SOL     OW20647   6.094   1.832   5.666
 6583SOL    HW120648   6.046   1.920   5.667
 6583SOL    HW220649   6.181   1.842   5.715
 6584SOL     OW20650   5.940   1.475   6.671
 6584SOL    HW120651   5.916   1.396   6.728
 6584SOL    HW220652   6.024   1.455   6.621
 6585SOL     OW20653   1.958   1.305   0.094
 6585SOL    HW120654   2.019   1.226   0.097
 6585SOL    HW220655   1.863   1.274   0.096
 6586SOL     OW20656   6.988   2.492   6.364
 6586SOL    HW120657   0.012   2.565   6.412
 6586SOL    HW220658   0.028   2.422   6.335
 6587SOL     OW20659   1.784   6.621   2.643
 6587SOL    HW120660   1.845   6.542   2.649
 6587SOL    HW220661   1.689   6.589   2.639
 6588SOL     OW20662   2.280   3.172   6.812
 6588SOL    HW120663   2.335   3.137   6.737
 6588SOL    HW220664   2.183   3.170   6.787
 6589SOL     OW20665   4.649   1.759   5.765
 6589SOL    HW120666   4.556   1.728   5.784
 6589SOL    HW220667   4.711   1.681   5.763
 6590SOL     OW20668   6.733   1.043   5.548
 6590SOL    HW120669   6.794   1.122   5.554
 6590SOL    HW220670   6.769   0.978   5.481
 6591SOL     OW20671   5.525   1.024   2.613
 6591SOL    HW120672   5.449   1.068   2.661
 6591SOL    HW220673   5.556   1.083   2.539
 6592SOL     OW20674   4.871   5.929   4.570
 6592SOL    HW120675   4.862   5.833   4.543
 6592SOL    HW220676   4.958   5.942   4.618
 6593SOL     OW20677   3.966   1.015   2.254
 6593SOL    HW120678   3.955   1.021   2.155
 6593SOL    HW220679   3.881   1.042   2.299
 6594SOL     OW20680   5.910   0.631   6.236
 6594SOL    HW120681   5.825   0.613   6.285
 6594SOL    HW220682   5.897   0.711   6.177
 6595SOL     OW20683   1.156   3.949   0.815
 6595SOL    HW120684   1.097   3.890   0.760
 6595SOL    HW220685   1.245   3.905   0.827
 6596SOL     OW20686   3.935   6.880   5.004
 6596SOL    HW120687   4.023   6.856   5.045
 6596SOL    HW220688   3.950   6.936   4.923
 6597SOL     OW20689   0.013   4.719   5.399
 6597SOL    HW120690   0.064   4.633   5.405
 6597SOL    HW220691   7.022   4.742   5.303
 6598SOL     OW20692   1.817   5.745   5.687
 6598SOL    HW120693   1.885   5.712   5.753
 6598SOL    HW220694   1.731   5.696   5.700
 6599SOL     OW20695   4.294   4.215   5.980
 6599SOL    HW120696   4.199   4.247   5.980
 6599SOL    HW220697   4.355   4.293   5.965
 6600SOL     OW20698   4.659   6.097   4.553
 6600SOL    HW120699   4.677   6.195   4.558
 6600SOL    HW220700   4.741   6.047   4.581
 6601SOL     OW20701   1.554   7.016   1.210
 6601SOL    HW120702   1.519   6.924   1.196
 6601SOL    HW220703   1.513   0.054   1.144
 6602SOL     OW20704   6.505   1.577   1.362
 6602SOL    HW120705   6.588   1.620   1.398
 6602SOL    HW220706   6.526   1.482   1.335
 6603SOL     OW20707   2.152   3.107   3.144
 6603SOL    HW120708   2.188   3.160   3.067
 6603SOL    HW220709   2.168   3.010   3.129
 6604SOL     OW20710   3.519   6.126   2.889
 6604SOL    HW120711   3.513   6.066   2.969
 6604SOL    HW220712   3.506   6.073   2.806
 6605SOL     OW20713   5.924   6.643   0.478
 6605SOL    HW120714   5.866   6.571   0.516
 6605SOL    HW220715   5.904   6.652   0.380
 6606SOL     OW20716   5.051   1.221   2.833
 6606SOL    HW120717   5.031   1.234   2.736
 6606SOL    HW220718   5.119   1.288   2.862
 6607SOL     OW20719   1.149   2.772   3.145
 6607SOL    HW120720   1.123   2.675   3.146
 6607SOL    HW220721   1.242   2.782   3.181
 6608SOL     OW20722   5.969   3.538   4.670
 6608SOL    HW120723   5.953   3.462   4.734
 6608SOL    HW220724   6.052   3.521   4.618
 6609SOL     OW20725   6.177   1.947   6.663
 6609SOL    HW120726   6.122   1.867   6.686
 6609SOL    HW220727   6.123   2.012   6.610
 6610SOL     OW20728   2.945   0.800   0.191
 6610SOL    HW120729   3.036   0.780   0.226
 6610SOL    HW220730   2.941   0.896   0.161
 6611SOL     OW20731   5.658   2.879   3.213
 6611SOL    HW120732   5.664   2.842   3.306
 6611SOL    HW220733   5.682   2.977   3.215
 6612SOL     OW20734   1.459   6.113   6.743
 6612SOL    HW120735   1.517   6.040   6.779
 6612SOL    HW220736   1.363   6.088   6.753
 6613SOL     OW20737   4.592   5.315   1.506
 6613SOL    HW120738   4.689   5.338   1.500
 6613SOL    HW220739   4.580   5.216   1.499
 6614SOL     OW20740   5.612   5.806   6.176
 6614SOL    HW120741   5.622   5.819   6.274
 6614SOL    HW220742   5.519   5.831   6.148
 6615SOL     OW20743   1.160   3.850   5.145
 6615SOL    HW120744   1.200   3.780   5.204
 6615SOL    HW220745   1.204   3.847   5.055
 6616SOL     OW20746   4.760   0.303   4.823
 6616SOL    HW120747   4.720   0.227   4.772
 6616SOL    HW220748   4.797   0.371   4.760
 6617SOL     OW20749   4.191   6.843   5.098
 6617SOL    HW120750   4.251   6.920   5.078
 6617SOL    HW220751   4.239   6.777   5.156
 6618SOL     OW20752   0.833   4.199   1.561
 6618SOL    HW120753   0.857   4.237   1.472
 6618SOL    HW220754   0.915   4.163   1.604
 6619SOL     OW20755   5.378   5.860   2.650
 6619SOL    HW120756   5.406   5.950   2.684
 6619SOL    HW220757   5.401   5.790   2.718
 6620SOL     OW20758   2.447   2.844   5.639
 6620SOL    HW120759   2.471   2.747   5.643
 6620SOL    HW220760   2.376   2.863   5.708
 6621SOL     OW20761   2.796   4.261   6.713
 6621SOL    HW120762   2.739   4.334   6.749
 6621SOL    HW220763   2.877   4.299   6.669
 6622SOL     OW20764   6.608   0.097   0.644
 6622SOL    HW120765   6.664   0.176   0.619
 6622SOL    HW220766   6.618   0.026   0.574
 6623SOL     OW20767   3.594   3.902   1.783
 6623SOL    HW120768   3.548   3.814   1.777
 6623SOL    HW220769   3.542   3.970   1.731
 6624SOL     OW20770   4.305   4.686   4.190
 6624SOL    HW120771   4.337   4.759   4.250
 6624SOL    HW220772   4.314   4.598   4.237
 6625SOL     OW20773   6.393   0.471   0.609
 6625SOL    HW120774   6.337   0.527   0.669
 6625SOL    HW220775   6.490   0.485   0.632
 6626SOL     OW20776   3.138   4.889   3.538
 6626SOL    HW120777   3.236   4.905   3.540
 6626SOL    HW220778   3.110   4.857   3.448
 6627SOL     OW20779   2.163   6.106   1.405
 6627SOL    HW120780   2.093   6.052   1.358
 6627SOL    HW220781   2.254   6.069   1.384
 6628SOL     OW20782   3.832   6.202   3.241
 6628SOL    HW120783   3.777   6.263   3.184
 6628SOL    HW220784   3.784   6.186   3.327
 6629SOL     OW20785   3.174   4.457   0.060
 6629SOL    HW120786   3.270   4.449   0.085
 6629SOL    HW220787   3.117   4.444   0.141
 6630SOL     OW20788   2.955   2.006   6.106
 6630SOL    HW120789   2.881   2.054   6.058
 6630SOL    HW220790   3.034   1.998   6.045
 6631SOL     OW20791   4.311   0.605   2.203
 6631SOL    HW120792   4.238   0.669   2.226
 6631SOL    HW220793   4.356   0.574   2.287
 6632SOL     OW20794   0.088   2.199   2.239
 6632SOL    HW120795   0.048   2.131   2.301
 6632SOL    HW220796   0.104   2.156   2.150
 6633SOL     OW20797   0.386   0.058   1.245
 6633SOL    HW120798   0.415   7.024   1.169
 6633SOL    HW220799   0.446   0.043   1.323
 6634SOL     OW20800   6.804   3.000   5.735
 6634SOL    HW120801   6.753   2.919   5.762
 6634SOL    HW220802   6.902   2.985   5.751
 6635SOL     OW20803   4.725   4.385   3.630
 6635SOL    HW120804   4.777   4.412   3.549
 6635SOL    HW220805   4.661   4.458   3.654
 6636SOL     OW20806   1.566   2.680   4.440
 6636SOL    HW120807   1.637   2.656   4.506
 6636SOL    HW220808   1.564   2.613   4.366
 6637SOL     OW20809   6.398   1.225   1.298
 6637SOL    HW120810   6.480   1.232   1.241
 6637SOL    HW220811   6.325   1.280   1.257
 6638SOL     OW20812   2.045   5.984   5.596
 6638SOL    HW120813   2.001   6.051   5.537
 6638SOL    HW220814   1.981   5.953   5.665
 6639SOL     OW20815   5.737   5.616   0.116
 6639SOL    HW120816   5.760   5.680   0.189
 6639SOL    HW220817   5.676   5.660   0.050
 6640SOL     OW20818   5.916   3.499   3.637
 6640SOL    HW120819   6.014   3.511   3.618
 6640SOL    HW220820   5.900   3.509   3.736
 6641SOL     OW20821   1.748   4.437   6.452
 6641SOL    HW120822   1.747   4.464   6.356
 6641SOL    HW220823   1.805   4.355   6.463
 6642SOL     OW20824   0.189   6.288   0.334
 6642SOL    HW120825   0.214   6.311   0.240
 6642SOL    HW220826   0.127   6.209   0.334
 6643SOL     OW20827   4.527   5.244   6.763
 6643SOL    HW120828   4.459   5.203   6.824
 6643SOL    HW220829   4.541   5.340   6.788
 6644SOL     OW20830   2.840   4.799   2.244
 6644SOL    HW120831   2.757   4.855   2.252
 6644SOL    HW220832   2.820   4.719   2.188
 6645SOL     OW20833   0.388   5.001   5.560
 6645SOL    HW120834   0.311   5.056   5.592
 6645SOL    HW220835   0.474   5.048   5.581
 6646SOL     OW20836   2.148   5.786   3.539
 6646SOL    HW120837   2.227   5.843   3.562
 6646SOL    HW220838   2.099   5.827   3.462
 6647SOL     OW20839   3.333   1.980   2.337
 6647SOL    HW120840   3.246   2.028   2.353
 6647SOL    HW220841   3.390   2.035   2.276
 6648SOL     OW20842   4.868   5.679   2.554
 6648SOL    HW120843   4.856   5.644   2.461
 6648SOL    HW220844   4.935   5.754   2.554
 6649SOL     OW20845   3.841   2.786   6.346
 6649SOL    HW120846   3.799   2.735   6.271
 6649SOL    HW220847   3.811   2.748   6.434
 6650SOL     OW20848   3.180   2.123   3.031
 6650SOL    HW120849   3.259   2.085   3.080
 6650SOL    HW220850   3.198   2.122   2.933
 6651SOL     OW20851   1.046   2.426   6.586
 6651SOL    HW120852   1.113   2.369   6.539
 6651SOL    HW220853   0.992   2.477   6.519
 6652SOL     OW20854   6.824   5.353   2.972
 6652SOL    HW120855   6.745   5.369   3.031
 6652SOL    HW220856   6.794   5.345   2.877
 6653SOL     OW20857   3.338   3.321   3.412
 6653SOL    HW120858   3.305   3.394   3.472
 6653SOL    HW220859   3.383   3.361   3.332
 6654SOL     OW20860   2.101   3.329   1.892
 6654SOL    HW120861   2.119   3.420   1.931
 6654SOL    HW220862   2.160   3.314   1.813
 6655SOL     OW20863   2.650   7.018   1.130
 6655SOL    HW120864   2.571   0.043   1.165
 6655SOL    HW220865   2.731   0.051   1.133
 6656SOL     OW20866   5.838   2.546   1.380
 6656SOL    HW120867   5.789   2.614   1.326
 6656SOL    HW220868   5.934   2.543   1.351
 6657SOL     OW20869   2.799   6.229   6.058
 6657SOL    HW120870   2.761   6.145   6.098
 6657SOL    HW220871   2.756   6.308   6.100
 6658SOL     OW20872   5.075   0.809   5.742
 6658SOL    HW120873   5.064   0.811   5.642
 6658SOL    HW220874   5.172   0.818   5.765
 6659SOL     OW20875   1.407   3.134   6.513
 6659SOL    HW120876   1.506   3.137   6.501
 6659SOL    HW220877   1.382   3.051   6.563
 6660SOL     OW20878   6.865   6.889   3.005
 6660SOL    HW120879   6.782   6.860   2.957
 6660SOL    HW220880   6.943   6.884   2.942
 6661SOL     OW20881   0.035   6.166   3.708
 6661SOL    HW120882   0.066   6.191   3.616
 6661SOL    HW220883   0.014   6.249   3.760
 6662SOL     OW20884   0.951   3.307   6.585
 6662SOL    HW120885   1.045   3.333   6.564
 6662SOL    HW220886   0.932   3.328   6.681
 6663SOL     OW20887   0.510   5.750   2.049
 6663SOL    HW120888   0.598   5.744   2.002
 6663SOL    HW220889   0.471   5.659   2.058
 6664SOL     OW20890   1.233   1.560   3.179
 6664SOL    HW120891   1.213   1.513   3.093
 6664SOL    HW220892   1.226   1.659   3.165
 6665SOL     OW20893   2.590   6.605   2.822
 6665SOL    HW120894   2.627   6.628   2.733
 6665SOL    HW220895   2.574   6.506   2.827
 6666SOL     OW20896   6.777   0.489   0.280
 6666SOL    HW120897   6.718   0.408   0.289
 6666SOL    HW220898   6.722   0.572   0.293
 6667SOL     OW20899   6.588   5.205   4.754
 6667SOL    HW120900   6.522   5.157   4.696
 6667SOL    HW220901   6.678   5.203   4.710
 6668SOL     OW20902   0.613   5.023   1.616
 6668SOL    HW120903   0.529   5.050   1.662
 6668SOL    HW220904   0.608   5.047   1.519
 6669SOL     OW20905   2.148   6.054   2.525
 6669SOL    HW120906   2.149   6.118   2.449
 6669SOL    HW220907   2.242   6.040   2.558
 6670SOL     OW20908   3.780   4.651   7.023
 6670SOL    HW120909   3.765   4.731   0.057
 6670SOL    HW220910   3.826   4.579   0.050
 6671SOL     OW20911   0.222   2.531   4.709
 6671SOL    HW120912   0.144   2.512   4.770
 6671SOL    HW220913   0.301   2.557   4.764
 6672SOL     OW20914   1.986   0.875   5.330
 6672SOL    HW120915   2.006   0.778   5.318
 6672SOL    HW220916   2.002   0.923   5.243
 6673SOL     OW20917   4.638   4.897   1.174
 6673SOL    HW120918   4.628   4.968   1.104
 6673SOL    HW220919   4.551   4.888   1.224
 6674SOL     OW20920   0.681   0.031   4.634
 6674SOL    HW120921   0.712   6.966   4.665
 6674SOL    HW220922   0.729   0.102   4.687
 6675SOL     OW20923   5.986   5.375   0.444
 6675SOL    HW120924   6.068   5.375   0.501
 6675SOL    HW220925   5.931   5.456   0.466
 6676SOL     OW20926   1.050   2.652   5.825
 6676SOL    HW120927   1.029   2.714   5.751
 6676SOL    HW220928   1.061   2.703   5.910
 6677SOL     OW20929   0.160   3.776   0.270
 6677SOL    HW120930   0.104   3.849   0.231
 6677SOL    HW220931   0.246   3.770   0.220
 6678SOL     OW20932   1.186   3.032   5.444
 6678SOL    HW120933   1.284   3.027   5.425
 6678SOL    HW220934   1.168   3.108   5.507
 6679SOL     OW20935   1.353   2.048   4.547
 6679SOL    HW120936   1.396   2.101   4.474
 6679SOL    HW220937   1.416   2.040   4.624
 6680SOL     OW20938   2.915   6.857   6.517
 6680SOL    HW120939   2.881   6.777   6.566
 6680SOL    HW220940   2.992   6.830   6.460
 6681SOL     OW20941   5.563   5.171   0.216
 6681SOL    HW120942   5.639   5.236   0.216
 6681SOL    HW220943   5.592   5.086   0.261
 6682SOL     OW20944   6.936   6.207   2.114
 6682SOL    HW120945   6.983   6.294   2.129
 6682SOL    HW220946   7.003   6.133   2.113
 6683SOL     OW20947   5.491   2.039   4.099
 6683SOL    HW120948   5.531   2.066   4.187
 6683SOL    HW220949   5.402   2.083   4.088
 6684SOL     OW20950   2.085   6.760   2.471
 6684SOL    HW120951   2.106   6.667   2.441
 6684SOL    HW220952   2.052   6.758   2.565
 6685SOL     OW20953   5.158   3.693   6.524
 6685SOL    HW120954   5.242   3.695   6.579
 6685SOL    HW220955   5.170   3.632   6.446
 6686SOL     OW20956   6.150   3.652   3.832
 6686SOL    HW120957   6.090   3.730   3.849
 6686SOL    HW220958   6.175   3.650   3.735
 6687SOL     OW20959   1.765   1.711   0.121
 6687SOL    HW120960   1.689   1.660   0.161
 6687SOL    HW220961   1.783   1.793   0.176
 6688SOL     OW20962   0.585   5.041   3.046
 6688SOL    HW120963   0.672   5.086   3.068
 6688SOL    HW220964   0.558   4.983   3.123
 6689SOL     OW20965   4.406   4.419   0.309
 6689SOL    HW120966   4.452   4.373   0.385
 6689SOL    HW220967   4.317   4.377   0.293
 6690SOL     OW20968   1.853   2.421   1.007
 6690SOL    HW120969   1.808   2.373   1.081
 6690SOL    HW220970   1.952   2.408   1.013
 6691SOL     OW20971   1.697   4.546   1.570
 6691SOL    HW120972   1.640   4.627   1.562
 6691SOL    HW220973   1.769   4.549   1.501
 6692SOL     OW20974   3.299   3.899   6.018
 6692SOL    HW120975   3.230   3.969   6.037
 6692SOL    HW220976   3.299   3.832   6.092
 6693SOL     OW20977   4.021   3.283   5.034
 6693SOL    HW120978   3.955   3.208   5.025
 6693SOL    HW220979   4.052   3.312   4.944
 6694SOL     OW20980   2.826   6.450   0.599
 6694SOL    HW120981   2.919   6.418   0.582
 6694SOL    HW220982   2.775   6.381   0.650
 6695SOL     OW20983   1.826   1.935   0.276
 6695SOL    HW120984   1.818   2.010   0.211
 6695SOL    HW220985   1.919   1.933   0.314
 6696SOL     OW20986   2.039   3.093   2.037
 6696SOL    HW120987   1.993   3.118   2.122
 6696SOL    HW220988   2.062   3.176   1.986
 6697SOL     OW20989   5.055   1.375   3.156
 6697SOL    HW120990   5.030   1.328   3.241
 6697SOL    HW220991   4.987   1.446   3.136
 6698SOL     OW20992   3.780   3.421   0.204
 6698SOL    HW120993   3.824   3.466   0.281
 6698SOL    HW220994   3.718   3.350   0.237
 6699SOL     OW20995   1.041   3.867   0.088
 6699SOL    HW120996   0.979   3.905   0.020
 6699SOL    HW220997   1.042   3.767   0.079
 6700SOL     OW20998   6.667   6.252   0.217
 6700SOL    HW120999   6.707   6.240   0.126
 6700SOL    HW221000   6.568   6.257   0.210
 6701SOL     OW21001   1.009   1.820   0.959
 6701SOL    HW121002   1.051   1.755   1.023
 6701SOL    HW221003   1.002   1.778   0.869
 6702SOL     OW21004   2.474   2.343   0.848
 6702SOL    HW121005   2.562   2.353   0.803
 6702SOL    HW221006   2.401   2.369   0.785
 6703SOL     OW21007   0.655   2.339   6.497
 6703SOL    HW121008   0.622   2.408   6.561
 6703SOL    HW221009   0.595   2.260   6.500
 6704SOL     OW21010   5.315   2.127   2.692
 6704SOL    HW121011   5.299   2.216   2.648
 6704SOL    HW221012   5.274   2.055   2.636
 6705SOL     OW21013   5.966   1.331   0.425
 6705SOL    HW121014   6.002   1.279   0.502
 6705SOL    HW221015   6.017   1.307   0.342
 6706SOL     OW21016   0.624   4.849   6.310
 6706SOL    HW121017   0.572   4.790   6.371
 6706SOL    HW221018   0.595   4.944   6.321
 6707SOL     OW21019   1.235   6.471   2.435
 6707SOL    HW121020   1.229   6.407   2.512
 6707SOL    HW221021   1.274   6.425   2.356
 6708SOL     OW21022   2.413   5.989   1.384
 6708SOL    HW121023   2.430   5.908   1.441
 6708SOL    HW221024   2.483   5.995   1.313
 6709SOL     OW21025   4.539   1.351   2.931
 6709SOL    HW121026   4.557   1.443   2.965
 6709SOL    HW221027   4.622   1.296   2.936
 6710SOL     OW21028   2.514   2.663   0.911
 6710SOL    HW121029   2.528   2.753   0.951
 6710SOL    HW221030   2.462   2.672   0.826
 6711SOL     OW21031   3.814   3.839   0.949
 6711SOL    HW121032   3.823   3.776   1.026
 6711SOL    HW221033   3.823   3.933   0.981
 6712SOL     OW21034   3.196   5.668   0.572
 6712SOL    HW121035   3.253   5.626   0.500
 6712SOL    HW221036   3.255   5.703   0.644
 6713SOL     OW21037   1.986   1.867   2.206
 6713SOL    HW121038   2.045   1.786   2.200
 6713SOL    HW221039   2.038   1.948   2.179
 6714SOL     OW21040   6.471   0.269   4.042
 6714SOL    HW121041   6.458   0.306   3.950
 6714SOL    HW221042   6.553   0.211   4.044
 6715SOL     OW21043   0.893   1.668   1.522
 6715SOL    HW121044   0.985   1.697   1.547
 6715SOL    HW221045   0.893   1.569   1.503
 6716SOL     OW21046   2.390   5.901   0.669
 6716SOL    HW121047   2.345   5.985   0.640
 6716SOL    HW221048   2.378   5.830   0.599
 6717SOL     OW21049   3.817   1.483   6.550
 6717SOL    HW121050   3.842   1.445   6.639
 6717SOL    HW221051   3.757   1.420   6.502
 6718SOL     OW21052   3.713   0.209   6.954
 6718SOL    HW121053   3.624   0.165   6.952
 6718SOL    HW221054   3.702   0.308   6.940
 6719SOL     OW21055   0.750   0.413   5.798
 6719SOL    HW121056   0.816   0.358   5.747
 6719SOL    HW221057   0.683   0.452   5.735
 6720SOL     OW21058   1.774   4.658   1.832
 6720SOL    HW121059   1.832   4.585   1.866
 6720SOL    HW221060   1.732   4.630   1.746
 6721SOL     OW21061   6.480   6.740   3.790
 6721SOL    HW121062   6.527   6.799   3.725
 6721SOL    HW221063   6.452   6.656   3.744
 6722SOL     OW21064   4.683   3.845   6.936
 6722SOL    HW121065   4.591   3.860   6.900
 6722SOL    HW221066   4.706   3.919   6.998
 6723SOL     OW21067   3.745   6.782   2.214
 6723SOL    HW121068   3.827   6.768   2.159
 6723SOL    HW221069   3.693   6.697   2.220
 6724SOL     OW21070   3.334   4.577   5.426
 6724SOL    HW121071   3.241   4.552   5.397
 6724SOL    HW221072   3.328   4.640   5.503
 6725SOL     OW21073   0.371   4.807   2.625
 6725SOL    HW121074   0.382   4.772   2.718
 6725SOL    HW221075   0.431   4.757   2.564
 6726SOL     OW21076   2.536   2.398   2.287
 6726SOL    HW121077   2.564   2.438   2.375
 6726SOL    HW221078   2.602   2.329   2.259
 6727SOL     OW21079   3.915   4.097   0.101
 6727SOL    HW121080   3.973   4.042   0.161
 6727SOL    HW221081   3.972   4.165   0.053
 6728SOL     OW21082   4.869   1.050   4.186
 6728SOL    HW121083   4.786   1.103   4.173
 6728SOL    HW221084   4.936   1.076   4.116
 6729SOL     OW21085   6.000   6.930   2.814
 6729SOL    HW121086   6.070   6.934   2.743
 6729SOL    HW221087   6.022   6.995   2.886
 6730SOL     OW21088   1.523   0.317   0.715
 6730SOL    HW121089   1.506   0.220   0.700
 6730SOL    HW221090   1.600   0.328   0.778
 6731SOL     OW21091   2.392   4.693   1.917
 6731SOL    HW121092   2.386   4.596   1.942
 6731SOL    HW221093   2.323   4.714   1.848
 6732SOL     OW21094   1.915   4.357   0.702
 6732SOL    HW121095   1.974   4.436   0.714
 6732SOL    HW221096   1.842   4.359   0.770
 6733SOL     OW21097   5.355   5.897   6.074
 6733SOL    HW121098   5.273   5.931   6.122
 6733SOL    HW221099   5.333   5.881   5.978
 6734SOL     OW21100   2.299   3.615   5.533
 6734SOL    HW121101   2.319   3.526   5.574
 6734SOL    HW221102   2.340   3.687   5.590
 6735SOL     OW21103   0.112   5.121   6.176
 6735SOL    HW121104   0.199   5.074   6.163
 6735SOL    HW221105   0.077   5.101   6.267
 6736SOL     OW21106   2.171   3.817   2.514
 6736SOL    HW121107   2.131   3.726   2.507
 6736SOL    HW221108   2.248   3.815   2.578
 6737SOL     OW21109   1.927   1.155   0.716
 6737SOL    HW121110   1.842   1.105   0.705
 6737SOL    HW221111   1.952   1.199   0.630
 6738SOL     OW21112   3.842   1.648   2.117
 6738SOL    HW121113   3.808   1.736   2.148
 6738SOL    HW221114   3.883   1.599   2.194
 6739SOL     OW21115   3.709   6.570   4.880
 6739SOL    HW121116   3.774   6.612   4.816
 6739SOL    HW221117   3.743   6.479   4.906
 6740SOL     OW21118   6.355   2.811   4.575
 6740SOL    HW121119   6.322   2.850   4.661
 6740SOL    HW221120   6.373   2.713   4.587
 6741SOL     OW21121   7.025   6.923   6.248
 6741SOL    HW121122   0.037   6.934   6.156
 6741SOL    HW221123   6.935   6.968   6.254
 6742SOL     OW21124   6.547   5.878   5.903
 6742SOL    HW121125   6.541   5.977   5.887
 6742SOL    HW221126   6.472   5.850   5.963
 6743SOL     OW21127   4.787   3.320   0.638
 6743SOL    HW121128   4.703   3.331   0.691
 6743SOL    HW221129   4.775   3.359   0.547
 6744SOL     OW21130   5.535   5.610   5.837
 6744SOL    HW121131   5.629   5.595   5.867
 6744SOL    HW221132   5.482   5.526   5.849
 6745SOL     OW21133   0.015   3.815   3.944
 6745SOL    HW121134   0.099   3.795   3.893
 6745SOL    HW221135   6.987   3.884   3.896
 6746SOL     OW21136   6.976   1.672   1.006
 6746SOL    HW121137   6.906   1.712   0.947
 6746SOL    HW221138   0.013   1.744   1.037
 6747SOL     OW21139   5.462   6.095   6.291
 6747SOL    HW121140   5.452   6.019   6.226
 6747SOL    HW221141   5.484   6.179   6.241
 6748SOL     OW21142   6.782   0.046   2.160
 6748SOL    HW121143   6.756   0.013   2.069
 6748SOL    HW221144   6.785   0.146   2.159
 6749SOL     OW21145   3.734   6.157   1.159
 6749SOL    HW121146   3.749   6.171   1.061
 6749SOL    HW221147   3.811   6.196   1.210
 6750SOL     OW21148   2.623   3.144   5.370
 6750SOL    HW121149   2.601   3.239   5.394
 6750SOL    HW221150   2.550   3.106   5.313
 6751SOL     OW21151   3.250   2.162   5.570
 6751SOL    HW121152   3.213   2.239   5.620
 6751SOL    HW221153   3.261   2.186   5.473
 6752SOL     OW21154   6.376   2.190   0.426
 6752SOL    HW121155   6.349   2.116   0.488
 6752SOL    HW221156   6.426   2.152   0.348
 6753SOL     OW21157   5.288   2.076   6.108
 6753SOL    HW121158   5.242   2.080   6.020
 6753SOL    HW221159   5.232   2.121   6.177
 6754SOL     OW21160   5.600   0.997   0.410
 6754SOL    HW121161   5.550   0.911   0.423
 6754SOL    HW221162   5.570   1.041   0.325
 6755SOL     OW21163   5.221   1.622   3.009
 6755SOL    HW121164   5.128   1.599   2.981
 6755SOL    HW221165   5.236   1.720   2.996
 6756SOL     OW21166   5.091   4.238   4.143
 6756SOL    HW121167   5.092   4.233   4.243
 6756SOL    HW221168   5.185   4.230   4.109
 6757SOL     OW21169   5.177   4.865   2.110
 6757SOL    HW121170   5.131   4.953   2.115
 6757SOL    HW221171   5.264   4.875   2.063
 6758SOL     OW21172   5.574   1.973   3.085
 6758SOL    HW121173   5.579   1.982   2.985
 6758SOL    HW221174   5.623   2.049   3.127
 6759SOL     OW21175   0.623   4.648   3.417
 6759SOL    HW121176   0.693   4.580   3.400
 6759SOL    HW221177   0.600   4.649   3.514
 6760SOL     OW21178   0.126   4.064   5.131
 6760SOL    HW121179   0.150   3.967   5.134
 6760SOL    HW221180   0.159   4.104   5.045
 6761SOL     OW21181   5.764   3.283   6.558
 6761SOL    HW121182   5.813   3.196   6.571
 6761SOL    HW221183   5.673   3.265   6.522
 6762SOL     OW21184   5.306   4.812   3.462
 6762SOL    HW121185   5.366   4.829   3.384
 6762SOL    HW221186   5.236   4.745   3.436
 6763SOL     OW21187   5.608   6.337   5.761
 6763SOL    HW121188   5.686   6.336   5.823
 6763SOL    HW221189   5.547   6.261   5.782
 6764SOL     OW21190   2.293   3.562   0.285
 6764SOL    HW121191   2.204   3.607   0.289
 6764SOL    HW221192   2.319   3.529   0.375
 6765SOL     OW21193   5.134   5.361   2.914
 6765SOL    HW121194   5.090   5.343   3.002
 6765SOL    HW221195   5.064   5.373   2.843
 6766SOL     OW21196   1.410   1.444   5.352
 6766SOL    HW121197   1.402   1.347   5.373
 6766SOL    HW221198   1.467   1.488   5.422
 6767SOL     OW21199   1.297   2.735   5.595
 6767SOL    HW121200   1.289   2.743   5.496
 6767SOL    HW221201   1.208   2.750   5.638
 6768SOL     OW21202   0.323   0.160   5.629
 6768SOL    HW121203   0.227   0.173   5.654
 6768SOL    HW221204   0.362   0.087   5.685
 6769SOL     OW21205   1.378   2.837   6.595
 6769SOL    HW121206   1.409   2.785   6.515
 6769SOL    HW221207   1.441   2.823   6.671
 6770SOL     OW21208   6.886   1.318   4.295
 6770SOL    HW121209   6.916   1.353   4.384
 6770SOL    HW221210   6.953   1.253   4.261
 6771SOL     OW21211   4.222   1.750   1.904
 6771SOL    HW121212   4.318   1.753   1.874
 6771SOL    HW221213   4.218   1.766   2.003
 6772SOL     OW21214   0.303   1.064   1.546
 6772SOL    HW121215   0.248   1.123   1.605
 6772SOL    HW221216   0.246   0.988   1.513
 6773SOL     OW21217   1.130   0.847   2.154
 6773SOL    HW121218   1.124   0.920   2.222
 6773SOL    HW221219   1.084   0.766   2.188
 6774SOL     OW21220   3.100   1.073   5.266
 6774SOL    HW121221   3.076   1.103   5.173
 6774SOL    HW221222   3.180   1.124   5.297
 6775SOL     OW21223   0.703   3.010   4.950
 6775SOL    HW121224   0.726   3.107   4.947
 6775SOL    HW221225   0.774   2.960   4.999
 6776SOL     OW21226   3.552   3.801   3.276
 6776SOL    HW121227   3.472   3.785   3.220
 6776SOL    HW221228   3.524   3.819   3.371
 6777SOL     OW21229   6.760   6.565   6.692
 6777SOL    HW121230   6.791   6.470   6.685
 6777SOL    HW221231   6.836   6.626   6.671
 6778SOL     OW21232   5.961   6.012   2.302
 6778SOL    HW121233   5.883   6.004   2.240
 6778SOL    HW221234   6.032   6.068   2.259
 6779SOL     OW21235   5.066   4.382   6.342
 6779SOL    HW121236   5.051   4.285   6.363
 6779SOL    HW221237   5.075   4.393   6.243
 6780SOL     OW21238   3.798   1.473   1.863
 6780SOL    HW121239   3.808   1.510   1.955
 6780SOL    HW221240   3.701   1.470   1.838
 6781SOL     OW21241   6.032   2.531   2.999
 6781SOL    HW121242   6.070   2.459   3.058
 6781SOL    HW221243   5.935   2.543   3.021
 6782SOL     OW21244   0.000   1.656   3.279
 6782SOL    HW121245   6.973   1.571   3.267
 6782SOL    HW221246   0.091   1.635   3.316
 6783SOL     OW21247   0.536   6.182   5.880
 6783SOL    HW121248   0.537   6.083   5.892
 6783SOL    HW221249   0.493   6.204   5.792
 6784SOL     OW21250   1.348   4.605   1.328
 6784SOL    HW121251   1.388   4.643   1.411
 6784SOL    HW221252   1.280   4.668   1.292
 6785SOL     OW21253   5.141   4.629   3.379
 6785SOL    HW121254   5.091   4.674   3.305
 6785SOL    HW221255   5.163   4.535   3.352
 6786SOL     OW21256   6.609   2.254   5.897
 6786SOL    HW121257   6.533   2.303   5.939
 6786SOL    HW221258   6.696   2.286   5.935
 6787SOL     OW21259   3.117   1.614   0.601
 6787SOL    HW121260   3.143   1.701   0.560
 6787SOL    HW221261   3.035   1.627   0.656
 6788SOL     OW21262   0.553   4.269   1.313
 6788SOL    HW121263   0.497   4.341   1.355
 6788SOL    HW221264   0.509   4.180   1.325
 6789SOL     OW21265   5.805   4.670   2.459
 6789SOL    HW121266   5.798   4.599   2.529
 6789SOL    HW221267   5.772   4.634   2.372
 6790SOL     OW21268   0.489   6.077   0.651
 6790SOL    HW121269   0.509   5.980   0.638
 6790SOL    HW221270   0.484   6.098   0.749
 6791SOL     OW21271   2.316   6.224   3.367
 6791SOL    HW121272   2.305   6.292   3.439
 6791SOL    HW221273   2.377   6.152   3.398
 6792SOL     OW21274   3.657   6.635   5.979
 6792SOL    HW121275   3.735   6.642   6.042
 6792SOL    HW221276   3.572   6.645   6.031
 6793SOL     OW21277   1.998   3.225   6.003
 6793SOL    HW121278   1.954   3.303   5.959
 6793SOL    HW221279   2.023   3.248   6.097
 6794SOL     OW21280   5.252   2.579   5.225
 6794SOL    HW121281   5.168   2.543   5.183
 6794SOL    HW221282   5.327   2.570   5.160
 6795SOL     OW21283   0.718   0.840   1.680
 6795SOL    HW121284   0.811   0.867   1.655
 6795SOL    HW221285   0.652   0.892   1.625
 6796SOL     OW21286   6.817   1.903   2.845
 6796SOL    HW121287   6.722   1.907   2.815
 6796SOL    HW221288   6.830   1.824   2.904
 6797SOL     OW21289   1.163   3.113   0.797
 6797SOL    HW121290   1.159   3.084   0.893
 6797SOL    HW221291   1.242   3.070   0.753
 6798SOL     OW21292   4.844   1.044   1.945
 6798SOL    HW121293   4.821   0.967   1.885
 6798SOL    HW221294   4.789   1.038   2.029
 6799SOL     OW21295   0.038   0.334   3.007
 6799SOL    HW121296   6.995   0.275   3.051
 6799SOL    HW221297   0.071   0.290   2.924
 6800SOL     OW21298   6.647   3.011   1.570
 6800SOL    HW121299   6.676   2.920   1.539
 6800SOL    HW221300   6.598   3.057   1.496
 6801SOL     OW21301   1.347   5.603   6.041
 6801SOL    HW121302   1.398   5.516   6.036
 6801SOL    HW221303   1.412   5.678   6.057
 6802SOL     OW21304   2.845   4.741   1.727
 6802SOL    HW121305   2.916   4.785   1.782
 6802SOL    HW221306   2.829   4.648   1.761
 6803SOL     OW21307   5.342   5.287   6.622
 6803SOL    HW121308   5.383   5.268   6.532
 6803SOL    HW221309   5.253   5.331   6.609
 6804SOL     OW21310   3.466   5.486   2.006
 6804SOL    HW121311   3.370   5.498   1.983
 6804SOL    HW221312   3.517   5.455   1.926
 6805SOL     OW21313   0.789   3.893   3.958
 6805SOL    HW121314   0.759   3.951   3.882
 6805SOL    HW221315   0.853   3.824   3.924
 6806SOL     OW21316   6.040   3.420   2.298
 6806SOL    HW121317   5.983   3.338   2.305
 6806SOL    HW221318   6.116   3.403   2.235
 6807SOL     OW21319   3.274   4.124   2.485
 6807SOL    HW121320   3.308   4.198   2.427
 6807SOL    HW221321   3.203   4.074   2.437
 6808SOL     OW21322   3.469   0.400   3.547
 6808SOL    HW121323   3.400   0.423   3.614
 6808SOL    HW221324   3.550   0.363   3.593
 6809SOL     OW21325   5.877   2.540   0.654
 6809SOL    HW121326   5.791   2.516   0.608
 6809SOL    HW221327   5.858   2.606   0.727
 6810SOL     OW21328   2.856   0.725   5.119
 6810SOL    HW121329   2.820   0.787   5.050
 6810SOL    HW221330   2.953   0.744   5.133
 6811SOL     OW21331   6.410   1.817   1.295
 6811SOL    HW121332   6.426   1.719   1.307
 6811SOL    HW221333   6.358   1.853   1.372
 6812SOL     OW21334   3.073   4.596   5.342
 6812SOL    HW121335   3.008   4.648   5.398
 6812SOL    HW221336   3.023   4.536   5.280
 6813SOL     OW21337   0.070   3.938   2.202
 6813SOL    HW121338   0.144   3.877   2.229
 6813SOL    HW221339   0.011   3.891   2.135
 6814SOL     OW21340   5.683   1.503   1.153
 6814SOL    HW121341   5.617   1.504   1.078
 6814SOL    HW221342   5.697   1.409   1.183
 6815SOL     OW21343   0.639   6.030   6.685
 6815SOL    HW121344   0.588   6.108   6.722
 6815SOL    HW221345   0.671   5.973   6.761
 6816SOL     OW21346   6.556   6.758   4.633
 6816SOL    HW121347   6.649   6.721   4.643
 6816SOL    HW221348   6.559   6.841   4.577
 6817SOL     OW21349   4.806   2.060   1.498
 6817SOL    HW121350   4.893   2.071   1.450
 6817SOL    HW221351   4.818   1.996   1.574
 6818SOL     OW21352   0.877   7.000   5.403
 6818SOL    HW121353   0.947   6.951   5.455
 6818SOL    HW221354   0.794   7.008   5.458
 6819SOL     OW21355   4.991   4.461   1.649
 6819SOL    HW121356   4.961   4.537   1.592
 6819SOL    HW221357   4.932   4.454   1.729
 6820SOL     OW21358   2.719   5.295   1.564
 6820SOL    HW121359   2.762   5.304   1.474
 6820SOL    HW221360   2.705   5.199   1.585
 6821SOL     OW21361   3.122   2.928   5.901
 6821SOL    HW121362   3.092   2.930   5.996
 6821SOL    HW221363   3.110   3.019   5.861
 6822SOL     OW21364   5.908   3.762   5.434
 6822SOL    HW121365   5.917   3.679   5.489
 6822SOL    HW221366   5.857   3.831   5.485
 6823SOL     OW21367   0.607   2.440   5.944
 6823SOL    HW121368   0.606   2.417   5.846
 6823SOL    HW221369   0.603   2.356   5.998
 6824SOL     OW21370   1.352   0.396   5.296
 6824SOL    HW121371   1.361   0.463   5.222
 6824SOL    HW221372   1.272   0.339   5.279
 6825SOL     OW21373   4.367   4.219   1.214
 6825SOL    HW121374   4.280   4.192   1.255
 6825SOL    HW221375   4.349   4.269   1.129
 6826SOL     OW21376   5.810   0.447   3.491
 6826SOL    HW121377   5.761   0.408   3.570
 6826SOL    HW221378   5.906   0.419   3.494
 6827SOL     OW21379   4.414   6.003   5.198
 6827SOL    HW121380   4.388   6.094   5.164
 6827SOL    HW221381   4.513   5.990   5.185
 6828SOL     OW21382   3.548   2.065   2.135
 6828SOL    HW121383   3.494   2.049   2.053
 6828SOL    HW221384   3.614   2.139   2.117
 6829SOL     OW21385   4.357   6.818   3.709
 6829SOL    HW121386   4.334   6.738   3.654
 6829SOL    HW221387   4.440   6.800   3.762
 6830SOL     OW21388   4.172   5.147   2.013
 6830SOL    HW121389   4.113   5.068   2.031
 6830SOL    HW221390   4.250   5.119   1.958
 6831SOL     OW21391   2.134   1.324   6.555
 6831SOL    HW121392   2.191   1.391   6.603
 6831SOL    HW221393   2.189   1.279   6.484
 6832SOL     OW21394   2.730   2.434   6.669
 6832SOL    HW121395   2.823   2.408   6.695
 6832SOL    HW221396   2.729   2.465   6.574
 6833SOL     OW21397   3.849   5.110   6.061
 6833SOL    HW121398   3.935   5.113   6.010
 6833SOL    HW221399   3.827   5.202   6.095
 6834SOL     OW21400   6.383   6.348   6.598
 6834SOL    HW121401   6.358   6.358   6.502
 6834SOL    HW221402   6.408   6.437   6.636
 6835SOL     OW21403   3.746   0.872   3.772
 6835SOL    HW121404   3.751   0.774   3.753
 6835SOL    HW221405   3.801   0.922   3.705
 6836SOL     OW21406   0.533   4.279   6.138
 6836SOL    HW121407   0.538   4.258   6.235
 6836SOL    HW221408   0.550   4.376   6.124
 6837SOL     OW21409   6.273   0.710   2.159
 6837SOL    HW121410   6.179   0.741   2.144
 6837SOL    HW221411   6.303   0.735   2.251
 6838SOL     OW21412   2.892   3.723   6.092
 6838SOL    HW121413   2.842   3.795   6.043
 6838SOL    HW221414   2.975   3.700   6.042
 6839SOL     OW21415   5.866   2.965   4.729
 6839SOL    HW121416   5.769   2.987   4.730
 6839SOL    HW221417   5.885   2.892   4.794
 6840SOL     OW21418   2.441   6.287   4.442
 6840SOL    HW121419   2.507   6.358   4.414
 6840SOL    HW221420   2.390   6.257   4.362
 6841SOL     OW21421   4.581   6.829   1.132
 6841SOL    HW121422   4.519   6.834   1.210
 6841SOL    HW221423   4.629   6.742   1.133
 6842SOL     OW21424   0.586   3.959   4.358
 6842SOL    HW121425   0.495   3.917   4.362
 6842SOL    HW221426   0.599   4.019   4.436
 6843SOL     OW21427   4.532   2.831   1.738
 6843SOL    HW121428   4.578   2.823   1.827
 6843SOL    HW221429   4.500   2.741   1.710
 6844SOL     OW21430   3.304   5.792   4.259
 6844SOL    HW121431   3.391   5.763   4.219
 6844SOL    HW221432   3.304   5.773   4.357
 6845SOL     OW21433   3.844   4.016   0.492
 6845SOL    HW121434   3.861   3.939   0.431
 6845SOL    HW221435   3.924   4.076   0.494
 6846SOL     OW21436   4.069   3.139   2.869
 6846SOL    HW121437   4.092   3.161   2.964
 6846SOL    HW221438   4.144   3.166   2.809
 6847SOL     OW21439   6.572   3.555   1.330
 6847SOL    HW121440   6.532   3.570   1.240
 6847SOL    HW221441   6.554   3.635   1.388
 6848SOL     OW21442   6.681   6.053   3.820
 6848SOL    HW121443   6.709   6.149   3.822
 6848SOL    HW221444   6.681   6.020   3.725
 6849SOL     OW21445   3.538   6.677   4.238
 6849SOL    HW121446   3.592   6.655   4.319
 6849SOL    HW221447   3.597   6.680   4.158
 6850SOL     OW21448   5.529   3.492   1.610
 6850SOL    HW121449   5.590   3.463   1.684
 6850SOL    HW221450   5.461   3.421   1.593
 6851SOL     OW21451   1.128   5.400   5.152
 6851SOL    HW121452   1.193   5.373   5.223
 6851SOL    HW221453   1.175   5.406   5.064
 6852SOL     OW21454   6.917   5.117   2.164
 6852SOL    HW121455   6.845   5.179   2.132
 6852SOL    HW221456   6.907   5.028   2.120
 6853SOL     OW21457   6.360   3.906   5.520
 6853SOL    HW121458   6.458   3.898   5.502
 6853SOL    HW221459   6.314   3.942   5.439
 6854SOL     OW21460   0.424   2.056   6.789
 6854SOL    HW121461   0.466   2.063   6.880
 6854SOL    HW221462   0.325   2.055   6.798
 6855SOL     OW21463   2.991   6.728   1.961
 6855SOL    HW121464   3.085   6.711   1.988
 6855SOL    HW221465   2.933   6.652   1.990
 6856SOL     OW21466   0.334   4.739   5.256
 6856SOL    HW121467   0.369   4.829   5.281
 6856SOL    HW221468   0.308   4.738   5.160
 6857SOL     OW21469   3.949   1.327   5.911
 6857SOL    HW121470   3.948   1.427   5.909
 6857SOL    HW221471   3.874   1.292   5.854
 6858SOL     OW21472   3.571   3.037   5.311
 6858SOL    HW121473   3.523   2.992   5.386
 6858SOL    HW221474   3.519   3.117   5.282
 6859SOL     OW21475   3.406   0.427   0.330
 6859SOL    HW121476   3.447   0.464   0.413
 6859SOL    HW221477   3.378   0.332   0.347
 6860SOL     OW21478   4.391   4.465   6.862
 6860SOL    HW121479   4.472   4.481   6.806
 6860SOL    HW221480   4.310   4.460   6.802
 6861SOL     OW21481   5.787   4.161   0.831
 6861SOL    HW121482   5.875   4.144   0.875
 6861SOL    HW221483   5.800   4.222   0.752
 6862SOL     OW21484   2.736   5.165   4.074
 6862SOL    HW121485   2.721   5.207   4.164
 6862SOL    HW221486   2.788   5.227   4.016
 6863SOL     OW21487   0.534   3.085   4.089
 6863SOL    HW121488   0.563   3.112   4.180
 6863SOL    HW221489   0.460   3.018   4.095
 6864SOL     OW21490   4.637   5.554   5.971
 6864SOL    HW121491   4.591   5.509   6.047
 6864SOL    HW221492   4.701   5.623   6.006
 6865SOL     OW21493   6.780   3.206   4.414
 6865SOL    HW121494   6.875   3.201   4.384
 6865SOL    HW221495   6.734   3.283   4.369
 6866SOL     OW21496   0.397   2.928   2.102
 6866SOL    HW121497   0.362   3.000   2.041
 6866SOL    HW221498   0.485   2.895   2.069
 6867SOL     OW21499   2.659   5.322   2.809
 6867SOL    HW121500   2.656   5.322   2.710
 6867SOL    HW221501   2.731   5.259   2.840
 6868SOL     OW21502   1.648   5.362   4.579
 6868SOL    HW121503   1.633   5.318   4.491
 6868SOL    HW221504   1.710   5.307   4.634
 6869SOL     OW21505   6.232   3.047   4.962
 6869SOL    HW121506   6.188   3.136   4.950
 6869SOL    HW221507   6.246   3.029   5.059
 6870SOL     OW21508   5.158   3.334   2.160
 6870SOL    HW121509   5.083   3.367   2.217
 6870SOL    HW221510   5.122   3.275   2.088
 6871SOL     OW21511   4.581   6.893   1.664
 6871SOL    HW121512   4.616   6.923   1.753
 6871SOL    HW221513   4.636   6.816   1.631
 6872SOL     OW21514   2.699   3.208   6.756
 6872SOL    HW121515   2.752   3.288   6.730
 6872SOL    HW221516   2.761   3.133   6.780
 6873SOL     OW21517   4.873   4.046   5.743
 6873SOL    HW121518   4.819   4.001   5.814
 6873SOL    HW221519   4.892   3.981   5.669
 6874SOL     OW21520   1.161   2.701   5.295
 6874SOL    HW121521   1.243   2.757   5.285
 6874SOL    HW221522   1.173   2.616   5.243
 6875SOL     OW21523   3.437   2.128   3.752
 6875SOL    HW121524   3.365   2.114   3.819
 6875SOL    HW221525   3.398   2.128   3.660
 6876SOL     OW21526   3.544   6.330   4.915
 6876SOL    HW121527   3.446   6.347   4.924
 6876SOL    HW221528   3.594   6.415   4.936
 6877SOL     OW21529   2.493   3.624   6.702
 6877SOL    HW121530   2.432   3.571   6.644
 6877SOL    HW221531   2.461   3.621   6.797
 6878SOL     OW21532   1.513   2.076   4.773
 6878SOL    HW121533   1.534   1.978   4.774
 6878SOL    HW221534   1.518   2.112   4.866
 6879SOL     OW21535   1.231   1.090   5.648
 6879SOL    HW121536   1.266   0.996   5.654
 6879SOL    HW221537   1.181   1.112   5.731
 6880SOL     OW21538   1.811   4.108   4.824
 6880SOL    HW121539   1.830   4.163   4.742
 6880SOL    HW221540   1.886   4.043   4.837
 6881SOL     OW21541   6.086   5.337   1.833
 6881SOL    HW121542   5.987   5.345   1.817
 6881SOL    HW221543   6.126   5.278   1.763
 6882SOL     OW21544   2.620   6.364   4.861
 6882SOL    HW121545   2.633   6.443   4.920
 6882SOL    HW221546   2.545   6.382   4.797
 6883SOL     OW21547   3.052   6.325   1.272
 6883SOL    HW121548   2.979   6.303   1.338
 6883SOL    HW221549   3.117   6.250   1.268
 6884SOL     OW21550   2.610   4.859   2.831
 6884SOL    HW121551   2.527   4.834   2.880
 6884SOL    HW221552   2.603   4.953   2.798
 6885SOL     OW21553   3.566   5.608   5.088
 6885SOL    HW121554   3.627   5.651   5.022
 6885SOL    HW221555   3.589   5.638   5.180
 6886SOL     OW21556   5.214   2.143   2.352
 6886SOL    HW121557   5.264   2.083   2.290
 6886SOL    HW221558   5.259   2.233   2.355
 6887SOL     OW21559   4.907   1.056   5.100
 6887SOL    HW121560   4.825   1.034   5.047
 6887SOL    HW221561   4.988   1.040   5.044
 6888SOL     OW21562   5.412   6.616   5.276
 6888SOL    HW121563   5.508   6.589   5.288
 6888SOL    HW221564   5.357   6.535   5.255
 6889SOL     OW21565   1.443   4.256   6.394
 6889SOL    HW121566   1.431   4.197   6.314
 6889SOL    HW221567   1.459   4.350   6.363
 6890SOL     OW21568   2.022   0.656   0.894
 6890SOL    HW121569   2.008   0.686   0.800
 6890SOL    HW221570   1.936   0.618   0.929
 6891SOL     OW21571   3.760   4.882   5.144
 6891SOL    HW121572   3.660   4.873   5.141
 6891SOL    HW221573   3.794   4.897   5.051
 6892SOL     OW21574   3.612   1.157   4.387
 6892SOL    HW121575   3.562   1.074   4.364
 6892SOL    HW221576   3.603   1.223   4.313
 6893SOL     OW21577   6.148   6.688   1.498
 6893SOL    HW121578   6.133   6.751   1.422
 6893SOL    HW221579   6.091   6.607   1.486
 6894SOL     OW21580   6.300   4.487   5.510
 6894SOL    HW121581   6.394   4.517   5.497
 6894SOL    HW221582   6.245   4.562   5.546
 6895SOL     OW21583   3.692   5.268   6.442
 6895SOL    HW121584   3.774   5.293   6.494
 6895SOL    HW221585   3.663   5.177   6.470
 6896SOL     OW21586   4.550   0.371   3.176
 6896SOL    HW121587   4.505   0.416   3.253
 6896SOL    HW221588   4.590   0.439   3.115
 6897SOL     OW21589   3.488   1.802   0.665
 6897SOL    HW121590   3.499   1.703   0.675
 6897SOL    HW221591   3.577   1.843   0.647
 6898SOL     OW21592   3.759   1.517   2.984
 6898SOL    HW121593   3.815   1.456   3.041
 6898SOL    HW221594   3.746   1.476   2.894
 6899SOL     OW21595   5.740   6.441   6.722
 6899SOL    HW121596   5.721   6.348   6.753
 6899SOL    HW221597   5.659   6.479   6.677
 6900SOL     OW21598   4.142   1.301   5.726
 6900SOL    HW121599   4.079   1.270   5.798
 6900SOL    HW221600   4.225   1.338   5.769
 6901SOL     OW21601   1.299   0.745   0.463
 6901SOL    HW121602   1.236   0.794   0.403
 6901SOL    HW221603   1.365   0.695   0.407
 6902SOL     OW21604   6.338   5.324   1.529
 6902SOL    HW121605   6.400   5.250   1.555
 6902SOL    HW221606   6.374   5.411   1.562
 6903SOL     OW21607   4.103   4.562   0.660
 6903SOL    HW121608   4.086   4.498   0.735
 6903SOL    HW221609   4.195   4.548   0.624
 6904SOL     OW21610   0.461   1.790   3.328
 6904SOL    HW121611   0.446   1.876   3.279
 6904SOL    HW221612   0.559   1.779   3.345
 6905SOL     OW21613   4.224   4.823   0.961
 6905SOL    HW121614   4.222   4.915   0.921
 6905SOL    HW221615   4.136   4.778   0.945
 6906SOL     OW21616   4.759   5.797   3.754
 6906SOL    HW121617   4.831   5.801   3.823
 6906SOL    HW221618   4.765   5.710   3.705
 6907SOL     OW21619   3.755   1.089   1.150
 6907SOL    HW121620   3.824   1.017   1.137
 6907SOL    HW221621   3.786   1.173   1.106
 6908SOL     OW21622   6.976   6.743   6.657
 6908SOL    HW121623   0.046   6.724   6.629
 6908SOL    HW221624   6.973   6.829   6.708
 6909SOL     OW21625   4.360   3.206   6.903
 6909SOL    HW121626   4.307   3.180   6.821
 6909SOL    HW221627   4.431   3.137   6.919
 6910SOL     OW21628   6.730   1.307   1.566
 6910SOL    HW121629   6.726   1.231   1.501
 6910SOL    HW221630   6.655   1.298   1.632
 6911SOL     OW21631   4.608   0.658   5.170
 6911SOL    HW121632   4.527   0.701   5.129
 6911SOL    HW221633   4.630   0.574   5.120
 6912SOL     OW21634   4.553   4.968   1.569
 6912SOL    HW121635   4.539   4.873   1.598
 6912SOL    HW221636   4.626   5.009   1.623
 6913SOL     OW21637   4.362   6.029   5.522
 6913SOL    HW121638   4.406   6.097   5.464
 6913SOL    HW221639   4.282   5.992   5.474
 6914SOL     OW21640   6.162   5.024   6.819
 6914SOL    HW121641   6.235   4.955   6.815
 6914SOL    HW221642   6.094   4.995   6.886
 6915SOL     OW21643   1.302   5.489   1.163
 6915SOL    HW121644   1.354   5.492   1.248
 6915SOL    HW221645   1.332   5.564   1.103
 6916SOL     OW21646   6.552   0.786   6.318
 6916SOL    HW121647   6.549   0.780   6.218
 6916SOL    HW221648   6.621   0.723   6.353
 6917SOL     OW21649   4.972   0.019   6.712
 6917SOL    HW121650   4.894   0.081   6.702
 6917SOL    HW221651   5.005   7.017   6.621
 6918SOL     OW21652   2.095   2.862   3.883
 6918SOL    HW121653   2.015   2.835   3.830
 6918SOL    HW221654   2.178   2.828   3.837
 6919SOL     OW21655   1.330   6.244   3.354
 6919SOL    HW121656   1.311   6.338   3.382
 6919SOL    HW221657   1.387   6.244   3.273
 6920SOL     OW21658   5.063   6.904   4.722
 6920SOL    HW121659   5.126   6.827   4.712
 6920SOL    HW221660   5.098   6.982   4.670
 6921SOL     OW21661   0.337   6.543   3.137
 6921SOL    HW121662   0.398   6.501   3.069
 6921SOL    HW221663   0.391   6.598   3.201
 6922SOL     OW21664   1.608   5.875   6.787
 6922SOL    HW121665   1.592   5.778   6.807
 6922SOL    HW221666   1.643   5.885   6.694
 6923SOL     OW21667   4.107   6.872   4.111
 6923SOL    HW121668   4.108   6.784   4.158
 6923SOL    HW221669   4.036   6.872   4.041
 6924SOL     OW21670   6.866   5.860   1.239
 6924SOL    HW121671   6.882   5.935   1.303
 6924SOL    HW221672   6.924   5.782   1.264
 6925SOL     OW21673   6.175   5.321   3.231
 6925SOL    HW121674   6.193   5.235   3.278
 6925SOL    HW221675   6.186   5.397   3.295
 6926SOL     OW21676   3.016   4.039   4.983
 6926SOL    HW121677   2.973   4.126   4.957
 6926SOL    HW221678   3.097   4.056   5.038
 6927SOL     OW21679   4.207   3.381   0.034
 6927SOL    HW121680   4.236   3.288   0.009
 6927SOL    HW221681   4.273   3.447   7.024
 6928SOL     OW21682   6.685   7.003   6.545
 6928SOL    HW121683   6.702   6.906   6.529
 6928SOL    HW221684   6.771   0.028   6.546
 6929SOL     OW21685   3.789   5.139   0.712
 6929SOL    HW121686   3.711   5.184   0.668
 6929SOL    HW221687   3.761   5.050   0.748
 6930SOL     OW21688   1.009   0.068   3.222
 6930SOL    HW121689   0.996   0.124   3.304
 6930SOL    HW221690   1.030   6.998   3.249
 6931SOL     OW21691   1.833   0.746   1.700
 6931SOL    HW121692   1.823   0.728   1.798
 6931SOL    HW221693   1.854   0.843   1.685
 6932SOL     OW21694   2.455   2.154   0.253
 6932SOL    HW121695   2.551   2.179   0.239
 6932SOL    HW221696   2.411   2.140   0.165
 6933SOL     OW21697   2.999   6.348   6.919
 6933SOL    HW121698   3.016   6.380   7.012
 6933SOL    HW221699   3.083   6.309   6.881
 6934SOL     OW21700   5.899   4.305   6.338
 6934SOL    HW121701   5.814   4.303   6.390
 6934SOL    HW221702   5.958   4.378   6.373
 6935SOL     OW21703   4.377   5.592   3.467
 6935SOL    HW121704   4.289   5.590   3.420
 6935SOL    HW221705   4.418   5.683   3.457
 6936SOL     OW21706   0.935   4.820   1.126
 6936SOL    HW121707   0.861   4.760   1.094
 6936SOL    HW221708   0.927   4.910   1.082
 6937SOL     OW21709   4.461   6.181   6.145
 6937SOL    HW121710   4.436   6.085   6.157
 6937SOL    HW221711   4.549   6.187   6.097
 6938SOL     OW21712   5.813   1.985   5.287
 6938SOL    HW121713   5.769   1.991   5.198
 6938SOL    HW221714   5.908   2.015   5.280
 6939SOL     OW21715   0.466   5.233   2.454
 6939SOL    HW121716   0.453   5.166   2.527
 6939SOL    HW221717   0.477   5.324   2.493
 6940SOL     OW21718   4.015   1.130   4.978
 6940SOL    HW121719   4.002   1.045   5.030
 6940SOL    HW221720   4.086   1.118   4.910
 6941SOL     OW21721   3.702   2.907   3.656
 6941SOL    HW121722   3.639   2.865   3.722
 6941SOL    HW221723   3.661   2.905   3.565
 6942SOL     OW21724   6.903   1.787   0.320
 6942SOL    HW121725   6.893   1.869   0.377
 6942SOL    HW221726   6.889   1.812   0.224
 6943SOL     OW21727   5.803   6.504   0.165
 6943SOL    HW121728   5.717   6.546   0.192
 6943SOL    HW221729   5.828   6.534   0.073
 6944SOL     OW21730   1.307   6.195   6.052
 6944SOL    HW121731   1.322   6.117   6.112
 6944SOL    HW221732   1.395   6.231   6.022
 6945SOL     OW21733   4.507   2.115   5.475
 6945SOL    HW121734   4.471   2.025   5.501
 6945SOL    HW221735   4.492   2.179   5.550
 6946SOL     OW21736   5.728   4.021   3.780
 6946SOL    HW121737   5.740   3.990   3.686
 6946SOL    HW221738   5.753   4.118   3.787
 6947SOL     OW21739   3.847   0.193   2.700
 6947SOL    HW121740   3.763   0.207   2.753
 6947SOL    HW221741   3.905   0.126   2.748
 6948SOL     OW21742   3.815   2.087   4.803
 6948SOL    HW121743   3.883   2.117   4.869
 6948SOL    HW221744   3.853   2.095   4.711
 6949SOL     OW21745   4.733   0.835   2.216
 6949SOL    HW121746   4.822   0.816   2.256
 6949SOL    HW221747   4.723   0.786   2.129
 6950SOL     OW21748   2.325   1.166   3.767
 6950SOL    HW121749   2.335   1.150   3.669
 6950SOL    HW221750   2.316   1.264   3.784
 6951SOL     OW21751   5.714   5.567   5.610
 6951SOL    HW121752   5.625   5.522   5.613
 6951SOL    HW221753   5.756   5.565   5.701
 6952SOL     OW21754   0.440   5.288   4.607
 6952SOL    HW121755   0.527   5.312   4.651
 6952SOL    HW221756   0.367   5.290   4.676
 6953SOL     OW21757   5.458   2.407   5.605
 6953SOL    HW121758   5.445   2.365   5.514
 6953SOL    HW221759   5.404   2.357   5.672
 6954SOL     OW21760   0.809   5.673   2.809
 6954SOL    HW121761   0.733   5.722   2.766
 6954SOL    HW221762   0.855   5.733   2.874
 6955SOL     OW21763   6.553   5.766   2.863
 6955SOL    HW121764   6.462   5.724   2.860
 6955SOL    HW221765   6.603   5.742   2.779
 6956SOL     OW21766   3.220   4.893   0.999
 6956SOL    HW121767   3.237   4.991   1.015
 6956SOL    HW221768   3.248   4.841   1.079
 6957SOL     OW21769   0.492   3.740   0.436
 6957SOL    HW121770   0.494   3.641   0.420
 6957SOL    HW221771   0.579   3.780   0.407
 6958SOL     OW21772   2.022   3.617   6.106
 6958SOL    HW121773   2.094   3.588   6.169
 6958SOL    HW221774   2.057   3.690   6.047
 6959SOL     OW21775   3.534   1.013   3.701
 6959SOL    HW121776   3.594   0.943   3.740
 6959SOL    HW221777   3.501   0.982   3.612
 6960SOL     OW21778   6.819   4.848   0.113
 6960SOL    HW121779   6.918   4.861   0.117
 6960SOL    HW221780   6.774   4.923   0.162
 6961SOL     OW21781   6.635   1.062   3.072
 6961SOL    HW121782   6.680   1.089   3.157
 6961SOL    HW221783   6.659   0.967   3.051
 6962SOL     OW21784   3.932   3.449   0.756
 6962SOL    HW121785   3.896   3.537   0.785
 6962SOL    HW221786   3.912   3.434   0.659
 6963SOL     OW21787   6.129   5.729   2.083
 6963SOL    HW121788   6.121   5.793   2.007
 6963SOL    HW221789   6.166   5.777   2.163
 6964SOL     OW21790   3.553   6.106   4.740
 6964SOL    HW121791   3.534   6.195   4.780
 6964SOL    HW221792   3.484   6.085   4.671
 6965SOL     OW21793   6.663   3.234   5.787
 6965SOL    HW121794   6.725   3.161   5.757
 6965SOL    HW221795   6.702   3.280   5.866
 6966SOL     OW21796   4.905   2.695   3.751
 6966SOL    HW121797   4.923   2.781   3.798
 6966SOL    HW221798   4.875   2.712   3.658
 6967SOL     OW21799   2.104   1.769   6.536
 6967SOL    HW121800   2.089   1.712   6.455
 6967SOL    HW221801   2.036   1.747   6.606
 6968SOL     OW21802   4.752   6.742   2.358
 6968SOL    HW121803   4.713   6.684   2.286
 6968SOL    HW221804   4.741   6.838   2.333
 6969SOL     OW21805   3.067   1.959   1.178
 6969SOL    HW121806   3.102   1.939   1.270
 6969SOL    HW221807   3.130   2.019   1.130
 6970SOL     OW21808   4.577   3.950   0.438
 6970SOL    HW121809   4.614   3.857   0.436
 6970SOL    HW221810   4.639   4.010   0.488
 6971SOL     OW21811   5.590   0.555   2.489
 6971SOL    HW121812   5.553   0.545   2.396
 6971SOL    HW221813   5.527   0.513   2.554
 6972SOL     OW21814   5.474   5.071   4.710
 6972SOL    HW121815   5.490   4.974   4.729
 6972SOL    HW221816   5.422   5.112   4.785
 6973SOL     OW21817   1.722   4.833   3.461
 6973SOL    HW121818   1.817   4.803   3.468
 6973SOL    HW221819   1.695   4.879   3.546
 6974SOL     OW21820   3.725   4.085   4.613
 6974SOL    HW121821   3.653   4.038   4.563
 6974SOL    HW221822   3.811   4.036   4.600
 6975SOL     OW21823   3.772   1.108   5.582
 6975SOL    HW121824   3.771   1.130   5.679
 6975SOL    HW221825   3.823   1.178   5.532
 6976SOL     OW21826   2.079   5.463   0.060
 6976SOL    HW121827   2.126   5.384   0.019
 6976SOL    HW221828   2.118   5.547   0.024
 6977SOL     OW21829   4.175   2.254   2.936
 6977SOL    HW121830   4.160   2.156   2.952
 6977SOL    HW221831   4.162   2.273   2.839
 6978SOL     OW21832   6.397   0.784   3.010
 6978SOL    HW121833   6.363   0.702   3.055
 6978SOL    HW221834   6.497   0.788   3.016
 6979SOL     OW21835   0.472   4.357   3.315
 6979SOL    HW121836   0.399   4.319   3.259
 6979SOL    HW221837   0.437   4.377   3.406
 6980SOL     OW21838   3.413   1.537   4.172
 6980SOL    HW121839   3.486   1.605   4.181
 6980SOL    HW221840   3.453   1.447   4.152
 6981SOL     OW21841   2.484   4.810   6.576
 6981SOL    HW121842   2.416   4.747   6.538
 6981SOL    HW221843   2.480   4.896   6.526
 6982SOL     OW21844   0.227   6.793   4.767
 6982SOL    HW121845   0.308   6.787   4.826
 6982SOL    HW221846   0.240   6.735   4.687
 6983SOL     OW21847   6.131   0.758   4.117
 6983SOL    HW121848   6.176   0.780   4.031
 6983SOL    HW221849   6.136   0.837   4.179
 6984SOL     OW21850   2.618   1.208   6.483
 6984SOL    HW121851   2.559   1.152   6.425
 6984SOL    HW221852   2.628   1.165   6.573
 6985SOL     OW21853   5.164   5.810   2.509
 6985SOL    HW121854   5.113   5.895   2.495
 6985SOL    HW221855   5.238   5.826   2.574
 6986SOL     OW21856   2.264   6.706   4.692
 6986SOL    HW121857   2.177   6.735   4.653
 6986SOL    HW221858   2.250   6.627   4.750
 6987SOL     OW21859   6.765   3.565   6.666
 6987SOL    HW121860   6.726   3.499   6.602
 6987SOL    HW221861   6.702   3.578   6.743
 6988SOL     OW21862   4.921   1.393   5.205
 6988SOL    HW121863   4.947   1.310   5.253
 6988SOL    HW221864   4.875   1.455   5.268
 6989SOL     OW21865   1.469   2.716   3.884
 6989SOL    HW121866   1.383   2.701   3.933
 6989SOL    HW221867   1.473   2.811   3.853
 6990SOL     OW21868   3.898   3.212   0.392
 6990SOL    HW121869   3.872   3.295   0.441
 6990SOL    HW221870   3.984   3.177   0.429
 6991SOL     OW21871   4.433   4.398   5.356
 6991SOL    HW121872   4.496   4.320   5.358
 6991SOL    HW221873   4.384   4.400   5.269
 6992SOL     OW21874   6.045   6.094   5.609
 6992SOL    HW121875   6.067   6.061   5.518
 6992SOL    HW221876   6.046   6.018   5.674
 6993SOL     OW21877   0.523   6.411   3.461
 6993SOL    HW121878   0.541   6.463   3.545
 6993SOL    HW221879   0.491   6.473   3.389
 6994SOL     OW21880   1.571   2.961   0.233
 6994SOL    HW121881   1.498   2.987   0.170
 6994SOL    HW221882   1.531   2.939   0.322
 6995SOL     OW21883   0.462   5.099   3.450
 6995SOL    HW121884   0.538   5.128   3.509
 6995SOL    HW221885   0.404   5.035   3.500
 6996SOL     OW21886   2.449   6.916   5.622
 6996SOL    HW121887   2.376   6.957   5.568
 6996SOL    HW221888   2.487   6.984   5.684
 6997SOL     OW21889   5.048   0.064   4.337
 6997SOL    HW121890   5.011   0.023   4.253
 6997SOL    HW221891   5.128   0.012   4.367
 6998SOL     OW21892   1.591   2.469   3.227
 6998SOL    HW121893   1.603   2.384   3.176
 6998SOL    HW221894   1.611   2.547   3.168
 6999SOL     OW21895   4.235   1.939   6.448
 6999SOL    HW121896   4.267   1.844   6.437
 6999SOL    HW221897   4.181   1.966   6.368
 7000SOL     OW21898   6.569   6.361   1.221
 7000SOL    HW121899   6.502   6.387   1.290
 7000SOL    HW221900   6.527   6.362   1.131
 7001SOL     OW21901   2.904   1.918   5.528
 7001SOL    HW121902   2.871   1.828   5.499
 7001SOL    HW221903   2.984   1.943   5.473
 7002SOL     OW21904   2.093   5.119   2.881
 7002SOL    HW121905   2.037   5.092   2.802
 7002SOL    HW221906   2.041   5.182   2.939
 7003SOL     OW21907   2.397   6.181   0.056
 7003SOL    HW121908   2.349   6.201   6.995
 7003SOL    HW221909   2.437   6.264   0.092
 7004SOL     OW21910   1.201   5.066   0.891
 7004SOL    HW121911   1.185   5.000   0.818
 7004SOL    HW221912   1.115   5.085   0.939
 7005SOL     OW21913   5.480   6.636   5.612
 7005SOL    HW121914   5.391   6.603   5.580
 7005SOL    HW221915   5.545   6.560   5.614
 7006SOL     OW21916   4.267   4.812   4.912
 7006SOL    HW121917   4.282   4.713   4.906
 7006SOL    HW221918   4.193   4.831   4.976
 7007SOL     OW21919   5.045   5.420   2.429
 7007SOL    HW121920   5.045   5.420   2.529
 7007SOL    HW221921   5.059   5.327   2.396
 7008SOL     OW21922   1.201   4.899   4.131
 7008SOL    HW121923   1.226   4.808   4.166
 7008SOL    HW221924   1.281   4.959   4.137
 7009SOL     OW21925   0.114   4.739   2.598
 7009SOL    HW121926   0.077   4.811   2.656
 7009SOL    HW221927   0.213   4.750   2.591
 7010SOL     OW21928   4.113   4.757   6.439
 7010SOL    HW121929   4.069   4.793   6.521
 7010SOL    HW221930   4.110   4.826   6.366
 7011SOL     OW21931   2.447   1.350   4.702
 7011SOL    HW121932   2.520   1.293   4.740
 7011SOL    HW221933   2.359   1.305   4.718
 7012SOL     OW21934   1.322   1.221   1.714
 7012SOL    HW121935   1.405   1.233   1.659
 7012SOL    HW221936   1.339   1.155   1.788
 7013SOL     OW21937   0.839   0.840   2.467
 7013SOL    HW121938   0.830   0.751   2.513
 7013SOL    HW221939   0.845   0.912   2.536
 7014SOL     OW21940   2.398   4.985   1.620
 7014SOL    HW121941   2.440   4.911   1.569
 7014SOL    HW221942   2.356   5.050   1.557
 7015SOL     OW21943   5.042   2.492   2.064
 7015SOL    HW121944   4.961   2.508   2.121
 7015SOL    HW221945   5.016   2.498   1.967
 7016SOL     OW21946   3.107   4.570   1.059
 7016SOL    HW121947   3.050   4.555   1.139
 7016SOL    HW221948   3.199   4.599   1.088
 7017SOL     OW21949   4.405   1.651   4.054
 7017SOL    HW121950   4.389   1.558   4.022
 7017SOL    HW221951   4.333   1.711   4.020
 7018SOL     OW21952   0.266   5.292   3.459
 7018SOL    HW121953   0.350   5.250   3.425
 7018SOL    HW221954   0.212   5.224   3.508
 7019SOL     OW21955   1.984   6.113   0.812
 7019SOL    HW121956   1.934   6.199   0.802
 7019SOL    HW221957   1.995   6.070   0.722
 7020SOL     OW21958   0.324   6.589   5.730
 7020SOL    HW121959   0.321   6.618   5.634
 7020SOL    HW221960   0.292   6.495   5.738
 7021SOL     OW21961   3.608   0.240   5.539
 7021SOL    HW121962   3.681   0.301   5.570
 7021SOL    HW221963   3.520   0.276   5.570
 7022SOL     OW21964   5.121   4.937   6.099
 7022SOL    HW121965   5.036   4.971   6.137
 7022SOL    HW221966   5.181   4.907   6.173
 7023SOL     OW21967   5.986   3.961   2.912
 7023SOL    HW121968   6.065   3.902   2.927
 7023SOL    HW221969   6.014   4.042   2.860
 7024SOL     OW21970   0.002   6.046   1.050
 7024SOL    HW121971   6.981   6.019   1.135
 7024SOL    HW221972   6.991   6.134   1.020
 7025SOL     OW21973   2.720   0.503   6.384
 7025SOL    HW121974   2.681   0.477   6.472
 7025SOL    HW221975   2.699   0.600   6.366
 7026SOL     OW21976   3.632   1.804   0.946
 7026SOL    HW121977   3.553   1.865   0.937
 7026SOL    HW221978   3.716   1.858   0.935
 7027SOL     OW21979   4.382   6.898   4.430
 7027SOL    HW121980   4.412   6.865   4.520
 7027SOL    HW221981   4.439   6.857   4.359
 7028SOL     OW21982   3.229   6.544   3.955
 7028SOL    HW121983   3.204   6.550   3.858
 7028SOL    HW221984   3.319   6.585   3.968
 7029SOL     OW21985   3.753   0.280   4.761
 7029SOL    HW121986   3.664   0.319   4.784
 7029SOL    HW221987   3.744   0.181   4.750
 7030SOL     OW21988   1.980   3.659   3.660
 7030SOL    HW121989   1.886   3.667   3.693
 7030SOL    HW221990   1.999   3.733   3.595
 7031SOL     OW21991   2.084   6.913   5.294
 7031SOL    HW121992   2.160   6.860   5.256
 7031SOL    HW221993   2.003   6.855   5.302
 7032SOL     OW21994   6.286   2.243   2.958
 7032SOL    HW121995   6.215   2.258   3.026
 7032SOL    HW221996   6.259   2.285   2.872
 7033SOL     OW21997   6.646   0.016   4.789
 7033SOL    HW121998   6.733   7.005   4.824
 7033SOL    HW221999   6.627   7.002   4.699
 7034SOL     OW22000   6.983   5.691   2.632
 7034SOL    HW122001   0.029   5.702   2.561
 7034SOL    HW222002   6.913   5.761   2.621
 7035SOL     OW22003   6.542   5.214   2.233
 7035SOL    HW122004   6.461   5.240   2.180
 7035SOL    HW222005   6.561   5.117   2.219
 7036SOL     OW22006   6.678   4.112   1.265
 7036SOL    HW122007   6.761   4.060   1.285
 7036SOL    HW222008   6.687   4.205   1.299
 7037SOL     OW22009   1.131   0.146   0.258
 7037SOL    HW122010   1.047   0.135   0.312
 7037SOL    HW222011   1.107   0.156   0.162
 7038SOL     OW22012   1.797   4.031   4.108
 7038SOL    HW122013   1.715   4.011   4.161
 7038SOL    HW222014   1.840   3.946   4.079
 7039SOL     OW22015   4.268   1.768   6.089
 7039SOL    HW122016   4.355   1.814   6.105
 7039SOL    HW222017   4.213   1.822   6.025
 7040SOL     OW22018   4.730   2.518   6.426
 7040SOL    HW122019   4.647   2.470   6.455
 7040SOL    HW222020   4.763   2.574   6.502
 7041SOL     OW22021   2.642   1.380   2.578
 7041SOL    HW122022   2.698   1.343   2.504
 7041SOL    HW222023   2.549   1.395   2.545
 7042SOL     OW22024   1.841   0.559   6.831
 7042SOL    HW122025   1.840   0.574   6.930
 7042SOL    HW222026   1.915   0.611   6.790
 7043SOL     OW22027   1.488   2.496   2.896
 7043SOL    HW122028   1.533   2.421   2.944
 7043SOL    HW222029   1.411   2.529   2.951
 7044SOL     OW22030   4.846   5.995   2.233
 7044SOL    HW122031   4.828   5.914   2.178
 7044SOL    HW222032   4.779   6.066   2.212
 7045SOL     OW22033   5.858   5.065   1.156
 7045SOL    HW122034   5.885   4.970   1.172
 7045SOL    HW222035   5.928   5.110   1.101
 7046SOL     OW22036   2.695   0.805   4.298
 7046SOL    HW122037   2.777   0.812   4.355
 7046SOL    HW222038   2.692   0.715   4.255
 7047SOL     OW22039   2.207   1.323   4.307
 7047SOL    HW122040   2.260   1.366   4.380
 7047SOL    HW222041   2.216   1.378   4.223
 7048SOL     OW22042   6.616   6.610   0.558
 7048SOL    HW122043   6.659   6.523   0.533
 7048SOL    HW222044   6.526   6.593   0.598
 7049SOL     OW22045   1.879   1.004   0.412
 7049SOL    HW122046   1.785   1.026   0.439
 7049SOL    HW222047   1.933   1.088   0.408
 7050SOL     OW22048   4.210   3.553   5.215
 7050SOL    HW122049   4.223   3.456   5.234
 7050SOL    HW222050   4.283   3.605   5.259
 7051SOL     OW22051   6.659   6.594   2.274
 7051SOL    HW122052   6.617   6.591   2.365
 7051SOL    HW222053   6.718   6.674   2.267
 7052SOL     OW22054   6.785   1.876   3.650
 7052SOL    HW122055   6.776   1.787   3.694
 7052SOL    HW222056   6.810   1.864   3.554
 7053SOL     OW22057   6.297   4.396   5.889
 7053SOL    HW122058   6.299   4.350   5.800
 7053SOL    HW222059   6.283   4.329   5.961
 7054SOL     OW22060   6.528   0.139   1.876
 7054SOL    HW122061   6.538   0.183   1.787
 7054SOL    HW222062   6.609   0.158   1.932
 7055SOL     OW22063   3.529   7.012   5.421
 7055SOL    HW122064   3.440   6.982   5.456
 7055SOL    HW222065   3.556   0.072   5.467
 7056SOL     OW22066   5.005   4.875   4.227
 7056SOL    HW122067   5.079   4.821   4.188
 7056SOL    HW222068   5.018   4.971   4.204
 7057SOL     OW22069   0.481   6.049   3.391
 7057SOL    HW122070   0.442   5.958   3.377
 7057SOL    HW222071   0.414   6.107   3.438
 7058SOL     OW22072   0.075   5.336   5.268
 7058SOL    HW122073   0.017   5.356   5.348
 7058SOL    HW222074   0.025   5.358   5.185
 7059SOL     OW22075   1.860   0.655   2.610
 7059SOL    HW122076   1.936   0.595   2.586
 7059SOL    HW222077   1.894   0.732   2.663
 7060SOL     OW22078   3.409   0.156   1.606
 7060SOL    HW122079   3.374   0.065   1.584
 7060SOL    HW222080   3.382   0.221   1.534
 7061SOL     OW22081   0.234   0.841   2.606
 7061SOL    HW122082   0.323   0.799   2.592
 7061SOL    HW222083   0.164   0.789   2.557
 7062SOL     OW22084   6.198   1.445   5.264
 7062SOL    HW122085   6.192   1.345   5.263
 7062SOL    HW222086   6.125   1.482   5.321
 7063SOL     OW22087   2.712   0.120   1.540
 7063SOL    HW122088   2.776   0.078   1.476
 7063SOL    HW222089   2.620   0.086   1.523
 7064SOL     OW22090   4.336   2.395   0.410
 7064SOL    HW122091   4.381   2.309   0.433
 7064SOL    HW222092   4.389   2.471   0.447
 7065SOL     OW22093   4.248   4.064   1.695
 7065SOL    HW122094   4.318   4.024   1.636
 7065SOL    HW222095   4.290   4.133   1.753
 7066SOL     OW22096   3.300   6.463   0.728
 7066SOL    HW122097   3.282   6.531   0.799
 7066SOL    HW222098   3.335   6.379   0.771
 7067SOL     OW22099   0.184   4.108   4.858
 7067SOL    HW122100   0.146   4.145   4.773
 7067SOL    HW222101   0.282   4.130   4.863
 7068SOL     OW22102   0.872   1.010   2.709
 7068SOL    HW122103   0.874   1.110   2.707
 7068SOL    HW222104   0.948   0.977   2.764
 7069SOL     OW22105   1.526   3.832   4.934
 7069SOL    HW122106   1.609   3.777   4.944
 7069SOL    HW222107   1.538   3.897   4.859
 7070SOL     OW22108   5.282   5.924   4.408
 7070SOL    HW122109   5.303   5.837   4.363
 7070SOL    HW222110   5.289   5.913   4.507
 7071SOL     OW22111   1.688   6.505   5.538
 7071SOL    HW122112   1.757   6.501   5.466
 7071SOL    HW222113   1.635   6.421   5.538
 7072SOL     OW22114   6.898   6.373   6.529
 7072SOL    HW122115   6.886   6.421   6.442
 7072SOL    HW222116   6.876   6.276   6.516
 7073SOL     OW22117   1.323   1.160   6.568
 7073SOL    HW122118   1.348   1.256   6.552
 7073SOL    HW222119   1.224   1.151   6.565
 7074SOL     OW22120   3.088   2.310   0.993
 7074SOL    HW122121   3.130   2.230   0.951
 7074SOL    HW222122   3.152   2.353   1.056
 7075SOL     OW22123   1.102   5.761   3.086
 7075SOL    HW122124   1.113   5.840   3.026
 7075SOL    HW222125   1.016   5.768   3.136
 7076SOL     OW22126   3.073   2.473   6.709
 7076SOL    HW122127   3.094   2.472   6.611
 7076SOL    HW222128   3.098   2.561   6.748
 7077SOL     OW22129   1.946   5.158   5.673
 7077SOL    HW122130   1.902   5.247   5.684
 7077SOL    HW222131   1.880   5.092   5.638
 7078SOL     OW22132   6.745   0.501   3.113
 7078SOL    HW122133   6.727   0.465   3.021
 7078SOL    HW222134   6.720   0.432   3.181
 7079SOL     OW22135   5.265   5.547   5.470
 7079SOL    HW122136   5.350   5.506   5.502
 7079SOL    HW222137   5.245   5.515   5.377
 7080SOL     OW22138   5.610   0.407   4.099
 7080SOL    HW122139   5.667   0.457   4.165
 7080SOL    HW222140   5.664   0.333   4.058
 7081SOL     OW22141   3.594   0.975   5.403
 7081SOL    HW122142   3.642   1.028   5.473
 7081SOL    HW222143   3.556   0.892   5.445
 7082SOL     OW22144   5.574   1.140   6.321
 7082SOL    HW122145   5.508   1.081   6.276
 7082SOL    HW222146   5.663   1.095   6.323
 7083SOL     OW22147   3.670   6.471   5.743
 7083SOL    HW122148   3.670   6.550   5.681
 7083SOL    HW222149   3.644   6.502   5.835
 7084SOL     OW22150   6.190   6.593   0.559
 7084SOL    HW122151   6.100   6.619   0.524
 7084SOL    HW222152   6.200   6.494   0.555
 7085SOL     OW22153   2.731   2.810   0.644
 7085SOL    HW122154   2.725   2.730   0.584
 7085SOL    HW222155   2.649   2.816   0.701
 7086SOL     OW22156   6.815   0.894   6.534
 7086SOL    HW122157   6.758   0.902   6.616
 7086SOL    HW222158   6.802   0.804   6.493
 7087SOL     OW22159   1.993   2.526   4.305
 7087SOL    HW122160   2.089   2.509   4.326
 7087SOL    HW222161   1.986   2.586   4.226
 7088SOL     OW22162   6.986   2.420   5.429
 7088SOL    HW122163   0.040   2.452   5.377
 7088SOL    HW222164   6.919   2.378   5.367
 7089SOL     OW22165   2.857   1.721   0.287
 7089SOL    HW122166   2.933   1.660   0.308
 7089SOL    HW222167   2.782   1.669   0.246
 7090SOL     OW22168   2.399   2.591   4.545
 7090SOL    HW122169   2.379   2.638   4.631
 7090SOL    HW222170   2.479   2.532   4.558
 7091SOL     OW22171   0.363   6.261   0.038
 7091SOL    HW122172   0.418   6.191   0.085
 7091SOL    HW222173   0.315   6.220   6.986
 7092SOL     OW22174   3.228   3.435   0.023
 7092SOL    HW122175   3.299   3.373   0.054
 7092SOL    HW222176   3.228   3.517   0.080
 7093SOL     OW22177   3.604   2.913   4.856
 7093SOL    HW122178   3.603   2.888   4.953
 7093SOL    HW222179   3.648   3.002   4.845
 7094SOL     OW22180   1.058   0.697   6.007
 7094SOL    HW122181   1.052   0.633   5.930
 7094SOL    HW222182   1.074   0.646   6.092
 7095SOL     OW22183   0.431   3.312   6.459
 7095SOL    HW122184   0.452   3.227   6.509
 7095SOL    HW222185   0.516   3.357   6.433
 7096SOL     OW22186   5.128   1.241   2.356
 7096SOL    HW122187   5.139   1.339   2.369
 7096SOL    HW222188   5.208   1.194   2.394
 7097SOL     OW22189   0.535   1.095   1.921
 7097SOL    HW122190   0.587   1.137   1.847
 7097SOL    HW222191   0.453   1.052   1.884
 7098SOL     OW22192   1.846   6.773   5.840
 7098SOL    HW122193   1.835   6.756   5.938
 7098SOL    HW222194   1.812   6.695   5.789
 7099SOL     OW22195   0.593   0.979   6.576
 7099SOL    HW122196   0.588   0.965   6.477
 7099SOL    HW222197   0.506   1.016   6.609
 7100SOL     OW22198   5.536   2.652   1.271
 7100SOL    HW122199   5.461   2.713   1.248
 7100SOL    HW222200   5.510   2.558   1.250
 7101SOL     OW22201   1.956   0.143   4.606
 7101SOL    HW122202   1.942   0.135   4.705
 7101SOL    HW222203   1.876   0.106   4.558
 7102SOL     OW22204   4.476   2.605   0.496
 7102SOL    HW122205   4.424   2.577   0.577
 7102SOL    HW222206   4.508   2.699   0.507
 7103SOL     OW22207   3.754   6.651   6.303
 7103SOL    HW122208   3.841   6.668   6.256
 7103SOL    HW222209   3.725   6.557   6.285
 7104SOL     OW22210   1.097   1.910   2.536
 7104SOL    HW122211   1.080   2.001   2.575
 7104SOL    HW222212   1.107   1.843   2.609
 7105SOL     OW22213   2.641   3.957   5.306
 7105SOL    HW122214   2.715   3.941   5.240
 7105SOL    HW222215   2.554   3.960   5.258
 7106SOL     OW22216   3.009   2.443   5.390
 7106SOL    HW122217   2.932   2.482   5.339
 7106SOL    HW222218   3.088   2.435   5.329
 7107SOL     OW22219   3.123   0.832   6.939
 7107SOL    HW122220   3.041   0.887   6.921
 7107SOL    HW222221   3.175   0.873   7.014
 7108SOL     OW22222   4.481   0.006   1.416
 7108SOL    HW122223   4.457   0.102   1.412
 7108SOL    HW222224   4.524   7.011   1.504
 7109SOL     OW22225   3.513   6.066   6.535
 7109SOL    HW122226   3.601   6.114   6.528
 7109SOL    HW222227   3.521   5.991   6.600
 7110SOL     OW22228   4.288   4.828   3.688
 7110SOL    HW122229   4.191   4.845   3.668
 7110SOL    HW222230   4.296   4.781   3.776
 7111SOL     OW22231   1.709   2.857   3.507
 7111SOL    HW122232   1.750   2.808   3.430
 7111SOL    HW222233   1.610   2.843   3.506
 7112SOL     OW22234   1.149   6.677   2.950
 7112SOL    HW122235   1.148   6.577   2.961
 7112SOL    HW222236   1.230   6.715   2.994
 7113SOL     OW22237   3.985   3.973   4.529
 7113SOL    HW122238   4.063   4.028   4.501
 7113SOL    HW222239   3.950   3.922   4.450
 7114SOL     OW22240   3.916   0.942   0.903
 7114SOL    HW122241   3.914   0.843   0.892
 7114SOL    HW222242   3.994   0.968   0.961
 7115SOL     OW22243   4.253   2.084   0.985
 7115SOL    HW122244   4.161   2.092   0.946
 7115SOL    HW222245   4.252   2.119   1.079
 7116SOL     OW22246   5.910   3.510   2.533
 7116SOL    HW122247   5.968   3.465   2.466
 7116SOL    HW222248   5.818   3.523   2.494
 7117SOL     OW22249   5.956   6.463   1.495
 7117SOL    HW122250   5.942   6.463   1.594
 7117SOL    HW222251   6.013   6.386   1.468
 7118SOL     OW22252   6.853   3.256   1.458
 7118SOL    HW122253   6.778   3.222   1.514
 7118SOL    HW222254   6.926   3.187   1.456
 7119SOL     OW22255   6.639   1.503   2.969
 7119SOL    HW122256   6.723   1.556   2.971
 7119SOL    HW222257   6.657   1.412   2.931
 7120SOL     OW22258   5.250   0.228   3.392
 7120SOL    HW122259   5.251   0.163   3.467
 7120SOL    HW222260   5.211   0.186   3.310
 7121SOL     OW22261   3.221   6.378   2.192
 7121SOL    HW122262   3.236   6.325   2.109
 7121SOL    HW222263   3.284   6.347   2.263
 7122SOL     OW22264   6.615   0.914   6.753
 7122SOL    HW122265   6.632   0.977   6.828
 7122SOL    HW222266   6.517   0.912   6.733
 7123SOL     OW22267   2.539   4.820   1.427
 7123SOL    HW122268   2.493   4.737   1.460
 7123SOL    HW222269   2.638   4.806   1.429
 7124SOL     OW22270   0.952   5.462   1.169
 7124SOL    HW122271   0.973   5.547   1.217
 7124SOL    HW222272   1.012   5.389   1.202
 7125SOL     OW22273   6.431   6.480   2.567
 7125SOL    HW122274   6.514   6.536   2.577
 7125SOL    HW222275   6.371   6.497   2.645
 7126SOL     OW22276   0.684   4.572   0.336
 7126SOL    HW122277   0.653   4.478   0.321
 7126SOL    HW222278   0.743   4.575   0.417
 7127SOL     OW22279   3.484   6.850   4.631
 7127SOL    HW122280   3.495   6.753   4.657
 7127SOL    HW222281   3.422   6.857   4.554
 7128SOL     OW22282   2.756   4.526   1.530
 7128SOL    HW122283   2.817   4.583   1.584
 7128SOL    HW222284   2.700   4.471   1.592
 7129SOL     OW22285   2.676   1.254   1.767
 7129SOL    HW122286   2.589   1.253   1.816
 7129SOL    HW222287   2.723   1.341   1.785
 7130SOL     OW22288   2.267   5.649   2.377
 7130SOL    HW122289   2.176   5.650   2.335
 7130SOL    HW222290   2.327   5.589   2.325
 7131SOL     OW22291   2.919   0.866   3.084
 7131SOL    HW122292   2.939   0.895   2.991
 7131SOL    HW222293   2.878   0.942   3.135
 7132SOL     OW22294   3.459   4.098   2.973
 7132SOL    HW122295   3.473   4.154   2.892
 7132SOL    HW222296   3.360   4.090   2.991
 7133SOL     OW22297   5.144   4.978   2.624
 7133SOL    HW122298   5.190   4.972   2.712
 7133SOL    HW222299   5.182   4.910   2.562
 7134SOL     OW22300   5.361   3.852   3.708
 7134SOL    HW122301   5.431   3.873   3.641
 7134SOL    HW222302   5.280   3.815   3.662
 7135SOL     OW22303   0.947   1.862   4.955
 7135SOL    HW122304   1.013   1.839   5.027
 7135SOL    HW222305   0.916   1.779   4.910
 7136SOL     OW22306   2.373   1.702   0.438
 7136SOL    HW122307   2.297   1.694   0.373
 7136SOL    HW222308   2.360   1.637   0.512
 7137SOL     OW22309   4.218   1.057   4.842
 7137SOL    HW122310   4.243   1.138   4.789
 7137SOL    HW222311   4.301   1.005   4.865
 7138SOL     OW22312   2.306   4.016   0.291
 7138SOL    HW122313   2.245   3.995   0.367
 7138SOL    HW222314   2.338   3.930   0.250
 7139SOL     OW22315   3.348   2.064   0.660
 7139SOL    HW122316   3.423   2.104   0.712
 7139SOL    HW222317   3.370   1.970   0.635
 7140SOL     OW22318   6.286   3.608   5.333
 7140SOL    HW122319   6.225   3.536   5.367
 7140SOL    HW222320   6.231   3.678   5.287
 7141SOL     OW22321   2.920   6.694   0.728
 7141SOL    HW122322   2.887   6.618   0.672
 7141SOL    HW222323   2.881   6.780   0.693
 7142SOL     OW22324   3.857   6.444   4.435
 7142SOL    HW122325   3.777   6.401   4.394
 7142SOL    HW222326   3.933   6.380   4.435
 7143SOL     OW22327   1.944   3.767   4.726
 7143SOL    HW122328   1.992   3.683   4.752
 7143SOL    HW222329   1.997   3.846   4.757
 7144SOL     OW22330   0.769   2.634   3.950
 7144SOL    HW122331   0.807   2.552   3.907
 7144SOL    HW222332   0.813   2.649   4.038
 7145SOL     OW22333   4.565   0.246   6.496
 7145SOL    HW122334   4.475   0.210   6.523
 7145SOL    HW222335   4.554   0.341   6.465
 7146SOL     OW22336   2.865   4.316   0.462
 7146SOL    HW122337   2.887   4.367   0.379
 7146SOL    HW222338   2.859   4.218   0.440
 7147SOL     OW22339   0.289   0.187   4.309
 7147SOL    HW122340   0.348   0.197   4.389
 7147SOL    HW222341   0.193   0.200   4.336
 7148SOL     OW22342   0.613   1.515   0.675
 7148SOL    HW122343   0.624   1.416   0.685
 7148SOL    HW222344   0.541   1.534   0.609
 7149SOL     OW22345   6.292   1.260   3.880
 7149SOL    HW122346   6.212   1.297   3.834
 7149SOL    HW222347   6.342   1.334   3.925
 7150SOL     OW22348   5.477   3.541   6.835
 7150SOL    HW122349   5.388   3.585   6.838
 7150SOL    HW222350   5.507   3.519   6.928
 7151SOL     OW22351   2.882   6.075   1.268
 7151SOL    HW122352   2.870   5.998   1.330
 7151SOL    HW222353   2.976   6.077   1.234
 7152SOL     OW22354   1.086   2.675   3.870
 7152SOL    HW122355   1.124   2.626   3.948
 7152SOL    HW222356   1.019   2.616   3.824
 7153SOL     OW22357   3.461   1.654   3.835
 7153SOL    HW122358   3.381   1.714   3.831
 7153SOL    HW222359   3.544   1.709   3.832
 7154SOL     OW22360   4.964   6.205   4.697
 7154SOL    HW122361   5.010   6.238   4.614
 7154SOL    HW222362   4.996   6.113   4.719
 7155SOL     OW22363   2.994   0.480   1.742
 7155SOL    HW122364   2.906   0.439   1.716
 7155SOL    HW222365   2.977   0.557   1.803
 7156SOL     OW22366   0.332   5.797   4.323
 7156SOL    HW122367   0.385   5.725   4.277
 7156SOL    HW222368   0.292   5.858   4.254
 7157SOL     OW22369   5.050   4.269   1.044
 7157SOL    HW122370   5.148   4.270   1.060
 7157SOL    HW222371   5.031   4.238   0.951
 7158SOL     OW22372   5.813   6.582   4.637
 7158SOL    HW122373   5.765   6.658   4.680
 7158SOL    HW222374   5.828   6.603   4.540
 7159SOL     OW22375   0.729   5.705   0.179
 7159SOL    HW122376   0.736   5.804   0.193
 7159SOL    HW222377   0.633   5.677   0.185
 7160SOL     OW22378   5.954   0.639   2.258
 7160SOL    HW122379   5.935   0.584   2.338
 7160SOL    HW222380   5.881   0.707   2.245
 7161SOL     OW22381   4.024   3.835   3.655
 7161SOL    HW122382   4.104   3.868   3.605
 7161SOL    HW222383   3.958   3.910   3.666
 7162SOL     OW22384   2.616   4.766   3.421
 7162SOL    HW122385   2.704   4.752   3.466
 7162SOL    HW222386   2.589   4.862   3.428
 7163SOL     OW22387   2.177   0.029   3.241
 7163SOL    HW122388   2.217   0.032   3.149
 7163SOL    HW222389   2.245   7.021   3.306
 7164SOL     OW22390   2.799   1.836   3.001
 7164SOL    HW122391   2.853   1.891   2.936
 7164SOL    HW222392   2.848   1.751   3.021
 7165SOL     OW22393   4.943   0.377   1.754
 7165SOL    HW122394   4.961   0.475   1.744
 7165SOL    HW222395   4.956   0.332   1.666
 7166SOL     OW22396   4.931   4.987   1.897
 7166SOL    HW122397   5.014   5.039   1.915
 7166SOL    HW222398   4.882   5.026   1.819
 7167SOL     OW22399   4.563   2.900   5.318
 7167SOL    HW122400   4.627   2.966   5.357
 7167SOL    HW222401   4.613   2.834   5.261
 7168SOL     OW22402   1.249   1.070   4.625
 7168SOL    HW122403   1.238   1.094   4.529
 7168SOL    HW222404   1.340   1.098   4.656
 7169SOL     OW22405   1.848   2.684   6.263
 7169SOL    HW122406   1.903   2.686   6.180
 7169SOL    HW222407   1.790   2.766   6.267
 7170SOL     OW22408   6.769   5.056   4.602
 7170SOL    HW122409   6.696   4.991   4.624
 7170SOL    HW222410   6.764   5.082   4.506
 7171SOL     OW22411   3.666   2.861   5.132
 7171SOL    HW122412   3.727   2.802   5.186
 7171SOL    HW222413   3.613   2.919   5.193
 7172SOL     OW22414   1.479   6.753   1.247
 7172SOL    HW122415   1.566   6.719   1.212
 7172SOL    HW222416   1.483   6.759   1.347
 7173SOL     OW22417   5.931   6.148   5.917
 7173SOL    HW122418   5.916   6.211   5.842
 7173SOL    HW222419   5.989   6.072   5.886
 7174SOL     OW22420   0.957   5.535   0.106
 7174SOL    HW122421   0.867   5.572   0.128
 7174SOL    HW222422   0.959   5.437   0.129
 7175SOL     OW22423   6.533   3.362   5.025
 7175SOL    HW122424   6.599   3.425   5.064
 7175SOL    HW222425   6.523   3.283   5.085
 7176SOL     OW22426   6.208   3.973   1.349
 7176SOL    HW122427   6.208   3.972   1.249
 7176SOL    HW222428   6.245   4.060   1.381
 7177SOL     OW22429   0.812   6.388   1.717
 7177SOL    HW122430   0.851   6.472   1.679
 7177SOL    HW222431   0.834   6.383   1.815
 7178SOL     OW22432   7.016   2.851   6.276
 7178SOL    HW122433   0.078   2.879   6.317
 7178SOL    HW222434   0.003   2.840   6.177
 7179SOL     OW22435   2.600   4.555   6.286
 7179SOL    HW122436   2.671   4.510   6.232
 7179SOL    HW222437   2.595   4.513   6.377
 7180SOL     OW22438   0.436   6.641   2.464
 7180SOL    HW122439   0.502   6.692   2.518
 7180SOL    HW222440   0.349   6.690   2.463
 7181SOL     OW22441   4.934   0.554   2.402
 7181SOL    HW122442   4.923   0.569   2.304
 7181SOL    HW222443   4.869   0.611   2.452
 7182SOL     OW22444   2.838   3.673   5.481
 7182SOL    HW122445   2.910   3.647   5.417
 7182SOL    HW222446   2.749   3.656   5.440
 7183SOL     OW22447   1.078   5.539   2.902
 7183SOL    HW122448   0.984   5.519   2.874
 7183SOL    HW222449   1.086   5.635   2.929
 7184SOL     OW22450   1.731   6.836   3.442
 7184SOL    HW122451   1.828   6.832   3.416
 7184SOL    HW222452   1.717   6.785   3.527
 7185SOL     OW22453   3.870   2.211   6.433
 7185SOL    HW122454   3.821   2.219   6.520
 7185SOL    HW222455   3.851   2.122   6.393
 7186SOL     OW22456   0.488   6.879   4.455
 7186SOL    HW122457   0.496   6.964   4.508
 7186SOL    HW222458   0.567   6.821   4.475
 7187SOL     OW22459   2.073   4.885   1.331
 7187SOL    HW122460   2.089   4.792   1.297
 7187SOL    HW222461   1.996   4.883   1.396
 7188SOL     OW22462   5.370   0.870   1.795
 7188SOL    HW122463   5.388   0.797   1.729
 7188SOL    HW222464   5.334   0.951   1.748
 7189SOL     OW22465   6.397   0.769   4.924
 7189SOL    HW122466   6.303   0.749   4.896
 7189SOL    HW222467   6.440   0.826   4.855
 7190SOL     OW22468   4.900   4.898   3.784
 7190SOL    HW122469   4.974   4.915   3.719
 7190SOL    HW222470   4.871   4.802   3.776
 7191SOL     OW22471   1.340   3.197   2.307
 7191SOL    HW122472   1.306   3.133   2.376
 7191SOL    HW222473   1.341   3.152   2.217
 7192SOL     OW22474   3.858   5.191   5.709
 7192SOL    HW122475   3.761   5.167   5.712
 7192SOL    HW222476   3.868   5.282   5.669
 7193SOL     OW22477   4.798   1.260   2.997
 7193SOL    HW122478   4.892   1.264   2.964
 7193SOL    HW222479   4.795   1.288   3.093
 7194SOL     OW22480   3.029   1.637   1.332
 7194SOL    HW122481   3.019   1.595   1.422
 7194SOL    HW222482   2.954   1.702   1.318
 7195SOL     OW22483   0.796   5.195   1.923
 7195SOL    HW122484   0.881   5.188   1.976
 7195SOL    HW222485   0.802   5.273   1.861
 7196SOL     OW22486   3.999   3.037   1.752
 7196SOL    HW122487   4.033   3.119   1.706
 7196SOL    HW222488   4.044   2.956   1.713
 7197SOL     OW22489   1.563   1.601   5.572
 7197SOL    HW122490   1.536   1.640   5.660
 7197SOL    HW222491   1.615   1.517   5.587
 7198SOL     OW22492   0.984   5.702   6.608
 7198SOL    HW122493   1.002   5.657   6.521
 7198SOL    HW222494   1.071   5.727   6.652
 7199SOL     OW22495   6.363   6.848   2.767
 7199SOL    HW122496   6.452   6.891   2.756
 7199SOL    HW222497   6.295   6.897   2.712
 7200SOL     OW22498   2.226   1.797   1.128
 7200SOL    HW122499   2.285   1.719   1.149
 7200SOL    HW222500   2.268   1.851   1.054
 7201SOL     OW22501   2.328   4.648   3.525
 7201SOL    HW122502   2.285   4.570   3.478
 7201SOL    HW222503   2.411   4.674   3.477
 7202SOL     OW22504   3.887   0.567   6.533
 7202SOL    HW122505   3.916   0.517   6.452
 7202SOL    HW222506   3.876   0.664   6.510
 7203SOL     OW22507   6.102   0.683   6.676
 7203SOL    HW122508   6.171   0.663   6.746
 7203SOL    HW222509   6.086   0.782   6.673
 7204SOL     OW22510   5.925   1.243   2.390
 7204SOL    HW122511   6.020   1.270   2.405
 7204SOL    HW222512   5.903   1.249   2.293
 7205SOL     OW22513   1.890   4.597   2.209
 7205SOL    HW122514   1.900   4.695   2.227
 7205SOL    HW222515   1.804   4.565   2.249
 7206SOL     OW22516   5.915   1.415   1.864
 7206SOL    HW122517   5.828   1.444   1.827
 7206SOL    HW222518   5.921   1.441   1.961
 7207SOL     OW22519   4.202   0.148   1.570
 7207SOL    HW122520   4.216   0.209   1.649
 7207SOL    HW222521   4.259   0.178   1.494
 7208SOL     OW22522   2.859   0.046   4.924
 7208SOL    HW122523   2.957   0.024   4.931
 7208SOL    HW222524   2.847   0.125   4.864
 7209SOL     OW22525   4.063   3.503   4.853
 7209SOL    HW122526   3.996   3.479   4.783
 7209SOL    HW222527   4.141   3.550   4.811
 7210SOL     OW22528   4.027   0.567   4.502
 7210SOL    HW122529   4.012   0.629   4.425
 7210SOL    HW222530   3.947   0.509   4.514
 7211SOL     OW22531   1.690   5.412   2.740
 7211SOL    HW122532   1.599   5.444   2.767
 7211SOL    HW222533   1.727   5.471   2.668
 7212SOL     OW22534   5.253   6.826   4.202
 7212SOL    HW122535   5.155   6.816   4.182
 7212SOL    HW222536   5.264   6.875   4.288
 7213SOL     OW22537   5.249   0.528   5.399
 7213SOL    HW122538   5.340   0.547   5.438
 7213SOL    HW222539   5.235   0.429   5.395
 7214SOL     OW22540   0.895   4.734   4.858
 7214SOL    HW122541   0.932   4.673   4.787
 7214SOL    HW222542   0.796   4.742   4.847
 7215SOL     OW22543   0.895   3.490   3.025
 7215SOL    HW122544   0.866   3.576   2.982
 7215SOL    HW222545   0.987   3.501   3.061
 7216SOL     OW22546   2.083   1.213   1.247
 7216SOL    HW122547   1.989   1.180   1.234
 7216SOL    HW222548   2.083   1.285   1.317
 7217SOL     OW22549   0.852   3.065   2.499
 7217SOL    HW122550   0.864   2.975   2.458
 7217SOL    HW222551   0.769   3.065   2.555
 7218SOL     OW22552   5.900   2.525   5.633
 7218SOL    HW122553   5.988   2.571   5.619
 7218SOL    HW222554   5.859   2.558   5.718
 7219SOL     OW22555   3.865   1.173   1.529
 7219SOL    HW122556   3.765   1.184   1.529
 7219SOL    HW222557   3.887   1.076   1.520
 7220SOL     OW22558   0.010   0.692   2.693
 7220SOL    HW122559   7.013   0.599   2.721
 7220SOL    HW222560   0.027   0.694   2.594
 7221SOL     OW22561   5.756   5.192   5.257
 7221SOL    HW122562   5.752   5.191   5.357
 7221SOL    HW222563   5.727   5.103   5.222
 7222SOL     OW22564   6.305   6.601   2.841
 7222SOL    HW122565   6.322   6.674   2.776
 7222SOL    HW222566   6.310   6.637   2.934
 7223SOL     OW22567   3.791   0.453   5.084
 7223SOL    HW122568   3.758   0.416   4.997
 7223SOL    HW222569   3.890   0.466   5.078
 7224SOL     OW22570   4.496   0.138   4.415
 7224SOL    HW122571   4.466   0.043   4.401
 7224SOL    HW222572   4.578   0.155   4.361
 7225SOL     OW22573   2.131   6.501   0.059
 7225SOL    HW122574   2.120   6.596   0.088
 7225SOL    HW222575   2.042   6.463   0.034
 7226SOL     OW22576   6.258   6.946   0.341
 7226SOL    HW122577   6.182   6.954   0.276
 7226SOL    HW222578   6.342   6.924   0.291
 7227SOL     OW22579   6.614   2.950   6.085
 7227SOL    HW122580   6.607   2.902   5.997
 7227SOL    HW222581   6.672   2.896   6.147
 7228SOL     OW22582   1.853   0.995   2.784
 7228SOL    HW122583   1.829   1.091   2.799
 7228SOL    HW222584   1.770   0.939   2.782
 7229SOL     OW22585   0.531   0.569   4.089
 7229SOL    HW122586   0.585   0.653   4.086
 7229SOL    HW222587   0.584   0.498   4.136
 7230SOL     OW22588   5.735   4.472   2.983
 7230SOL    HW122589   5.688   4.391   2.949
 7230SOL    HW222590   5.832   4.468   2.957
 7231SOL     OW22591   5.807   1.276   6.474
 7231SOL    HW122592   5.815   1.362   6.525
 7231SOL    HW222593   5.713   1.244   6.479
 7232SOL     OW22594   3.590   4.642   0.988
 7232SOL    HW122595   3.627   4.710   0.924
 7232SOL    HW222596   3.638   4.648   1.075
 7233SOL     OW22597   0.357   2.153   5.956
 7233SOL    HW122598   0.414   2.090   6.008
 7233SOL    HW222599   0.310   2.104   5.882
 7234SOL     OW22600   5.618   2.121   2.484
 7234SOL    HW122601   5.710   2.149   2.456
 7234SOL    HW222602   5.551   2.188   2.453
 7235SOL     OW22603   6.455   2.948   4.812
 7235SOL    HW122604   6.504   3.011   4.751
 7235SOL    HW222605   6.374   2.994   4.849
 7236SOL     OW22606   3.210   0.989   2.954
 7236SOL    HW122607   3.203   0.901   3.001
 7236SOL    HW222608   3.242   1.059   3.018
 7237SOL     OW22609   6.452   5.567   6.088
 7237SOL    HW122610   6.512   5.492   6.061
 7237SOL    HW222611   6.367   5.530   6.128
 7238SOL     OW22612   0.918   1.215   1.723
 7238SOL    HW122613   0.953   1.128   1.689
 7238SOL    HW222614   0.974   1.290   1.686
 7239SOL     OW22615   4.613   1.213   2.149
 7239SOL    HW122616   4.689   1.174   2.202
 7239SOL    HW222617   4.527   1.199   2.198
 7240SOL     OW22618   3.110   3.683   0.757
 7240SOL    HW122619   3.090   3.711   0.663
 7240SOL    HW222620   3.151   3.760   0.807
 7241SOL     OW22621   4.046   0.157   5.070
 7241SOL    HW122622   4.058   0.238   5.127
 7241SOL    HW222623   3.966   0.106   5.101
 7242SOL     OW22624   4.514   4.930   0.600
 7242SOL    HW122625   4.421   4.901   0.576
 7242SOL    HW222626   4.579   4.890   0.535
 7243SOL     OW22627   0.217   5.964   0.386
 7243SOL    HW122628   0.123   5.981   0.354
 7243SOL    HW222629   0.217   5.952   0.485
 7244SOL     OW22630   5.479   1.534   0.947
 7244SOL    HW122631   5.380   1.531   0.941
 7244SOL    HW222632   5.510   1.629   0.947
 7245SOL     OW22633   6.511   1.910   4.587
 7245SOL    HW122634   6.539   1.816   4.608
 7245SOL    HW222635   6.504   1.963   4.672
 7246SOL     OW22636   1.026   5.775   5.364
 7246SOL    HW122637   0.948   5.831   5.334
 7246SOL    HW222638   1.013   5.681   5.335
 7247SOL     OW22639   3.355   5.803   2.522
 7247SOL    HW122640   3.421   5.767   2.455
 7247SOL    HW222641   3.336   5.733   2.590
 7248SOL     OW22642   3.214   0.772   4.678
 7248SOL    HW122643   3.196   0.866   4.649
 7248SOL    HW222644   3.225   0.713   4.598
 7249SOL     OW22645   6.029   4.807   6.535
 7249SOL    HW122646   5.959   4.864   6.579
 7249SOL    HW222647   6.069   4.857   6.459
 7250SOL     OW22648   3.071   4.369   6.636
 7250SOL    HW122649   3.012   4.411   6.567
 7250SOL    HW222650   3.136   4.437   6.670
 7251SOL     OW22651   5.483   0.292   5.398
 7251SOL    HW122652   5.405   0.300   5.459
 7251SOL    HW222653   5.502   0.195   5.381
 7252SOL     OW22654   4.420   3.683   5.315
 7252SOL    HW122655   4.509   3.666   5.273
 7252SOL    HW222656   4.430   3.696   5.413
 7253SOL     OW22657   5.219   5.267   0.904
 7253SOL    HW122658   5.280   5.311   0.838
 7253SOL    HW222659   5.129   5.255   0.862
 7254SOL     OW22660   4.962   6.702   5.407
 7254SOL    HW122661   4.931   6.635   5.339
 7254SOL    HW222662   5.057   6.682   5.432
 7255SOL     OW22663   3.736   3.858   2.034
 7255SOL    HW122664   3.699   3.865   1.941
 7255SOL    HW222665   3.828   3.898   2.037
 7256SOL     OW22666   4.734   4.991   3.974
 7256SOL    HW122667   4.679   5.043   3.908
 7256SOL    HW222668   4.801   4.935   3.925
 7257SOL     OW22669   6.268   3.860   3.210
 7257SOL    HW122670   6.290   3.874   3.306
 7257SOL    HW222671   6.336   3.798   3.169
 7258SOL     OW22672   3.082   6.640   5.460
 7258SOL    HW122673   3.082   6.595   5.549
 7258SOL    HW222674   3.042   6.731   5.469
 7259SOL     OW22675   1.659   5.715   5.978
 7259SOL    HW122676   1.740   5.755   6.022
 7259SOL    HW222677   1.587   5.783   5.972
 7260SOL     OW22678   4.405   2.002   2.085
 7260SOL    HW122679   4.433   2.083   2.137
 7260SOL    HW222680   4.351   1.943   2.144
 7261SOL     OW22681   1.274   4.351   1.600
 7261SOL    HW122682   1.299   4.263   1.639
 7261SOL    HW222683   1.275   4.344   1.500
 7262SOL     OW22684   6.244   1.590   6.069
 7262SOL    HW122685   6.170   1.627   6.126
 7262SOL    HW222686   6.332   1.616   6.108
 7263SOL     OW22687   5.052   6.321   1.946
 7263SOL    HW122688   5.018   6.378   1.872
 7263SOL    HW222689   5.113   6.376   2.004
 7264SOL     OW22690   1.165   6.748   4.494
 7264SOL    HW122691   1.203   6.798   4.416
 7264SOL    HW222692   1.217   6.663   4.507
 7265SOL     OW22693   4.239   3.746   6.077
 7265SOL    HW122694   4.190   3.706   6.154
 7265SOL    HW222695   4.253   3.844   6.094
 7266SOL     OW22696   4.775   1.261   1.551
 7266SOL    HW122697   4.770   1.360   1.546
 7266SOL    HW222698   4.846   1.234   1.616
 7267SOL     OW22699   6.978   2.886   4.374
 7267SOL    HW122700   6.935   2.926   4.293
 7267SOL    HW222701   6.907   2.860   4.439
 7268SOL     OW22702   3.320   6.992   0.618
 7268SOL    HW122703   3.340   0.036   0.688
 7268SOL    HW222704   3.228   6.956   0.631
 7269SOL     OW22705   1.207   6.806   1.970
 7269SOL    HW122706   1.245   6.834   1.882
 7269SOL    HW222707   1.277   6.817   2.042
 7270SOL     OW22708   3.095   1.805   2.482
 7270SOL    HW122709   3.142   1.890   2.459
 7270SOL    HW222710   3.143   1.761   2.559
 7271SOL     OW22711   6.020   4.949   4.502
 7271SOL    HW122712   5.992   4.921   4.410
 7271SOL    HW222713   6.070   5.035   4.498
 7272SOL     OW22714   6.156   1.442   1.127
 7272SOL    HW122715   6.185   1.506   1.056
 7272SOL    HW222716   6.160   1.486   1.216
 7273SOL     OW22717   5.780   6.365   6.013
 7273SOL    HW122718   5.813   6.424   6.087
 7273SOL    HW222719   5.857   6.313   5.976
 7274SOL     OW22720   0.114   4.530   4.457
 7274SOL    HW122721   0.200   4.532   4.508
 7274SOL    HW222722   0.121   4.464   4.382
 7275SOL     OW22723   5.253   6.196   1.289
 7275SOL    HW122724   5.220   6.270   1.231
 7275SOL    HW222725   5.235   6.216   1.385
 7276SOL     OW22726   2.987   1.942   4.150
 7276SOL    HW122727   3.066   2.002   4.155
 7276SOL    HW222728   3.008   1.854   4.192
 7277SOL     OW22729   5.282   1.463   3.892
 7277SOL    HW122730   5.225   1.537   3.855
 7277SOL    HW222731   5.330   1.418   3.817
 7278SOL     OW22732   2.589   1.829   3.324
 7278SOL    HW122733   2.533   1.816   3.243
 7278SOL    HW222734   2.535   1.876   3.394
 7279SOL     OW22735   4.104   4.137   1.188
 7279SOL    HW122736   4.057   4.216   1.148
 7279SOL    HW222737   4.144   4.081   1.116
 7280SOL     OW22738   6.820   2.064   5.788
 7280SOL    HW122739   6.853   1.994   5.725
 7280SOL    HW222740   6.810   2.024   5.880
 7281SOL     OW22741   3.733   5.774   2.231
 7281SOL    HW122742   3.680   5.786   2.148
 7281SOL    HW222743   3.689   5.823   2.306
 7282SOL     OW22744   6.629   3.918   2.089
 7282SOL    HW122745   6.666   3.904   2.181
 7282SOL    HW222746   6.634   4.015   2.066
 7283SOL     OW22747   4.329   5.124   3.384
 7283SOL    HW122748   4.306   5.028   3.371
 7283SOL    HW222749   4.248   5.180   3.371
 7284SOL     OW22750   0.849   1.485   2.303
 7284SOL    HW122751   0.863   1.386   2.296
 7284SOL    HW222752   0.771   1.511   2.245
 7285SOL     OW22753   4.733   3.270   1.681
 7285SOL    HW122754   4.721   3.201   1.753
 7285SOL    HW222755   4.687   3.240   1.598
 7286SOL     OW22756   6.483   1.473   3.719
 7286SOL    HW122757   6.472   1.412   3.640
 7286SOL    HW222758   6.509   1.564   3.687
 7287SOL     OW22759   3.286   1.153   3.148
 7287SOL    HW122760   3.340   1.129   3.229
 7287SOL    HW222761   3.331   1.229   3.100
 7288SOL     OW22762   2.801   1.474   1.863
 7288SOL    HW122763   2.737   1.551   1.867
 7288SOL    HW222764   2.891   1.505   1.894
 7289SOL     OW22765   6.610   2.249   1.570
 7289SOL    HW122766   6.629   2.344   1.597
 7289SOL    HW222767   6.512   2.232   1.577
 7290SOL     OW22768   4.061   1.483   4.775
 7290SOL    HW122769   3.971   1.527   4.778
 7290SOL    HW222770   4.110   1.501   4.861
 7291SOL     OW22771   2.294   1.041   0.545
 7291SOL    HW122772   2.307   1.137   0.519
 7291SOL    HW222773   2.372   0.988   0.513
 7292SOL     OW22774   2.407   0.674   2.633
 7292SOL    HW122775   2.316   0.713   2.649
 7292SOL    HW222776   2.409   0.630   2.543
 7293SOL     OW22777   6.287   1.442   4.267
 7293SOL    HW122778   6.278   1.342   4.271
 7293SOL    HW222779   6.328   1.468   4.180
 7294SOL     OW22780   3.425   6.337   2.350
 7294SOL    HW122781   3.407   6.353   2.447
 7294SOL    HW222782   3.470   6.248   2.338
 7295SOL     OW22783   5.389   4.382   1.268
 7295SOL    HW122784   5.389   4.322   1.188
 7295SOL    HW222785   5.412   4.330   1.350
 7296SOL     OW22786   4.092   5.672   2.096
 7296SOL    HW122787   4.135   5.584   2.078
 7296SOL    HW222788   4.074   5.681   2.194
 7297SOL     OW22789   4.239   6.984   0.779
 7297SOL    HW122790   4.182   6.909   0.747
 7297SOL    HW222791   4.311   6.948   0.838
 7298SOL     OW22792   4.291   5.342   0.638
 7298SOL    HW122793   4.193   5.340   0.660
 7298SOL    HW222794   4.341   5.383   0.714
 7299SOL     OW22795   1.024   2.893   5.688
 7299SOL    HW122796   1.061   2.949   5.614
 7299SOL    HW222797   0.983   2.951   5.758
 7300SOL     OW22798   0.541   5.533   2.383
 7300SOL    HW122799   0.565   5.487   2.298
 7300SOL    HW222800   0.532   5.632   2.367
 7301SOL     OW22801   4.113   2.291   6.180
 7301SOL    HW122802   4.029   2.327   6.140
 7301SOL    HW222803   4.192   2.334   6.136
 7302SOL     OW22804   5.839   2.143   6.274
 7302SOL    HW122805   5.796   2.168   6.361
 7302SOL    HW222806   5.840   2.043   6.265
 7303SOL     OW22807   3.012   1.818   1.671
 7303SOL    HW122808   2.913   1.812   1.677
 7303SOL    HW222809   3.046   1.884   1.738
 7304SOL     OW22810   2.442   5.110   0.732
 7304SOL    HW122811   2.389   5.028   0.754
 7304SOL    HW222812   2.491   5.141   0.814
 7305SOL     OW22813   6.130   0.954   6.982
 7305SOL    HW122814   6.065   0.996   0.020
 7305SOL    HW222815   6.167   1.024   6.920
 7306SOL     OW22816   1.247   3.167   1.403
 7306SOL    HW122817   1.159   3.176   1.449
 7306SOL    HW222818   1.269   3.071   1.388
 7307SOL     OW22819   1.998   0.298   1.516
 7307SOL    HW122820   1.999   0.282   1.615
 7307SOL    HW222821   1.976   0.394   1.498
 7308SOL     OW22822   3.684   1.464   2.713
 7308SOL    HW122823   3.633   1.549   2.727
 7308SOL    HW222824   3.651   1.419   2.630
 7309SOL     OW22825   1.611   5.436   3.698
 7309SOL    HW122826   1.640   5.364   3.636
 7309SOL    HW222827   1.689   5.466   3.753
 7310SOL     OW22828   2.782   2.480   6.388
 7310SOL    HW122829   2.708   2.442   6.331
 7310SOL    HW222830   2.771   2.579   6.395
 7311SOL     OW22831   0.278   5.909   5.797
 7311SOL    HW122832   0.361   5.890   5.745
 7311SOL    HW222833   0.294   5.889   5.894
 7312SOL     OW22834   6.126   2.053   3.998
 7312SOL    HW122835   6.199   2.074   4.063
 7312SOL    HW222836   6.038   2.072   4.040
 7313SOL     OW22837   2.632   0.662   2.788
 7313SOL    HW122838   2.641   0.760   2.802
 7313SOL    HW222839   2.546   0.642   2.741
 7314SOL     OW22840   1.531   4.574   5.578
 7314SOL    HW122841   1.521   4.477   5.556
 7314SOL    HW222842   1.500   4.590   5.672
 7315SOL     OW22843   2.528   5.108   2.371
 7315SOL    HW122844   2.445   5.056   2.395
 7315SOL    HW222845   2.604   5.075   2.427
 7316SOL     OW22846   3.992   1.368   1.308
 7316SOL    HW122847   3.953   1.401   1.394
 7316SOL    HW222848   4.019   1.273   1.318
 7317SOL     OW22849   4.209   2.226   0.096
 7317SOL    HW122850   4.188   2.209   7.024
 7317SOL    HW222851   4.236   2.322   0.108
 7318SOL     OW22852   5.031   6.742   0.613
 7318SOL    HW122853   4.997   6.777   0.700
 7318SOL    HW222854   4.982   6.786   0.538
 7319SOL     OW22855   5.856   6.736   6.915
 7319SOL    HW122856   5.787   6.771   6.977
 7319SOL    HW222857   5.924   6.807   6.897
 7320SOL     OW22858   0.698   2.867   0.684
 7320SOL    HW122859   0.669   2.774   0.662
 7320SOL    HW222860   0.798   2.872   0.684
 7321SOL     OW22861   2.320   1.856   0.110
 7321SOL    HW122862   2.403   1.826   0.157
 7321SOL    HW222863   2.342   1.880   0.016
 7322SOL     OW22864   1.024   3.247   3.310
 7322SOL    HW122865   0.978   3.241   3.398
 7322SOL    HW222866   1.006   3.337   3.269
 7323SOL     OW22867   1.552   2.589   0.390
 7323SOL    HW122868   1.574   2.554   0.481
 7323SOL    HW222869   1.510   2.679   0.398
 7324SOL     OW22870   4.878   3.823   3.275
 7324SOL    HW122871   4.837   3.906   3.312
 7324SOL    HW222872   4.889   3.755   3.347
 7325SOL     OW22873   4.073   1.100   6.074
 7325SOL    HW122874   4.100   1.174   6.013
 7325SOL    HW222875   4.111   1.014   6.041
 7326SOL     OW22876   3.643   0.199   0.488
 7326SOL    HW122877   3.650   0.260   0.566
 7326SOL    HW222878   3.551   0.206   0.448
 7327SOL     OW22879   1.645   4.401   3.414
 7327SOL    HW122880   1.580   4.342   3.367
 7327SOL    HW222881   1.629   4.496   3.389
 7328SOL     OW22882   4.710   5.161   5.606
 7328SOL    HW122883   4.687   5.069   5.639
 7328SOL    HW222884   4.711   5.225   5.682
 7329SOL     OW22885   2.769   3.348   0.379
 7329SOL    HW122886   2.846   3.341   0.442
 7329SOL    HW222887   2.799   3.322   0.287
 7330SOL     OW22888   2.081   3.009   1.078
 7330SOL    HW122889   2.118   2.933   1.131
 7330SOL    HW222890   2.039   2.974   0.994
 7331SOL     OW22891   5.445   2.324   2.463
 7331SOL    HW122892   5.481   2.388   2.530
 7331SOL    HW222893   5.467   2.357   2.371
 7332SOL     OW22894   3.139   6.488   6.117
 7332SOL    HW122895   3.179   6.528   6.200
 7332SOL    HW222896   3.178   6.397   6.103
 7333SOL     OW22897   0.552   0.985   1.535
 7333SOL    HW122898   0.566   0.932   1.451
 7333SOL    HW222899   0.454   1.001   1.548
 7334SOL     OW22900   1.467   5.143   4.046
 7334SOL    HW122901   1.480   5.053   4.086
 7334SOL    HW222902   1.434   5.206   4.116
 7335SOL     OW22903   6.937   3.644   2.142
 7335SOL    HW122904   6.852   3.630   2.192
 7335SOL    HW222905   6.922   3.713   2.070
 7336SOL     OW22906   2.413   6.579   1.381
 7336SOL    HW122907   2.493   6.571   1.322
 7336SOL    HW222908   2.429   6.649   1.450
 7337SOL     OW22909   3.216   0.958   3.496
 7337SOL    HW122910   3.283   1.031   3.480
 7337SOL    HW222911   3.171   0.934   3.410
 7338SOL     OW22912   5.335   4.222   1.021
 7338SOL    HW122913   5.405   4.269   0.966
 7338SOL    HW222914   5.358   4.125   1.029
 7339SOL     OW22915   6.946   6.296   5.058
 7339SOL    HW122916   6.871   6.333   5.004
 7339SOL    HW222917   6.944   6.196   5.054
 7340SOL     OW22918   3.365   6.070   0.844
 7340SOL    HW122919   3.283   6.078   0.900
 7340SOL    HW222920   3.341   6.075   0.747
 7341SOL     OW22921   6.856   6.039   5.052
 7341SOL    HW122922   6.787   6.027   4.980
 7341SOL    HW222923   6.867   5.954   5.103
 7342SOL     OW22924   1.381   5.201   1.252
 7342SOL    HW122925   1.339   5.292   1.244
 7342SOL    HW222926   1.478   5.207   1.231
 7343SOL     OW22927   5.435   2.469   3.286
 7343SOL    HW122928   5.497   2.391   3.288
 7343SOL    HW222929   5.346   2.440   3.251
 7344SOL     OW22930   2.557   0.905   0.094
 7344SOL    HW122931   2.610   0.820   0.091
 7344SOL    HW222932   2.513   0.919   0.006
 7345SOL     OW22933   2.882   6.189   0.262
 7345SOL    HW122934   2.887   6.289   0.264
 7345SOL    HW222935   2.951   6.150   0.323
 7346SOL     OW22936   3.950   4.961   1.764
 7346SOL    HW122937   3.873   4.928   1.710
 7346SOL    HW222938   3.971   4.896   1.837
 7347SOL     OW22939   6.671   3.034   2.146
 7347SOL    HW122940   6.690   3.045   2.244
 7347SOL    HW222941   6.685   2.938   2.120
 7348SOL     OW22942   0.543   1.610   4.857
 7348SOL    HW122943   0.504   1.603   4.765
 7348SOL    HW222944   0.505   1.690   4.903
 7349SOL     OW22945   3.415   1.235   0.659
 7349SOL    HW122946   3.324   1.232   0.702
 7349SOL    HW222947   3.457   1.324   0.678
 7350SOL     OW22948   2.150   1.404   2.900
 7350SOL    HW122949   2.210   1.465   2.951
 7350SOL    HW222950   2.064   1.450   2.881
 7351SOL     OW22951   4.479   5.019   0.219
 7351SOL    HW122952   4.489   5.108   0.264
 7351SOL    HW222953   4.534   5.017   0.136
 7352SOL     OW22954   6.172   0.679   3.429
 7352SOL    HW122955   6.134   0.644   3.343
 7352SOL    HW222956   6.260   0.723   3.411
 7353SOL     OW22957   5.054   2.224   4.629
 7353SOL    HW122958   4.982   2.258   4.568
 7353SOL    HW222959   5.134   2.197   4.574
 7354SOL     OW22960   6.872   4.156   5.126
 7354SOL    HW122961   6.954   4.100   5.113
 7354SOL    HW222962   6.791   4.096   5.131
 7355SOL     OW22963   1.075   5.254   1.269
 7355SOL    HW122964   1.018   5.217   1.343
 7355SOL    HW222965   1.116   5.178   1.218
 7356SOL     OW22966   0.093   2.002   6.010
 7356SOL    HW122967   0.169   1.949   5.972
 7356SOL    HW222968   0.049   1.948   6.082
 7357SOL     OW22969   0.837   1.584   0.534
 7357SOL    HW122970   0.918   1.594   0.592
 7357SOL    HW222971   0.755   1.579   0.592
 7358SOL     OW22972   3.281   0.477   3.737
 7358SOL    HW122973   3.239   0.563   3.711
 7358SOL    HW222974   3.210   0.412   3.764
 7359SOL     OW22975   3.239   3.414   3.050
 7359SOL    HW122976   3.192   3.331   3.079
 7359SOL    HW222977   3.222   3.487   3.116
 7360SOL     OW22978   0.360   3.613   5.778
 7360SOL    HW122979   0.432   3.568   5.831
 7360SOL    HW222980   0.400   3.654   5.696
 7361SOL     OW22981   4.839   6.280   1.511
 7361SOL    HW122982   4.832   6.364   1.565
 7361SOL    HW222983   4.862   6.204   1.570
 7362SOL     OW22984   1.685   6.615   6.430
 7362SOL    HW122985   1.768   6.567   6.403
 7362SOL    HW222986   1.661   6.590   6.524
 7363SOL     OW22987   5.207   3.092   6.339
 7363SOL    HW122988   5.273   3.042   6.282
 7363SOL    HW222989   5.245   3.104   6.431
 7364SOL     OW22990   5.446   0.669   1.630
 7364SOL    HW122991   5.533   0.620   1.631
 7364SOL    HW222992   5.371   0.604   1.644
 7365SOL     OW22993   3.601   0.559   2.034
 7365SOL    HW122994   3.514   0.535   2.076
 7365SOL    HW222995   3.660   0.604   2.102
 7366SOL     OW22996   1.003   5.514   6.855
 7366SOL    HW122997   0.982   5.557   6.943
 7366SOL    HW222998   0.972   5.574   6.781
 7367SOL     OW22999   4.622   3.231   0.074
 7367SOL    HW123000   4.626   3.148   0.018
 7367SOL    HW223001   4.714   3.257   0.102
 7368SOL     OW23002   2.912   3.656   3.365
 7368SOL    HW123003   2.893   3.702   3.278
 7368SOL    HW223004   2.957   3.719   3.427
 7369SOL     OW23005   5.157   2.160   6.327
 7369SOL    HW123006   5.101   2.238   6.301
 7369SOL    HW223007   5.194   2.175   6.419
 7370SOL     OW23008   1.786   5.605   1.118
 7370SOL    HW123009   1.717   5.606   1.046
 7370SOL    HW223010   1.750   5.556   1.198
 7371SOL     OW23011   2.367   5.217   3.818
 7371SOL    HW123012   2.411   5.130   3.843
 7371SOL    HW223013   2.291   5.235   3.880
 7372SOL     OW23014   2.990   5.994   5.915
 7372SOL    HW123015   3.022   6.058   5.846
 7372SOL    HW223016   2.896   5.966   5.892
 7373SOL     OW23017   3.917   0.307   2.072
 7373SOL    HW123018   3.878   0.364   2.144
 7373SOL    HW223019   3.977   0.363   2.015
 7374SOL     OW23020   2.165   3.521   6.735
 7374SOL    HW123021   2.079   3.476   6.760
 7374SOL    HW223022   2.231   3.452   6.705
 7375SOL     OW23023   1.727   6.708   3.151
 7375SOL    HW123024   1.729   6.625   3.206
 7375SOL    HW223025   1.811   6.760   3.166
 7376SOL     OW23026   2.932   4.187   5.753
 7376SOL    HW123027   2.985   4.233   5.824
 7376SOL    HW223028   2.993   4.132   5.696
 7377SOL     OW23029   5.093   5.145   2.079
 7377SOL    HW123030   4.999   5.172   2.100
 7377SOL    HW223031   5.156   5.188   2.143
 7378SOL     OW23032   6.825   2.589   5.893
 7378SOL    HW123033   6.853   2.631   5.807
 7378SOL    HW223034   6.906   2.563   5.946
 7379SOL     OW23035   4.249   1.189   0.921
 7379SOL    HW123036   4.289   1.246   0.849
 7379SOL    HW223037   4.235   1.244   1.004
 7380SOL     OW23038   6.403   2.376   5.147
 7380SOL    HW123039   6.363   2.467   5.135
 7380SOL    HW223040   6.374   2.338   5.235
 7381SOL     OW23041   5.262   2.233   6.810
 7381SOL    HW123042   5.192   2.163   6.796
 7381SOL    HW223043   5.228   2.299   6.878
 7382SOL     OW23044   6.933   5.907   3.650
 7382SOL    HW123045   6.845   5.912   3.604
 7382SOL    HW223046   6.963   5.999   3.677
 7383SOL     OW23047   6.716   5.592   3.572
 7383SOL    HW123048   6.761   5.613   3.658
 7383SOL    HW223049   6.781   5.601   3.497
 7384SOL     OW23050   6.192   1.611   1.841
 7384SOL    HW123051   6.288   1.593   1.817
 7384SOL    HW223052   6.175   1.578   1.934
 7385SOL     OW23053   5.368   0.305   1.519
 7385SOL    HW123054   5.373   0.296   1.618
 7385SOL    HW223055   5.425   0.235   1.476
 7386SOL     OW23056   0.129   2.828   6.043
 7386SOL    HW123057   0.143   2.735   6.079
 7386SOL    HW223058   0.214   2.862   6.004
 7387SOL     OW23059   4.580   5.770   4.052
 7387SOL    HW123060   4.574   5.681   4.006
 7387SOL    HW223061   4.667   5.777   4.100
 7388SOL     OW23062   5.710   4.271   4.627
 7388SOL    HW123063   5.724   4.349   4.566
 7388SOL    HW223064   5.738   4.187   4.581
 7389SOL     OW23065   0.802   4.413   4.481
 7389SOL    HW123066   0.872   4.352   4.443
 7389SOL    HW223067   0.737   4.360   4.535
 7390SOL     OW23068   2.514   0.392   6.125
 7390SOL    HW123069   2.513   0.450   6.206
 7390SOL    HW223070   2.564   0.308   6.145
 7391SOL     OW23071   6.977   4.296   0.042
 7391SOL    HW123072   7.004   4.285   0.138
 7391SOL    HW223073   0.031   4.276   7.008
 7392SOL     OW23074   2.383   4.723   3.106
 7392SOL    HW123075   2.355   4.706   3.011
 7392SOL    HW223076   2.474   4.683   3.121
 7393SOL     OW23077   0.514   3.489   0.238
 7393SOL    HW123078   0.605   3.512   0.273
 7393SOL    HW223079   0.507   3.391   0.224
 7394SOL     OW23080   3.052   3.185   6.460
 7394SOL    HW123081   3.088   3.220   6.546
 7394SOL    HW223082   3.033   3.262   6.398
 7395SOL     OW23083   1.528   6.334   0.352
 7395SOL    HW123084   1.522   6.402   0.425
 7395SOL    HW223085   1.615   6.285   0.361
 7396SOL     OW23086   0.532   6.923   1.519
 7396SOL    HW123087   0.432   6.918   1.520
 7396SOL    HW223088   0.569   6.831   1.534
 7397SOL     OW23089   5.803   4.481   4.425
 7397SOL    HW123090   5.815   4.420   4.346
 7397SOL    HW223091   5.725   4.542   4.408
 7398SOL     OW23092   4.060   6.104   3.158
 7398SOL    HW123093   3.964   6.119   3.181
 7398SOL    HW223094   4.067   6.081   3.061
 7399SOL     OW23095   5.285   4.431   4.922
 7399SOL    HW123096   5.365   4.490   4.933
 7399SOL    HW223097   5.268   4.382   5.007
 7400SOL     OW23098   2.064   5.146   6.684
 7400SOL    HW123099   2.162   5.127   6.676
 7400SOL    HW223100   2.021   5.140   6.594
 7401SOL     OW23101   5.550   1.746   4.883
 7401SOL    HW123102   5.509   1.689   4.812
 7401SOL    HW223103   5.534   1.703   4.972
 7402SOL     OW23104   2.607   6.747   4.035
 7402SOL    HW123105   2.689   6.692   4.018
 7402SOL    HW223106   2.576   6.788   3.949
 7403SOL     OW23107   2.024   3.235   1.403
 7403SOL    HW123108   1.935   3.223   1.447
 7403SOL    HW223109   2.011   3.269   1.310
 7404SOL     OW23110   1.087   1.751   2.748
 7404SOL    HW123111   1.022   1.696   2.800
 7404SOL    HW223112   1.171   1.763   2.801
 7405SOL     OW23113   3.461   5.427   6.436
 7405SOL    HW123114   3.539   5.364   6.431
 7405SOL    HW223115   3.481   5.509   6.382
 7406SOL     OW23116   0.747   5.689   1.918
 7406SOL    HW123117   0.687   5.618   1.882
 7406SOL    HW223118   0.836   5.649   1.942
 7407SOL     OW23119   2.288   1.043   5.720
 7407SOL    HW123120   2.223   1.037   5.644
 7407SOL    HW223121   2.373   0.999   5.693
 7408SOL     OW23122   0.921   3.721   5.124
 7408SOL    HW123123   1.004   3.775   5.135
 7408SOL    HW223124   0.939   3.645   5.062
 7409SOL     OW23125   3.085   6.237   5.764
 7409SOL    HW123126   3.082   6.337   5.761
 7409SOL    HW223127   3.179   6.207   5.778
 7410SOL     OW23128   5.594   4.586   0.099
 7410SOL    HW123129   5.680   4.629   0.073
 7410SOL    HW223130   5.601   4.549   0.192
 7411SOL     OW23131   5.186   5.026   5.625
 7411SOL    HW123132   5.139   5.108   5.592
 7411SOL    HW223133   5.201   4.963   5.548
 7412SOL     OW23134   1.698   1.974   6.920
 7412SOL    HW123135   1.731   2.058   6.964
 7412SOL    HW223136   1.639   1.924   6.983
 7413SOL     OW23137   0.036   3.208   4.427
 7413SOL    HW123138   0.118   3.184   4.479
 7413SOL    HW223139   0.039   3.304   4.401
 7414SOL     OW23140   0.018   5.422   2.771
 7414SOL    HW123141   7.021   5.511   2.731
 7414SOL    HW223142   6.997   5.413   2.859
 7415SOL     OW23143   2.989   1.978   2.892
 7415SOL    HW123144   2.991   2.037   2.811
 7415SOL    HW223145   3.041   2.021   2.965
 7416SOL     OW23146   5.473   0.491   3.867
 7416SOL    HW123147   5.487   0.418   3.800
 7416SOL    HW223148   5.523   0.470   3.951
 7417SOL     OW23149   0.881   6.202   0.847
 7417SOL    HW123150   0.829   6.225   0.929
 7417SOL    HW223151   0.821   6.206   0.767
 7418SOL     OW23152   1.026   3.876   0.351
 7418SOL    HW123153   1.059   3.847   0.261
 7418SOL    HW223154   1.101   3.872   0.417
 7419SOL     OW23155   5.579   1.399   5.447
 7419SOL    HW123156   5.668   1.407   5.402
 7419SOL    HW223157   5.565   1.476   5.508
 7420SOL     OW23158   6.951   5.765   2.202
 7420SOL    HW123159   6.881   5.827   2.236
 7420SOL    HW223160   6.969   5.694   2.270
 7421SOL     OW23161   3.908   2.841   1.387
 7421SOL    HW123162   3.845   2.816   1.460
 7421SOL    HW223163   3.987   2.779   1.388
 7422SOL     OW23164   0.876   2.547   1.044
 7422SOL    HW123165   0.877   2.473   0.977
 7422SOL    HW223166   0.804   2.613   1.020
 7423SOL     OW23167   2.325   5.106   0.230
 7423SOL    HW123168   2.258   5.032   0.218
 7423SOL    HW223169   2.301   5.159   0.312
 7424SOL     OW23170   5.860   1.098   4.763
 7424SOL    HW123171   5.862   1.166   4.837
 7424SOL    HW223172   5.826   1.011   4.800
 7425SOL     OW23173   4.385   0.152   5.365
 7425SOL    HW123174   4.442   0.139   5.284
 7425SOL    HW223175   4.377   0.250   5.384
 7426SOL     OW23176   1.193   1.538   0.139
 7426SOL    HW123177   1.264   1.511   0.075
 7426SOL    HW223178   1.106   1.499   0.111
 7427SOL     OW23179   4.390   5.448   4.781
 7427SOL    HW123180   4.389   5.433   4.880
 7427SOL    HW223181   4.372   5.361   4.734
 7428SOL     OW23182   3.165   1.428   5.854
 7428SOL    HW123183   3.110   1.420   5.770
 7428SOL    HW223184   3.240   1.492   5.839
 7429SOL     OW23185   6.705   0.120   4.066
 7429SOL    HW123186   6.752   0.207   4.081
 7429SOL    HW223187   6.738   0.053   4.133
 7430SOL     OW23188   0.586   4.694   4.471
 7430SOL    HW123189   0.491   4.721   4.455
 7430SOL    HW223190   0.603   4.604   4.430
 7431SOL     OW23191   0.787   4.428   2.207
 7431SOL    HW123192   0.761   4.478   2.124
 7431SOL    HW223193   0.868   4.471   2.247
 7432SOL     OW23194   1.227   6.480   4.873
 7432SOL    HW123195   1.141   6.458   4.920
 7432SOL    HW223196   1.299   6.494   4.941
 7433SOL     OW23197   6.823   6.244   1.211
 7433SOL    HW123198   6.730   6.280   1.224
 7433SOL    HW223199   6.849   6.254   1.115
 7434SOL     OW23200   4.719   0.172   6.700
 7434SOL    HW123201   4.686   0.217   6.617
 7434SOL    HW223202   4.671   0.209   6.780
 7435SOL     OW23203   1.353   5.694   6.973
 7435SOL    HW123204   1.436   5.654   6.932
 7435SOL    HW223205   1.333   5.646   0.034
 7436SOL     OW23206   4.973   2.692   7.014
 7436SOL    HW123207   4.880   2.724   6.996
 7436SOL    HW223208   5.013   2.744   0.065
 7437SOL     OW23209   6.997   5.483   5.893
 7437SOL    HW123210   0.061   5.528   5.900
 7437SOL    HW223211   6.967   5.454   5.983
 7438SOL     OW23212   5.914   4.353   1.689
 7438SOL    HW123213   5.851   4.336   1.765
 7438SOL    HW223214   5.963   4.439   1.705
 7439SOL     OW23215   1.175   5.997   3.799
 7439SOL    HW123216   1.178   5.955   3.709
 7439SOL    HW223217   1.267   6.001   3.837
 7440SOL     OW23218   0.630   1.879   3.592
 7440SOL    HW123219   0.634   1.817   3.514
 7440SOL    HW223220   0.720   1.920   3.607
 7441SOL     OW23221   5.795   0.160   4.135
 7441SOL    HW123222   5.881   0.212   4.138
 7441SOL    HW223223   5.815   0.062   4.136
 7442SOL     OW23224   2.168   0.866   6.681
 7442SOL    HW123225   2.215   0.938   6.732
 7442SOL    HW223226   2.179   0.779   6.729
 7443SOL     OW23227   6.816   1.580   0.693
 7443SOL    HW123228   6.858   1.670   0.689
 7443SOL    HW223229   6.883   1.510   0.670
 7444SOL     OW23230   0.321   2.378   5.767
 7444SOL    HW123231   0.306   2.330   5.853
 7444SOL    HW223232   0.416   2.365   5.738
 7445SOL     OW23233   5.620   2.530   1.979
 7445SOL    HW123234   5.676   2.610   1.957
 7445SOL    HW223235   5.527   2.544   1.943
 7446SOL     OW23236   6.718   3.457   0.996
 7446SOL    HW123237   6.784   3.442   1.069
 7446SOL    HW223238   6.631   3.486   1.036
 7447SOL     OW23239   6.808   4.320   6.281
 7447SOL    HW123240   6.761   4.373   6.352
 7447SOL    HW223241   6.772   4.344   6.191
 7448SOL     OW23242   6.935   6.458   6.278
 7448SOL    HW123243   7.021   6.496   6.244
 7448SOL    HW223244   6.862   6.473   6.211
 7449SOL     OW23245   4.553   0.708   1.587
 7449SOL    HW123246   4.583   0.701   1.492
 7449SOL    HW223247   4.526   0.618   1.621
 7450SOL     OW23248   3.098   7.012   2.522
 7450SOL    HW123249   3.161   6.950   2.476
 7450SOL    HW223250   3.144   0.028   2.602
 7451SOL     OW23251   1.566   1.316   2.802
 7451SOL    HW123252   1.544   1.341   2.896
 7451SOL    HW223253   1.502   1.246   2.770
 7452SOL     OW23254   1.619   6.553   4.371
 7452SOL    HW123255   1.624   6.639   4.422
 7452SOL    HW223256   1.645   6.477   4.431
 7453SOL     OW23257   5.797   5.792   5.500
 7453SOL    HW123258   5.822   5.867   5.561
 7453SOL    HW223259   5.762   5.715   5.555
 7454SOL     OW23260   0.502   3.216   0.205
 7454SOL    HW123261   0.596   3.203   0.237
 7454SOL    HW223262   0.444   3.143   0.241
 7455SOL     OW23263   5.591   1.485   0.570
 7455SOL    HW123264   5.568   1.581   0.558
 7455SOL    HW223265   5.672   1.477   0.628
 7456SOL     OW23266   1.641   3.014   5.674
 7456SOL    HW123267   1.644   3.090   5.739
 7456SOL    HW223268   1.732   3.001   5.634
 7457SOL     OW23269   6.409   0.198   6.067
 7457SOL    HW123270   6.378   0.163   6.156
 7457SOL    HW223271   6.486   0.142   6.035
 7458SOL     OW23272   2.384   0.529   0.480
 7458SOL    HW123273   2.341   0.461   0.420
 7458SOL    HW223274   2.360   0.510   0.575
 7459SOL     OW23275   4.322   0.331   4.473
 7459SOL    HW123276   4.388   0.259   4.454
 7459SOL    HW223277   4.329   0.403   4.404
 7460SOL     OW23278   0.708   5.441   6.793
 7460SOL    HW123279   0.736   5.350   6.764
 7460SOL    HW223280   0.684   5.440   6.890
 7461SOL     OW23281   4.818   0.739   4.199
 7461SOL    HW123282   4.855   0.830   4.177
 7461SOL    HW223283   4.731   0.727   4.151
 7462SOL     OW23284   1.541   1.242   2.377
 7462SOL    HW123285   1.575   1.177   2.309
 7462SOL    HW223286   1.470   1.198   2.432
 7463SOL     OW23287   3.789   3.756   2.397
 7463SOL    HW123288   3.889   3.766   2.401
 7463SOL    HW223289   3.764   3.705   2.315
 7464SOL     OW23290   4.892   6.807   6.314
 7464SOL    HW123291   4.817   6.757   6.357
 7464SOL    HW223292   4.939   6.862   6.382
 7465SOL     OW23293   3.330   1.204   2.165
 7465SOL    HW123294   3.377   1.116   2.166
 7465SOL    HW223295   3.243   1.194   2.116
 7466SOL     OW23296   0.401   0.284   6.590
 7466SOL    HW123297   0.473   0.262   6.525
 7466SOL    HW223298   0.417   0.233   6.675
 7467SOL     OW23299   5.778   1.559   1.408
 7467SOL    HW123300   5.868   1.600   1.394
 7467SOL    HW223301   5.744   1.523   1.321
 7468SOL     OW23302   6.298   3.311   4.330
 7468SOL    HW123303   6.234   3.241   4.299
 7468SOL    HW223304   6.326   3.291   4.424
 7469SOL     OW23305   6.392   1.344   1.564
 7469SOL    HW123306   6.443   1.269   1.523
 7469SOL    HW223307   6.332   1.385   1.495
 7470SOL     OW23308   0.262   2.385   2.388
 7470SOL    HW123309   0.182   2.410   2.443
 7470SOL    HW223310   0.232   2.344   2.302
 7471SOL     OW23311   5.901   4.820   6.072
 7471SOL    HW123312   5.853   4.863   6.149
 7471SOL    HW223313   5.911   4.722   6.089
 7472SOL     OW23314   3.582   5.057   3.226
 7472SOL    HW123315   3.538   5.135   3.271
 7472SOL    HW223316   3.678   5.054   3.253
 7473SOL     OW23317   0.888   3.610   4.869
 7473SOL    HW123318   0.805   3.556   4.853
 7473SOL    HW223319   0.880   3.698   4.820
 7474SOL     OW23320   4.046   1.514   2.574
 7474SOL    HW123321   3.951   1.527   2.602
 7474SOL    HW223322   4.070   1.417   2.579
 7475SOL     OW23323   4.375   1.494   0.265
 7475SOL    HW123324   4.312   1.528   0.196
 7475SOL    HW223325   4.460   1.548   0.262
 7476SOL     OW23326   3.162   0.104   5.146
 7476SOL    HW123327   3.215   0.189   5.142
 7476SOL    HW223328   3.164   0.058   5.058
 7477SOL     OW23329   4.885   3.148   3.348
 7477SOL    HW123330   4.920   3.075   3.289
 7477SOL    HW223331   4.915   3.134   3.442
 7478SOL     OW23332   1.723   4.691   1.315
 7478SOL    HW123333   1.652   4.744   1.267
 7478SOL    HW223334   1.783   4.647   1.248
 7479SOL     OW23335   4.608   0.556   6.150
 7479SOL    HW123336   4.657   0.474   6.122
 7479SOL    HW223337   4.660   0.637   6.121
 7480SOL     OW23338   6.964   4.795   1.286
 7480SOL    HW123339   6.965   4.718   1.223
 7480SOL    HW223340   0.017   4.855   1.267
 7481SOL     OW23341   6.349   5.876   0.543
 7481SOL    HW123342   6.289   5.869   0.623
 7481SOL    HW223343   6.419   5.946   0.559
 7482SOL     OW23344   4.798   0.639   3.844
 7482SOL    HW123345   4.763   0.549   3.821
 7482SOL    HW223346   4.792   0.653   3.942
 7483SOL     OW23347   3.324   6.935   6.026
 7483SOL    HW123348   3.242   6.878   6.022
 7483SOL    HW223349   3.334   6.973   6.118
 7484SOL     OW23350   2.999   0.314   2.493
 7484SOL    HW123351   3.025   0.236   2.437
 7484SOL    HW223352   3.080   0.352   2.537
 7485SOL     OW23353   1.262   6.580   6.106
 7485SOL    HW123354   1.255   6.611   6.011
 7485SOL    HW223355   1.186   6.518   6.126
 7486SOL     OW23356   1.513   0.264   5.093
 7486SOL    HW123357   1.598   0.253   5.144
 7486SOL    HW223358   1.508   0.356   5.055
 7487SOL     OW23359   4.120   5.204   3.631
 7487SOL    HW123360   4.190   5.199   3.703
 7487SOL    HW223361   4.149   5.267   3.559
 7488SOL     OW23362   3.674   0.535   5.311
 7488SOL    HW123363   3.580   0.514   5.336
 7488SOL    HW223364   3.702   0.477   5.234
 7489SOL     OW23365   6.289   3.319   2.926
 7489SOL    HW123366   6.318   3.382   2.854
 7489SOL    HW223367   6.201   3.349   2.963
 7490SOL     OW23368   5.565   1.263   2.168
 7490SOL    HW123369   5.590   1.352   2.128
 7490SOL    HW223370   5.511   1.212   2.101
 7491SOL     OW23371   6.696   6.159   6.972
 7491SOL    HW123372   6.611   6.159   6.919
 7491SOL    HW223373   6.772   6.182   6.912
 7492SOL     OW23374   2.358   2.761   4.007
 7492SOL    HW123375   2.394   2.772   3.914
 7492SOL    HW223376   2.319   2.670   4.017
 7493SOL     OW23377   5.542   4.257   0.006
 7493SOL    HW123378   5.448   4.236   0.035
 7493SOL    HW223379   5.547   4.352   7.003
 7494SOL     OW23380   4.906   1.899   1.120
 7494SOL    HW123381   4.851   1.979   1.098
 7494SOL    HW223382   4.846   1.826   1.153
 7495SOL     OW23383   0.400   1.485   2.397
 7495SOL    HW123384   0.309   1.458   2.365
 7495SOL    HW223385   0.393   1.568   2.451
 7496SOL     OW23386   1.262   4.565   5.032
 7496SOL    HW123387   1.180   4.549   4.978
 7496SOL    HW223388   1.284   4.482   5.084
 7497SOL     OW23389   2.169   4.951   2.148
 7497SOL    HW123390   2.129   4.918   2.063
 7497SOL    HW223391   2.236   5.023   2.129
 7498SOL     OW23392   4.941   1.048   4.439
 7498SOL    HW123393   4.906   1.035   4.347
 7498SOL    HW223394   5.019   1.111   4.437
 7499SOL     OW23395   4.529   6.068   3.838
 7499SOL    HW123396   4.493   6.017   3.760
 7499SOL    HW223397   4.610   6.020   3.874
 7500SOL     OW23398   5.231   4.643   1.540
 7500SOL    HW123399   5.200   4.638   1.445
 7500SOL    HW223400   5.174   4.709   1.590
 7501SOL     OW23401   0.245   4.667   3.971
 7501SOL    HW123402   0.344   4.673   3.986
 7501SOL    HW223403   0.214   4.574   3.991
 7502SOL     OW23404   2.642   1.741   4.477
 7502SOL    HW123405   2.557   1.731   4.427
 7502SOL    HW223406   2.649   1.670   4.547
 7503SOL     OW23407   2.335   2.556   6.596
 7503SOL    HW123408   2.256   2.533   6.540
 7503SOL    HW223409   2.414   2.571   6.537
 7504SOL     OW23410   4.312   5.750   4.115
 7504SOL    HW123411   4.403   5.761   4.074
 7504SOL    HW223412   4.316   5.776   4.212
 7505SOL     OW23413   1.456   2.227   4.372
 7505SOL    HW123414   1.456   2.280   4.457
 7505SOL    HW223415   1.417   2.283   4.298
 7506SOL     OW23416   4.190   1.955   3.411
 7506SOL    HW123417   4.098   1.980   3.442
 7506SOL    HW223418   4.187   1.935   3.313
 7507SOL     OW23419   1.530   6.480   6.106
 7507SOL    HW123420   1.531   6.431   6.193
 7507SOL    HW223421   1.454   6.544   6.105
 7508SOL     OW23422   4.794   6.629   3.936
 7508SOL    HW123423   4.860   6.625   3.861
 7508SOL    HW223424   4.839   6.665   4.018
 7509SOL     OW23425   4.183   3.459   5.770
 7509SOL    HW123426   4.158   3.553   5.794
 7509SOL    HW223427   4.122   3.395   5.817
 7510SOL     OW23428   3.141   4.081   4.532
 7510SOL    HW123429   3.224   4.076   4.588
 7510SOL    HW223430   3.068   4.123   4.585
 7511SOL     OW23431   1.168   0.717   2.647
 7511SOL    HW123432   1.081   0.753   2.613
 7511SOL    HW223433   1.214   0.666   2.575
 7512SOL     OW23434   2.226   3.001   1.872
 7512SOL    HW123435   2.148   3.036   1.924
 7512SOL    HW223436   2.275   3.077   1.830
 7513SOL     OW23437   0.669   3.490   6.419
 7513SOL    HW123438   0.684   3.569   6.359
 7513SOL    HW223439   0.736   3.491   6.493
 7514SOL     OW23440   2.386   5.921   2.922
 7514SOL    HW123441   2.337   5.834   2.911
 7514SOL    HW223442   2.392   5.943   3.019
 7515SOL     OW23443   6.407   5.247   2.895
 7515SOL    HW123444   6.434   5.265   2.800
 7515SOL    HW223445   6.377   5.333   2.937
 7516SOL     OW23446   1.412   1.036   3.084
 7516SOL    HW123447   1.423   0.975   3.163
 7516SOL    HW223448   1.455   1.124   3.103
 7517SOL     OW23449   0.768   4.635   1.339
 7517SOL    HW123450   0.762   4.643   1.240
 7517SOL    HW223451   0.830   4.705   1.374
 7518SOL     OW23452   5.137   5.712   3.222
 7518SOL    HW123453   5.205   5.673   3.159
 7518SOL    HW223454   5.051   5.663   3.212
 7519SOL     OW23455   1.925   5.963   3.676
 7519SOL    HW123456   2.012   5.914   3.667
 7519SOL    HW223457   1.875   5.957   3.589
 7520SOL     OW23458   2.152   0.088   4.402
 7520SOL    HW123459   2.072   0.109   4.459
 7520SOL    HW223460   2.136   0.003   4.353
 7521SOL     OW23461   5.436   3.935   6.097
 7521SOL    HW123462   5.517   3.953   6.041
 7521SOL    HW223463   5.433   4.000   6.173
 7522SOL     OW23464   1.849   0.717   1.971
 7522SOL    HW123465   1.919   0.684   2.034
 7522SOL    HW223466   1.764   0.732   2.021
 7523SOL     OW23467   5.635   6.869   0.010
 7523SOL    HW123468   5.594   6.781   0.035
 7523SOL    HW223469   5.619   6.887   6.938
 7524SOL     OW23470   6.074   1.608   4.363
 7524SOL    HW123471   6.160   1.567   4.331
 7524SOL    HW223472   6.030   1.655   4.287
 7525SOL     OW23473   1.694   6.535   0.858
 7525SOL    HW123474   1.644   6.620   0.876
 7525SOL    HW223475   1.641   6.458   0.893
 7526SOL     OW23476   3.228   3.138   5.372
 7526SOL    HW123477   3.252   3.138   5.275
 7526SOL    HW223478   3.216   3.044   5.403
 7527SOL     OW23479   5.615   4.875   2.193
 7527SOL    HW123480   5.589   4.785   2.228
 7527SOL    HW223481   5.656   4.865   2.102
 7528SOL     OW23482   6.310   3.353   5.766
 7528SOL    HW123483   6.393   3.405   5.785
 7528SOL    HW223484   6.334   3.270   5.714
 7529SOL     OW23485   3.087   0.031   5.400
 7529SOL    HW123486   3.061   0.112   5.453
 7529SOL    HW223487   3.121   0.060   5.310
 7530SOL     OW23488   6.952   3.193   2.499
 7530SOL    HW123489   6.871   3.157   2.453
 7530SOL    HW223490   6.925   3.258   2.570
 7531SOL     OW23491   3.269   1.825   3.772
 7531SOL    HW123492   3.180   1.793   3.737
 7531SOL    HW223493   3.254   1.900   3.836
 7532SOL     OW23494   4.941   4.516   2.199
 7532SOL    HW123495   4.871   4.450   2.173
 7532SOL    HW223496   4.983   4.554   2.117
 7533SOL     OW23497   3.477   0.140   4.513
 7533SOL    HW123498   3.556   0.082   4.537
 7533SOL    HW223499   3.508   0.233   4.498
 7534SOL     OW23500   5.582   0.208   4.962
 7534SOL    HW123501   5.528   0.292   4.956
 7534SOL    HW223502   5.523   0.132   4.991
 7535SOL     OW23503   3.473   4.425   6.672
 7535SOL    HW123504   3.429   4.341   6.704
 7535SOL    HW223505   3.482   4.423   6.573
 7536SOL     OW23506   4.026   6.089   4.081
 7536SOL    HW123507   4.116   6.133   4.072
 7536SOL    HW223508   4.034   5.992   4.057
 7537SOL     OW23509   1.920   4.578   5.876
 7537SOL    HW123510   2.019   4.565   5.868
 7537SOL    HW223511   1.873   4.508   5.823
 7538SOL     OW23512   3.199   2.953   3.039
 7538SOL    HW123513   3.136   2.900   3.095
 7538SOL    HW223514   3.163   3.045   3.026
 7539SOL     OW23515   2.134   2.493   3.997
 7539SOL    HW123516   2.068   2.487   3.923
 7539SOL    HW223517   2.110   2.571   4.056
 7540SOL     OW23518   1.987   1.501   0.319
 7540SOL    HW123519   2.023   1.592   0.296
 7540SOL    HW223520   2.014   1.437   0.247
 7541SOL     OW23521   6.987   2.841   5.441
 7541SOL    HW123522   0.014   2.924   5.463
 7541SOL    HW223523   6.894   2.866   5.415
 7542SOL     OW23524   2.037   0.034   6.738
 7542SOL    HW123525   1.975   0.025   6.660
 7542SOL    HW223526   2.120   0.082   6.710
 7543SOL     OW23527   4.088   2.682   0.099
 7543SOL    HW123528   4.053   2.754   0.040
 7543SOL    HW223529   4.147   2.723   0.169
 7544SOL     OW23530   2.223   2.000   2.999
 7544SOL    HW123531   2.305   1.951   3.028
 7544SOL    HW223532   2.185   1.957   2.918
 7545SOL     OW23533   5.453   6.893   3.831
 7545SOL    HW123534   5.380   6.949   3.869
 7545SOL    HW223535   5.500   6.845   3.905
 7546SOL     OW23536   5.133   0.650   6.800
 7546SOL    HW123537   5.117   0.564   6.848
 7546SOL    HW223538   5.109   0.727   6.859
 7547SOL     OW23539   3.125   0.049   0.161
 7547SOL    HW123540   3.041   0.092   0.127
 7547SOL    HW223541   3.111   6.976   0.171
 7548SOL     OW23542   1.249   3.386   1.220
 7548SOL    HW123543   1.309   3.306   1.218
 7548SOL    HW223544   1.232   3.412   1.315
 7549SOL     OW23545   6.104   2.366   2.059
 7549SOL    HW123546   6.056   2.353   1.972
 7549SOL    HW223547   6.047   2.417   2.123
 7550SOL     OW23548   1.658   5.184   1.213
 7550SOL    HW123549   1.663   5.235   1.127
 7550SOL    HW223550   1.742   5.198   1.265
 7551SOL     OW23551   4.591   3.991   6.329
 7551SOL    HW123552   4.539   4.030   6.252
 7551SOL    HW223553   4.609   4.063   6.396
 7552SOL     OW23554   3.221   5.072   3.893
 7552SOL    HW123555   3.140   5.058   3.835
 7552SOL    HW223556   3.213   5.015   3.974
 7553SOL     OW23557   4.521   4.381   6.031
 7553SOL    HW123558   4.531   4.395   6.129
 7553SOL    HW223559   4.529   4.469   5.984
 7554SOL     OW23560   6.580   0.865   1.171
 7554SOL    HW123561   6.568   0.890   1.075
 7554SOL    HW223562   6.676   0.874   1.196
 7555SOL     OW23563   0.722   5.512   5.446
 7555SOL    HW123564   0.775   5.588   5.484
 7555SOL    HW223565   0.783   5.445   5.405
 7556SOL     OW23566   6.783   2.967   4.097
 7556SOL    HW123567   6.863   3.021   4.121
 7556SOL    HW223568   6.706   2.995   4.155
 7557SOL     OW23569   4.586   3.512   0.031
 7557SOL    HW123570   4.608   3.545   6.964
 7557SOL    HW223571   4.588   3.412   0.031
 7558SOL     OW23572   1.649   3.270   3.837
 7558SOL    HW123573   1.745   3.293   3.852
 7558SOL    HW223574   1.640   3.218   3.752
 7559SOL     OW23575   0.801   5.083   0.767
 7559SOL    HW123576   0.822   4.987   0.749
 7559SOL    HW223577   0.708   5.090   0.803
 7560SOL     OW23578   4.776   6.567   5.958
 7560SOL    HW123579   4.710   6.492   5.958
 7560SOL    HW223580   4.808   6.583   5.865
 7561SOL     OW23581   0.807   3.466   0.609
 7561SOL    HW123582   0.714   3.442   0.581
 7561SOL    HW223583   0.820   3.441   0.705
 7562SOL     OW23584   5.054   5.530   5.676
 7562SOL    HW123585   5.139   5.556   5.630
 7562SOL    HW223586   4.976   5.561   5.622
 7563SOL     OW23587   2.330   1.303   2.166
 7563SOL    HW123588   2.231   1.300   2.158
 7563SOL    HW223589   2.364   1.215   2.201
 7564SOL     OW23590   5.078   6.538   4.040
 7564SOL    HW123591   5.177   6.529   4.051
 7564SOL    HW223592   5.047   6.474   3.969
 7565SOL     OW23593   4.905   4.193   0.412
 7565SOL    HW123594   4.923   4.267   0.346
 7565SOL    HW223595   4.989   4.140   0.424
 7566SOL     OW23596   1.878   5.584   5.144
 7566SOL    HW123597   1.900   5.624   5.055
 7566SOL    HW223598   1.806   5.638   5.188
 7567SOL     OW23599   2.581   3.297   6.998
 7567SOL    HW123600   2.627   3.232   6.937
 7567SOL    HW223601   2.645   3.368   0.001
 7568SOL     OW23602   4.539   4.379   3.063
 7568SOL    HW123603   4.474   4.372   2.987
 7568SOL    HW223604   4.521   4.463   3.114
 7569SOL     OW23605   3.778   0.735   1.253
 7569SOL    HW123606   3.736   0.796   1.319
 7569SOL    HW223607   3.869   0.708   1.285
 7570SOL     OW23608   6.201   4.794   4.637
 7570SOL    HW123609   6.147   4.847   4.573
 7570SOL    HW223610   6.265   4.736   4.587
 7571SOL     OW23611   5.143   4.008   1.774
 7571SOL    HW123612   5.160   3.920   1.818
 7571SOL    HW223613   5.076   4.060   1.826
 7572SOL     OW23614   1.569   1.930   4.232
 7572SOL    HW123615   1.490   1.871   4.216
 7572SOL    HW223616   1.542   2.006   4.292
 7573SOL     OW23617   2.683   5.762   5.300
 7573SOL    HW123618   2.749   5.781   5.227
 7573SOL    HW223619   2.622   5.841   5.311
 7574SOL     OW23620   4.959   5.939   2.834
 7574SOL    HW123621   5.054   5.916   2.856
 7574SOL    HW223622   4.898   5.873   2.878
 7575SOL     OW23623   4.512   2.561   5.001
 7575SOL    HW123624   4.456   2.480   5.019
 7575SOL    HW223625   4.578   2.540   4.928
 7576SOL     OW23626   6.239   3.577   1.334
 7576SOL    HW123627   6.314   3.641   1.349
 7576SOL    HW223628   6.180   3.574   1.414
 7577SOL     OW23629   4.392   0.557   4.940
 7577SOL    HW123630   4.371   0.489   4.870
 7577SOL    HW223631   4.422   0.510   5.023
 7578SOL     OW23632   2.676   4.682   4.442
 7578SOL    HW123633   2.726   4.618   4.500
 7578SOL    HW223634   2.720   4.686   4.352
 7579SOL     OW23635   4.443   2.083   3.424
 7579SOL    HW123636   4.443   2.153   3.352
 7579SOL    HW223637   4.358   2.032   3.421
 7580SOL     OW23638   2.088   3.768   2.942
 7580SOL    HW123639   2.115   3.780   3.037
 7580SOL    HW223640   2.054   3.675   2.928
 7581SOL     OW23641   6.047   0.640   1.256
 7581SOL    HW123642   5.972   0.631   1.191
 7581SOL    HW223643   6.107   0.715   1.228
 7582SOL     OW23644   2.943   1.573   1.082
 7582SOL    HW123645   2.869   1.512   1.112
 7582SOL    HW223646   2.999   1.598   1.161
 7583SOL     OW23647   0.121   3.273   2.287
 7583SOL    HW123648   0.031   3.251   2.324
 7583SOL    HW223649   0.187   3.280   2.361
 7584SOL     OW23650   2.112   1.392   1.039
 7584SOL    HW123651   2.092   1.322   1.108
 7584SOL    HW223652   2.183   1.357   0.977
 7585SOL     OW23653   1.678   5.225   6.133
 7585SOL    HW123654   1.647   5.231   6.228
 7585SOL    HW223655   1.778   5.217   6.132
 7586SOL     OW23656   2.493   1.314   1.565
 7586SOL    HW123657   2.439   1.230   1.557
 7586SOL    HW223658   2.571   1.298   1.626
 7587SOL     OW23659   2.130   0.925   5.920
 7587SOL    HW123660   2.109   0.978   6.002
 7587SOL    HW223661   2.183   0.981   5.856
 7588SOL     OW23662   0.402   4.407   1.533
 7588SOL    HW123663   0.376   4.377   1.624
 7588SOL    HW223664   0.324   4.398   1.471
 7589SOL     OW23665   5.452   6.209   6.988
 7589SOL    HW123666   5.422   6.114   6.983
 7589SOL    HW223667   5.461   6.236   0.059
 7590SOL     OW23668   2.360   0.780   6.480
 7590SOL    HW123669   2.365   0.682   6.502
 7590SOL    HW223670   2.292   0.824   6.539
 7591SOL     OW23671   6.644   5.245   0.098
 7591SOL    HW123672   6.639   5.171   0.164
 7591SOL    HW223673   6.696   5.321   0.136
 7592SOL     OW23674   5.461   5.931   0.285
 7592SOL    HW123675   5.445   5.834   0.300
 7592SOL    HW223676   5.532   5.963   0.348
 7593SOL     OW23677   6.270   2.799   6.758
 7593SOL    HW123678   6.199   2.792   6.688
 7593SOL    HW223679   6.283   2.896   6.781
 7594SOL     OW23680   1.467   6.366   3.719
 7594SOL    HW123681   1.391   6.355   3.654
 7594SOL    HW223682   1.553   6.338   3.674
 7595SOL     OW23683   6.547   2.412   0.517
 7595SOL    HW123684   6.469   2.348   0.518
 7595SOL    HW223685   6.549   2.463   0.603
 7596SOL     OW23686   4.856   4.654   1.533
 7596SOL    HW123687   4.855   4.749   1.503
 7596SOL    HW223688   4.774   4.608   1.498
 7597SOL     OW23689   3.370   5.821   1.847
 7597SOL    HW123690   3.378   5.789   1.752
 7597SOL    HW223691   3.273   5.830   1.871
 7598SOL     OW23692   6.460   0.087   3.326
 7598SOL    HW123693   6.514   0.079   3.242
 7598SOL    HW223694   6.522   0.084   3.405
 7599SOL     OW23695   6.259   2.012   2.240
 7599SOL    HW123696   6.190   2.042   2.174
 7599SOL    HW223697   6.303   1.929   2.207
 7600SOL     OW23698   2.439   1.995   1.551
 7600SOL    HW123699   2.456   2.093   1.560
 7600SOL    HW223700   2.366   1.980   1.484
 7601SOL     OW23701   2.026   6.762   4.600
 7601SOL    HW123702   1.972   6.813   4.667
 7601SOL    HW223703   1.984   6.772   4.510
 7602SOL     OW23704   2.161   3.135   4.879
 7602SOL    HW123705   2.228   3.074   4.921
 7602SOL    HW223706   2.129   3.096   4.792
 7603SOL     OW23707   0.817   0.727   2.102
 7603SOL    HW123708   0.815   0.826   2.094
 7603SOL    HW223709   0.894   0.699   2.159
 7604SOL     OW23710   4.708   6.177   6.506
 7604SOL    HW123711   4.670   6.266   6.483
 7604SOL    HW223712   4.794   6.163   6.456
 7605SOL     OW23713   5.788   4.197   5.806
 7605SOL    HW123714   5.697   4.181   5.843
 7605SOL    HW223715   5.782   4.218   5.709
 7606SOL     OW23716   6.145   1.890   2.959
 7606SOL    HW123717   6.045   1.891   2.962
 7606SOL    HW223718   6.177   1.921   2.870
 7607SOL     OW23719   5.295   6.794   6.905
 7607SOL    HW123720   5.386   6.793   6.947
 7607SOL    HW223721   5.259   6.701   6.902
 7608SOL     OW23722   3.910   3.110   3.628
 7608SOL    HW123723   3.836   3.045   3.642
 7608SOL    HW223724   3.936   3.112   3.531
 7609SOL     OW23725   1.743   2.917   4.147
 7609SOL    HW123726   1.736   3.014   4.123
 7609SOL    HW223727   1.791   2.908   4.235
 7610SOL     OW23728   5.237   0.562   1.491
 7610SOL    HW123729   5.281   0.627   1.429
 7610SOL    HW223730   5.269   0.470   1.470
 7611SOL     OW23731   1.749   1.849   1.456
 7611SOL    HW123732   1.717   1.779   1.393
 7611SOL    HW223733   1.694   1.846   1.540
 7612SOL     OW23734   4.298   1.664   2.570
 7612SOL    HW123735   4.339   1.684   2.481
 7612SOL    HW223736   4.209   1.620   2.555
 7613SOL     OW23737   4.881   1.165   2.285
 7613SOL    HW123738   4.820   1.101   2.332
 7613SOL    HW223739   4.974   1.156   2.323
 7614SOL     OW23740   4.031   1.659   0.437
 7614SOL    HW123741   3.985   1.570   0.432
 7614SOL    HW223742   3.995   1.719   0.366
 7615SOL     OW23743   3.471   5.210   5.915
 7615SOL    HW123744   3.459   5.182   6.010
 7615SOL    HW223745   3.553   5.166   5.878
 7616SOL     OW23746   6.416   4.904   3.458
 7616SOL    HW123747   6.453   4.880   3.368
 7616SOL    HW223748   6.468   4.981   3.496
 7617SOL     OW23749   3.170   5.992   2.520
 7617SOL    HW123750   3.095   5.941   2.560
 7617SOL    HW223751   3.247   5.930   2.501
 7618SOL     OW23752   1.968   2.734   0.589
 7618SOL    HW123753   1.948   2.656   0.649
 7618SOL    HW223754   2.065   2.736   0.568
 7619SOL     OW23755   5.792   3.245   5.589
 7619SOL    HW123756   5.866   3.244   5.657
 7619SOL    HW223757   5.712   3.200   5.628
 7620SOL     OW23758   3.275   6.497   1.508
 7620SOL    HW123759   3.368   6.467   1.528
 7620SOL    HW223760   3.257   6.487   1.410
 7621SOL     OW23761   2.776   1.715   1.380
 7621SOL    HW123762   2.717   1.763   1.445
 7621SOL    HW223763   2.764   1.616   1.391
 7622SOL     OW23764   4.650   2.177   0.767
 7622SOL    HW123765   4.560   2.219   0.764
 7622SOL    HW223766   4.660   2.112   0.691
 7623SOL     OW23767   5.117   0.498   5.734
 7623SOL    HW123768   5.070   0.574   5.690
 7623SOL    HW223769   5.129   0.518   5.832
 7624SOL     OW23770   6.700   0.352   4.357
 7624SOL    HW123771   6.709   0.385   4.263
 7624SOL    HW223772   6.610   0.311   4.370
 7625SOL     OW23773   4.108   6.798   1.345
 7625SOL    HW123774   4.052   6.729   1.299
 7625SOL    HW223775   4.082   6.889   1.312
 7626SOL     OW23776   1.878   4.941   4.994
 7626SOL    HW123777   1.874   4.844   5.019
 7626SOL    HW223778   1.939   4.989   5.057
 7627SOL     OW23779   0.344   2.535   0.442
 7627SOL    HW123780   0.354   2.469   0.368
 7627SOL    HW223781   0.424   2.530   0.502
 7628SOL     OW23782   3.716   2.186   1.012
 7628SOL    HW123783   3.771   2.103   1.014
 7628SOL    HW223784   3.681   2.205   1.104
 7629SOL     OW23785   6.426   5.298   3.791
 7629SOL    HW123786   6.400   5.369   3.858
 7629SOL    HW223787   6.344   5.270   3.740
 7630SOL     OW23788   6.509   0.833   2.123
 7630SOL    HW123789   6.581   0.763   2.118
 7630SOL    HW223790   6.420   0.789   2.136
 7631SOL     OW23791   0.774   2.279   3.627
 7631SOL    HW123792   0.684   2.301   3.589
 7631SOL    HW223793   0.763   2.214   3.703
 7632SOL     OW23794   4.244   1.664   6.340
 7632SOL    HW123795   4.270   1.568   6.327
 7632SOL    HW223796   4.274   1.718   6.262
 7633SOL     OW23797   5.741   4.478   6.612
 7633SOL    HW123798   5.723   4.498   6.516
 7633SOL    HW223799   5.666   4.424   6.650
 7634SOL     OW23800   0.681   1.757   1.990
 7634SOL    HW123801   0.756   1.769   2.055
 7634SOL    HW223802   0.706   1.689   1.921
 7635SOL     OW23803   2.973   4.895   6.186
 7635SOL    HW123804   3.036   4.857   6.119
 7635SOL    HW223805   3.025   4.943   6.257
 7636SOL     OW23806   1.229   0.246   4.331
 7636SOL    HW123807   1.162   0.172   4.330
 7636SOL    HW223808   1.184   0.333   4.309
 7637SOL     OW23809   1.835   5.880   4.417
 7637SOL    HW123810   1.859   5.783   4.426
 7637SOL    HW223811   1.777   5.892   4.336
 7638SOL     OW23812   4.778   4.609   1.945
 7638SOL    HW123813   4.846   4.659   1.892
 7638SOL    HW223814   4.807   4.605   2.041
 7639SOL     OW23815   0.836   1.821   4.242
 7639SOL    HW123816   0.816   1.917   4.262
 7639SOL    HW223817   0.807   1.764   4.318
 7640SOL     OW23818   2.142   2.814   6.485
 7640SOL    HW123819   2.225   2.821   6.541
 7640SOL    HW223820   2.142   2.727   6.437
 7641SOL     OW23821   6.412   2.938   3.135
 7641SOL    HW123822   6.454   2.994   3.207
 7641SOL    HW223823   6.313   2.950   3.136
 7642SOL     OW23824   2.589   2.066   2.435
 7642SOL    HW123825   2.657   2.118   2.384
 7642SOL    HW223826   2.587   2.099   2.530
 7643SOL     OW23827   4.883   3.313   3.115
 7643SOL    HW123828   4.884   3.284   3.211
 7643SOL    HW223829   4.879   3.412   3.110
 7644SOL     OW23830   6.609   3.636   3.339
 7644SOL    HW123831   6.613   3.699   3.417
 7644SOL    HW223832   6.597   3.543   3.372
 7645SOL     OW23833   4.645   3.625   6.789
 7645SOL    HW123834   4.707   3.622   6.711
 7645SOL    HW223835   4.659   3.711   6.838
 7646SOL     OW23836   0.845   1.603   1.832
 7646SOL    HW123837   0.821   1.606   1.735
 7646SOL    HW223838   0.944   1.606   1.842
 7647SOL     OW23839   1.898   4.138   1.330
 7647SOL    HW123840   1.825   4.074   1.353
 7647SOL    HW223841   1.863   4.232   1.336
 7648SOL     OW23842   4.132   0.624   3.104
 7648SOL    HW123843   4.135   0.562   3.025
 7648SOL    HW223844   4.052   0.683   3.098
 7649SOL     OW23845   2.605   1.061   1.324
 7649SOL    HW123846   2.511   1.051   1.356
 7649SOL    HW223847   2.666   1.071   1.403
 7650SOL     OW23848   5.334   4.743   2.946
 7650SOL    HW123849   5.416   4.702   2.985
 7650SOL    HW223850   5.288   4.676   2.887
 7651SOL     OW23851   4.275   1.368   6.342
 7651SOL    HW123852   4.260   1.343   6.246
 7651SOL    HW223853   4.223   1.307   6.401
 7652SOL     OW23854   0.621   3.187   2.843
 7652SOL    HW123855   0.660   3.221   2.757
 7652SOL    HW223856   0.534   3.142   2.825
 7653SOL     OW23857   3.365   2.402   1.388
 7653SOL    HW123858   3.397   2.433   1.477
 7653SOL    HW223859   3.268   2.376   1.395
 7654SOL     OW23860   4.992   3.662   3.886
 7654SOL    HW123861   4.968   3.759   3.885
 7654SOL    HW223862   4.953   3.619   3.967
 7655SOL     OW23863   4.494   6.240   5.377
 7655SOL    HW123864   4.425   6.270   5.310
 7655SOL    HW223865   4.563   6.311   5.388
 7656SOL     OW23866   1.016   5.898   4.778
 7656SOL    HW123867   1.062   5.940   4.700
 7656SOL    HW223868   0.918   5.892   4.760
 7657SOL     OW23869   4.376   1.389   4.491
 7657SOL    HW123870   4.377   1.396   4.591
 7657SOL    HW223871   4.430   1.310   4.462
 7658SOL     OW23872   4.181   0.469   6.481
 7658SOL    HW123873   4.176   0.513   6.391
 7658SOL    HW223874   4.274   0.435   6.496
 7659SOL     OW23875   5.501   0.135   0.431
 7659SOL    HW123876   5.525   0.052   0.482
 7659SOL    HW223877   5.505   0.116   0.333
 7660SOL     OW23878   6.421   4.823   3.754
 7660SOL    HW123879   6.521   4.822   3.765
 7660SOL    HW223880   6.398   4.842   3.658
 7661SOL     OW23881   5.922   3.524   3.232
 7661SOL    HW123882   5.944   3.437   3.276
 7661SOL    HW223883   5.828   3.521   3.197
 7662SOL     OW23884   0.097   5.701   1.906
 7662SOL    HW123885   0.079   5.771   1.836
 7662SOL    HW223886   0.029   5.710   1.979
 7663SOL     OW23887   0.096   5.174   6.875
 7663SOL    HW123888   0.021   5.239   6.890
 7663SOL    HW223889   0.121   5.130   6.961
 7664SOL     OW23890   2.289   5.240   4.844
 7664SOL    HW123891   2.314   5.320   4.791
 7664SOL    HW223892   2.299   5.158   4.787
 7665SOL     OW23893   2.281   6.178   4.846
 7665SOL    HW123894   2.314   6.084   4.849
 7665SOL    HW223895   2.329   6.233   4.914
 7666SOL     OW23896   1.492   1.241   1.490
 7666SOL    HW123897   1.450   1.279   1.407
 7666SOL    HW223898   1.591   1.250   1.484
 7667SOL     OW23899   4.943   5.317   6.135
 7667SOL    HW123900   5.043   5.308   6.136
 7667SOL    HW223901   4.912   5.346   6.226
 7668SOL     OW23902   2.997   3.914   1.378
 7668SOL    HW123903   2.941   3.907   1.295
 7668SOL    HW223904   2.949   3.869   1.454
 7669SOL     OW23905   4.760   6.480   4.611
 7669SOL    HW123906   4.682   6.483   4.673
 7669SOL    HW223907   4.821   6.406   4.638
 7670SOL     OW23908   2.032   4.817   0.974
 7670SOL    HW123909   2.123   4.831   1.012
 7670SOL    HW223910   2.034   4.832   0.875
 7671SOL     OW23911   5.285   2.622   4.472
 7671SOL    HW123912   5.233   2.679   4.535
 7671SOL    HW223913   5.239   2.533   4.462
 7672SOL     OW23914   5.194   0.568   2.267
 7672SOL    HW123915   5.115   0.572   2.328
 7672SOL    HW223916   5.265   0.628   2.301
 7673SOL     OW23917   0.237   4.892   0.995
 7673SOL    HW123918   0.234   4.813   0.933
 7673SOL    HW223919   0.233   4.860   1.089
 7674SOL     OW23920   6.791   0.648   5.218
 7674SOL    HW123921   6.876   0.697   5.195
 7674SOL    HW223922   6.814   0.563   5.265
 7675SOL     OW23923   4.371   0.204   3.643
 7675SOL    HW123924   4.420   0.260   3.710
 7675SOL    HW223925   4.343   0.118   3.687
 7676SOL     OW23926   1.703   7.014   0.723
 7676SOL    HW123927   1.790   6.965   0.726
 7676SOL    HW223928   1.714   0.073   0.670
 7677SOL     OW23929   1.827   2.866   2.758
 7677SOL    HW123930   1.804   2.770   2.774
 7677SOL    HW223931   1.911   2.872   2.704
 7678SOL     OW23932   5.685   0.171   6.664
 7678SOL    HW123933   5.687   0.267   6.693
 7678SOL    HW223934   5.725   0.162   6.573
 7679SOL     OW23935   0.802   4.917   5.313
 7679SOL    HW123936   0.704   4.934   5.302
 7679SOL    HW223937   0.834   4.858   5.238
 7680SOL     OW23938   4.255   2.219   6.423
 7680SOL    HW123939   4.240   2.127   6.461
 7680SOL    HW223940   4.221   2.222   6.329
 7681SOL     OW23941   2.882   1.772   6.940
 7681SOL    HW123942   2.963   1.824   6.964
 7681SOL    HW223943   2.813   1.782   7.012
 7682SOL     OW23944   3.595   6.874   0.918
 7682SOL    HW123945   3.643   6.962   0.920
 7682SOL    HW223946   3.558   6.854   1.008
 7683SOL     OW23947   5.986   1.832   3.289
 7683SOL    HW123948   5.914   1.821   3.221
 7683SOL    HW223949   6.046   1.752   3.289
 7684SOL     OW23950   4.119   1.692   5.694
 7684SOL    HW123951   4.129   1.788   5.671
 7684SOL    HW223952   4.069   1.684   5.781
 7685SOL     OW23953   3.538   3.725   0.787
 7685SOL    HW123954   3.484   3.806   0.809
 7685SOL    HW223955   3.613   3.717   0.852
 7686SOL     OW23956   3.196   0.275   4.081
 7686SOL    HW123957   3.215   0.208   4.153
 7686SOL    HW223958   3.164   0.227   3.999
 7687SOL     OW23959   4.367   5.112   5.230
 7687SOL    HW123960   4.327   5.198   5.199
 7687SOL    HW223961   4.296   5.054   5.268
 7688SOL     OW23962   6.842   0.051   4.413
 7688SOL    HW123963   6.829   0.145   4.380
 7688SOL    HW223964   6.931   0.018   4.383
 7689SOL     OW23965   4.037   6.560   4.222
 7689SOL    HW123966   4.084   6.474   4.242
 7689SOL    HW223967   3.966   6.576   4.291
 7690SOL     OW23968   6.759   6.257   3.278
 7690SOL    HW123969   6.778   6.316   3.357
 7690SOL    HW223970   6.814   6.286   3.201
 7691SOL     OW23971   5.479   4.210   5.111
 7691SOL    HW123972   5.524   4.222   5.022
 7691SOL    HW223973   5.497   4.118   5.145
 7692SOL     OW23974   1.939   6.585   1.514
 7692SOL    HW123975   1.907   6.677   1.496
 7692SOL    HW223976   1.957   6.538   1.428
 7693SOL     OW23977   5.715   0.705   6.744
 7693SOL    HW123978   5.699   0.794   6.701
 7693SOL    HW223979   5.773   0.718   6.825
 7694SOL     OW23980   6.194   5.168   4.462
 7694SOL    HW123981   6.143   5.205   4.384
 7694SOL    HW223982   6.230   5.243   4.517
 7695SOL     OW23983   4.046   0.239   6.596
 7695SOL    HW123984   4.051   0.334   6.565
 7695SOL    HW223985   4.013   0.236   6.690
 7696SOL     OW23986   0.302   3.150   5.803
 7696SOL    HW123987   0.245   3.206   5.863
 7696SOL    HW223988   0.313   3.196   5.715
 7697SOL     OW23989   4.291   1.732   1.513
 7697SOL    HW123990   4.257   1.659   1.572
 7697SOL    HW223991   4.368   1.778   1.558
 7698SOL     OW23992   0.164   3.481   5.638
 7698SOL    HW123993   0.087   3.478   5.702
 7698SOL    HW223994   0.232   3.546   5.671
 7699SOL     OW23995   2.346   4.658   6.910
 7699SOL    HW123996   2.393   4.571   6.921
 7699SOL    HW223997   2.250   4.648   6.935
 7700SOL     OW23998   5.358   6.871   5.253
 7700SOL    HW123999   5.271   6.901   5.293
 7700SOL    HW224000   5.375   6.776   5.278
 7701SOL     OW24001   6.300   1.911   5.350
 7701SOL    HW124002   6.381   1.905   5.292
 7701SOL    HW224003   6.234   1.842   5.322
 7702SOL     OW24004   2.472   6.241   6.154
 7702SOL    HW124005   2.535   6.318   6.151
 7702SOL    HW224006   2.469   6.204   6.247
 7703SOL     OW24007   0.409   2.239   6.589
 7703SOL    HW124008   0.422   2.151   6.633
 7703SOL    HW224009   0.401   2.311   6.659
 7704SOL     OW24010   4.690   4.778   0.059
 7704SOL    HW124011   4.741   4.721   7.020
 7704SOL    HW224012   4.620   4.724   0.105
 7705SOL     OW24013   3.354   5.430   5.365
 7705SOL    HW124014   3.329   5.526   5.356
 7705SOL    HW224015   3.438   5.412   5.312
 7706SOL     OW24016   6.857   0.699   5.542
 7706SOL    HW124017   6.759   0.718   5.539
 7706SOL    HW224018   6.908   0.783   5.520
 7707SOL     OW24019   0.291   4.926   6.129
 7707SOL    HW124020   0.302   4.829   6.150
 7707SOL    HW224021   0.299   4.940   6.031
 7708SOL     OW24022   4.586   6.799   4.982
 7708SOL    HW124023   4.506   6.859   4.971
 7708SOL    HW224024   4.655   6.822   4.914
 7709SOL     OW24025   3.825   2.039   1.866
 7709SOL    HW124026   3.777   2.119   1.902
 7709SOL    HW224027   3.863   1.986   1.941
 7710SOL     OW24028   2.916   2.103   6.918
 7710SOL    HW124029   2.945   2.058   7.003
 7710SOL    HW224030   2.822   2.077   6.897
 7711SOL     OW24031   5.822   6.398   6.406
 7711SOL    HW124032   5.747   6.457   6.436
 7711SOL    HW224033   5.804   6.304   6.435
 7712SOL     OW24034   5.026   5.509   1.075
 7712SOL    HW124035   5.019   5.569   0.996
 7712SOL    HW224036   5.095   5.439   1.058
 7713SOL     OW24037   1.327   4.674   6.871
 7713SOL    HW124038   1.269   4.592   6.865
 7713SOL    HW224039   1.355   4.688   6.966
 7714SOL     OW24040   5.329   4.345   3.769
 7714SOL    HW124041   5.345   4.443   3.772
 7714SOL    HW224042   5.232   4.326   3.789
 7715SOL     OW24043   4.526   1.986   1.173
 7715SOL    HW124044   4.588   2.003   1.097
 7715SOL    HW224045   4.433   1.974   1.137
 7716SOL     OW24046   4.623   2.647   3.089
 7716SOL    HW124047   4.624   2.612   3.183
 7716SOL    HW224048   4.550   2.715   3.080
 7717SOL     OW24049   4.064   0.873   6.255
 7717SOL    HW124050   3.984   0.835   6.303
 7717SOL    HW224051   4.058   0.973   6.255
 7718SOL     OW24052   2.980   5.710   3.804
 7718SOL    HW124053   3.043   5.782   3.834
 7718SOL    HW224054   2.966   5.645   3.879
 7719SOL     OW24055   6.495   1.777   5.187
 7719SOL    HW124056   6.555   1.810   5.114
 7719SOL    HW224057   6.444   1.697   5.155
 7720SOL     OW24058   6.005   5.601   1.540
 7720SOL    HW124059   5.969   5.663   1.471
 7720SOL    HW224060   5.929   5.549   1.580
 7721SOL     OW24061   1.481   4.710   2.455
 7721SOL    HW124062   1.492   4.773   2.532
 7721SOL    HW224063   1.556   4.645   2.453
 7722SOL     OW24064   0.320   5.537   3.962
 7722SOL    HW124065   0.327   5.489   3.874
 7722SOL    HW224066   0.224   5.556   3.981
 7723SOL     OW24067   6.193   3.124   7.004
 7723SOL    HW124068   6.269   3.153   0.039
 7723SOL    HW224069   6.124   3.077   0.034
 7724SOL     OW24070   1.850   4.607   1.069
 7724SOL    HW124071   1.886   4.679   1.010
 7724SOL    HW224072   1.754   4.591   1.047
 7725SOL     OW24073   5.134   3.481   4.645
 7725SOL    HW124074   5.162   3.499   4.740
 7725SOL    HW224075   5.210   3.437   4.596
 7726SOL     OW24076   6.611   4.034   3.652
 7726SOL    HW124077   6.604   4.065   3.747
 7726SOL    HW224078   6.623   4.112   3.592
 7727SOL     OW24079   6.478   2.706   1.568
 7727SOL    HW124080   6.469   2.702   1.667
 7727SOL    HW224081   6.408   2.649   1.525
 7728SOL     OW24082   2.734   2.387   2.802
 7728SOL    HW124083   2.797   2.348   2.869
 7728SOL    HW224084   2.671   2.450   2.848
 7729SOL     OW24085   5.548   2.286   0.374
 7729SOL    HW124086   5.561   2.186   0.373
 7729SOL    HW224087   5.450   2.306   0.383
 7730SOL     OW24088   4.931   0.603   2.128
 7730SOL    HW124089   4.879   0.645   2.054
 7730SOL    HW224090   5.024   0.583   2.096
 7731SOL     OW24091   6.219   0.999   6.149
 7731SOL    HW124092   6.252   0.910   6.119
 7731SOL    HW224093   6.264   1.025   6.234
 7732SOL     OW24094   4.274   4.844   0.509
 7732SOL    HW124095   4.208   4.773   0.532
 7732SOL    HW224096   4.315   4.824   0.420
 7733SOL     OW24097   3.087   6.978   2.051
 7733SOL    HW124098   3.012   6.912   2.059
 7733SOL    HW224099   3.153   6.962   2.125
 7734SOL     OW24100   1.475   1.775   3.027
 7734SOL    HW124101   1.515   1.688   3.057
 7734SOL    HW224102   1.399   1.798   3.088
 7735SOL     OW24103   5.144   4.092   0.456
 7735SOL    HW124104   5.205   4.041   0.517
 7735SOL    HW224105   5.186   4.180   0.435
 7736SOL     OW24106   6.055   4.601   6.346
 7736SOL    HW124107   6.148   4.574   6.372
 7736SOL    HW224108   6.021   4.670   6.410
 7737SOL     OW24109   5.324   1.465   0.450
 7737SOL    HW124110   5.424   1.469   0.448
 7737SOL    HW224111   5.293   1.388   0.394
 7738SOL     OW24112   2.311   5.105   6.644
 7738SOL    HW124113   2.351   5.110   6.552
 7738SOL    HW224114   2.385   5.098   6.711
 7739SOL     OW24115   6.244   3.434   1.793
 7739SOL    HW124116   6.225   3.358   1.731
 7739SOL    HW224117   6.290   3.400   1.875
 7740SOL     OW24118   0.561   6.616   3.645
 7740SOL    HW124119   0.493   6.676   3.602
 7740SOL    HW224120   0.651   6.635   3.606
 7741SOL     OW24121   3.015   5.209   4.583
 7741SOL    HW124122   2.977   5.217   4.491
 7741SOL    HW224123   2.966   5.136   4.632
 7742SOL     OW24124   5.983   1.012   3.886
 7742SOL    HW124125   6.069   0.962   3.876
 7742SOL    HW224126   5.963   1.061   3.801
 7743SOL     OW24127   4.761   2.803   2.880
 7743SOL    HW124128   4.789   2.891   2.920
 7743SOL    HW224129   4.726   2.744   2.953
 7744SOL     OW24130   0.000   0.058   5.317
 7744SOL    HW124131   6.965   0.077   5.240
 7744SOL    HW224132   0.094   0.082   5.293
 7745SOL     OW24133   5.100   3.350   5.419
 7745SOL    HW124134   5.087   3.382   5.513
 7745SOL    HW224135   5.197   3.329   5.405
 7746SOL     OW24136   1.660   0.777   0.394
 7746SOL    HW124137   1.723   0.757   0.470
 7746SOL    HW224138   1.582   0.715   0.399
 7747SOL     OW24139   5.288   5.399   1.146
 7747SOL    HW124140   5.304   5.307   1.183
 7747SOL    HW224141   5.273   5.393   1.048
 7748SOL     OW24142   3.320   3.531   6.710
 7748SOL    HW124143   3.391   3.569   6.770
 7748SOL    HW224144   3.360   3.508   6.622
 7749SOL     OW24145   5.584   3.010   6.496
 7749SOL    HW124146   5.623   3.028   6.587
 7749SOL    HW224147   5.564   2.913   6.488
 7750SOL     OW24148   5.770   5.075   2.646
 7750SOL    HW124149   5.735   5.075   2.552
 7750SOL    HW224150   5.701   5.039   2.708
 7751SOL     OW24151   0.132   2.650   1.743
 7751SOL    HW124152   0.201   2.722   1.744
 7751SOL    HW224153   0.175   2.562   1.723
 7752SOL     OW24154   4.810   2.061   3.292
 7752SOL    HW124155   4.731   2.019   3.246
 7752SOL    HW224156   4.878   2.087   3.224
 7753SOL     OW24157   3.163   1.885   4.607
 7753SOL    HW124158   3.114   1.928   4.683
 7753SOL    HW224159   3.170   1.951   4.531
 7754SOL     OW24160   5.628   6.236   2.287
 7754SOL    HW124161   5.682   6.172   2.232
 7754SOL    HW224162   5.544   6.260   2.239
 7755SOL     OW24163   0.713   5.170   4.220
 7755SOL    HW124164   0.800   5.220   4.215
 7755SOL    HW224165   0.731   5.076   4.247
 7756SOL     OW24166   2.868   4.986   1.950
 7756SOL    HW124167   2.949   4.930   1.935
 7756SOL    HW224168   2.796   4.930   1.990
 7757SOL     OW24169   0.260   4.918   2.372
 7757SOL    HW124170   0.240   4.917   2.470
 7757SOL    HW224171   0.339   4.976   2.354
 7758SOL     OW24172   1.676   1.531   5.156
 7758SOL    HW124173   1.643   1.584   5.234
 7758SOL    HW224174   1.677   1.434   5.179
 7759SOL     OW24175   3.070   2.486   1.268
 7759SOL    HW124176   2.982   2.495   1.221
 7759SOL    HW224177   3.119   2.573   1.264
 7760SOL     OW24178   4.982   3.119   0.338
 7760SOL    HW124179   4.927   3.133   0.421
 7760SOL    HW224180   5.051   3.191   0.331
 7761SOL     OW24181   4.783   5.425   3.912
 7761SOL    HW124182   4.860   5.477   3.875
 7761SOL    HW224183   4.779   5.335   3.868
 7762SOL     OW24184   5.646   1.626   1.974
 7762SOL    HW124185   5.564   1.582   2.009
 7762SOL    HW224186   5.624   1.721   1.949
 7763SOL     OW24187   2.298   0.372   4.178
 7763SOL    HW124188   2.317   0.284   4.223
 7763SOL    HW224189   2.241   0.427   4.238
 7764SOL     OW24190   2.250   4.140   5.922
 7764SOL    HW124191   2.256   4.041   5.909
 7764SOL    HW224192   2.235   4.184   5.833
 7765SOL     OW24193   5.342   3.386   4.497
 7765SOL    HW124194   5.387   3.460   4.449
 7765SOL    HW224195   5.375   3.298   4.463
 7766SOL     OW24196   6.529   3.567   6.476
 7766SOL    HW124197   6.529   3.652   6.425
 7766SOL    HW224198   6.447   3.514   6.453
 7767SOL     OW24199   3.517   0.595   4.016
 7767SOL    HW124200   3.449   0.636   3.955
 7767SOL    HW224201   3.472   0.530   4.077
 7768SOL     OW24202   4.262   5.629   3.703
 7768SOL    HW124203   4.257   5.576   3.787
 7768SOL    HW224204   4.299   5.573   3.629
 7769SOL     OW24205   3.420   2.956   5.524
 7769SOL    HW124206   3.468   2.971   5.611
 7769SOL    HW224207   3.322   2.964   5.538
 7770SOL     OW24208   1.896   3.313   4.456
 7770SOL    HW124209   1.944   3.377   4.396
 7770SOL    HW224210   1.959   3.243   4.487
 7771SOL     OW24211   2.307   3.588   6.318
 7771SOL    HW124212   2.368   3.666   6.301
 7771SOL    HW224213   2.254   3.605   6.401
 7772SOL     OW24214   5.189   6.552   2.064
 7772SOL    HW124215   5.246   6.584   2.140
 7772SOL    HW224216   5.093   6.570   2.085
 7773SOL     OW24217   2.827   6.455   0.293
 7773SOL    HW124218   2.820   6.554   0.304
 7773SOL    HW224219   2.810   6.411   0.381
 7774SOL     OW24220   5.258   1.139   2.635
 7774SOL    HW124221   5.261   1.110   2.731
 7774SOL    HW224222   5.255   1.238   2.630
 7775SOL     OW24223   2.557   2.184   1.070
 7775SOL    HW124224   2.655   2.164   1.073
 7775SOL    HW224225   2.539   2.251   0.999
 7776SOL     OW24226   2.323   1.506   4.499
 7776SOL    HW124227   2.367   1.453   4.572
 7776SOL    HW224228   2.243   1.552   4.535
 7777SOL     OW24229   5.951   5.909   3.452
 7777SOL    HW124230   5.928   5.960   3.368
 7777SOL    HW224231   5.899   5.824   3.454
 7778SOL     OW24232   6.702   4.797   2.595
 7778SOL    HW124233   6.719   4.868   2.527
 7778SOL    HW224234   6.777   4.731   2.594
 7779SOL     OW24235   4.048   6.042   2.217
 7779SOL    HW124236   4.121   6.062   2.151
 7779SOL    HW224237   3.993   5.966   2.183
 7780SOL     OW24238   6.066   6.545   4.809
 7780SOL    HW124239   6.035   6.591   4.893
 7780SOL    HW224240   5.992   6.544   4.742
 7781SOL     OW24241   1.456   3.343   0.837
 7781SOL    HW124242   1.530   3.293   0.792
 7781SOL    HW224243   1.371   3.330   0.785
 7782SOL     OW24244   5.143   2.939   4.755
 7782SOL    HW124245   5.154   2.972   4.848
 7782SOL    HW224246   5.114   2.844   4.756
 7783SOL     OW24247   1.829   6.275   4.472
 7783SOL    HW124248   1.804   6.235   4.384
 7783SOL    HW224249   1.887   6.211   4.523
 7784SOL     OW24250   1.655   2.129   1.448
 7784SOL    HW124251   1.713   2.049   1.462
 7784SOL    HW224252   1.572   2.102   1.398
 7785SOL     OW24253   6.864   6.680   3.205
 7785SOL    HW124254   6.861   6.764   3.151
 7785SOL    HW224255   6.788   6.679   3.269
 7786SOL     OW24256   4.505   0.952   5.818
 7786SOL    HW124257   4.500   1.026   5.751
 7786SOL    HW224258   4.587   0.897   5.802
 7787SOL     OW24259   2.694   2.237   1.930
 7787SOL    HW124260   2.720   2.179   1.853
 7787SOL    HW224261   2.776   2.280   1.968
 7788SOL     OW24262   0.275   4.294   1.750
 7788SOL    HW124263   0.315   4.333   1.833
 7788SOL    HW224264   0.323   4.210   1.726
 7789SOL     OW24265   3.645   1.416   6.156
 7789SOL    HW124266   3.745   1.416   6.153
 7789SOL    HW224267   3.609   1.486   6.094
 7790SOL     OW24268   4.394   5.018   1.887
 7790SOL    HW124269   4.468   5.035   1.952
 7790SOL    HW224270   4.401   5.081   1.810
 7791SOL     OW24271   2.985   5.867   2.695
 7791SOL    HW124272   2.980   5.888   2.793
 7791SOL    HW224273   2.905   5.906   2.649
 7792SOL     OW24274   1.228   1.461   2.910
 7792SOL    HW124275   1.209   1.397   2.835
 7792SOL    HW224276   1.271   1.544   2.874
 7793SOL     OW24277   5.281   0.986   0.499
 7793SOL    HW124278   5.312   1.079   0.520
 7793SOL    HW224279   5.185   0.988   0.473
 7794SOL     OW24280   0.755   6.606   3.382
 7794SOL    HW124281   0.749   6.694   3.335
 7794SOL    HW224282   0.721   6.534   3.321
 7795SOL     OW24283   3.506   4.577   0.394
 7795SOL    HW124284   3.539   4.670   0.410
 7795SOL    HW224285   3.452   4.547   0.472
 7796SOL     OW24286   3.387   2.451   0.148
 7796SOL    HW124287   3.296   2.413   0.130
 7796SOL    HW224288   3.384   2.550   0.139
 7797SOL     OW24289   0.729   5.665   3.435
 7797SOL    HW124290   0.728   5.749   3.489
 7797SOL    HW224291   0.713   5.687   3.339
 7798SOL     OW24292   1.806   3.082   0.873
 7798SOL    HW124293   1.837   3.136   0.794
 7798SOL    HW224294   1.723   3.032   0.849
 7799SOL     OW24295   3.171   5.887   3.832
 7799SOL    HW124296   3.175   5.925   3.924
 7799SOL    HW224297   3.247   5.923   3.778
 7800SOL     OW24298   0.668   0.038   2.460
 7800SOL    HW124299   0.616   0.123   2.453
 7800SOL    HW224300   0.760   0.059   2.495
 7801SOL     OW24301   1.021   2.161   1.380
 7801SOL    HW124302   0.952   2.230   1.403
 7801SOL    HW224303   1.030   2.156   1.281
 7802SOL     OW24304   0.021   3.485   4.303
 7802SOL    HW124305   0.026   3.473   4.204
 7802SOL    HW224306   6.999   3.572   4.324
 7803SOL     OW24307   2.675   2.392   5.533
 7803SOL    HW124308   2.661   2.298   5.501
 7803SOL    HW224309   2.730   2.390   5.617
 7804SOL     OW24310   3.614   1.648   5.124
 7804SOL    HW124311   3.635   1.552   5.139
 7804SOL    HW224312   3.551   1.657   5.047
 7805SOL     OW24313   5.352   2.790   0.202
 7805SOL    HW124314   5.259   2.814   0.175
 7805SOL    HW224315   5.350   2.731   0.282
 7806SOL     OW24316   7.002   1.481   6.070
 7806SOL    HW124317   0.001   1.509   6.163
 7806SOL    HW224318   6.938   1.547   6.030
 7807SOL     OW24319   2.531   5.627   6.001
 7807SOL    HW124320   2.624   5.623   5.964
 7807SOL    HW224321   2.533   5.665   6.093
 7808SOL     OW24322   6.850   3.662   3.751
 7808SOL    HW124323   6.798   3.597   3.806
 7808SOL    HW224324   6.904   3.722   3.810
 7809SOL     OW24325   5.077   5.661   2.265
 7809SOL    HW124326   5.109   5.733   2.326
 7809SOL    HW224327   5.075   5.574   2.313
 7810SOL     OW24328   2.440   6.634   6.143
 7810SOL    HW124329   2.523   6.647   6.088
 7810SOL    HW224330   2.461   6.646   6.240
 7811SOL     OW24331   1.447   5.802   2.786
 7811SOL    HW124332   1.536   5.758   2.794
 7811SOL    HW224333   1.392   5.754   2.717
 7812SOL     OW24334   3.400   0.625   5.933
 7812SOL    HW124335   3.404   0.545   5.994
 7812SOL    HW224336   3.308   0.664   5.935
 7813SOL     OW24337   5.512   0.344   0.821
 7813SOL    HW124338   5.530   0.349   0.723
 7813SOL    HW224339   5.440   0.408   0.845
 7814SOL     OW24340   6.207   2.847   2.425
 7814SOL    HW124341   6.145   2.780   2.383
 7814SOL    HW224342   6.230   2.918   2.358
 7815SOL     OW24343   5.189   5.520   4.680
 7815SOL    HW124344   5.276   5.527   4.631
 7815SOL    HW224345   5.151   5.429   4.669
 7816SOL     OW24346   0.959   1.267   5.433
 7816SOL    HW124347   1.021   1.190   5.419
 7816SOL    HW224348   0.880   1.257   5.373
 7817SOL     OW24349   3.945   2.829   0.385
 7817SOL    HW124350   3.948   2.873   0.295
 7817SOL    HW224351   3.913   2.735   0.374
 7818SOL     OW24352   5.912   0.823   3.310
 7818SOL    HW124353   5.993   0.779   3.348
 7818SOL    HW224354   5.921   0.923   3.318
 7819SOL     OW24355   1.408   3.177   4.805
 7819SOL    HW124356   1.507   3.177   4.815
 7819SOL    HW224357   1.372   3.088   4.831
 7820SOL     OW24358   1.058   0.781   5.478
 7820SOL    HW124359   1.143   0.730   5.487
 7820SOL    HW224360   0.984   0.719   5.454
 7821SOL     OW24361   3.761   6.178   6.530
 7821SOL    HW124362   3.841   6.166   6.471
 7821SOL    HW224363   3.789   6.219   6.617
 7822SOL     OW24364   0.115   1.176   5.043
 7822SOL    HW124365   0.180   1.139   5.109
 7822SOL    HW224366   0.159   1.182   4.953
 7823SOL     OW24367   2.621   3.426   5.463
 7823SOL    HW124368   2.538   3.418   5.519
 7823SOL    HW224369   2.613   3.506   5.403
 7824SOL     OW24370   5.257   3.852   2.584
 7824SOL    HW124371   5.220   3.877   2.674
 7824SOL    HW224372   5.228   3.760   2.561
 7825SOL     OW24373   3.663   3.129   2.453
 7825SOL    HW124374   3.627   3.082   2.534
 7825SOL    HW224375   3.760   3.107   2.441
 7826SOL     OW24376   0.146   0.717   1.091
 7826SOL    HW124377   0.196   0.771   1.158
 7826SOL    HW224378   0.117   0.631   1.133
 7827SOL     OW24379   4.552   3.357   0.750
 7827SOL    HW124380   4.541   3.262   0.779
 7827SOL    HW224381   4.508   3.369   0.661
 7828SOL     OW24382   0.195   5.913   0.855
 7828SOL    HW124383   0.122   5.929   0.921
 7828SOL    HW224384   0.279   5.889   0.903
 7829SOL     OW24385   4.092   3.495   3.049
 7829SOL    HW124386   4.099   3.518   2.952
 7829SOL    HW224387   4.107   3.577   3.104
 7830SOL     OW24388   5.584   3.745   0.239
 7830SOL    HW124389   5.635   3.706   0.162
 7830SOL    HW224390   5.486   3.730   0.223
 7831SOL     OW24391   1.829   2.589   6.520
 7831SOL    HW124392   1.860   2.662   6.581
 7831SOL    HW224393   1.834   2.620   6.425
 7832SOL     OW24394   2.778   2.533   5.290
 7832SOL    HW124395   2.717   2.558   5.215
 7832SOL    HW224396   2.725   2.515   5.373
 7833SOL     OW24397   0.727   0.094   1.095
 7833SOL    HW124398   0.663   0.164   1.063
 7833SOL    HW224399   0.734   0.098   1.194
 7834SOL     OW24400   6.479   0.463   1.659
 7834SOL    HW124401   6.466   0.490   1.754
 7834SOL    HW224402   6.432   0.527   1.599
 7835SOL     OW24403   2.313   2.155   4.490
 7835SOL    HW124404   2.381   2.100   4.539
 7835SOL    HW224405   2.338   2.159   4.393
 7836SOL     OW24406   2.412   0.872   6.874
 7836SOL    HW124407   2.336   0.809   6.883
 7836SOL    HW224408   2.380   0.959   6.836
 7837SOL     OW24409   4.893   6.200   2.843
 7837SOL    HW124410   4.849   6.230   2.758
 7837SOL    HW224411   4.912   6.102   2.838
 7838SOL     OW24412   3.429   6.395   4.140
 7838SOL    HW124413   3.474   6.483   4.159
 7838SOL    HW224414   3.440   6.372   4.043
 7839SOL     OW24415   0.199   4.618   3.674
 7839SOL    HW124416   0.179   4.533   3.626
 7839SOL    HW224417   0.297   4.622   3.697
 7840SOL     OW24418   4.817   3.113   5.886
 7840SOL    HW124419   4.768   3.108   5.973
 7840SOL    HW224420   4.773   3.180   5.826
 7841SOL     OW24421   1.775   1.729   6.352
 7841SOL    HW124422   1.764   1.750   6.255
 7841SOL    HW224423   1.777   1.814   6.405
 7842SOL     OW24424   2.916   0.637   1.932
 7842SOL    HW124425   2.820   0.644   1.959
 7842SOL    HW224426   2.974   0.672   2.006
 7843SOL     OW24427   6.916   3.321   1.176
 7843SOL    HW124428   6.886   3.298   1.269
 7843SOL    HW224429   6.973   3.246   1.141
 7844SOL     OW24430   3.617   1.326   4.177
 7844SOL    HW124431   3.678   1.374   4.241
 7844SOL    HW224432   3.663   1.316   4.089
 7845SOL     OW24433   1.219   1.227   4.086
 7845SOL    HW124434   1.203   1.325   4.077
 7845SOL    HW224435   1.317   1.209   4.083
 7846SOL     OW24436   3.754   6.501   1.794
 7846SOL    HW124437   3.712   6.437   1.729
 7846SOL    HW224438   3.751   6.462   1.886
 7847SOL     OW24439   0.111   0.592   0.435
 7847SOL    HW124440   0.191   0.650   0.420
 7847SOL    HW224441   0.130   0.500   0.403
 7848SOL     OW24442   4.224   4.025   0.979
 7848SOL    HW124443   4.223   4.072   0.891
 7848SOL    HW224444   4.319   4.010   1.008
 7849SOL     OW24445   5.690   3.905   4.904
 7849SOL    HW124446   5.670   3.833   4.971
 7849SOL    HW224447   5.735   3.864   4.824
 7850SOL     OW24448   0.758   1.645   4.431
 7850SOL    HW124449   0.719   1.557   4.457
 7850SOL    HW224450   0.788   1.694   4.513
 7851SOL     OW24451   4.635   6.575   0.606
 7851SOL    HW124452   4.658   6.643   0.537
 7851SOL    HW224453   4.694   6.495   0.595
 7852SOL     OW24454   1.760   6.683   6.845
 7852SOL    HW124455   1.791   6.777   6.832
 7852SOL    HW224456   1.666   6.683   6.878
 7853SOL     OW24457   1.903   2.653   0.301
 7853SOL    HW124458   1.931   2.557   0.313
 7853SOL    HW224459   1.895   2.697   0.391
 7854SOL     OW24460   3.452   4.135   2.684
 7854SOL    HW124461   3.361   4.142   2.644
 7854SOL    HW224462   3.464   4.045   2.726
 7855SOL     OW24463   3.831   0.049   5.246
 7855SOL    HW124464   3.864   0.119   5.310
 7855SOL    HW224465   3.887   6.992   5.254
 7856SOL     OW24466   4.085   3.668   6.299
 7856SOL    HW124467   4.029   3.587   6.314
 7856SOL    HW224468   4.100   3.715   6.386
 7857SOL     OW24469   0.723   2.200   4.622
 7857SOL    HW124470   0.796   2.269   4.621
 7857SOL    HW224471   0.653   2.226   4.687
 7858SOL     OW24472   5.608   4.251   2.880
 7858SOL    HW124473   5.511   4.252   2.859
 7858SOL    HW224474   5.639   4.157   2.893
 7859SOL     OW24475   0.846   5.278   0.130
 7859SOL    HW124476   0.771   5.331   0.091
 7859SOL    HW224477   0.880   5.214   0.062
 7860SOL     OW24478   3.886   0.048   1.930
 7860SOL    HW124479   3.937   0.009   2.006
 7860SOL    HW224480   3.877   0.147   1.942
 7861SOL     OW24481   5.559   4.048   0.756
 7861SOL    HW124482   5.515   4.022   0.841
 7861SOL    HW224483   5.642   4.100   0.776
 7862SOL     OW24484   2.855   4.280   1.706
 7862SOL    HW124485   2.823   4.321   1.620
 7862SOL    HW224486   2.843   4.344   1.781
 7863SOL     OW24487   5.937   5.660   2.423
 7863SOL    HW124488   5.895   5.710   2.499
 7863SOL    HW224489   5.958   5.724   2.349
 7864SOL     OW24490   0.690   5.989   4.023
 7864SOL    HW124491   0.620   5.919   4.015
 7864SOL    HW224492   0.724   5.992   4.117
 7865SOL     OW24493   3.689   1.110   3.008
 7865SOL    HW124494   3.647   1.162   3.082
 7865SOL    HW224495   3.789   1.118   3.015
 7866SOL     OW24496   2.292   2.132   4.213
 7866SOL    HW124497   2.334   2.093   4.132
 7866SOL    HW224498   2.200   2.095   4.224
 7867SOL     OW24499   5.518   3.918   2.368
 7867SOL    HW124500   5.585   3.844   2.373
 7867SOL    HW224501   5.533   3.982   2.443
 7868SOL     OW24502   5.485   0.042   0.844
 7868SOL    HW124503   5.487   0.139   0.822
 7868SOL    HW224504   5.577   0.012   0.871
 7869SOL     OW24505   6.688   1.946   3.970
 7869SOL    HW124506   6.664   1.894   4.052
 7869SOL    HW224507   6.775   1.913   3.933
 7870SOL     OW24508   0.092   6.921   3.189
 7870SOL    HW124509   0.114   6.935   3.286
 7870SOL    HW224510   7.018   6.913   3.178
 7871SOL     OW24511   5.278   3.393   4.144
 7871SOL    HW124512   5.373   3.424   4.139
 7871SOL    HW224513   5.219   3.471   4.161
 7872SOL     OW24514   6.543   3.285   4.077
 7872SOL    HW124515   6.563   3.202   4.129
 7872SOL    HW224516   6.548   3.265   3.979
 7873SOL     OW24517   6.939   5.647   4.846
 7873SOL    HW124518   6.934   5.739   4.805
 7873SOL    HW224519   6.850   5.603   4.840
 7874SOL     OW24520   6.098   1.444   0.826
 7874SOL    HW124521   6.145   1.382   0.889
 7874SOL    HW224522   6.125   1.538   0.844
 7875SOL     OW24523   4.421   3.172   0.315
 7875SOL    HW124524   4.435   3.215   0.226
 7875SOL    HW224525   4.379   3.082   0.303
 7876SOL     OW24526   0.045   0.762   5.136
 7876SOL    HW124527   0.016   0.856   5.150
 7876SOL    HW224528   0.093   0.728   5.217
 7877SOL     OW24529   6.325   2.708   2.679
 7877SOL    HW124530   6.247   2.654   2.711
 7877SOL    HW224531   6.293   2.782   2.620
 7878SOL     OW24532   4.660   4.230   1.030
 7878SOL    HW124533   4.578   4.174   1.015
 7878SOL    HW224534   4.634   4.325   1.046
 7879SOL     OW24535   5.623   0.835   5.118
 7879SOL    HW124536   5.526   0.840   5.095
 7879SOL    HW224537   5.668   0.920   5.094
 7880SOL     OW24538   1.031   6.650   6.397
 7880SOL    HW124539   1.016   6.680   6.303
 7880SOL    HW224540   0.985   6.562   6.412
 7881SOL     OW24541   0.782   5.013   3.370
 7881SOL    HW124542   0.793   5.054   3.460
 7881SOL    HW224543   0.802   4.915   3.374
 7882SOL     OW24544   0.668   4.219   1.845
 7882SOL    HW124545   0.724   4.223   1.762
 7882SOL    HW224546   0.649   4.124   1.868
 7883SOL     OW24547   3.651   2.085   3.289
 7883SOL    HW124548   3.607   2.060   3.376
 7883SOL    HW224549   3.729   2.145   3.308
 7884SOL     OW24550   0.700   3.744   4.484
 7884SOL    HW124551   0.793   3.750   4.520
 7884SOL    HW224552   0.684   3.817   4.418
 7885SOL     OW24553   5.692   4.985   3.055
 7885SOL    HW124554   5.761   5.052   3.081
 7885SOL    HW224555   5.736   4.898   3.036
 7886SOL     OW24556   4.941   3.299   2.838
 7886SOL    HW124557   4.905   3.303   2.932
 7886SOL    HW224558   5.033   3.260   2.840
 7887SOL     OW24559   2.085   2.538   1.666
 7887SOL    HW124560   2.101   2.636   1.675
 7887SOL    HW224561   2.144   2.488   1.731
 7888SOL     OW24562   6.126   0.886   5.032
 7888SOL    HW124563   6.087   0.851   4.947
 7888SOL    HW224564   6.065   0.864   5.108
 7889SOL     OW24565   5.310   5.099   6.954
 7889SOL    HW124566   5.217   5.131   6.969
 7889SOL    HW224567   5.373   5.177   6.955
 7890SOL     OW24568   2.222   3.055   4.017
 7890SOL    HW124569   2.154   2.997   3.972
 7890SOL    HW224570   2.314   3.022   3.996
 7891SOL     OW24571   6.251   1.926   4.418
 7891SOL    HW124572   6.284   1.993   4.485
 7891SOL    HW224573   6.241   1.837   4.463
 7892SOL     OW24574   0.650   1.574   5.213
 7892SOL    HW124575   0.663   1.656   5.159
 7892SOL    HW224576   0.721   1.569   5.284
 7893SOL     OW24577   5.317   0.490   0.356
 7893SOL    HW124578   5.240   0.469   0.296
 7893SOL    HW224579   5.399   0.504   0.301
 7894SOL     OW24580   3.446   1.371   6.671
 7894SOL    HW124581   3.520   1.338   6.612
 7894SOL    HW224582   3.358   1.351   6.629
 7895SOL     OW24583   6.029   6.861   3.166
 7895SOL    HW124584   6.074   6.778   3.132
 7895SOL    HW224585   5.984   6.842   3.253
 7896SOL     OW24586   2.475   2.562   0.411
 7896SOL    HW124587   2.442   2.653   0.385
 7896SOL    HW224588   2.408   2.493   0.382
 7897SOL     OW24589   3.026   2.689   0.743
 7897SOL    HW124590   3.110   2.695   0.689
 7897SOL    HW224591   2.956   2.746   0.700
 7898SOL     OW24592   5.530   6.455   3.554
 7898SOL    HW124593   5.555   6.464   3.458
 7898SOL    HW224594   5.433   6.478   3.566
 7899SOL     OW24595   6.145   4.433   4.118
 7899SOL    HW124596   6.164   4.410   4.213
 7899SOL    HW224597   6.111   4.352   4.070
 7900SOL     OW24598   0.821   3.832   0.898
 7900SOL    HW124599   0.859   3.746   0.933
 7900SOL    HW224600   0.853   3.848   0.805
 7901SOL     OW24601   0.737   1.643   6.728
 7901SOL    HW124602   0.721   1.571   6.795
 7901SOL    HW224603   0.816   1.697   6.756
 7902SOL     OW24604   1.444   0.121   2.655
 7902SOL    HW124605   1.366   0.171   2.691
 7902SOL    HW224606   1.421   0.025   2.645
 7903SOL     OW24607   2.428   1.810   4.794
 7903SOL    HW124608   2.379   1.727   4.822
 7903SOL    HW224609   2.484   1.842   4.870
 7904SOL     OW24610   4.549   1.781   2.933
 7904SOL    HW124611   4.588   1.722   3.004
 7904SOL    HW224612   4.471   1.736   2.890
 7905SOL     OW24613   5.198   1.303   1.198
 7905SOL    HW124614   5.252   1.348   1.127
 7905SOL    HW224615   5.101   1.308   1.175
 7906SOL     OW24616   1.344   4.959   0.478
 7906SOL    HW124617   1.286   5.040   0.482
 7906SOL    HW224618   1.440   4.987   0.489
 7907SOL     OW24619   6.141   6.567   2.575
 7907SOL    HW124620   6.107   6.525   2.491
 7907SOL    HW224621   6.068   6.622   2.617
 7908SOL     OW24622   1.083   6.871   6.544
 7908SOL    HW124623   1.157   6.910   6.489
 7908SOL    HW224624   1.052   6.786   6.502
 7909SOL     OW24625   5.659   3.942   2.000
 7909SOL    HW124626   5.572   3.928   2.048
 7909SOL    HW224627   5.700   3.853   1.980
 7910SOL     OW24628   0.692   3.909   6.682
 7910SOL    HW124629   0.609   3.924   6.736
 7910SOL    HW224630   0.677   3.941   6.589
 7911SOL     OW24631   6.757   4.496   6.049
 7911SOL    HW124632   6.812   4.541   5.978
 7911SOL    HW224633   6.670   4.543   6.058
 7912SOL     OW24634   6.150   5.213   1.136
 7912SOL    HW124635   6.214   5.136   1.144
 7912SOL    HW224636   6.159   5.272   1.216
 7913SOL     OW24637   1.175   4.851   0.641
 7913SOL    HW124638   1.242   4.896   0.582
 7913SOL    HW224639   1.090   4.838   0.590
 7914SOL     OW24640   0.719   6.722   5.367
 7914SOL    HW124641   0.801   6.743   5.313
 7914SOL    HW224642   0.740   6.726   5.464
 7915SOL     OW24643   3.523   5.382   3.014
 7915SOL    HW124644   3.517   5.357   3.110
 7915SOL    HW224645   3.437   5.359   2.968
 7916SOL     OW24646   1.025   0.465   4.527
 7916SOL    HW124647   0.964   0.544   4.532
 7916SOL    HW224648   0.971   0.381   4.525
 7917SOL     OW24649   4.170   2.202   1.224
 7917SOL    HW124650   4.172   2.227   1.321
 7917SOL    HW224651   4.156   2.285   1.170
 7918SOL     OW24652   1.948   2.309   3.661
 7918SOL    HW124653   1.917   2.384   3.721
 7918SOL    HW224654   1.887   2.303   3.582
 7919SOL     OW24655   1.660   6.251   5.419
 7919SOL    HW124656   1.657   6.260   5.319
 7919SOL    HW224657   1.592   6.183   5.447
 7920SOL     OW24658   4.971   0.381   1.321
 7920SOL    HW124659   4.931   0.469   1.349
 7920SOL    HW224660   4.914   0.340   1.250
 7921SOL     OW24661   5.455   2.394   1.192
 7921SOL    HW124662   5.526   2.325   1.182
 7921SOL    HW224663   5.389   2.365   1.262
 7922SOL     OW24664   2.669   6.654   1.529
 7922SOL    HW124665   2.761   6.684   1.503
 7922SOL    HW224666   2.643   6.698   1.615
 7923SOL     OW24667   5.190   1.690   6.887
 7923SOL    HW124668   5.250   1.766   6.910
 7923SOL    HW224669   5.232   1.604   6.915
 7924SOL     OW24670   6.138   6.308   0.519
 7924SOL    HW124671   6.230   6.278   0.545
 7924SOL    HW224672   6.074   6.232   0.531
 7925SOL     OW24673   1.728   5.175   6.609
 7925SOL    HW124674   1.687   5.125   6.686
 7925SOL    HW224675   1.807   5.124   6.575
 7926SOL     OW24676   4.903   5.929   6.940
 7926SOL    HW124677   4.988   5.884   6.967
 7926SOL    HW224678   4.876   5.897   6.849
 7927SOL     OW24679   4.063   0.045   2.380
 7927SOL    HW124680   4.106   0.128   2.344
 7927SOL    HW224681   4.093   0.030   2.474
 7928SOL     OW24682   5.887   2.284   3.135
 7928SOL    HW124683   5.977   2.246   3.153
 7928SOL    HW224684   5.854   2.251   3.047
 7929SOL     OW24685   4.320   4.572   6.255
 7929SOL    HW124686   4.384   4.648   6.266
 7929SOL    HW224687   4.366   4.486   6.278
 7930SOL     OW24688   4.269   6.504   6.473
 7930SOL    HW124689   4.178   6.546   6.473
 7930SOL    HW224690   4.311   6.518   6.383
 7931SOL     OW24691   4.025   1.984   1.230
 7931SOL    HW124692   4.043   1.938   1.316
 7931SOL    HW224693   4.084   2.065   1.222
 7932SOL     OW24694   1.340   3.766   1.788
 7932SOL    HW124695   1.405   3.713   1.843
 7932SOL    HW224696   1.267   3.800   1.847
 7933SOL     OW24697   0.860   1.776   0.340
 7933SOL    HW124698   0.863   1.705   0.410
 7933SOL    HW224699   0.951   1.787   0.300
 7934SOL     OW24700   0.797   5.743   1.187
 7934SOL    HW124701   0.855   5.716   1.264
 7934SOL    HW224702   0.789   5.843   1.184
 7935SOL     OW24703   5.412   3.094   3.171
 7935SOL    HW124704   5.325   3.143   3.159
 7935SOL    HW224705   5.439   3.053   3.084
 7936SOL     OW24706   3.195   5.903   3.438
 7936SOL    HW124707   3.115   5.858   3.480
 7936SOL    HW224708   3.196   5.884   3.340
 7937SOL     OW24709   3.309   1.110   6.771
 7937SOL    HW124710   3.364   1.027   6.774
 7937SOL    HW224711   3.324   1.164   6.853
 7938SOL     OW24712   2.933   6.636   3.938
 7938SOL    HW124713   2.855   6.583   3.905
 7938SOL    HW224714   3.015   6.579   3.935
 7939SOL     OW24715   0.629   1.084   3.294
 7939SOL    HW124716   0.708   1.137   3.324
 7939SOL    HW224717   0.575   1.139   3.230
 7940SOL     OW24718   5.522   1.543   4.072
 7940SOL    HW124719   5.432   1.563   4.033
 7940SOL    HW224720   5.536   1.599   4.154
 7941SOL     OW24721   3.636   0.248   0.780
 7941SOL    HW124722   3.678   0.198   0.856
 7941SOL    HW224723   3.681   0.337   0.770
 7942SOL     OW24724   0.955   4.836   0.459
 7942SOL    HW124725   0.967   4.910   0.393
 7942SOL    HW224726   1.006   4.755   0.429
 7943SOL     OW24727   1.454   5.889   5.947
 7943SOL    HW124728   1.533   5.941   5.915
 7943SOL    HW224729   1.407   5.941   6.018
 7944SOL     OW24730   1.468   2.831   1.593
 7944SOL    HW124731   1.528   2.816   1.672
 7944SOL    HW224732   1.389   2.771   1.599
 7945SOL     OW24733   6.266   4.115   3.450
 7945SOL    HW124734   6.272   4.153   3.542
 7945SOL    HW224735   6.288   4.017   3.453
 7946SOL     OW24736   4.402   1.087   6.632
 7946SOL    HW124737   4.372   1.048   6.546
 7946SOL    HW224738   4.502   1.097   6.632
 7947SOL     OW24739   0.010   4.033   6.749
 7947SOL    HW124740   6.969   3.988   6.810
 7947SOL    HW224741   0.055   4.108   6.797
 7948SOL     OW24742   1.964   5.523   2.885
 7948SOL    HW124743   1.929   5.430   2.876
 7948SOL    HW224744   2.019   5.546   2.804
 7949SOL     OW24745   3.253   6.167   6.587
 7949SOL    HW124746   3.333   6.151   6.529
 7949SOL    HW224747   3.170   6.147   6.535
 7950SOL     OW24748   5.961   4.412   5.264
 7950SOL    HW124749   5.973   4.335   5.326
 7950SOL    HW224750   5.947   4.496   5.317
 7951SOL     OW24751   4.253   5.822   2.307
 7951SOL    HW124752   4.208   5.909   2.289
 7951SOL    HW224753   4.217   5.783   2.392
 7952SOL     OW24754   6.184   4.248   6.097
 7952SOL    HW124755   6.234   4.237   6.183
 7952SOL    HW224756   6.210   4.176   6.034
 7953SOL     OW24757   1.729   6.748   0.385
 7953SOL    HW124758   1.760   6.682   0.454
 7953SOL    HW224759   1.708   6.699   0.300
 7954SOL     OW24760   3.989   4.041   6.679
 7954SOL    HW124761   3.998   4.138   6.701
 7954SOL    HW224762   3.943   3.994   6.755
 7955SOL     OW24763   1.924   1.568   6.709
 7955SOL    HW124764   1.866   1.532   6.783
 7955SOL    HW224765   1.887   1.539   6.621
 7956SOL     OW24766   6.716   5.865   0.305
 7956SOL    HW124767   6.690   5.871   0.209
 7956SOL    HW224768   6.814   5.847   0.312
 7957SOL     OW24769   4.874   1.138   5.744
 7957SOL    HW124770   4.938   1.157   5.819
 7957SOL    HW224771   4.802   1.076   5.775
 7958SOL     OW24772   5.771   2.859   0.438
 7958SOL    HW124773   5.773   2.896   0.345
 7958SOL    HW224774   5.812   2.768   0.438
 7959SOL     OW24775   6.308   1.971   0.090
 7959SOL    HW124776   6.214   1.977   0.121
 7959SOL    HW224777   6.325   2.041   0.020
 7960SOL     OW24778   0.990   1.463   5.593
 7960SOL    HW124779   0.978   1.392   5.524
 7960SOL    HW224780   0.901   1.494   5.626
 7961SOL     OW24781   6.166   6.645   0.123
 7961SOL    HW124782   6.141   6.561   0.172
 7961SOL    HW224783   6.110   6.721   0.157
 7962SOL     OW24784   5.712   6.861   5.031
 7962SOL    HW124785   5.710   6.931   5.102
 7962SOL    HW224786   5.636   6.798   5.044
 7963SOL     OW24787   6.501   6.918   4.028
 7963SOL    HW124788   6.559   6.992   3.996
 7963SOL    HW224789   6.453   6.877   3.950
 7964SOL     OW24790   6.372   4.178   1.771
 7964SOL    HW124791   6.402   4.085   1.791
 7964SOL    HW224792   6.345   4.184   1.675
 7965SOL     OW24793   4.067   2.686   6.187
 7965SOL    HW124794   4.021   2.725   6.267
 7965SOL    HW224795   4.164   2.672   6.209
 7966SOL     OW24796   4.973   3.753   4.853
 7966SOL    HW124797   4.926   3.790   4.773
 7966SOL    HW224798   4.919   3.677   4.890
 7967SOL     OW24799   1.592   4.424   1.282
 7967SOL    HW124800   1.679   4.423   1.332
 7967SOL    HW224801   1.537   4.501   1.315
 7968SOL     OW24802   6.915   2.762   4.982
 7968SOL    HW124803   6.845   2.740   5.050
 7968SOL    HW224804   7.005   2.739   5.019
 7969SOL     OW24805   3.760   5.696   6.622
 7969SOL    HW124806   3.714   5.701   6.534
 7969SOL    HW224807   3.709   5.636   6.684
 7970SOL     OW24808   6.512   2.611   3.682
 7970SOL    HW124809   6.571   2.636   3.758
 7970SOL    HW224810   6.426   2.575   3.717
 7971SOL     OW24811   2.940   1.347   6.904
 7971SOL    HW124812   3.031   1.369   6.939
 7971SOL    HW224813   2.948   1.294   6.820
 7972SOL     OW24814   3.710   4.090   4.153
 7972SOL    HW124815   3.668   4.154   4.217
 7972SOL    HW224816   3.679   3.997   4.173
 7973SOL     OW24817   5.701   4.173   2.536
 7973SOL    HW124818   5.604   4.151   2.551
 7973SOL    HW224819   5.758   4.107   2.584
 7974SOL     OW24820   0.154   2.983   5.565
 7974SOL    HW124821   0.117   2.990   5.658
 7974SOL    HW224822   0.254   2.989   5.568
 7975SOL     OW24823   5.629   0.399   1.237
 7975SOL    HW124824   5.616   0.485   1.188
 7975SOL    HW224825   5.724   0.369   1.226
 7976SOL     OW24826   0.710   0.681   1.041
 7976SOL    HW124827   0.613   0.663   1.026
 7976SOL    HW224828   0.757   0.688   0.953
 7977SOL     OW24829   5.205   5.989   4.145
 7977SOL    HW124830   5.242   5.997   4.238
 7977SOL    HW224831   5.108   5.966   4.149
 7978SOL     OW24832   7.024   4.491   1.478
 7978SOL    HW124833   0.015   4.406   1.427
 7978SOL    HW224834   6.962   4.550   1.426
 7979SOL     OW24835   1.764   2.430   4.410
 7979SOL    HW124836   1.858   2.460   4.393
 7979SOL    HW224837   1.742   2.439   4.507
 7980SOL     OW24838   3.902   5.864   0.802
 7980SOL    HW124839   3.885   5.834   0.708
 7980SOL    HW224840   4.000   5.881   0.815
 7981SOL     OW24841   1.506   4.392   3.691
 7981SOL    HW124842   1.522   4.449   3.610
 7981SOL    HW224843   1.591   4.344   3.715
 7982SOL     OW24844   6.602   0.863   5.988
 7982SOL    HW124845   6.561   0.772   5.974
 7982SOL    HW224846   6.602   0.913   5.902
 7983SOL     OW24847   4.665   0.889   1.751
 7983SOL    HW124848   4.643   0.986   1.737
 7983SOL    HW224849   4.624   0.835   1.677
 7984SOL     OW24850   0.448   2.383   2.772
 7984SOL    HW124851   0.351   2.360   2.778
 7984SOL    HW224852   0.468   2.421   2.682
 7985SOL     OW24853   2.866   3.133   5.271
 7985SOL    HW124854   2.904   3.048   5.307
 7985SOL    HW224855   2.774   3.146   5.307
 7986SOL     OW24856   3.828   0.950   4.192
 7986SOL    HW124857   3.743   0.955   4.140
 7986SOL    HW224858   3.905   0.974   4.132
 7987SOL     OW24859   0.724   3.630   0.051
 7987SOL    HW124860   0.746   3.565   0.123
 7987SOL    HW224861   0.678   3.582   7.000
 7988SOL     OW24862   6.618   0.958   2.317
 7988SOL    HW124863   6.599   1.055   2.301
 7988SOL    HW224864   6.574   0.903   2.246
 7989SOL     OW24865   0.237   4.393   1.305
 7989SOL    HW124866   0.176   4.334   1.358
 7989SOL    HW224867   0.229   4.371   1.208
 7990SOL     OW24868   4.581   5.892   5.583
 7990SOL    HW124869   4.494   5.938   5.563
 7990SOL    HW224870   4.642   5.903   5.505
 7991SOL     OW24871   5.906   0.870   5.265
 7991SOL    HW124872   5.843   0.934   5.222
 7991SOL    HW224873   5.899   0.878   5.364
 7992SOL     OW24874   2.584   6.869   6.955
 7992SOL    HW124875   2.551   6.829   6.870
 7992SOL    HW224876   2.507   6.887   7.016
 7993SOL     OW24877   6.156   5.685   0.709
 7993SOL    HW124878   6.150   5.688   0.609
 7993SOL    HW224879   6.072   5.646   0.747
 7994SOL     OW24880   6.231   0.206   4.230
 7994SOL    HW124881   6.240   0.261   4.147
 7994SOL    HW224882   6.228   0.109   4.206
 7995SOL     OW24883   0.861   5.119   1.371
 7995SOL    HW124884   0.870   5.021   1.389
 7995SOL    HW224885   0.766   5.140   1.350
 7996SOL     OW24886   3.062   6.722   3.337
 7996SOL    HW124887   3.158   6.740   3.362
 7996SOL    HW224888   3.039   6.776   3.256
 7997SOL     OW24889   2.010   1.581   6.325
 7997SOL    HW124890   1.918   1.621   6.321
 7997SOL    HW224891   2.003   1.485   6.352
 7998SOL     OW24892   2.760   0.972   0.498
 7998SOL    HW124893   2.773   0.873   0.488
 7998SOL    HW224894   2.667   0.996   0.469
 7999SOL     OW24895   1.006   0.529   4.874
 7999SOL    HW124896   1.082   0.547   4.812
 7999SOL    HW224897   0.921   0.563   4.833
 8000SOL     OW24898   4.095   5.301   0.309
 8000SOL    HW124899   4.149   5.357   0.372
 8000SOL    HW224900   4.148   5.219   0.284
 8001SOL     OW24901   4.335   5.235   1.082
 8001SOL    HW124902   4.268   5.161   1.083
 8001SOL    HW224903   4.328   5.289   1.166
 8002SOL     OW24904   1.140   0.254   5.196
 8002SOL    HW124905   1.059   0.196   5.190
 8002SOL    HW224906   1.118   0.347   5.168
 8003SOL     OW24907   2.569   5.731   2.240
 8003SOL    HW124908   2.553   5.675   2.321
 8003SOL    HW224909   2.568   5.827   2.265
 8004SOL     OW24910   1.221   3.130   3.557
 8004SOL    HW124911   1.125   3.147   3.580
 8004SOL    HW224912   1.233   3.138   3.458
 8005SOL     OW24913   2.328   0.584   3.061
 8005SOL    HW124914   2.301   0.522   3.135
 8005SOL    HW224915   2.343   0.532   2.977
 8006SOL     OW24916   3.758   4.278   5.547
 8006SOL    HW124917   3.797   4.308   5.460
 8006SOL    HW224918   3.664   4.313   5.554
 8007SOL     OW24919   6.926   0.499   0.601
 8007SOL    HW124920   6.989   0.547   0.541
 8007SOL    HW224921   6.963   0.499   0.694
 8008SOL     OW24922   4.879   6.244   0.264
 8008SOL    HW124923   4.831   6.332   0.254
 8008SOL    HW224924   4.973   6.254   0.233
 8009SOL     OW24925   5.835   0.804   6.979
 8009SOL    HW124926   5.927   0.768   6.989
 8009SOL    HW224927   5.827   0.891   0.002
 8010SOL     OW24928   2.939   0.223   5.650
 8010SOL    HW124929   3.014   0.254   5.591
 8010SOL    HW224930   2.870   0.295   5.656
 8011SOL     OW24931   3.946   2.167   3.250
 8011SOL    HW124932   4.009   2.219   3.192
 8011SOL    HW224933   3.962   2.188   3.346
 8012SOL     OW24934   5.837   1.713   4.842
 8012SOL    HW124935   5.869   1.618   4.846
 8012SOL    HW224936   5.738   1.715   4.839
 8013SOL     OW24937   3.366   1.596   2.399
 8013SOL    HW124938   3.347   1.632   2.491
 8013SOL    HW224939   3.307   1.643   2.333
 8014SOL     OW24940   2.184   2.485   2.642
 8014SOL    HW124941   2.237   2.559   2.684
 8014SOL    HW224942   2.184   2.495   2.542
 8015SOL     OW24943   3.309   0.210   4.917
 8015SOL    HW124944   3.335   0.115   4.901
 8015SOL    HW224945   3.223   0.229   4.869
 8016SOL     OW24946   3.549   2.209   5.252
 8016SOL    HW124947   3.595   2.292   5.284
 8016SOL    HW224948   3.599   2.172   5.173
 8017SOL     OW24949   6.823   5.483   0.902
 8017SOL    HW124950   6.727   5.479   0.928
 8017SOL    HW224951   6.851   5.579   0.892
 8018SOL     OW24952   4.051   2.396   6.500
 8018SOL    HW124953   3.978   2.336   6.470
 8018SOL    HW224954   4.135   2.342   6.514
 8019SOL     OW24955   2.683   3.686   0.925
 8019SOL    HW124956   2.755   3.616   0.920
 8019SOL    HW224957   2.605   3.657   0.870
 8020SOL     OW24958   0.840   0.767   5.845
 8020SOL    HW124959   0.920   0.755   5.904
 8020SOL    HW224960   0.785   0.844   5.878
 8021SOL     OW24961   1.379   2.589   0.710
 8021SOL    HW124962   1.461   2.540   0.683
 8021SOL    HW224963   1.393   2.631   0.800
 8022SOL     OW24964   4.316   1.063   1.723
 8022SOL    HW124965   4.381   1.064   1.799
 8022SOL    HW224966   4.331   0.980   1.668
 8023SOL     OW24967   4.713   6.174   1.282
 8023SOL    HW124968   4.768   6.132   1.210
 8023SOL    HW224969   4.772   6.200   1.359
 8024SOL     OW24970   2.509   1.470   6.486
 8024SOL    HW124971   2.535   1.374   6.488
 8024SOL    HW224972   2.580   1.523   6.440
 8025SOL     OW24973   1.474   5.829   1.746
 8025SOL    HW124974   1.412   5.858   1.673
 8025SOL    HW224975   1.558   5.882   1.741
 8026SOL     OW24976   0.554   5.954   6.342
 8026SOL    HW124977   0.475   5.985   6.395
 8026SOL    HW224978   0.560   5.854   6.347
 8027SOL     OW24979   3.862   0.694   6.888
 8027SOL    HW124980   3.816   0.618   6.933
 8027SOL    HW224981   3.801   0.735   6.820
 8028SOL     OW24982   3.025   5.626   5.293
 8028SOL    HW124983   2.992   5.605   5.385
 8028SOL    HW224984   3.031   5.725   5.281
 8029SOL     OW24985   0.685   0.066   0.700
 8029SOL    HW124986   0.610   0.118   0.741
 8029SOL    HW224987   0.765   0.126   0.691
 8030SOL     OW24988   0.594   4.401   1.033
 8030SOL    HW124989   0.583   4.336   1.108
 8030SOL    HW224990   0.504   4.432   1.002
 8031SOL     OW24991   0.524   0.562   2.964
 8031SOL    HW124992   0.547   0.655   2.989
 8031SOL    HW224993   0.462   0.523   3.033
 8032SOL     OW24994   0.045   3.089   1.145
 8032SOL    HW124995   0.119   3.095   1.211
 8032SOL    HW224996   7.000   3.026   1.179
 8033SOL     OW24997   4.475   3.999   1.088
 8033SOL    HW124998   4.431   4.061   1.154
 8033SOL    HW224999   4.461   3.904   1.117
 8034SOL     OW25000   6.742   6.975   6.233
 8034SOL    HW125001   6.744   0.047   6.260
 8034SOL    HW225002   6.655   6.954   6.189
 8035SOL     OW25003   5.923   1.111   3.600
 8035SOL    HW125004   5.929   1.014   3.577
 8035SOL    HW225005   5.873   1.159   3.527
 8036SOL     OW25006   5.063   2.674   4.125
 8036SOL    HW125007   5.011   2.659   4.041
 8036SOL    HW225008   5.022   2.619   4.199
 8037SOL     OW25009   2.213   1.476   5.703
 8037SOL    HW125010   2.144   1.424   5.753
 8037SOL    HW225011   2.286   1.504   5.765
 8038SOL     OW25012   6.833   5.357   2.023
 8038SOL    HW125013   6.929   5.377   2.004
 8038SOL    HW225014   6.791   5.435   2.070
 8039SOL     OW25015   1.210   2.457   5.164
 8039SOL    HW125016   1.286   2.417   5.216
 8039SOL    HW225017   1.162   2.385   5.114
 8040SOL     OW25018   1.538   5.480   6.626
 8040SOL    HW125019   1.616   5.419   6.608
 8040SOL    HW225020   1.455   5.425   6.634
 8041SOL     OW25021   3.288   1.304   2.766
 8041SOL    HW125022   3.333   1.215   2.766
 8041SOL    HW225023   3.280   1.338   2.672
 8042SOL     OW25024   4.303   3.840   5.782
 8042SOL    HW125025   4.331   3.807   5.872
 8042SOL    HW225026   4.210   3.811   5.763
 8043SOL     OW25027   5.490   5.828   6.469
 8043SOL    HW125028   5.504   5.729   6.468
 8043SOL    HW225029   5.576   5.874   6.492
 8044SOL     OW25030   2.548   3.600   1.713
 8044SOL    HW125031   2.482   3.543   1.762
 8044SOL    HW225032   2.637   3.555   1.714
 8045SOL     OW25033   6.924   2.686   3.969
 8045SOL    HW125034   6.925   2.594   3.930
 8045SOL    HW225035   7.015   2.709   4.004
 8046SOL     OW25036   6.698   4.567   2.227
 8046SOL    HW125037   6.709   4.665   2.244
 8046SOL    HW225038   6.734   4.545   2.137
 8047SOL     OW25039   3.266   5.938   6.773
 8047SOL    HW125040   3.362   5.946   6.799
 8047SOL    HW225041   3.248   5.998   6.695
 8048SOL     OW25042   3.435   2.556   5.888
 8048SOL    HW125043   3.443   2.519   5.795
 8048SOL    HW225044   3.496   2.505   5.949
 8049SOL     OW25045   1.918   1.917   0.671
 8049SOL    HW125046   1.964   1.905   0.759
 8049SOL    HW225047   1.819   1.904   0.684
 8050SOL     OW25048   0.797   4.701   5.520
 8050SOL    HW125049   0.887   4.695   5.564
 8050SOL    HW225050   0.792   4.785   5.467
 8051SOL     OW25051   4.312   0.201   3.395
 8051SOL    HW125052   4.372   0.133   3.353
 8051SOL    HW225053   4.333   0.208   3.493
 8052SOL     OW25054   2.823   1.822   2.494
 8052SOL    HW125055   2.921   1.836   2.479
 8052SOL    HW225056   2.775   1.908   2.476
 8053SOL     OW25057   2.121   2.511   6.447
 8053SOL    HW125058   2.161   2.419   6.447
 8053SOL    HW225059   2.035   2.510   6.498
 8054SOL     OW25060   4.966   3.180   5.218
 8054SOL    HW125061   5.016   3.197   5.303
 8054SOL    HW225062   4.949   3.267   5.171
 8055SOL     OW25063   5.936   0.587   0.270
 8055SOL    HW125064   5.945   0.534   0.354
 8055SOL    HW225065   5.846   0.569   0.228
 8056SOL     OW25066   2.375   0.639   3.780
 8056SOL    HW125067   2.289   0.615   3.734
 8056SOL    HW225068   2.432   0.557   3.788
 8057SOL     OW25069   2.928   2.232   1.725
 8057SOL    HW125070   2.919   2.304   1.793
 8057SOL    HW225071   2.867   2.250   1.648
 8058SOL     OW25072   3.597   6.245   1.682
 8058SOL    HW125073   3.517   6.305   1.688
 8058SOL    HW225074   3.575   6.155   1.718
 8059SOL     OW25075   3.091   2.254   5.881
 8059SOL    HW125076   3.094   2.339   5.932
 8059SOL    HW225077   3.075   2.274   5.784
 8060SOL     OW25078   6.406   1.062   6.385
 8060SOL    HW125079   6.424   1.143   6.439
 8060SOL    HW225080   6.490   1.009   6.374
 8061SOL     OW25081   0.271   0.506   2.793
 8061SOL    HW125082   0.210   0.553   2.856
 8061SOL    HW225083   0.366   0.513   2.826
 8062SOL     OW25084   4.003   5.598   5.159
 8062SOL    HW125085   4.023   5.630   5.067
 8062SOL    HW225086   4.060   5.647   5.225
 8063SOL     OW25087   2.874   4.811   3.029
 8063SOL    HW125088   2.851   4.745   2.958
 8063SOL    HW225089   2.973   4.810   3.044
 8064SOL     OW25090   6.606   1.932   0.703
 8064SOL    HW125091   6.703   1.917   0.723
 8064SOL    HW225092   6.582   2.026   0.726
 8065SOL     OW25093   4.319   5.995   6.424
 8065SOL    HW125094   4.359   5.964   6.338
 8065SOL    HW225095   4.261   6.075   6.406
 8066SOL     OW25096   0.607   6.708   5.874
 8066SOL    HW125097   0.521   6.677   5.832
 8066SOL    HW225098   0.591   6.730   5.970
 8067SOL     OW25099   5.312   1.894   3.668
 8067SOL    HW125100   5.409   1.894   3.692
 8067SOL    HW225101   5.257   1.895   3.751
 8068SOL     OW25102   5.610   3.801   1.442
 8068SOL    HW125103   5.580   3.891   1.411
 8068SOL    HW225104   5.657   3.753   1.367
 8069SOL     OW25105   1.900   4.411   2.848
 8069SOL    HW125106   1.822   4.394   2.908
 8069SOL    HW225107   1.984   4.410   2.902
 8070SOL     OW25108   4.976   4.684   0.552
 8070SOL    HW125109   5.019   4.615   0.611
 8070SOL    HW225110   4.905   4.642   0.496
 8071SOL     OW25111   2.217   6.916   6.222
 8071SOL    HW125112   2.264   6.923   6.134
 8071SOL    HW225113   2.149   6.989   6.230
 8072SOL     OW25114   2.069   1.594   5.346
 8072SOL    HW125115   2.167   1.597   5.324
 8072SOL    HW225116   2.047   1.671   5.406
 8073SOL     OW25117   5.010   0.564   6.541
 8073SOL    HW125118   4.996   0.538   6.637
 8073SOL    HW225119   4.966   0.652   6.523
 8074SOL     OW25120   1.897   0.858   6.685
 8074SOL    HW125121   1.994   0.879   6.696
 8074SOL    HW225122   1.842   0.926   6.735
 8075SOL     OW25123   0.063   6.891   1.270
 8075SOL    HW125124   0.031   6.913   1.179
 8075SOL    HW225125   7.020   6.918   1.338
 8076SOL     OW25126   0.003   6.490   0.388
 8076SOL    HW125127   0.032   6.545   0.466
 8076SOL    HW225128   0.063   6.411   0.378
 8077SOL     OW25129   4.740   4.602   0.400
 8077SOL    HW125130   4.708   4.568   0.312
 8077SOL    HW225131   4.687   4.559   0.473
 8078SOL     OW25132   0.134   1.478   1.289
 8078SOL    HW125133   0.088   1.566   1.300
 8078SOL    HW225134   0.165   1.469   1.194
 8079SOL     OW25135   2.079   1.066   6.158
 8079SOL    HW125136   2.090   1.009   6.240
 8079SOL    HW225137   1.998   1.124   6.169
 8080SOL     OW25138   0.700   3.305   3.065
 8080SOL    HW125139   0.673   3.268   2.976
 8080SOL    HW225140   0.766   3.379   3.052
 8081SOL     OW25141   5.941   6.937   4.822
 8081SOL    HW125142   5.882   6.985   4.757
 8081SOL    HW225143   5.918   6.840   4.822
 8082SOL     OW25144   4.033   1.323   3.733
 8082SOL    HW125145   4.116   1.310   3.679
 8082SOL    HW225146   4.058   1.347   3.827
 8083SOL     OW25147   6.028   2.019   4.607
 8083SOL    HW125148   6.038   1.920   4.621
 8083SOL    HW225149   6.116   2.064   4.618
 8084SOL     OW25150   3.937   1.354   6.227
 8084SOL    HW125151   3.997   1.433   6.233
 8084SOL    HW225152   3.941   1.316   6.135
 8085SOL     OW25153   1.996   6.181   4.664
 8085SOL    HW125154   2.088   6.145   4.646
 8085SOL    HW225155   1.992   6.217   4.757
 8086SOL     OW25156   0.073   0.747   2.401
 8086SOL    HW125157   0.078   0.838   2.361
 8086SOL    HW225158   0.060   0.679   2.328
 8087SOL     OW25159   0.757   0.510   0.283
 8087SOL    HW125160   0.768   0.601   0.244
 8087SOL    HW225161   0.844   0.461   0.280
 8088SOL     OW25162   6.699   0.259   5.291
 8088SOL    HW125163   6.749   0.326   5.347
 8088SOL    HW225164   6.757   0.226   5.218
 8089SOL     OW25165   6.722   2.174   6.205
 8089SOL    HW125166   6.623   2.158   6.204
 8089SOL    HW225167   6.740   2.273   6.207
 8090SOL     OW25168   4.268   2.223   5.307
 8090SOL    HW125169   4.289   2.164   5.385
 8090SOL    HW225170   4.230   2.168   5.233
 8091SOL     OW25171   1.448   5.107   3.779
 8091SOL    HW125172   1.438   5.122   3.877
 8091SOL    HW225173   1.544   5.089   3.757
 8092SOL     OW25174   4.986   1.627   6.279
 8092SOL    HW125175   4.897   1.594   6.311
 8092SOL    HW225176   4.979   1.724   6.255
 8093SOL     OW25177   3.481   6.025   2.643
 8093SOL    HW125178   3.537   6.057   2.567
 8093SOL    HW225179   3.454   5.930   2.626
 8094SOL     OW25180   2.075   3.994   4.286
 8094SOL    HW125181   1.979   4.010   4.260
 8094SOL    HW225182   2.110   3.914   4.239
 8095SOL     OW25183   1.402   4.802   5.437
 8095SOL    HW125184   1.457   4.727   5.474
 8095SOL    HW225185   1.354   4.771   5.355
 8096SOL     OW25186   1.084   6.014   0.346
 8096SOL    HW125187   1.161   6.068   0.312
 8096SOL    HW225188   1.117   5.947   0.412
 8097SOL     OW25189   4.463   6.122   6.588
 8097SOL    HW125190   4.550   6.149   6.547
 8097SOL    HW225191   4.414   6.061   6.526
 8098SOL     OW25192   1.764   5.980   5.021
 8098SOL    HW125193   1.697   5.908   5.036
 8098SOL    HW225194   1.730   6.044   4.953
 8099SOL     OW25195   2.067   4.340   2.633
 8099SOL    HW125196   2.023   4.371   2.717
 8099SOL    HW225197   2.048   4.242   2.620
 8100SOL     OW25198   6.932   1.132   6.858
 8100SOL    HW125199   6.918   1.087   6.770
 8100SOL    HW225200   6.864   1.100   6.923
 8101SOL     OW25201   3.477   5.296   0.682
 8101SOL    HW125202   3.380   5.284   0.705
 8101SOL    HW225203   3.486   5.316   0.584
 8102SOL     OW25204   1.259   3.858   4.903
 8102SOL    HW125205   1.355   3.831   4.899
 8102SOL    HW225206   1.236   3.910   4.820
 8103SOL     OW25207   3.141   1.101   1.970
 8103SOL    HW125208   3.060   1.075   1.916
 8103SOL    HW225209   3.199   1.021   1.983
 8104SOL     OW25210   1.726   5.963   0.547
 8104SOL    HW125211   1.701   5.926   0.457
 8104SOL    HW225212   1.810   6.016   0.538
 8105SOL     OW25213   7.005   6.982   3.454
 8105SOL    HW125214   0.012   6.918   3.524
 8105SOL    HW225215   0.011   0.050   3.476
 8106SOL     OW25216   2.117   0.232   6.157
 8106SOL    HW125217   2.059   0.155   6.183
 8106SOL    HW225218   2.066   0.292   6.095
 8107SOL     OW25219   1.339   6.316   6.552
 8107SOL    HW125220   1.399   6.250   6.599
 8107SOL    HW225221   1.257   6.269   6.520
 8108SOL     OW25222   1.354   1.447   6.881
 8108SOL    HW125223   1.289   1.498   6.823
 8108SOL    HW225224   1.447   1.461   6.847
 8109SOL     OW25225   6.169   3.238   1.045
 8109SOL    HW125226   6.192   3.148   1.008
 8109SOL    HW225227   6.251   3.280   1.084
 8110SOL     OW25228   3.623   4.790   1.241
 8110SOL    HW125229   3.548   4.812   1.180
 8110SOL    HW225230   3.659   4.873   1.282
 8111SOL     OW25231   6.178   1.309   2.450
 8111SOL    HW125232   6.230   1.348   2.374
 8111SOL    HW225233   6.241   1.282   2.523
 8112SOL     OW25234   1.711   4.002   6.379
 8112SOL    HW125235   1.670   3.943   6.309
 8112SOL    HW225236   1.720   4.095   6.343
 8113SOL     OW25237   5.210   3.500   5.869
 8113SOL    HW125238   5.279   3.431   5.894
 8113SOL    HW225239   5.252   3.591   5.870
 8114SOL     OW25240   1.386   4.183   2.188
 8114SOL    HW125241   1.354   4.229   2.271
 8114SOL    HW225242   1.470   4.228   2.155
 8115SOL     OW25243   2.988   1.787   5.797
 8115SOL    HW125244   2.972   1.823   5.706
 8115SOL    HW225245   3.086   1.777   5.813
 8116SOL     OW25246   3.876   3.190   1.127
 8116SOL    HW125247   3.951   3.257   1.122
 8116SOL    HW225248   3.789   3.238   1.124
 8117SOL     OW25249   2.230   6.840   3.545
 8117SOL    HW125250   2.219   6.799   3.636
 8117SOL    HW225251   2.148   6.822   3.490
 8118SOL     OW25252   6.334   3.249   0.197
 8118SOL    HW125253   6.418   3.196   0.183
 8118SOL    HW225254   6.297   3.228   0.288
 8119SOL     OW25255   5.922   6.167   0.655
 8119SOL    HW125256   5.984   6.139   0.728
 8119SOL    HW225257   5.862   6.239   0.689
 8120SOL     OW25258   2.488   0.290   1.483
 8120SOL    HW125259   2.512   0.378   1.523
 8120SOL    HW225260   2.482   0.221   1.555
 8121SOL     OW25261   0.496   3.296   2.460
 8121SOL    HW125262   0.519   3.206   2.424
 8121SOL    HW225263   0.426   3.288   2.531
 8122SOL     OW25264   0.615   4.859   1.010
 8122SOL    HW125265   0.663   4.771   1.010
 8122SOL    HW225266   0.589   4.883   1.103
 8123SOL     OW25267   0.114   1.702   6.541
 8123SOL    HW125268   0.157   1.792   6.528
 8123SOL    HW225269   0.091   1.691   6.638
 8124SOL     OW25270   5.189   5.001   4.753
 8124SOL    HW125271   5.227   4.918   4.713
 8124SOL    HW225272   5.091   5.005   4.736
 8125SOL     OW25273   1.712   6.238   3.182
 8125SOL    HW125274   1.788   6.225   3.119
 8125SOL    HW225275   1.738   6.205   3.273
 8126SOL     OW25276   3.690   4.967   4.377
 8126SOL    HW125277   3.746   4.929   4.303
 8126SOL    HW225278   3.730   5.054   4.407
 8127SOL     OW25279   3.883   2.529   0.034
 8127SOL    HW125280   3.974   2.569   0.044
 8127SOL    HW225281   3.887   2.431   0.053
 8128SOL     OW25282   3.634   3.211   1.552
 8128SOL    HW125283   3.726   3.177   1.529
 8128SOL    HW225284   3.618   3.298   1.505
 8129SOL     OW25285   1.848   2.759   2.221
 8129SOL    HW125286   1.856   2.660   2.229
 8129SOL    HW225287   1.932   2.796   2.181
 8130SOL     OW25288   0.499   5.711   6.772
 8130SOL    HW125289   0.516   5.702   6.870
 8130SOL    HW225290   0.583   5.688   6.722
 8131SOL     OW25291   1.987   3.755   6.816
 8131SOL    HW125292   1.923   3.682   6.791
 8131SOL    HW225293   2.037   3.728   6.899
 8132SOL     OW25294   0.487   0.392   5.628
 8132SOL    HW125295   0.451   0.305   5.592
 8132SOL    HW225296   0.412   0.448   5.662
 8133SOL     OW25297   3.898   4.985   0.519
 8133SOL    HW125298   3.871   5.051   0.588
 8133SOL    HW225299   3.888   5.025   0.428
 8134SOL     OW25300   5.696   1.513   5.777
 8134SOL    HW125301   5.628   1.575   5.814
 8134SOL    HW225302   5.663   1.419   5.786
 8135SOL     OW25303   2.747   6.851   1.905
 8135SOL    HW125304   2.675   6.782   1.894
 8135SOL    HW225305   2.837   6.807   1.900
 8136SOL     OW25306   5.051   4.620   1.967
 8136SOL    HW125307   5.114   4.548   1.938
 8136SOL    HW225308   5.103   4.693   2.012
 8137SOL     OW25309   4.057   1.246   5.232
 8137SOL    HW125310   4.069   1.191   5.150
 8137SOL    HW225311   4.028   1.187   5.307
 8138SOL     OW25312   5.280   0.940   2.204
 8138SOL    HW125313   5.378   0.928   2.191
 8138SOL    HW225314   5.247   1.015   2.146
 8139SOL     OW25315   0.617   2.342   3.323
 8139SOL    HW125316   0.572   2.421   3.281
 8139SOL    HW225317   0.550   2.271   3.340
 8140SOL     OW25318   4.347   0.714   3.232
 8140SOL    HW125319   4.397   0.638   3.271
 8140SOL    HW225320   4.272   0.680   3.174
 8141SOL     OW25321   4.902   5.020   4.807
 8141SOL    HW125322   4.928   4.977   4.894
 8141SOL    HW225323   4.807   4.997   4.786
 8142SOL     OW25324   6.998   6.124   0.582
 8142SOL    HW125325   0.047   6.178   0.621
 8142SOL    HW225326   6.980   6.044   0.640
 8143SOL     OW25327   6.399   3.535   4.861
 8143SOL    HW125328   6.308   3.542   4.901
 8143SOL    HW225329   6.454   3.471   4.914
 8144SOL     OW25330   5.750   0.121   6.142
 8144SOL    HW125331   5.719   0.037   6.098
 8144SOL    HW225332   5.685   0.195   6.124
 8145SOL     OW25333   5.493   6.121   2.676
 8145SOL    HW125334   5.409   6.165   2.709
 8145SOL    HW225335   5.553   6.190   2.635
 8146SOL     OW25336   2.957   0.921   3.939
 8146SOL    HW125337   2.972   0.920   3.840
 8146SOL    HW225338   2.864   0.954   3.958
 8147SOL     OW25339   4.943   0.674   3.594
 8147SOL    HW125340   4.901   0.648   3.681
 8147SOL    HW225341   4.970   0.770   3.598
 8148SOL     OW25342   5.132   4.019   3.774
 8148SOL    HW125343   5.185   3.935   3.783
 8148SOL    HW225344   5.109   4.034   3.677
 8149SOL     OW25345   4.406   4.668   3.442
 8149SOL    HW125346   4.494   4.625   3.462
 8149SOL    HW225347   4.367   4.704   3.527
 8150SOL     OW25348   0.966   5.654   1.378
 8150SOL    HW125349   0.933   5.650   1.472
 8150SOL    HW225350   1.028   5.732   1.368
 8151SOL     OW25351   1.105   1.797   5.197
 8151SOL    HW125352   1.122   1.893   5.223
 8151SOL    HW225353   1.146   1.737   5.265
 8152SOL     OW25354   1.571   1.198   3.254
 8152SOL    HW125355   1.565   1.250   3.169
 8152SOL    HW225356   1.654   1.143   3.253
 8153SOL     OW25357   1.765   7.022   0.327
 8153SOL    HW125358   1.707   0.024   0.250
 8153SOL    HW225359   1.731   6.936   0.365
 8154SOL     OW25360   2.057   0.144   3.439
 8154SOL    HW125361   2.046   0.072   3.507
 8154SOL    HW225362   2.087   0.104   3.353
 8155SOL     OW25363   3.122   3.136   3.370
 8155SOL    HW125364   3.202   3.196   3.371
 8155SOL    HW225365   3.048   3.178   3.422
 8156SOL     OW25366   6.569   7.003   6.001
 8156SOL    HW125367   6.663   7.018   5.972
 8156SOL    HW225368   6.508   7.007   5.922
 8157SOL     OW25369   5.752   3.065   6.926
 8157SOL    HW125370   5.776   2.970   6.947
 8157SOL    HW225371   5.835   3.121   6.927
 8158SOL     OW25372   1.886   5.567   2.023
 8158SOL    HW125373   1.910   5.578   1.926
 8158SOL    HW225374   1.813   5.500   2.032
 8159SOL     OW25375   1.347   5.808   2.009
 8159SOL    HW125376   1.254   5.827   1.975
 8159SOL    HW225377   1.412   5.820   1.934
 8160SOL     OW25378   4.434   2.493   1.907
 8160SOL    HW125379   4.392   2.475   1.996
 8160SOL    HW225380   4.505   2.562   1.918
 8161SOL     OW25381   4.518   1.875   0.728
 8161SOL    HW125382   4.468   1.834   0.652
 8161SOL    HW225383   4.452   1.907   0.797
 8162SOL     OW25384   6.068   0.594   1.524
 8162SOL    HW125385   6.079   0.597   1.424
 8162SOL    HW225386   5.998   0.660   1.551
 8163SOL     OW25387   2.235   3.945   5.384
 8163SOL    HW125388   2.295   3.959   5.305
 8163SOL    HW225389   2.167   3.876   5.362
 8164SOL     OW25390   4.785   1.870   1.740
 8164SOL    HW125391   4.872   1.825   1.759
 8164SOL    HW225392   4.756   1.922   1.820
 8165SOL     OW25393   2.220   4.772   1.705
 8165SOL    HW125394   2.230   4.693   1.645
 8165SOL    HW225395   2.268   4.851   1.665
 8166SOL     OW25396   3.011   6.901   1.728
 8166SOL    HW125397   2.972   6.992   1.744
 8166SOL    HW225398   3.019   6.852   1.815
 8167SOL     OW25399   5.052   3.348   4.353
 8167SOL    HW125400   5.146   3.329   4.382
 8167SOL    HW225401   5.023   3.436   4.390
 8168SOL     OW25402   3.409   1.393   2.988
 8168SOL    HW125403   3.432   1.488   2.969
 8168SOL    HW225404   3.360   1.354   2.910
 8169SOL     OW25405   4.931   4.361   6.034
 8169SOL    HW125406   4.919   4.286   6.100
 8169SOL    HW225407   4.891   4.335   5.947
 8170SOL     OW25408   0.357   5.067   3.784
 8170SOL    HW125409   0.310   5.116   3.857
 8170SOL    HW225410   0.421   5.001   3.825
 8171SOL     OW25411   1.463   1.188   5.520
 8171SOL    HW125412   1.372   1.158   5.546
 8171SOL    HW225413   1.531   1.139   5.574
 8172SOL     OW25414   6.911   6.267   0.963
 8172SOL    HW125415   6.941   6.362   0.969
 8172SOL    HW225416   6.886   6.246   0.868
 8173SOL     OW25417   4.804   2.896   6.773
 8173SOL    HW125418   4.766   2.807   6.797
 8173SOL    HW225419   4.817   2.900   6.673
 8174SOL     OW25420   5.356   0.331   2.264
 8174SOL    HW125421   5.436   0.376   2.224
 8174SOL    HW225422   5.292   0.401   2.298
 8175SOL     OW25423   1.132   3.759   5.659
 8175SOL    HW125424   1.117   3.831   5.591
 8175SOL    HW225425   1.205   3.788   5.722
 8176SOL     OW25426   3.598   5.655   3.106
 8176SOL    HW125427   3.526   5.591   3.129
 8176SOL    HW225428   3.562   5.749   3.106
 8177SOL     OW25429   1.576   0.105   6.325
 8177SOL    HW125430   1.659   0.140   6.369
 8177SOL    HW225431   1.579   0.006   6.322
 8178SOL     OW25432   1.899   6.316   6.262
 8178SOL    HW125433   1.950   6.310   6.348
 8178SOL    HW225434   1.887   6.224   6.224
 8179SOL     OW25435   3.149   0.465   0.516
 8179SOL    HW125436   3.066   0.516   0.495
 8179SOL    HW225437   3.193   0.436   0.430
 8180SOL     OW25438   4.455   5.592   5.175
 8180SOL    HW125439   4.380   5.553   5.229
 8180SOL    HW225440   4.538   5.539   5.191
 8181SOL     OW25441   2.833   2.270   2.481
 8181SOL    HW125442   2.821   2.282   2.382
 8181SOL    HW225443   2.787   2.345   2.529
 8182SOL     OW25444   3.935   2.138   5.594
 8182SOL    HW125445   3.923   2.185   5.507
 8182SOL    HW225446   3.868   2.063   5.601
 8183SOL     OW25447   1.715   3.169   4.223
 8183SOL    HW125448   1.708   3.177   4.323
 8183SOL    HW225449   1.784   3.233   4.190
 8184SOL     OW25450   6.315   5.908   5.515
 8184SOL    HW125451   6.349   5.817   5.491
 8184SOL    HW225452   6.238   5.932   5.456
 8185SOL     OW25453   1.388   1.675   2.791
 8185SOL    HW125454   1.425   1.751   2.845
 8185SOL    HW225455   1.463   1.623   2.752
 8186SOL     OW25456   3.546   4.509   5.741
 8186SOL    HW125457   3.465   4.524   5.797
 8186SOL    HW225458   3.523   4.448   5.664
 8187SOL     OW25459   1.850   1.214   6.203
 8187SOL    HW125460   1.828   1.232   6.299
 8187SOL    HW225461   1.834   1.297   6.149
 8188SOL     OW25462   6.098   3.268   2.631
 8188SOL    HW125463   6.000   3.249   2.632
 8188SOL    HW225464   6.147   3.191   2.673
 8189SOL     OW25465   6.257   4.841   2.567
 8189SOL    HW125466   6.222   4.753   2.533
 8189SOL    HW225467   6.265   4.905   2.491
 8190SOL     OW25468   5.237   3.368   2.524
 8190SOL    HW125469   5.331   3.343   2.501
 8190SOL    HW225470   5.174   3.320   2.464
 8191SOL     OW25471   0.094   5.154   1.802
 8191SOL    HW125472   0.014   5.105   1.837
 8191SOL    HW225473   0.078   5.252   1.807
 8192SOL     OW25474   1.906   3.816   1.297
 8192SOL    HW125475   1.905   3.816   1.197
 8192SOL    HW225476   1.852   3.894   1.331
 8193SOL     OW25477   3.558   6.919   5.869
 8193SOL    HW125478   3.590   6.824   5.877
 8193SOL    HW225479   3.485   6.935   5.936
 8194SOL     OW25480   1.607   0.362   1.268
 8194SOL    HW125481   1.546   0.308   1.325
 8194SOL    HW225482   1.572   0.364   1.174
 8195SOL     OW25483   6.305   0.635   0.810
 8195SOL    HW125484   6.288   0.580   0.892
 8195SOL    HW225485   6.242   0.713   0.809
 8196SOL     OW25486   2.134   0.488   6.848
 8196SOL    HW125487   2.143   0.477   6.749
 8196SOL    HW225488   2.166   0.579   6.875
 8197SOL     OW25489   0.654   6.834   0.633
 8197SOL    HW125490   0.610   6.788   0.710
 8197SOL    HW225491   0.615   6.926   0.623
 8198SOL     OW25492   4.054   6.355   2.840
 8198SOL    HW125493   4.137   6.327   2.792
 8198SOL    HW225494   3.985   6.384   2.774
 8199SOL     OW25495   6.015   4.238   0.536
 8199SOL    HW125496   5.931   4.281   0.568
 8199SOL    HW225497   6.013   4.231   0.436
 8200SOL     OW25498   4.553   3.242   1.470
 8200SOL    HW125499   4.626   3.276   1.412
 8200SOL    HW225500   4.532   3.310   1.540
 8201SOL     OW25501   6.245   1.115   4.690
 8201SOL    HW125502   6.291   1.184   4.634
 8201SOL    HW225503   6.151   1.104   4.660
 8202SOL     OW25504   1.507   4.041   3.850
 8202SOL    HW125505   1.570   3.984   3.797
 8202SOL    HW225506   1.559   4.091   3.920
 8203SOL     OW25507   6.156   3.917   0.636
 8203SOL    HW125508   6.156   4.017   0.636
 8203SOL    HW225509   6.232   3.884   0.580
 8204SOL     OW25510   3.615   0.623   0.190
 8204SOL    HW125511   3.576   0.714   0.173
 8204SOL    HW225512   3.547   0.566   0.235
 8205SOL     OW25513   5.590   5.663   3.189
 8205SOL    HW125514   5.639   5.716   3.120
 8205SOL    HW225515   5.641   5.580   3.209
 8206SOL     OW25516   3.937   2.109   4.528
 8206SOL    HW125517   3.855   2.128   4.473
 8206SOL    HW225518   3.946   2.010   4.540
 8207SOL     OW25519   2.760   6.149   7.009
 8207SOL    HW125520   2.793   6.104   0.067
 8207SOL    HW225521   2.837   6.169   6.948
 8208SOL     OW25522   1.558   5.278   6.368
 8208SOL    HW125523   1.462   5.249   6.373
 8208SOL    HW225524   1.606   5.247   6.450
 8209SOL     OW25525   1.014   6.335   5.318
 8209SOL    HW125526   1.029   6.268   5.391
 8209SOL    HW225527   0.984   6.422   5.357
 8210SOL     OW25528   3.065   1.522   0.348
 8210SOL    HW125529   3.039   1.427   0.334
 8210SOL    HW225530   3.087   1.537   0.444
 8211SOL     OW25531   2.962   3.816   4.490
 8211SOL    HW125532   3.022   3.736   4.504
 8211SOL    HW225533   3.017   3.899   4.490
 8212SOL     OW25534   3.847   6.369   0.971
 8212SOL    HW125535   3.859   6.276   0.936
 8212SOL    HW225536   3.756   6.402   0.946
 8213SOL     OW25537   4.502   4.602   1.959
 8213SOL    HW125538   4.490   4.504   1.979
 8213SOL    HW225539   4.599   4.624   1.959
 8214SOL     OW25540   4.309   5.265   3.807
 8214SOL    HW125541   4.376   5.303   3.744
 8214SOL    HW225542   4.287   5.332   3.878
 8215SOL     OW25543   2.821   6.182   6.661
 8215SOL    HW125544   2.871   6.254   6.612
 8215SOL    HW225545   2.884   6.131   6.719
 8216SOL     OW25546   5.610   4.993   1.526
 8216SOL    HW125547   5.560   5.076   1.500
 8216SOL    HW225548   5.548   4.930   1.573
 8217SOL     OW25549   2.729   6.564   3.805
 8217SOL    HW125550   2.735   6.597   3.710
 8217SOL    HW225551   2.649   6.505   3.814
 8218SOL     OW25552   1.939   5.748   4.933
 8218SOL    HW125553   2.023   5.772   4.884
 8218SOL    HW225554   1.873   5.822   4.922
 8219SOL     OW25555   4.287   3.306   1.805
 8219SOL    HW125556   4.268   3.279   1.899
 8219SOL    HW225557   4.312   3.226   1.751
 8220SOL     OW25558   3.322   4.002   4.706
 8220SOL    HW125559   3.321   4.054   4.791
 8220SOL    HW225560   3.270   3.918   4.718
 8221SOL     OW25561   5.981   3.936   3.209
 8221SOL    HW125562   5.952   3.949   3.114
 8221SOL    HW225563   6.077   3.908   3.211
 8222SOL     OW25564   6.755   2.899   0.133
 8222SOL    HW125565   6.843   2.929   0.097
 8222SOL    HW225566   6.769   2.834   0.208
 8223SOL     OW25567   2.652   6.440   6.190
 8223SOL    HW125568   2.654   6.528   6.142
 8223SOL    HW225569   2.658   6.456   6.288
 8224SOL     OW25570   5.089   1.160   0.002
 8224SOL    HW125571   5.021   1.198   0.065
 8224SOL    HW225572   5.120   1.071   0.037
 8225SOL     OW25573   6.048   2.163   6.561
 8225SOL    HW125574   5.956   2.199   6.542
 8225SOL    HW225575   6.097   2.226   6.621
 8226SOL     OW25576   3.738   0.926   0.039
 8226SOL    HW125577   3.789   0.954   0.120
 8226SOL    HW225578   3.795   0.865   7.008
 8227SOL     OW25579   4.162   2.225   2.657
 8227SOL    HW125580   4.180   2.128   2.670
 8227SOL    HW225581   4.179   2.249   2.561
 8228SOL     OW25582   2.801   0.044   4.501
 8228SOL    HW125583   2.814   0.091   4.413
 8228SOL    HW225584   2.868   6.995   4.510
 8229SOL     OW25585   4.855   4.159   0.831
 8229SOL    HW125586   4.801   4.182   0.911
 8229SOL    HW225587   4.881   4.062   0.835
 8230SOL     OW25588   6.018   0.156   5.842
 8230SOL    HW125589   6.044   0.197   5.930
 8230SOL    HW225590   5.940   0.206   5.804
 8231SOL     OW25591   2.904   1.073   2.543
 8231SOL    HW125592   2.865   0.992   2.499
 8231SOL    HW225593   2.888   1.153   2.485
 8232SOL     OW25594   4.019   5.554   3.371
 8232SOL    HW125595   3.983   5.542   3.463
 8232SOL    HW225596   3.992   5.643   3.335
 8233SOL     OW25597   2.057   0.936   6.406
 8233SOL    HW125598   1.976   0.879   6.394
 8233SOL    HW225599   2.075   0.950   6.503
 8234SOL     OW25600   1.583   2.426   0.895
 8234SOL    HW125601   1.636   2.495   0.945
 8234SOL    HW225602   1.488   2.427   0.927
 8235SOL     OW25603   0.914   0.836   1.412
 8235SOL    HW125604   0.840   0.783   1.371
 8235SOL    HW225605   0.959   0.781   1.482
 8236SOL     OW25606   1.268   0.271   2.093
 8236SOL    HW125607   1.201   0.345   2.096
 8236SOL    HW225608   1.222   0.184   2.075
 8237SOL     OW25609   3.735   4.686   5.660
 8237SOL    HW125610   3.800   4.691   5.736
 8237SOL    HW225611   3.655   4.632   5.688
 8238SOL     OW25612   0.754   5.289   1.079
 8238SOL    HW125613   0.818   5.348   1.129
 8238SOL    HW225614   0.742   5.326   0.986
 8239SOL     OW25615   2.923   1.399   5.976
 8239SOL    HW125616   3.014   1.427   5.944
 8239SOL    HW225617   2.854   1.425   5.908
 8240SOL     OW25618   3.806   2.941   4.239
 8240SOL    HW125619   3.766   2.944   4.330
 8240SOL    HW225620   3.794   2.849   4.200
 8241SOL     OW25621   1.648   3.505   5.971
 8241SOL    HW125622   1.609   3.597   5.978
 8241SOL    HW225623   1.732   3.508   5.915
 8242SOL     OW25624   0.505   3.044   2.345
 8242SOL    HW125625   0.534   2.957   2.386
 8242SOL    HW225626   0.446   3.026   2.267
 8243SOL     OW25627   1.114   6.312   3.933
 8243SOL    HW125628   1.056   6.294   4.012
 8243SOL    HW225629   1.174   6.234   3.917
 8244SOL     OW25630   6.900   1.426   3.222
 8244SOL    HW125631   6.931   1.409   3.128
 8244SOL    HW225632   6.905   1.341   3.274
 8245SOL     OW25633   5.093   2.832   2.890
 8245SOL    HW125634   5.012   2.783   2.857
 8245SOL    HW225635   5.083   2.851   2.988
 8246SOL     OW25636   1.616   5.073   6.847
 8246SOL    HW125637   1.524   5.112   6.856
 8246SOL    HW225638   1.618   4.984   6.892
 8247SOL     OW25639   2.778   5.521   3.323
 8247SOL    HW125640   2.818   5.606   3.357
 8247SOL    HW225641   2.795   5.448   3.390
 8248SOL     OW25642   6.607   5.853   3.980
 8248SOL    HW125643   6.568   5.776   3.930
 8248SOL    HW225644   6.627   5.927   3.916
 8249SOL     OW25645   3.804   1.091   6.708
 8249SOL    HW125646   3.885   1.058   6.660
 8249SOL    HW225647   3.810   1.190   6.721
 8250SOL     OW25648   1.103   2.098   6.698
 8250SOL    HW125649   1.023   2.156   6.717
 8250SOL    HW225650   1.074   2.020   6.643
 8251SOL     OW25651   0.570   2.187   5.180
 8251SOL    HW125652   0.644   2.218   5.120
 8251SOL    HW225653   0.537   2.264   5.234
 8252SOL     OW25654   0.837   2.052   6.887
 8252SOL    HW125655   0.838   2.097   6.797
 8252SOL    HW225656   0.743   2.033   6.913
 8253SOL     OW25657   5.082   4.940   6.568
 8253SOL    HW125658   5.179   4.959   6.581
 8253SOL    HW225659   5.031   4.967   6.650
 8254SOL     OW25660   6.416   5.508   0.278
 8254SOL    HW125661   6.439   5.488   0.183
 8254SOL    HW225662   6.464   5.591   0.307
 8255SOL     OW25663   2.212   0.283   5.529
 8255SOL    HW125664   2.144   0.332   5.474
 8255SOL    HW225665   2.278   0.348   5.567
 8256SOL     OW25666   1.105   6.051   4.580
 8256SOL    HW125667   1.096   5.976   4.514
 8256SOL    HW225668   1.025   6.110   4.575
 8257SOL     OW25669   5.303   3.734   3.300
 8257SOL    HW125670   5.228   3.748   3.366
 8257SOL    HW225671   5.299   3.804   3.230
 8258SOL     OW25672   0.959   2.890   3.546
 8258SOL    HW125673   0.975   2.943   3.463
 8258SOL    HW225674   0.970   2.792   3.526
 8259SOL     OW25675   5.607   2.088   4.363
 8259SOL    HW125676   5.594   2.178   4.404
 8259SOL    HW225677   5.703   2.060   4.372
 8260SOL     OW25678   5.038   3.024   0.760
 8260SOL    HW125679   5.029   3.011   0.859
 8260SOL    HW225680   5.121   2.978   0.728
 8261SOL     OW25681   5.609   1.438   2.587
 8261SOL    HW125682   5.595   1.358   2.530
 8261SOL    HW225683   5.560   1.427   2.673
 8262SOL     OW25684   5.105   3.972   2.140
 8262SOL    HW125685   5.111   4.070   2.123
 8262SOL    HW225686   5.144   3.952   2.230
 8263SOL     OW25687   6.883   1.730   5.958
 8263SOL    HW125688   6.831   1.792   6.018
 8263SOL    HW225689   6.898   1.774   5.870
 8264SOL     OW25690   3.239   0.405   2.536
 8264SOL    HW125691   3.312   0.361   2.484
 8264SOL    HW225692   3.210   0.488   2.489
 8265SOL     OW25693   4.633   5.639   0.464
 8265SOL    HW125694   4.588   5.672   0.547
 8265SOL    HW225695   4.578   5.665   0.384
 8266SOL     OW25696   3.648   0.610   3.716
 8266SOL    HW125697   3.672   0.526   3.765
 8266SOL    HW225698   3.562   0.646   3.753
 8267SOL     OW25699   2.036   3.150   2.852
 8267SOL    HW125700   1.950   3.124   2.896
 8267SOL    HW225701   2.018   3.204   2.771
 8268SOL     OW25702   3.237   4.556   6.746
 8268SOL    HW125703   3.328   4.534   6.711
 8268SOL    HW225704   3.246   4.605   6.833
 8269SOL     OW25705   6.184   2.557   5.144
 8269SOL    HW125706   6.211   2.609   5.225
 8269SOL    HW225707   6.085   2.545   5.144
 8270SOL     OW25708   4.555   5.501   6.849
 8270SOL    HW125709   4.548   5.553   6.934
 8270SOL    HW225710   4.544   5.562   6.771
 8271SOL     OW25711   3.402   6.665   6.108
 8271SOL    HW125712   3.306   6.640   6.102
 8271SOL    HW225713   3.418   6.722   6.188
 8272SOL     OW25714   1.006   0.655   2.311
 8272SOL    HW125715   1.017   0.560   2.339
 8272SOL    HW225716   0.960   0.706   2.385
 8273SOL     OW25717   4.431   0.475   6.823
 8273SOL    HW125718   4.453   0.553   6.882
 8273SOL    HW225719   4.332   0.466   6.815
 8274SOL     OW25720   5.610   6.125   5.495
 8274SOL    HW125721   5.615   6.139   5.594
 8274SOL    HW225722   5.674   6.187   5.450
 8275SOL     OW25723   5.162   1.080   4.710
 8275SOL    HW125724   5.076   1.057   4.664
 8275SOL    HW225725   5.145   1.096   4.807
 8276SOL     OW25726   6.444   1.890   6.692
 8276SOL    HW125727   6.356   1.924   6.661
 8276SOL    HW225728   6.516   1.955   6.666
 8277SOL     OW25729   1.385   6.629   0.740
 8277SOL    HW125730   1.470   6.670   0.773
 8277SOL    HW225731   1.320   6.701   0.715
 8278SOL     OW25732   2.297   1.287   0.856
 8278SOL    HW125733   2.264   1.197   0.827
 8278SOL    HW225734   2.395   1.295   0.834
 8279SOL     OW25735   4.207   5.910   5.325
 8279SOL    HW125736   4.172   5.955   5.243
 8279SOL    HW225737   4.306   5.903   5.320
 8280SOL     OW25738   5.382   3.950   6.878
 8280SOL    HW125739   5.443   3.962   6.956
 8280SOL    HW225740   5.338   3.860   6.884
 8281SOL     OW25741   2.692   5.985   6.522
 8281SOL    HW125742   2.744   5.914   6.475
 8281SOL    HW225743   2.753   6.058   6.550
 8282SOL     OW25744   2.809   3.131   1.876
 8282SOL    HW125745   2.723   3.097   1.836
 8282SOL    HW225746   2.803   3.230   1.888
 8283SOL     OW25747   0.570   0.286   3.848
 8283SOL    HW125748   0.651   0.343   3.838
 8283SOL    HW225749   0.494   0.325   3.796
 8284SOL     OW25750   4.453   1.435   1.648
 8284SOL    HW125751   4.409   1.351   1.616
 8284SOL    HW225752   4.382   1.501   1.674
 8285SOL     OW25753   1.384   4.125   0.425
 8285SOL    HW125754   1.357   4.097   0.333
 8285SOL    HW225755   1.431   4.213   0.421
 8286SOL     OW25756   6.508   2.449   6.165
 8286SOL    HW125757   6.604   2.436   6.189
 8286SOL    HW225758   6.490   2.546   6.149
 8287SOL     OW25759   1.955   1.275   3.735
 8287SOL    HW125760   2.026   1.253   3.669
 8287SOL    HW225761   1.939   1.373   3.737
 8288SOL     OW25762   1.564   0.307   2.907
 8288SOL    HW125763   1.492   0.294   2.839
 8288SOL    HW225764   1.590   0.218   2.945
 8289SOL     OW25765   5.755   0.430   0.156
 8289SOL    HW125766   5.793   0.450   0.065
 8289SOL    HW225767   5.793   0.344   0.189
 8290SOL     OW25768   4.648   2.687   1.934
 8290SOL    HW125769   4.664   2.692   2.032
 8290SOL    HW225770   4.732   2.709   1.885
 8291SOL     OW25771   4.861   6.051   6.139
 8291SOL    HW125772   4.954   6.046   6.176
 8291SOL    HW225773   4.810   5.969   6.168
 8292SOL     OW25774   0.670   2.918   5.607
 8292SOL    HW125775   0.716   2.831   5.587
 8292SOL    HW225776   0.683   2.941   5.703
 8293SOL     OW25777   2.501   5.524   4.117
 8293SOL    HW125778   2.579   5.587   4.121
 8293SOL    HW225779   2.465   5.510   4.209
 8294SOL     OW25780   5.339   3.995   5.746
 8294SOL    HW125781   5.265   4.026   5.805
 8294SOL    HW225782   5.304   3.982   5.653
 8295SOL     OW25783   4.777   4.895   2.558
 8295SOL    HW125784   4.712   4.821   2.542
 8295SOL    HW225785   4.819   4.884   2.648
 8296SOL     OW25786   3.830   6.705   2.460
 8296SOL    HW125787   3.786   6.616   2.472
 8296SOL    HW225788   3.809   6.741   2.369
 8297SOL     OW25789   5.239   4.544   2.346
 8297SOL    HW125790   5.230   4.643   2.356
 8297SOL    HW225791   5.180   4.499   2.412
 8298SOL     OW25792   6.939   6.986   0.557
 8298SOL    HW125793   6.898   0.051   0.541
 8298SOL    HW225794   6.951   6.938   0.471
 8299SOL     OW25795   1.030   3.105   6.982
 8299SOL    HW125796   1.027   3.037   6.908
 8299SOL    HW225797   1.071   3.189   6.947
 8300SOL     OW25798   6.195   5.094   4.082
 8300SOL    HW125799   6.146   5.168   4.128
 8300SOL    HW225800   6.274   5.067   4.138
 8301SOL     OW25801   5.988   5.996   0.454
 8301SOL    HW125802   5.951   6.057   0.525
 8301SOL    HW225803   6.009   6.049   0.372
 8302SOL     OW25804   3.676   6.878   4.977
 8302SOL    HW125805   3.776   6.880   4.980
 8302SOL    HW225806   3.645   6.785   4.958
 8303SOL     OW25807   0.076   5.575   3.015
 8303SOL    HW125808   7.003   5.589   2.997
 8303SOL    HW225809   0.122   5.663   3.017
 8304SOL     OW25810   6.217   3.467   3.563
 8304SOL    HW125811   6.287   3.536   3.579
 8304SOL    HW225812   6.228   3.392   3.629
 8305SOL     OW25813   5.011   0.053   5.876
 8305SOL    HW125814   5.098   0.086   5.913
 8305SOL    HW225815   4.935   0.093   5.928
 8306SOL     OW25816   6.260   0.944   3.836
 8306SOL    HW125817   6.331   0.878   3.810
 8306SOL    HW225818   6.293   1.037   3.817
 8307SOL     OW25819   1.472   3.607   3.460
 8307SOL    HW125820   1.546   3.547   3.428
 8307SOL    HW225821   1.469   3.606   3.560
 8308SOL     OW25822   1.395   5.526   0.793
 8308SOL    HW125823   1.347   5.439   0.799
 8308SOL    HW225824   1.346   5.595   0.845
 8309SOL     OW25825   6.235   5.389   4.618
 8309SOL    HW125826   6.304   5.383   4.690
 8309SOL    HW225827   6.189   5.478   4.622
 8310SOL     OW25828   2.340   0.053   2.758
 8310SOL    HW125829   2.384   0.080   2.673
 8310SOL    HW225830   2.301   6.986   2.748
 8311SOL     OW25831   4.217   5.794   3.082
 8311SOL    HW125832   4.269   5.736   3.019
 8311SOL    HW225833   4.273   5.872   3.110
 8312SOL     OW25834   5.887   1.845   0.472
 8312SOL    HW125835   5.846   1.786   0.403
 8312SOL    HW225836   5.846   1.936   0.466
 8313SOL     OW25837   5.852   2.203   5.947
 8313SOL    HW125838   5.773   2.230   5.893
 8313SOL    HW225839   5.825   2.194   6.043
 8314SOL     OW25840   4.608   6.255   4.246
 8314SOL    HW125841   4.645   6.288   4.160
 8314SOL    HW225842   4.636   6.160   4.261
 8315SOL     OW25843   3.436   3.380   5.197
 8315SOL    HW125844   3.368   3.453   5.184
 8315SOL    HW225845   3.389   3.293   5.210
 8316SOL     OW25846   2.624   1.296   5.297
 8316SOL    HW125847   2.584   1.322   5.209
 8316SOL    HW225848   2.720   1.323   5.300
 8317SOL     OW25849   1.268   2.087   3.950
 8317SOL    HW125850   1.193   2.036   3.992
 8317SOL    HW225851   1.341   2.024   3.923
 8318SOL     OW25852   4.115   6.432   5.973
 8318SOL    HW125853   4.182   6.364   5.943
 8318SOL    HW225854   4.030   6.420   5.921
 8319SOL     OW25855   1.552   5.522   5.796
 8319SOL    HW125856   1.500   5.449   5.842
 8319SOL    HW225857   1.590   5.584   5.865
 8320SOL     OW25858   3.829   3.812   5.454
 8320SOL    HW125859   3.862   3.905   5.462
 8320SOL    HW225860   3.888   3.751   5.507
 8321SOL     OW25861   0.878   0.556   1.199
 8321SOL    HW125862   0.797   0.589   1.151
 8321SOL    HW225863   0.916   0.477   1.151
 8322SOL     OW25864   1.178   0.185   1.177
 8322SOL    HW125865   1.151   0.127   1.254
 8322SOL    HW225866   1.190   0.128   1.096
 8323SOL     OW25867   5.717   4.099   6.777
 8323SOL    HW125868   5.805   4.065   6.745
 8323SOL    HW225869   5.707   4.081   6.875
 8324SOL     OW25870   5.584   6.729   0.450
 8324SOL    HW125871   5.497   6.749   0.405
 8324SOL    HW225872   5.582   6.635   0.485
 8325SOL     OW25873   1.730   6.515   4.892
 8325SOL    HW125874   1.711   6.455   4.969
 8325SOL    HW225875   1.700   6.471   4.807
 8326SOL     OW25876   2.368   2.834   6.635
 8326SOL    HW125877   2.399   2.929   6.630
 8326SOL    HW225878   2.445   2.773   6.617
 8327SOL     OW25879   0.670   6.270   4.840
 8327SOL    HW125880   0.686   6.368   4.845
 8327SOL    HW225881   0.596   6.251   4.776
 8328SOL     OW25882   1.251   6.436   0.518
 8328SOL    HW125883   1.212   6.486   0.595
 8328SOL    HW225884   1.332   6.386   0.548
 8329SOL     OW25885   1.611   2.682   5.098
 8329SOL    HW125886   1.672   2.610   5.131
 8329SOL    HW225887   1.649   2.771   5.120
 8330SOL     OW25888   3.053   6.575   6.726
 8330SOL    HW125889   3.011   6.660   6.756
 8330SOL    HW225890   3.049   6.509   6.801
 8331SOL     OW25891   2.394   2.062   6.684
 8331SOL    HW125892   2.455   2.022   6.617
 8331SOL    HW225893   2.426   2.153   6.710
 8332SOL     OW25894   6.359   4.191   1.494
 8332SOL    HW125895   6.295   4.240   1.434
 8332SOL    HW225896   6.449   4.234   1.490
 8333SOL     OW25897   2.124   4.351   6.959
 8333SOL    HW125898   2.185   4.372   0.011
 8333SOL    HW225899   2.052   4.420   6.953
 8334SOL     OW25900   3.267   2.168   5.283
 8334SOL    HW125901   3.199   2.229   5.241
 8334SOL    HW225902   3.357   2.211   5.281
 8335SOL     OW25903   5.424   4.794   5.782
 8335SOL    HW125904   5.394   4.844   5.700
 8335SOL    HW225905   5.524   4.787   5.781
 8336SOL     OW25906   1.523   3.567   3.734
 8336SOL    HW125907   1.427   3.568   3.765
 8336SOL    HW225908   1.563   3.478   3.752
 8337SOL     OW25909   6.475   0.579   4.530
 8337SOL    HW125910   6.495   0.677   4.535
 8337SOL    HW225911   6.516   0.541   4.448
 8338SOL     OW25912   2.600   5.259   0.922
 8338SOL    HW125913   2.614   5.239   1.019
 8338SOL    HW225914   2.675   5.315   0.888
 8339SOL     OW25915   6.079   0.182   1.797
 8339SOL    HW125916   6.157   0.188   1.858
 8339SOL    HW225917   6.002   0.233   1.836
 8340SOL     OW25918   6.319   2.406   6.372
 8340SOL    HW125919   6.248   2.354   6.324
 8340SOL    HW225920   6.397   2.421   6.311
 8341SOL     OW25921   3.770   1.581   0.801
 8341SOL    HW125922   3.870   1.582   0.800
 8341SOL    HW225923   3.736   1.662   0.851
 8342SOL     OW25924   4.125   0.412   0.644
 8342SOL    HW125925   4.108   0.495   0.590
 8342SOL    HW225926   4.184   0.350   0.593
 8343SOL     OW25927   5.496   4.804   3.251
 8343SOL    HW125928   5.503   4.735   3.178
 8343SOL    HW225929   5.463   4.890   3.212
 8344SOL     OW25930   1.268   4.839   6.039
 8344SOL    HW125931   1.347   4.805   5.989
 8344SOL    HW225932   1.190   4.848   5.977
 8345SOL     OW25933   5.787   0.346   3.896
 8345SOL    HW125934   5.842   0.405   3.955
 8345SOL    HW225935   5.847   0.295   3.835
 8346SOL     OW25936   5.792   3.097   4.328
 8346SOL    HW125937   5.709   3.125   4.278
 8346SOL    HW225938   5.805   2.999   4.317
 8347SOL     OW25939   2.514   2.034   6.122
 8347SOL    HW125940   2.584   1.973   6.158
 8347SOL    HW225941   2.539   2.063   6.030
 8348SOL     OW25942   2.896   6.101   2.088
 8348SOL    HW125943   2.986   6.100   2.132
 8348SOL    HW225944   2.890   6.178   2.025
 8349SOL     OW25945   5.346   6.294   2.217
 8349SOL    HW125946   5.282   6.236   2.266
 8349SOL    HW225947   5.327   6.390   2.236
 8350SOL     OW25948   1.491   0.978   0.203
 8350SOL    HW125949   1.519   0.943   0.114
 8350SOL    HW225950   1.547   0.937   0.274
 8351SOL     OW25951   0.012   2.293   3.021
 8351SOL    HW125952   0.005   2.198   3.050
 8351SOL    HW225953   0.059   2.346   3.092
 8352SOL     OW25954   2.761   6.092   0.612
 8352SOL    HW125955   2.854   6.080   0.575
 8352SOL    HW225956   2.696   6.098   0.536
 8353SOL     OW25957   0.865   5.640   1.642
 8353SOL    HW125958   0.956   5.601   1.653
 8353SOL    HW225959   0.802   5.596   1.707
 8354SOL     OW25960   3.795   0.964   3.274
 8354SOL    HW125961   3.779   1.046   3.329
 8354SOL    HW225962   3.790   0.883   3.332
 8355SOL     OW25963   3.407   5.675   6.559
 8355SOL    HW125964   3.369   5.739   6.493
 8355SOL    HW225965   3.400   5.581   6.524
 8356SOL     OW25966   2.819   4.452   1.006
 8356SOL    HW125967   2.791   4.482   1.098
 8356SOL    HW225968   2.809   4.529   0.942
 8357SOL     OW25969   4.877   6.638   5.704
 8357SOL    HW125970   4.949   6.706   5.694
 8357SOL    HW225971   4.891   6.565   5.638
 8358SOL     OW25972   1.329   0.841   5.714
 8358SOL    HW125973   1.311   0.798   5.625
 8358SOL    HW225974   1.335   0.770   5.784
 8359SOL     OW25975   4.222   1.971   5.698
 8359SOL    HW125976   4.213   2.071   5.696
 8359SOL    HW225977   4.237   1.938   5.604
 8360SOL     OW25978   4.457   0.212   1.150
 8360SOL    HW125979   4.527   0.156   1.105
 8360SOL    HW225980   4.415   0.272   1.082
 8361SOL     OW25981   4.782   1.766   6.820
 8361SOL    HW125982   4.701   1.713   6.796
 8361SOL    HW225983   4.793   1.768   6.919
 8362SOL     OW25984   6.991   3.981   1.508
 8362SOL    HW125985   6.919   3.993   1.577
 8362SOL    HW225986   6.950   3.985   1.417
 8363SOL     OW25987   1.851   2.654   1.457
 8363SOL    HW125988   1.832   2.722   1.528
 8363SOL    HW225989   1.883   2.569   1.498
 8364SOL     OW25990   0.135   2.005   4.341
 8364SOL    HW125991   0.154   2.097   4.374
 8364SOL    HW225992   0.036   1.992   4.336
 8365SOL     OW25993   1.602   2.367   1.873
 8365SOL    HW125994   1.583   2.306   1.950
 8365SOL    HW225995   1.603   2.315   1.788
 8366SOL     OW25996   5.385   4.672   1.941
 8366SOL    HW125997   5.384   4.769   1.915
 8366SOL    HW225998   5.476   4.634   1.923
 8367SOL     OW25999   2.087   4.458   3.858
 8367SOL    HW126000   2.166   4.402   3.833
 8367SOL    HW226001   2.111   4.516   3.936
 8368SOL     OW26002   5.920   5.860   5.764
 8368SOL    HW126003   6.019   5.845   5.774
 8368SOL    HW226004   5.874   5.836   5.849
 8369SOL     OW26005   2.223   6.739   0.384
 8369SOL    HW126006   2.259   6.649   0.411
 8369SOL    HW226007   2.221   6.745   0.284
 8370SOL     OW26008   2.919   3.544   0.913
 8370SOL    HW126009   2.970   3.524   0.997
 8370SOL    HW226010   2.976   3.598   0.852
 8371SOL     OW26011   2.352   3.712   6.018
 8371SOL    HW126012   2.408   3.632   6.040
 8371SOL    HW226013   2.372   3.786   6.081
 8372SOL     OW26014   1.811   6.313   0.766
 8372SOL    HW126015   1.737   6.259   0.725
 8372SOL    HW226016   1.783   6.409   0.772
 8373SOL     OW26017   6.627   1.784   4.184
 8373SOL    HW126018   6.541   1.753   4.225
 8373SOL    HW226019   6.691   1.707   4.178
 8374SOL     OW26020   6.914   0.985   4.010
 8374SOL    HW126021   6.921   0.920   3.934
 8374SOL    HW226022   6.950   1.074   3.982
 8375SOL     OW26023   2.268   1.399   4.983
 8375SOL    HW126024   2.267   1.497   5.001
 8375SOL    HW226025   2.180   1.372   4.944
 8376SOL     OW26026   0.493   1.984   3.947
 8376SOL    HW126027   0.474   2.051   4.018
 8376SOL    HW226028   0.568   1.925   3.975
 8377SOL     OW26029   4.212   5.638   6.755
 8377SOL    HW126030   4.134   5.575   6.751
 8377SOL    HW226031   4.253   5.646   6.664
 8378SOL     OW26032   4.744   6.087   4.949
 8378SOL    HW126033   4.687   6.031   4.889
 8378SOL    HW226034   4.829   6.111   4.901
 8379SOL     OW26035   5.893   1.588   2.109
 8379SOL    HW126036   5.804   1.574   2.066
 8379SOL    HW226037   5.903   1.685   2.132
 8380SOL     OW26038   0.264   6.237   1.033
 8380SOL    HW126039   0.219   6.323   1.010
 8380SOL    HW226040   0.198   6.163   1.030
 8381SOL     OW26041   0.442   1.529   2.853
 8381SOL    HW126042   0.387   1.605   2.887
 8381SOL    HW226043   0.529   1.527   2.902
 8382SOL     OW26044   1.144   0.042   1.430
 8382SOL    HW126045   1.232   0.006   1.461
 8382SOL    HW226046   1.090   0.069   1.510
 8383SOL     OW26047   2.806   0.016   6.086
 8383SOL    HW126048   2.719   0.050   6.121
 8383SOL    HW226049   2.817   0.045   5.991
 8384SOL     OW26050   0.581   3.610   3.025
 8384SOL    HW126051   0.645   3.628   2.950
 8384SOL    HW226052   0.494   3.577   2.987
 8385SOL     OW26053   4.243   2.245   1.519
 8385SOL    HW126054   4.332   2.271   1.482
 8385SOL    HW226055   4.254   2.208   1.611
 8386SOL     OW26056   2.571   5.812   1.955
 8386SOL    HW126057   2.637   5.754   1.907
 8386SOL    HW226058   2.572   5.791   2.053
 8387SOL     OW26059   0.818   1.630   3.581
 8387SOL    HW126060   0.860   1.697   3.643
 8387SOL    HW226061   0.745   1.581   3.629
 8388SOL     OW26062   4.258   5.655   0.786
 8388SOL    HW126063   4.159   5.643   0.796
 8388SOL    HW226064   4.306   5.577   0.825
 8389SOL     OW26065   0.672   2.964   4.363
 8389SOL    HW126066   0.633   2.948   4.454
 8389SOL    HW226067   0.606   2.935   4.293
 8390SOL     OW26068   2.820   0.044   5.819
 8390SOL    HW126069   2.813   6.991   5.757
 8390SOL    HW226070   2.888   0.109   5.783
 8391SOL     OW26071   5.656   6.015   0.926
 8391SOL    HW126072   5.698   5.927   0.948
 8391SOL    HW226073   5.648   6.070   1.009
 8392SOL     OW26074   4.997   6.515   6.551
 8392SOL    HW126075   4.919   6.452   6.555
 8392SOL    HW226076   5.060   6.486   6.479
 8393SOL     OW26077   0.084   5.064   2.594
 8393SOL    HW126078   0.074   5.013   2.679
 8393SOL    HW226079   0.135   5.149   2.611
 8394SOL     OW26080   0.746   1.839   2.908
 8394SOL    HW126081   0.777   1.855   2.815
 8394SOL    HW226082   0.702   1.921   2.945
 8395SOL     OW26083   0.779   6.137   5.562
 8395SOL    HW126084   0.818   6.117   5.472
 8395SOL    HW226085   0.852   6.141   5.630
 8396SOL     OW26086   4.322   2.553   1.151
 8396SOL    HW126087   4.409   2.536   1.104
 8396SOL    HW226088   4.330   2.637   1.205
 8397SOL     OW26089   2.148   5.133   3.624
 8397SOL    HW126090   2.214   5.175   3.687
 8397SOL    HW226091   2.165   5.035   3.620
 8398SOL     OW26092   5.632   1.329   0.041
 8398SOL    HW126093   5.593   1.256   7.009
 8398SOL    HW226094   5.654   1.293   0.131
 8399SOL     OW26095   5.921   6.152   0.177
 8399SOL    HW126096   6.016   6.140   0.147
 8399SOL    HW226097   5.870   6.067   0.160
 8400SOL     OW26098   6.109   0.285   4.721
 8400SOL    HW126099   6.149   0.258   4.634
 8400SOL    HW226100   6.056   0.208   4.758
 8401SOL     OW26101   2.572   4.323   6.008
 8401SOL    HW126102   2.543   4.228   6.004
 8401SOL    HW226103   2.520   4.378   5.943
 8402SOL     OW26104   4.724   1.141   6.061
 8402SOL    HW126105   4.815   1.134   6.022
 8402SOL    HW226106   4.678   1.223   6.026
 8403SOL     OW26107   1.083   2.011   4.628
 8403SOL    HW126108   1.157   2.070   4.594
 8403SOL    HW226109   1.039   2.054   4.707
 8404SOL     OW26110   4.600   5.051   5.371
 8404SOL    HW126111   4.612   5.122   5.440
 8404SOL    HW226112   4.518   5.072   5.316
 8405SOL     OW26113   1.185   2.521   4.813
 8405SOL    HW126114   1.190   2.514   4.713
 8405SOL    HW226115   1.230   2.605   4.843
 8406SOL     OW26116   5.085   3.990   1.181
 8406SOL    HW126117   5.065   4.035   1.095
 8406SOL    HW226118   5.020   4.021   1.251
 8407SOL     OW26119   4.993   2.917   2.640
 8407SOL    HW126120   5.033   2.852   2.577
 8407SOL    HW226121   5.047   2.920   2.724
 8408SOL     OW26122   4.934   3.603   4.371
 8408SOL    HW126123   4.915   3.699   4.350
 8408SOL    HW226124   4.906   3.583   4.465
 8409SOL     OW26125   0.357   1.684   4.101
 8409SOL    HW126126   0.329   1.706   4.007
 8409SOL    HW226127   0.363   1.769   4.154
 8410SOL     OW26128   2.146   6.501   2.407
 8410SOL    HW126129   2.244   6.503   2.427
 8410SOL    HW226130   2.130   6.447   2.324
 8411SOL     OW26131   1.814   2.781   3.238
 8411SOL    HW126132   1.803   2.880   3.228
 8411SOL    HW226133   1.800   2.736   3.150
 8412SOL     OW26134   5.757   3.216   2.244
 8412SOL    HW126135   5.780   3.159   2.165
 8412SOL    HW226136   5.718   3.159   2.315
 8413SOL     OW26137   2.415   4.587   1.534
 8413SOL    HW126138   2.474   4.551   1.606
 8413SOL    HW226139   2.394   4.515   1.468
 8414SOL     OW26140   5.465   6.808   2.631
 8414SOL    HW126141   5.450   6.901   2.664
 8414SOL    HW226142   5.555   6.776   2.660
 8415SOL     OW26143   6.472   3.847   1.674
 8415SOL    HW126144   6.561   3.842   1.719
 8415SOL    HW226145   6.402   3.805   1.732
 8416SOL     OW26146   4.913   4.610   2.460
 8416SOL    HW126147   4.818   4.642   2.455
 8416SOL    HW226148   4.946   4.590   2.368
 8417SOL     OW26149   2.585   5.494   6.398
 8417SOL    HW126150   2.608   5.414   6.342
 8417SOL    HW226151   2.582   5.576   6.340
 8418SOL     OW26152   6.044   5.980   2.553
 8418SOL    HW126153   6.076   5.886   2.549
 8418SOL    HW226154   6.013   6.009   2.463
 8419SOL     OW26155   4.432   0.333   3.906
 8419SOL    HW126156   4.445   0.258   3.971
 8419SOL    HW226157   4.335   0.356   3.901
 8420SOL     OW26158   3.463   1.977   5.576
 8420SOL    HW126159   3.383   2.033   5.594
 8420SOL    HW226160   3.464   1.950   5.480
 8421SOL     OW26161   1.319   6.477   1.357
 8421SOL    HW126162   1.242   6.465   1.295
 8421SOL    HW226163   1.405   6.462   1.307
 8422SOL     OW26164   3.988   6.791   1.599
 8422SOL    HW126165   3.958   6.884   1.621
 8422SOL    HW226166   4.048   6.793   1.519
 8423SOL     OW26167   1.899   3.857   1.607
 8423SOL    HW126168   1.873   3.779   1.550
 8423SOL    HW226169   1.848   3.938   1.578
 8424SOL     OW26170   3.044   2.096   2.396
 8424SOL    HW126171   2.979   2.126   2.466
 8424SOL    HW226172   3.011   2.127   2.306
 8425SOL     OW26173   6.333   4.661   6.877
 8425SOL    HW126174   6.378   4.750   6.883
 8425SOL    HW226175   6.346   4.611   6.963
 8426SOL     OW26176   4.094   3.544   2.472
 8426SOL    HW126177   3.998   3.531   2.496
 8426SOL    HW226178   4.112   3.641   2.457
 8427SOL     OW26179   2.453   2.663   6.369
 8427SOL    HW126180   2.370   2.653   6.315
 8427SOL    HW226181   2.523   2.600   6.335
 8428SOL     OW26182   6.020   4.588   1.735
 8428SOL    HW126183   5.985   4.682   1.726
 8428SOL    HW226184   6.036   4.567   1.831
 8429SOL     OW26185   2.416   6.798   2.896
 8429SOL    HW126186   2.495   6.744   2.865
 8429SOL    HW226187   2.444   6.858   2.971
 8430SOL     OW26188   5.383   4.106   3.037
 8430SOL    HW126189   5.465   4.117   3.094
 8430SOL    HW226190   5.352   4.011   3.041
 8431SOL     OW26191   2.845   3.791   1.555
 8431SOL    HW126192   2.916   3.801   1.625
 8431SOL    HW226193   2.757   3.820   1.592
 8432SOL     OW26194   4.527   6.946   0.686
 8432SOL    HW126195   4.527   7.022   0.750
 8432SOL    HW226196   4.440   6.897   0.692
 8433SOL     OW26197   1.420   1.585   4.512
 8433SOL    HW126198   1.371   1.633   4.440
 8433SOL    HW226199   1.372   1.596   4.599
 8434SOL     OW26200   5.499   6.158   6.544
 8434SOL    HW126201   5.491   6.150   6.445
 8434SOL    HW226202   5.591   6.132   6.573
 8435SOL     OW26203   5.260   2.822   1.387
 8435SOL    HW126204   5.173   2.832   1.435
 8435SOL    HW226205   5.243   2.794   1.292
 8436SOL     OW26206   3.265   4.202   1.709
 8436SOL    HW126207   3.289   4.155   1.794
 8436SOL    HW226208   3.178   4.166   1.674
 8437SOL     OW26209   6.966   1.973   1.282
 8437SOL    HW126210   6.947   2.047   1.347
 8437SOL    HW226211   6.888   1.961   1.222
 8438SOL     OW26212   2.153   6.540   0.975
 8438SOL    HW126213   2.144   6.489   0.890
 8438SOL    HW226214   2.218   6.614   0.964
 8439SOL     OW26215   6.089   6.772   2.202
 8439SOL    HW126216   6.015   6.831   2.171
 8439SOL    HW226217   6.156   6.762   2.128
 8440SOL     OW26218   0.009   2.197   3.759
 8440SOL    HW126219   0.092   2.211   3.706
 8440SOL    HW226220   6.960   2.166   3.699
 8441SOL     OW26221   4.393   5.108   1.389
 8441SOL    HW126222   4.350   5.033   1.339
 8441SOL    HW226223   4.413   5.078   1.482
 8442SOL     OW26224   1.979   3.669   0.325
 8442SOL    HW126225   1.992   3.760   0.366
 8442SOL    HW226226   1.892   3.631   0.357
 8443SOL     OW26227   0.819   1.958   2.257
 8443SOL    HW126228   0.755   1.910   2.317
 8443SOL    HW226229   0.873   1.892   2.205
 8444SOL     OW26230   4.353   0.916   2.339
 8444SOL    HW126231   4.430   0.853   2.341
 8444SOL    HW226232   4.273   0.871   2.301
 8445SOL     OW26233   4.214   5.543   1.703
 8445SOL    HW126234   4.312   5.548   1.720
 8445SOL    HW226235   4.195   5.573   1.609
 8446SOL     OW26236   6.540   4.602   3.508
 8446SOL    HW126237   6.626   4.642   3.540
 8446SOL    HW226238   6.543   4.590   3.409
 8447SOL     OW26239   4.763   3.158   1.219
 8447SOL    HW126240   4.690   3.166   1.152
 8447SOL    HW226241   4.773   3.245   1.268
 8448SOL     OW26242   1.375   2.367   5.994
 8448SOL    HW126243   1.456   2.404   5.947
 8448SOL    HW226244   1.298   2.363   5.930
 8449SOL     OW26245   1.436   1.751   5.000
 8449SOL    HW126246   1.459   1.812   5.077
 8449SOL    HW226247   1.362   1.793   4.947
 8450SOL     OW26248   2.329   5.614   1.958
 8450SOL    HW126249   2.404   5.611   1.892
 8450SOL    HW226250   2.366   5.606   2.051
 8451SOL     OW26251   4.159   3.278   0.714
 8451SOL    HW126252   4.223   3.257   0.788
 8451SOL    HW226253   4.087   3.338   0.748
 8452SOL     OW26254   6.930   5.452   1.193
 8452SOL    HW126255   6.872   5.468   1.113
 8452SOL    HW226256   6.972   5.362   1.187
 8453SOL     OW26257   0.146   4.943   5.448
 8453SOL    HW126258   0.243   4.928   5.468
 8453SOL    HW226259   0.097   4.857   5.457
 8454SOL     OW26260   2.016   6.269   4.927
 8454SOL    HW126261   1.955   6.220   4.989
 8454SOL    HW226262   2.105   6.224   4.926
 8455SOL     OW26263   6.236   2.675   0.619
 8455SOL    HW126264   6.211   2.600   0.681
 8455SOL    HW226265   6.247   2.639   0.527
 8456SOL     OW26266   5.598   5.919   3.313
 8456SOL    HW126267   5.601   5.829   3.270
 8456SOL    HW226268   5.551   5.983   3.253
 8457SOL     OW26269   6.137   6.252   6.719
 8457SOL    HW126270   6.228   6.284   6.694
 8457SOL    HW226271   6.068   6.314   6.681
 8458SOL     OW26272   1.126   1.747   1.210
 8458SOL    HW126273   1.219   1.743   1.174
 8458SOL    HW226274   1.123   1.811   1.287
 8459SOL     OW26275   2.898   5.475   2.424
 8459SOL    HW126276   2.865   5.391   2.380
 8459SOL    HW226277   2.996   5.485   2.407
 8460SOL     OW26278   3.753   1.080   0.464
 8460SOL    HW126279   3.808   1.119   0.539
 8460SOL    HW226280   3.678   1.026   0.503
 8461SOL     OW26281   4.716   4.161   2.811
 8461SOL    HW126282   4.725   4.247   2.863
 8461SOL    HW226283   4.742   4.084   2.869
 8462SOL     OW26284   2.455   4.283   0.555
 8462SOL    HW126285   2.487   4.369   0.596
 8462SOL    HW226286   2.452   4.293   0.455
 8463SOL     OW26287   6.332   0.843   0.100
 8463SOL    HW126288   6.267   0.882   0.035
 8463SOL    HW226289   6.379   0.916   0.149
 8464SOL     OW26290   6.721   4.037   6.233
 8464SOL    HW126291   6.724   4.134   6.212
 8464SOL    HW226292   6.776   4.018   6.314
 8465SOL     OW26293   4.543   3.078   0.788
 8465SOL    HW126294   4.458   3.052   0.743
 8465SOL    HW226295   4.594   2.995   0.814
 8466SOL     OW26296   6.887   1.244   5.786
 8466SOL    HW126297   6.866   1.217   5.880
 8466SOL    HW226298   6.822   1.314   5.756
 8467SOL     OW26299   3.807   1.304   0.284
 8467SOL    HW126300   3.904   1.326   0.280
 8467SOL    HW226301   3.793   1.224   0.342
 8468SOL     OW26302   5.349   3.284   6.757
 8468SOL    HW126303   5.400   3.358   6.800
 8468SOL    HW226304   5.400   3.198   6.768
 8469SOL     OW26305   4.132   3.339   5.527
 8469SOL    HW126306   4.186   3.305   5.449
 8469SOL    HW226307   4.187   3.332   5.610
 8470SOL     OW26308   1.374   5.318   1.712
 8470SOL    HW126309   1.300   5.271   1.665
 8470SOL    HW226310   1.449   5.254   1.729
 8471SOL     OW26311   3.653   1.687   4.186
 8471SOL    HW126312   3.739   1.650   4.149
 8471SOL    HW226313   3.672   1.736   4.271
 8472SOL     OW26314   6.456   1.704   6.226
 8472SOL    HW126315   6.501   1.759   6.295
 8472SOL    HW226316   6.473   1.607   6.244
 8473SOL     OW26317   4.996   4.376   0.263
 8473SOL    HW126318   4.928   4.448   0.251
 8473SOL    HW226319   5.088   4.413   0.248
 8474SOL     OW26320   3.920   3.950   3.969
 8474SOL    HW126321   3.888   3.980   3.879
 8474SOL    HW226322   3.872   4.000   4.040
 8475SOL     OW26323   6.515   2.683   3.111
 8475SOL    HW126324   6.488   2.779   3.105
 8475SOL    HW226325   6.612   2.674   3.085
 8476SOL     OW26326   6.165   1.042   1.687
 8476SOL    HW126327   6.260   1.013   1.675
 8476SOL    HW226328   6.128   1.002   1.771
 8477SOL     OW26329   5.680   6.851   1.835
 8477SOL    HW126330   5.753   6.916   1.815
 8477SOL    HW226331   5.614   6.894   1.897
 8478SOL     OW26332   0.058   0.255   5.668
 8478SOL    HW126333   0.008   0.173   5.639
 8478SOL    HW226334   7.019   0.332   5.673
 8479SOL     OW26335   0.874   2.970   0.391
 8479SOL    HW126336   0.946   2.960   0.322
 8479SOL    HW226337   0.906   2.933   0.478
 8480SOL     OW26338   4.299   3.586   0.374
 8480SOL    HW126339   4.331   3.519   0.441
 8480SOL    HW226340   4.228   3.545   0.317
 8481SOL     OW26341   4.468   2.304   3.230
 8481SOL    HW126342   4.487   2.246   3.150
 8481SOL    HW226343   4.540   2.373   3.238
 8482SOL     OW26344   4.820   1.052   0.618
 8482SOL    HW126345   4.728   1.070   0.582
 8482SOL    HW226346   4.814   1.023   0.713
 8483SOL     OW26347   3.599   4.999   2.784
 8483SOL    HW126348   3.499   4.994   2.782
 8483SOL    HW226349   3.628   5.095   2.777
 8484SOL     OW26350   5.121   6.086   4.994
 8484SOL    HW126351   5.213   6.060   4.967
 8484SOL    HW226352   5.121   6.113   5.090
 8485SOL     OW26353   3.758   2.050   0.135
 8485SOL    HW126354   3.740   1.983   0.063
 8485SOL    HW226355   3.692   2.124   0.129
 8486SOL     OW26356   6.218   2.394   3.482
 8486SOL    HW126357   6.256   2.466   3.541
 8486SOL    HW226358   6.273   2.311   3.490
 8487SOL     OW26359   6.698   1.596   6.522
 8487SOL    HW126360   6.750   1.647   6.592
 8487SOL    HW226361   6.612   1.564   6.562
 8488SOL     OW26362   4.735   5.445   2.016
 8488SOL    HW126363   4.763   5.350   2.032
 8488SOL    HW226364   4.813   5.505   2.035
 8489SOL     OW26365   6.128   1.913   1.828
 8489SOL    HW126366   6.138   1.818   1.858
 8489SOL    HW226367   6.108   1.971   1.906
 8490SOL     OW26368   3.263   0.363   6.438
 8490SOL    HW126369   3.348   0.409   6.412
 8490SOL    HW226370   3.193   0.433   6.458
 8491SOL     OW26371   3.074   5.858   1.864
 8491SOL    HW126372   3.058   5.937   1.805
 8491SOL    HW226373   3.006   5.857   1.937
 8492SOL     OW26374   6.308   6.613   4.638
 8492SOL    HW126375   6.386   6.676   4.644
 8492SOL    HW226376   6.299   6.564   4.725
 8493SOL     OW26377   5.255   1.369   6.681
 8493SOL    HW126378   5.164   1.366   6.723
 8493SOL    HW226379   5.288   1.276   6.666
 8494SOL     OW26380   6.397   4.202   2.609
 8494SOL    HW126381   6.398   4.126   2.674
 8494SOL    HW226382   6.479   4.197   2.551
 8495SOL     OW26383   6.218   5.265   5.967
 8495SOL    HW126384   6.230   5.166   5.955
 8495SOL    HW226385   6.287   5.314   5.914
 8496SOL     OW26386   5.105   2.822   2.173
 8496SOL    HW126387   5.081   2.818   2.270
 8496SOL    HW226388   5.108   2.917   2.143
 8497SOL     OW26389   6.407   0.730   3.332
 8497SOL    HW126390   6.390   0.652   3.271
 8497SOL    HW226391   6.506   0.744   3.340
 8498SOL     OW26392   5.069   0.256   4.025
 8498SOL    HW126393   4.994   0.224   4.083
 8498SOL    HW226394   5.156   0.236   4.069
 8499SOL     OW26395   5.951   6.663   5.035
 8499SOL    HW126396   5.857   6.696   5.036
 8499SOL    HW226397   6.014   6.740   5.034
 8500SOL     OW26398   1.481   0.832   6.348
 8500SOL    HW126399   1.525   0.834   6.437
 8500SOL    HW226400   1.394   0.881   6.353
 8501SOL     OW26401   2.369   1.098   6.677
 8501SOL    HW126402   2.316   1.149   6.745
 8501SOL    HW226403   2.356   1.139   6.587
 8502SOL     OW26404   0.255   3.946   6.650
 8502SOL    HW126405   0.233   3.887   6.572
 8502SOL    HW226406   0.170   3.976   6.694
 8503SOL     OW26407   4.784   1.426   4.942
 8503SOL    HW126408   4.855   1.414   5.011
 8503SOL    HW226409   4.818   1.397   4.853
 8504SOL     OW26410   1.565   0.509   2.519
 8504SOL    HW126411   1.585   0.415   2.546
 8504SOL    HW226412   1.650   0.554   2.489
 8505SOL     OW26413   5.551   3.299   2.507
 8505SOL    HW126414   5.524   3.322   2.413
 8505SOL    HW226415   5.604   3.214   2.506
 8506SOL     OW26416   1.787   0.663   6.136
 8506SOL    HW126417   1.795   0.736   6.204
 8506SOL    HW226418   1.798   0.701   6.044
 8507SOL     OW26419   3.091   6.164   5.305
 8507SOL    HW126420   3.035   6.244   5.323
 8507SOL    HW226421   3.163   6.157   5.374
 8508SOL     OW26422   3.159   1.482   6.999
 8508SOL    HW126423   3.199   1.541   0.044
 8508SOL    HW226424   3.119   1.537   6.926
 8509SOL     OW26425   5.695   2.423   2.855
 8509SOL    HW126426   5.685   2.452   2.760
 8509SOL    HW226427   5.694   2.504   2.915
 8510SOL     OW26428   0.277   2.181   4.681
 8510SOL    HW126429   0.272   2.203   4.583
 8510SOL    HW226430   0.234   2.092   4.696
 8511SOL     OW26431   5.564   2.013   2.762
 8511SOL    HW126432   5.620   2.046   2.685
 8511SOL    HW226433   5.474   2.056   2.757
 8512SOL     OW26434   2.087   6.551   5.810
 8512SOL    HW126435   2.050   6.604   5.733
 8512SOL    HW226436   2.044   6.460   5.811
 8513SOL     OW26437   5.126   6.254   0.105
 8513SOL    HW126438   5.148   6.249   0.007
 8513SOL    HW226439   5.147   6.167   0.149
 8514SOL     OW26440   3.396   6.557   3.639
 8514SOL    HW126441   3.327   6.622   3.670
 8514SOL    HW226442   3.478   6.607   3.611
 8515SOL     OW26443   5.647   2.229   0.750
 8515SOL    HW126444   5.652   2.327   0.730
 8515SOL    HW226445   5.672   2.213   0.846
 8516SOL     OW26446   6.850   1.929   2.047
 8516SOL    HW126447   6.863   1.839   2.007
 8516SOL    HW226448   6.832   1.996   1.975
 8517SOL     OW26449   1.359   3.770   0.262
 8517SOL    HW126450   1.330   3.698   0.199
 8517SOL    HW226451   1.360   3.857   0.214
 8518SOL     OW26452   3.021   6.118   0.513
 8518SOL    HW126453   3.115   6.085   0.502
 8518SOL    HW226454   3.023   6.214   0.542
 8519SOL     OW26455   2.415   6.000   3.170
 8519SOL    HW126456   2.345   6.072   3.173
 8519SOL    HW226457   2.385   5.922   3.225
 8520SOL     OW26458   3.512   0.270   6.684
 8520SOL    HW126459   3.581   0.342   6.673
 8520SOL    HW226460   3.427   0.298   6.639
 8521SOL     OW26461   1.296   0.418   1.261
 8521SOL    HW126462   1.220   0.483   1.257
 8521SOL    HW226463   1.280   0.343   1.197
 8522SOL     OW26464   2.257   6.113   4.584
 8522SOL    HW126465   2.260   6.134   4.682
 8522SOL    HW226466   2.291   6.191   4.532
 8523SOL     OW26467   1.320   6.827   0.009
 8523SOL    HW126468   1.255   6.756   0.036
 8523SOL    HW226469   1.358   6.870   0.091
 8524SOL     OW26470   1.637   1.715   6.727
 8524SOL    HW126471   1.597   1.806   6.738
 8524SOL    HW226472   1.718   1.721   6.669
 8525SOL     OW26473   5.269   3.449   3.534
 8525SOL    HW126474   5.175   3.440   3.565
 8525SOL    HW226475   5.302   3.361   3.500
 8526SOL     OW26476   1.486   3.264   2.815
 8526SOL    HW126477   1.571   3.220   2.785
 8526SOL    HW226478   1.463   3.338   2.752
 8527SOL     OW26479   4.018   0.608   3.886
 8527SOL    HW126480   3.931   0.592   3.933
 8527SOL    HW226481   4.075   0.669   3.941
 8528SOL     OW26482   5.088   2.196   0.256
 8528SOL    HW126483   5.020   2.130   0.288
 8528SOL    HW226484   5.043   2.283   0.237
 8529SOL     OW26485   0.040   5.427   6.600
 8529SOL    HW126486   0.060   5.331   6.622
 8529SOL    HW226487   0.108   5.461   6.535
 8530SOL     OW26488   1.651   4.036   6.049
 8530SOL    HW126489   1.628   3.967   6.117
 8530SOL    HW226490   1.717   3.998   5.984
 8531SOL     OW26491   3.921   4.949   2.168
 8531SOL    HW126492   3.822   4.952   2.158
 8531SOL    HW226493   3.945   4.940   2.264
 8532SOL     OW26494   1.294   4.258   0.027
 8532SOL    HW126495   1.349   4.332   0.066
 8532SOL    HW226496   1.202   4.291   0.008
 8533SOL     OW26497   3.903   6.729   6.098
 8533SOL    HW126498   3.994   6.727   6.057
 8533SOL    HW226499   3.880   6.824   6.122
 8534SOL     OW26500   1.350   2.656   2.482
 8534SOL    HW126501   1.369   2.583   2.548
 8534SOL    HW226502   1.362   2.622   2.389
 8535SOL     OW26503   6.532   3.123   5.181
 8535SOL    HW126504   6.615   3.074   5.153
 8535SOL    HW226505   6.453   3.062   5.174
 8536SOL     OW26506   6.946   1.336   4.873
 8536SOL    HW126507   7.009   1.280   4.926
 8536SOL    HW226508   6.852   1.307   4.890
 8537SOL     OW26509   5.303   6.673   2.928
 8537SOL    HW126510   5.235   6.627   2.871
 8537SOL    HW226511   5.394   6.655   2.892
 8538SOL     OW26512   5.659   0.852   5.650
 8538SOL    HW126513   5.584   0.797   5.613
 8538SOL    HW226514   5.733   0.858   5.583
 8539SOL     OW26515   0.048   2.963   3.326
 8539SOL    HW126516   7.008   2.974   3.402
 8539SOL    HW226517   0.106   3.045   3.320
 8540SOL     OW26518   3.774   6.895   6.530
 8540SOL    HW126519   3.698   6.846   6.571
 8540SOL    HW226520   3.760   6.994   6.541
 8541SOL     OW26521   3.212   6.363   5.043
 8541SOL    HW126522   3.129   6.392   5.090
 8541SOL    HW226523   3.205   6.384   4.946
 8542SOL     OW26524   1.014   5.149   5.680
 8542SOL    HW126525   0.956   5.148   5.598
 8542SOL    HW226526   1.013   5.059   5.722
 8543SOL     OW26527   2.470   2.563   5.651
 8543SOL    HW126528   2.545   2.528   5.594
 8543SOL    HW226529   2.401   2.492   5.662
 8544SOL     OW26530   5.089   5.085   5.310
 8544SOL    HW126531   5.168   5.130   5.271
 8544SOL    HW226532   5.061   5.133   5.394
 8545SOL     OW26533   2.127   6.785   6.712
 8545SOL    HW126534   2.084   6.866   6.751
 8545SOL    HW226535   2.084   6.764   6.624
 8546SOL     OW26536   4.521   1.049   2.960
 8546SOL    HW126537   4.482   1.137   2.934
 8546SOL    HW226538   4.587   1.062   3.034
 8547SOL     OW26539   5.546   6.306   6.154
 8547SOL    HW126540   5.537   6.388   6.211
 8547SOL    HW226541   5.619   6.319   6.087
 8548SOL     OW26542   0.945   3.841   4.703
 8548SOL    HW126543   0.913   3.936   4.713
 8548SOL    HW226544   1.034   3.841   4.656
 8549SOL     OW26545   0.988   0.090   4.156
 8549SOL    HW126546   0.912   0.048   4.205
 8549SOL    HW226547   0.960   0.178   4.119
 8550SOL     OW26548   0.005   4.834   5.919
 8550SOL    HW126549   7.002   4.804   5.828
 8550SOL    HW226550   6.952   4.878   5.965
 8551SOL     OW26551   2.952   0.305   5.175
 8551SOL    HW126552   3.031   0.244   5.180
 8551SOL    HW226553   2.882   0.264   5.117
 8552SOL     OW26554   3.019   1.570   1.965
 8552SOL    HW126555   3.109   1.543   1.929
 8552SOL    HW226556   3.031   1.633   2.041
 8553SOL     OW26557   5.024   3.830   0.367
 8553SOL    HW126558   5.049   3.920   0.404
 8553SOL    HW226559   4.963   3.783   0.432
 8554SOL     OW26560   1.919   0.721   0.206
 8554SOL    HW126561   1.841   0.763   0.252
 8554SOL    HW226562   1.897   0.625   0.184
 8555SOL     OW26563   4.215   1.854   3.951
 8555SOL    HW126564   4.153   1.815   3.883
 8555SOL    HW226565   4.165   1.868   4.037
 8556SOL     OW26566   0.685   5.374   6.002
 8556SOL    HW126567   0.721   5.282   5.984
 8556SOL    HW226568   0.730   5.440   5.940
 8557SOL     OW26569   7.008   0.495   6.670
 8557SOL    HW126570   0.058   0.473   6.607
 8557SOL    HW226571   6.936   0.426   6.662
 8558SOL     OW26572   2.867   5.701   4.332
 8558SOL    HW126573   2.931   5.666   4.402
 8558SOL    HW226574   2.782   5.728   4.376
 8559SOL     OW26575   1.734   4.249   2.659
 8559SOL    HW126576   1.647   4.281   2.622
 8559SOL    HW226577   1.779   4.324   2.708
 8560SOL     OW26578   3.137   3.980   0.739
 8560SOL    HW126579   3.111   3.938   0.652
 8560SOL    HW226580   3.055   3.993   0.796
 8561SOL     OW26581   3.634   0.774   2.735
 8561SOL    HW126582   3.589   0.700   2.684
 8561SOL    HW226583   3.589   0.786   2.823
 8562SOL     OW26584   5.197   2.402   0.010
 8562SOL    HW126585   5.228   2.492   7.005
 8562SOL    HW226586   5.101   2.408   0.039
 8563SOL     OW26587   3.065   5.114   2.427
 8563SOL    HW126588   3.069   5.020   2.392
 8563SOL    HW226589   3.152   5.159   2.410
 8564SOL     OW26590   4.227   6.823   0.354
 8564SOL    HW126591   4.153   6.863   0.407
 8564SOL    HW226592   4.210   6.725   0.341
 8565SOL     OW26593   1.432   4.702   1.563
 8565SOL    HW126594   1.360   4.689   1.631
 8565SOL    HW226595   1.452   4.799   1.553
 8566SOL     OW26596   3.346   0.846   2.381
 8566SOL    HW126597   3.419   0.837   2.449
 8566SOL    HW226598   3.274   0.905   2.417
 8567SOL     OW26599   1.436   2.371   2.277
 8567SOL    HW126600   1.530   2.381   2.309
 8567SOL    HW226601   1.414   2.447   2.215
 8568SOL     OW26602   6.301   0.641   6.435
 8568SOL    HW126603   6.266   0.716   6.491
 8568SOL    HW226604   6.366   0.676   6.368
 8569SOL     OW26605   4.740   2.182   0.415
 8569SOL    HW126606   4.823   2.223   0.452
 8569SOL    HW226607   4.764   2.108   0.351
 8570SOL     OW26608   2.468   2.097   1.965
 8570SOL    HW126609   2.548   2.152   1.941
 8570SOL    HW226610   2.436   2.123   2.056
 8571SOL     OW26611   2.013   0.690   2.913
 8571SOL    HW126612   1.942   0.620   2.923
 8571SOL    HW226613   2.101   0.653   2.941
 8572SOL     OW26614   2.628   4.104   5.763
 8572SOL    HW126615   2.718   4.143   5.741
 8572SOL    HW226616   2.636   4.046   5.844
 8573SOL     OW26617   2.981   6.055   6.838
 8573SOL    HW126618   3.023   5.985   6.780
 8573SOL    HW226619   3.052   6.114   6.876
 8574SOL     OW26620   5.281   1.043   5.309
 8574SOL    HW126621   5.204   1.106   5.320
 8574SOL    HW226622   5.246   0.954   5.280
 8575SOL     OW26623   3.558   6.088   4.034
 8575SOL    HW126624   3.636   6.123   4.085
 8575SOL    HW226625   3.547   6.141   3.950
 8576SOL     OW26626   1.728   4.746   4.168
 8576SOL    HW126627   1.738   4.656   4.126
 8576SOL    HW226628   1.808   4.766   4.224
 8577SOL     OW26629   1.654   1.108   0.541
 8577SOL    HW126630   1.641   1.194   0.591
 8577SOL    HW226631   1.566   1.062   0.530
 8578SOL     OW26632   1.075   0.299   6.736
 8578SOL    HW126633   1.128   0.345   6.665
 8578SOL    HW226634   0.994   0.353   6.757
 8579SOL     OW26635   2.708   6.689   2.539
 8579SOL    HW126636   2.612   6.665   2.521
 8579SOL    HW226637   2.748   6.730   2.457
 8580SOL     OW26638   1.658   0.066   1.994
 8580SOL    HW126639   1.671   7.018   1.926
 8580SOL    HW226640   1.735   0.130   1.989
 8581SOL     OW26641   3.358   4.557   1.154
 8581SOL    HW126642   3.449   4.542   1.117
 8581SOL    HW226643   3.335   4.482   1.216
 8582SOL     OW26644   3.852   5.542   5.442
 8582SOL    HW126645   3.800   5.564   5.358
 8582SOL    HW226646   3.939   5.591   5.441
 8583SOL     OW26647   3.639   6.743   2.888
 8583SOL    HW126648   3.725   6.716   2.843
 8583SOL    HW226649   3.582   6.793   2.824
 8584SOL     OW26650   6.352   1.332   4.565
 8584SOL    HW126651   6.395   1.408   4.517
 8584SOL    HW226652   6.364   1.343   4.663
 8585SOL     OW26653   5.572   2.817   2.702
 8585SOL    HW126654   5.531   2.881   2.638
 8585SOL    HW226655   5.646   2.863   2.752
 8586SOL     OW26656   6.865   6.109   6.499
 8586SOL    HW126657   6.814   6.043   6.443
 8586SOL    HW226658   6.850   6.088   6.595
 8587SOL     OW26659   0.366   2.283   0.301
 8587SOL    HW126660   0.321   2.207   0.254
 8587SOL    HW226661   0.444   2.314   0.246
 8588SOL     OW26662   2.669   0.402   5.607
 8588SOL    HW126663   2.750   0.460   5.617
 8588SOL    HW226664   2.669   0.361   5.516
 8589SOL     OW26665   5.759   3.094   0.265
 8589SOL    HW126666   5.689   3.053   0.206
 8589SOL    HW226667   5.715   3.136   0.345
 8590SOL     OW26668   0.297   1.082   4.078
 8590SOL    HW126669   0.397   1.086   4.073
 8590SOL    HW226670   0.266   0.988   4.063
 8591SOL     OW26671   6.490   4.596   5.986
 8591SOL    HW126672   6.487   4.599   6.086
 8591SOL    HW226673   6.411   4.544   5.953
 8592SOL     OW26674   0.357   1.912   4.247
 8592SOL    HW126675   0.267   1.941   4.278
 8592SOL    HW226676   0.405   1.989   4.205
 8593SOL     OW26677   5.687   1.493   6.871
 8593SOL    HW126678   5.659   1.442   6.952
 8593SOL    HW226679   5.674   1.436   6.789
 8594SOL     OW26680   6.150   3.593   6.666
 8594SOL    HW126681   6.119   3.499   6.657
 8594SOL    HW226682   6.168   3.632   6.576
 8595SOL     OW26683   5.563   6.605   2.887
 8595SOL    HW126684   5.638   6.655   2.931
 8595SOL    HW226685   5.599   6.552   2.811
 8596SOL     OW26686   0.573   1.549   4.021
 8596SOL    HW126687   0.566   1.477   4.089
 8596SOL    HW226688   0.496   1.612   4.031
 8597SOL     OW26689   6.092   2.963   6.012
 8597SOL    HW126690   6.104   2.880   6.065
 8597SOL    HW226691   6.167   2.973   5.947
 8598SOL     OW26692   6.171   0.513   5.184
 8598SOL    HW126693   6.168   0.494   5.086
 8598SOL    HW226694   6.141   0.432   5.235
 8599SOL     OW26695   6.797   3.619   4.121
 8599SOL    HW126696   6.863   3.675   4.173
 8599SOL    HW226697   6.846   3.566   4.052
 8600SOL     OW26698   4.856   2.348   0.779
 8600SOL    HW126699   4.818   2.441   0.777
 8600SOL    HW226700   4.781   2.282   0.781
 8601SOL     OW26701   6.330   6.199   3.384
 8601SOL    HW126702   6.348   6.192   3.286
 8601SOL    HW226703   6.232   6.202   3.400
 8602SOL     OW26704   1.917   6.581   6.213
 8602SOL    HW126705   2.011   6.569   6.179
 8602SOL    HW226706   1.875   6.491   6.225
 8603SOL     OW26707   1.068   0.598   6.921
 8603SOL    HW126708   0.971   0.622   6.934
 8603SOL    HW226709   1.075   0.501   6.897
 8604SOL     OW26710   1.430   4.721   5.854
 8604SOL    HW126711   1.514   4.753   5.812
 8604SOL    HW226712   1.447   4.635   5.901
 8605SOL     OW26713   0.316   4.775   4.492
 8605SOL    HW126714   0.245   4.780   4.422
 8605SOL    HW226715   0.323   4.862   4.540
 8606SOL     OW26716   1.662   2.152   0.565
 8606SOL    HW126717   1.755   2.186   0.564
 8606SOL    HW226718   1.654   2.075   0.501
 8607SOL     OW26719   1.445   3.654   1.361
 8607SOL    HW126720   1.523   3.597   1.387
 8607SOL    HW226721   1.438   3.659   1.262
 8608SOL     OW26722   1.551   6.225   2.651
 8608SOL    HW126723   1.474   6.166   2.630
 8608SOL    HW226724   1.519   6.306   2.699
 8609SOL     OW26725   3.860   1.658   4.777
 8609SOL    HW126726   3.788   1.703   4.830
 8609SOL    HW226727   3.892   1.720   4.706
 8610SOL     OW26728   0.157   5.848   3.029
 8610SOL    HW126729   0.230   5.912   3.052
 8610SOL    HW226730   0.088   5.894   2.973
 8611SOL     OW26731   2.377   1.044   4.980
 8611SOL    HW126732   2.344   1.138   4.974
 8611SOL    HW226733   2.431   1.022   4.899
 8612SOL     OW26734   3.159   3.003   4.181
 8612SOL    HW126735   3.218   3.069   4.226
 8612SOL    HW226736   3.210   2.918   4.165
 8613SOL     OW26737   3.893   3.038   2.653
 8613SOL    HW126738   3.962   3.058   2.722
 8613SOL    HW226739   3.927   3.064   2.563
 8614SOL     OW26740   1.142   2.301   3.308
 8614SOL    HW126741   1.048   2.334   3.301
 8614SOL    HW226742   1.179   2.324   3.399
 8615SOL     OW26743   3.387   1.682   4.921
 8615SOL    HW126744   3.399   1.610   4.852
 8615SOL    HW226745   3.421   1.769   4.885
 8616SOL     OW26746   5.742   4.497   3.572
 8616SOL    HW126747   5.707   4.415   3.617
 8616SOL    HW226748   5.824   4.529   3.621
 8617SOL     OW26749   2.185   0.264   3.654
 8617SOL    HW126750   2.178   0.364   3.654
 8617SOL    HW226751   2.128   0.227   3.581
 8618SOL     OW26752   5.532   4.026   1.305
 8618SOL    HW126753   5.614   4.039   1.249
 8618SOL    HW226754   5.522   4.103   1.367
 8619SOL     OW26755   5.150   5.303   0.505
 8619SOL    HW126756   5.246   5.277   0.493
 8619SOL    HW226757   5.092   5.237   0.458
 8620SOL     OW26758   1.863   0.222   4.218
 8620SOL    HW126759   1.879   0.144   4.157
 8620SOL    HW226760   1.813   0.191   4.299
 8621SOL     OW26761   5.277   3.630   1.409
 8621SOL    HW126762   5.294   3.717   1.361
 8621SOL    HW226763   5.337   3.625   1.489
 8622SOL     OW26764   0.159   5.165   2.209
 8622SOL    HW126765   0.164   5.124   2.300
 8622SOL    HW226766   0.066   5.153   2.172
 8623SOL     OW26767   1.433   2.970   3.754
 8623SOL    HW126768   1.479   3.035   3.693
 8623SOL    HW226769   1.364   2.920   3.703
 8624SOL     OW26770   3.787   3.733   4.719
 8624SOL    HW126771   3.747   3.766   4.804
 8624SOL    HW226772   3.881   3.764   4.712
 8625SOL     OW26773   3.376   2.831   5.140
 8625SOL    HW126774   3.453   2.789   5.187
 8625SOL    HW226775   3.290   2.802   5.181
 8626SOL     OW26776   3.842   2.487   1.240
 8626SOL    HW126777   3.913   2.424   1.211
 8626SOL    HW226778   3.842   2.494   1.340
 8627SOL     OW26779   1.986   1.566   2.540
 8627SOL    HW126780   1.991   1.571   2.639
 8627SOL    HW226781   1.921   1.495   2.513
 8628SOL     OW26782   0.967   6.371   0.568
 8628SOL    HW126783   0.900   6.301   0.544
 8628SOL    HW226784   1.059   6.338   0.545
 8629SOL     OW26785   0.367   6.526   4.733
 8629SOL    HW126786   0.326   6.498   4.819
 8629SOL    HW226787   0.345   6.459   4.662
 8630SOL     OW26788   4.717   2.770   2.208
 8630SOL    HW126789   4.722   2.768   2.308
 8630SOL    HW226790   4.710   2.865   2.177
 8631SOL     OW26791   2.484   6.154   6.425
 8631SOL    HW126792   2.559   6.092   6.450
 8631SOL    HW226793   2.493   6.239   6.478
 8632SOL     OW26794   5.601   5.581   4.338
 8632SOL    HW126795   5.524   5.625   4.291
 8632SOL    HW226796   5.673   5.647   4.354
 8633SOL     OW26797   6.065   3.777   5.203
 8633SOL    HW126798   6.008   3.737   5.131
 8633SOL    HW226799   6.018   3.771   5.291
 8634SOL     OW26800   5.002   3.906   6.930
 8634SOL    HW126801   5.026   3.811   6.911
 8634SOL    HW226802   5.052   3.939   7.009
 8635SOL     OW26803   5.807   2.787   6.716
 8635SOL    HW126804   5.742   2.772   6.643
 8635SOL    HW226805   5.896   2.747   6.692
 8636SOL     OW26806   4.738   6.556   1.647
 8636SOL    HW126807   4.674   6.487   1.682
 8636SOL    HW226808   4.817   6.563   1.707
 8637SOL     OW26809   2.081   1.896   6.112
 8637SOL    HW126810   2.155   1.829   6.117
 8637SOL    HW226811   2.014   1.867   6.044
 8638SOL     OW26812   4.851   2.807   3.469
 8638SOL    HW126813   4.929   2.843   3.418
 8638SOL    HW226814   4.783   2.880   3.483
 8639SOL     OW26815   4.032   3.729   6.961
 8639SOL    HW126816   4.031   3.713   0.035
 8639SOL    HW226817   4.117   3.693   6.922
 8640SOL     OW26818   3.198   3.180   0.805
 8640SOL    HW126819   3.100   3.194   0.794
 8640SOL    HW226820   3.218   3.152   0.899
 8641SOL     OW26821   4.088   4.939   2.398
 8641SOL    HW126822   4.166   4.925   2.337
 8641SOL    HW226823   4.061   4.851   2.438
 8642SOL     OW26824   1.066   5.986   2.957
 8642SOL    HW126825   1.001   5.959   2.886
 8642SOL    HW226826   1.085   6.084   2.949
 8643SOL     OW26827   3.986   0.040   1.013
 8643SOL    HW126828   4.072   0.028   1.062
 8643SOL    HW226829   3.998   0.107   0.939
 8644SOL     OW26830   6.071   2.442   5.938
 8644SOL    HW126831   5.980   2.465   5.904
 8644SOL    HW226832   6.064   2.387   6.021
 8645SOL     OW26833   5.717   5.448   2.973
 8645SOL    HW126834   5.699   5.537   2.929
 8645SOL    HW226835   5.783   5.397   2.918
 8646SOL     OW26836   6.420   2.352   4.818
 8646SOL    HW126837   6.361   2.276   4.846
 8646SOL    HW226838   6.371   2.439   4.830
 8647SOL     OW26839   2.136   6.059   1.660
 8647SOL    HW126840   2.141   6.083   1.563
 8647SOL    HW226841   2.228   6.057   1.699
 8648SOL     OW26842   5.102   4.929   0.539
 8648SOL    HW126843   5.105   4.968   0.447
 8648SOL    HW226844   5.050   4.844   0.538
 8649SOL     OW26845   5.602   0.958   1.624
 8649SOL    HW126846   5.552   0.890   1.678
 8649SOL    HW226847   5.675   0.998   1.679
 8650SOL     OW26848   2.196   6.620   5.451
 8650SOL    HW126849   2.112   6.655   5.494
 8650SOL    HW226850   2.275   6.666   5.490
 8651SOL     OW26851   4.151   2.493   1.550
 8651SOL    HW126852   4.053   2.513   1.560
 8651SOL    HW226853   4.165   2.394   1.556
 8652SOL     OW26854   1.020   2.956   3.292
 8652SOL    HW126855   1.038   3.053   3.274
 8652SOL    HW226856   1.073   2.900   3.228
 8653SOL     OW26857   6.397   1.583   6.521
 8653SOL    HW126858   6.330   1.596   6.449
 8653SOL    HW226859   6.359   1.611   6.609
 8654SOL     OW26860   0.231   4.324   2.523
 8654SOL    HW126861   0.200   4.411   2.485
 8654SOL    HW226862   0.263   4.264   2.449
 8655SOL     OW26863   0.493   0.210   4.836
 8655SOL    HW126864   0.477   0.210   4.935
 8655SOL    HW226865   0.436   0.279   4.792
 8656SOL     OW26866   4.911   6.700   1.151
 8656SOL    HW126867   4.851   6.692   1.072
 8656SOL    HW226868   4.888   6.628   1.217
 8657SOL     OW26869   3.740   1.763   3.594
 8657SOL    HW126870   3.813   1.761   3.525
 8657SOL    HW226871   3.712   1.858   3.610
 8658SOL     OW26872   5.568   4.568   1.325
 8658SOL    HW126873   5.485   4.518   1.298
 8658SOL    HW226874   5.571   4.654   1.275
 8659SOL     OW26875   3.001   0.743   2.178
 8659SOL    HW126876   2.952   0.829   2.164
 8659SOL    HW226877   2.936   0.672   2.206
 8660SOL     OW26878   0.194   4.831   2.115
 8660SOL    HW126879   0.229   4.858   2.025
 8660SOL    HW226880   0.229   4.894   2.184
 8661SOL     OW26881   6.740   3.421   2.410
 8661SOL    HW126882   6.751   3.510   2.367
 8661SOL    HW226883   6.781   3.350   2.353
 8662SOL     OW26884   1.933   3.214   3.299
 8662SOL    HW126885   1.995   3.146   3.261
 8662SOL    HW226886   1.892   3.267   3.225
 8663SOL     OW26887   3.950   5.317   2.784
 8663SOL    HW126888   4.033   5.273   2.749
 8663SOL    HW226889   3.956   5.415   2.770
 8664SOL     OW26890   4.204   5.986   3.402
 8664SOL    HW126891   4.146   6.048   3.349
 8664SOL    HW226892   4.264   6.040   3.461
 8665SOL     OW26893   5.478   3.595   6.500
 8665SOL    HW126894   5.465   3.622   6.404
 8665SOL    HW226895   5.489   3.677   6.556
 8666SOL     OW26896   4.456   6.837   2.632
 8666SOL    HW126897   4.378   6.800   2.682
 8666SOL    HW226898   4.540   6.819   2.684
 8667SOL     OW26899   5.022   2.032   2.952
 8667SOL    HW126900   4.984   1.980   2.875
 8667SOL    HW226901   5.011   2.130   2.935
 8668SOL     OW26902   4.894   2.301   5.188
 8668SOL    HW126903   4.915   2.294   5.286
 8668SOL    HW226904   4.924   2.218   5.141
 8669SOL     OW26905   6.397   6.334   6.303
 8669SOL    HW126906   6.299   6.320   6.291
 8669SOL    HW226907   6.418   6.431   6.290
 8670SOL     OW26908   6.598   4.617   5.544
 8670SOL    HW126909   6.643   4.528   5.537
 8670SOL    HW226910   6.619   4.671   5.462
 8671SOL     OW26911   0.432   3.236   3.150
 8671SOL    HW126912   0.526   3.242   3.115
 8671SOL    HW226913   0.368   3.252   3.075
 8672SOL     OW26914   0.076   0.985   2.264
 8672SOL    HW126915   0.125   1.064   2.226
 8672SOL    HW226916   7.006   0.987   2.233
 8673SOL     OW26917   1.337   2.384   1.000
 8673SOL    HW126918   1.330   2.285   0.989
 8673SOL    HW226919   1.342   2.407   1.097
 8674SOL     OW26920   6.782   3.908   3.032
 8674SOL    HW126921   6.875   3.875   3.022
 8674SOL    HW226922   6.768   3.943   3.125
 8675SOL     OW26923   4.027   2.174   5.003
 8675SOL    HW126924   4.060   2.123   5.083
 8675SOL    HW226925   4.063   2.267   5.005
 8676SOL     OW26926   4.952   1.640   0.566
 8676SOL    HW126927   5.018   1.577   0.606
 8676SOL    HW226928   4.874   1.651   0.628
 8677SOL     OW26929   2.086   6.956   5.918
 8677SOL    HW126930   2.020   6.904   5.862
 8677SOL    HW226931   2.131   7.025   5.861
 8678SOL     OW26932   2.115   2.445   0.167
 8678SOL    HW126933   2.114   2.545   0.170
 8678SOL    HW226934   2.084   2.413   0.077
 8679SOL     OW26935   1.335   1.767   5.998
 8679SOL    HW126936   1.364   1.861   5.981
 8679SOL    HW226937   1.394   1.726   6.068
 8680SOL     OW26938   0.057   0.621   0.124
 8680SOL    HW126939   0.071   0.644   0.220
 8680SOL    HW226940   6.995   0.659   0.092
 8681SOL     OW26941   5.318   5.928   0.958
 8681SOL    HW126942   5.356   5.836   0.968
 8681SOL    HW226943   5.324   5.957   0.863
 8682SOL     OW26944   2.341   0.543   2.401
 8682SOL    HW126945   2.407   0.508   2.335
 8682SOL    HW226946   2.250   0.507   2.379
 8683SOL     OW26947   2.384   4.491   4.875
 8683SOL    HW126948   2.392   4.492   4.975
 8683SOL    HW226949   2.336   4.574   4.845
 8684SOL     OW26950   2.343   4.300   4.079
 8684SOL    HW126951   2.362   4.217   4.133
 8684SOL    HW226952   2.311   4.372   4.140
 8685SOL     OW26953   4.702   2.582   4.807
 8685SOL    HW126954   4.733   2.676   4.823
 8685SOL    HW226955   4.637   2.580   4.732
 8686SOL     OW26956   1.151   5.378   3.151
 8686SOL    HW126957   1.132   5.445   3.080
 8686SOL    HW226958   1.171   5.289   3.109
 8687SOL     OW26959   5.731   4.421   5.011
 8687SOL    HW126960   5.796   4.412   5.086
 8687SOL    HW226961   5.716   4.331   4.970
 8688SOL     OW26962   1.508   3.755   5.196
 8688SOL    HW126963   1.480   3.661   5.216
 8688SOL    HW226964   1.494   3.774   5.099
 8689SOL     OW26965   4.009   3.083   0.151
 8689SOL    HW126966   3.968   3.093   0.060
 8689SOL    HW226967   3.958   3.138   0.217
 8690SOL     OW26968   1.397   1.906   2.560
 8690SOL    HW126969   1.349   1.918   2.473
 8690SOL    HW226970   1.344   1.844   2.619
 8691SOL     OW26971   3.565   2.696   5.426
 8691SOL    HW126972   3.490   2.760   5.448
 8691SOL    HW226973   3.650   2.729   5.467
 8692SOL     OW26974   4.704   2.308   4.927
 8692SOL    HW126975   4.642   2.297   5.004
 8692SOL    HW226976   4.664   2.371   4.860
 8693SOL     OW26977   6.944   6.772   5.974
 8693SOL    HW126978   6.960   6.704   5.902
 8693SOL    HW226979   0.006   6.812   6.002
 8694SOL     OW26980   5.240   2.978   5.573
 8694SOL    HW126981   5.226   2.882   5.547
 8694SOL    HW226982   5.285   3.027   5.499
 8695SOL     OW26983   3.569   4.900   0.624
 8695SOL    HW126984   3.478   4.941   0.634
 8695SOL    HW226985   3.589   4.887   0.527
 8696SOL     OW26986   2.981   5.470   5.892
 8696SOL    HW126987   2.942   5.380   5.870
 8696SOL    HW226988   3.077   5.472   5.863
 8697SOL     OW26989   1.762   4.094   5.486
 8697SOL    HW126990   1.765   4.039   5.402
 8697SOL    HW226991   1.821   4.052   5.555
 8698SOL     OW26992   4.490   5.203   6.298
 8698SOL    HW126993   4.457   5.143   6.225
 8698SOL    HW226994   4.588   5.187   6.312
 8699SOL     OW26995   1.680   2.431   6.905
 8699SOL    HW126996   1.604   2.440   6.840
 8699SOL    HW226997   1.737   2.512   6.903
 8700SOL     OW26998   1.187   1.161   4.338
 8700SOL    HW126999   1.188   1.175   4.239
 8700SOL    HW227000   1.154   1.068   4.357
 8701SOL     OW27001   1.566   2.870   6.813
 8701SOL    HW127002   1.499   2.816   6.864
 8701SOL    HW227003   1.654   2.822   6.813
 8702SOL     OW27004   5.358   4.623   0.836
 8702SOL    HW127005   5.449   4.583   0.839
 8702SOL    HW227006   5.341   4.674   0.920
 8703SOL     OW27007   3.068   5.869   0.771
 8703SOL    HW127008   3.066   5.968   0.788
 8703SOL    HW227009   3.119   5.851   0.687
 8704SOL     OW27010   0.280   0.838   4.903
 8704SOL    HW127011   0.286   0.879   4.812
 8704SOL    HW227012   0.250   0.743   4.895
 8705SOL     OW27013   4.157   2.209   6.842
 8705SOL    HW127014   4.075   2.169   6.801
 8705SOL    HW227015   4.170   2.301   6.806
 8706SOL     OW27016   4.919   2.753   6.520
 8706SOL    HW127017   4.985   2.680   6.541
 8706SOL    HW227018   4.960   2.817   6.455
 8707SOL     OW27019   2.517   1.156   4.173
 8707SOL    HW127020   2.439   1.209   4.140
 8707SOL    HW227021   2.516   1.153   4.273
 8708SOL     OW27022   6.109   2.411   0.702
 8708SOL    HW127023   6.023   2.453   0.674
 8708SOL    HW227024   6.103   2.312   0.690
 8709SOL     OW27025   6.117   6.883   5.043
 8709SOL    HW127026   6.102   6.895   5.141
 8709SOL    HW227027   6.101   6.969   4.996
 8710SOL     OW27028   2.266   1.682   3.605
 8710SOL    HW127029   2.332   1.756   3.591
 8710SOL    HW227030   2.173   1.720   3.608
 8711SOL     OW27031   1.186   1.653   2.033
 8711SOL    HW127032   1.167   1.613   1.944
 8711SOL    HW227033   1.191   1.580   2.102
 8712SOL     OW27034   1.475   4.447   4.903
 8712SOL    HW127035   1.546   4.421   4.969
 8712SOL    HW227036   1.426   4.527   4.938
 8713SOL     OW27037   0.066   3.528   1.137
 8713SOL    HW127038   0.021   3.439   1.129
 8713SOL    HW227039   0.163   3.518   1.113
 8714SOL     OW27040   6.679   4.605   6.483
 8714SOL    HW127041   6.598   4.546   6.486
 8714SOL    HW227042   6.751   4.565   6.539
 8715SOL     OW27043   1.909   3.635   1.847
 8715SOL    HW127044   2.004   3.621   1.874
 8715SOL    HW227045   1.905   3.698   1.770
 8716SOL     OW27046   6.938   0.310   2.531
 8716SOL    HW127047   6.840   0.307   2.549
 8716SOL    HW227048   6.986   0.344   2.612
 8717SOL     OW27049   2.994   2.934   6.925
 8717SOL    HW127050   2.894   2.925   6.927
 8717SOL    HW227051   3.020   3.009   6.865
 8718SOL     OW27052   3.086   4.992   6.410
 8718SOL    HW127053   3.173   4.974   6.456
 8718SOL    HW227054   3.047   5.077   6.445
 8719SOL     OW27055   3.501   0.886   4.287
 8719SOL    HW127056   3.444   0.804   4.295
 8719SOL    HW227057   3.541   0.890   4.195
 8720SOL     OW27058   0.114   5.411   4.491
 8720SOL    HW127059   0.210   5.384   4.493
 8720SOL    HW227060   0.073   5.385   4.404
 8721SOL     OW27061   0.475   0.022   0.202
 8721SOL    HW127062   0.542   0.087   0.237
 8721SOL    HW227063   0.513   6.997   0.124
 8722SOL     OW27064   2.974   1.158   0.978
 8722SOL    HW127065   3.051   1.180   1.038
 8722SOL    HW227066   2.888   1.174   1.027
 8723SOL     OW27067   3.438   6.627   2.382
 8723SOL    HW127068   3.535   6.649   2.392
 8723SOL    HW227069   3.428   6.534   2.347
 8724SOL     OW27070   3.689   1.508   4.599
 8724SOL    HW127071   3.737   1.560   4.670
 8724SOL    HW227072   3.693   1.410   4.622
 8725SOL     OW27073   6.982   0.262   3.790
 8725SOL    HW127074   0.046   0.248   3.836
 8725SOL    HW227075   6.928   0.178   3.798
 8726SOL     OW27076   6.657   1.246   1.210
 8726SOL    HW127077   6.703   1.171   1.257
 8726SOL    HW227078   6.723   1.320   1.193
 8727SOL     OW27079   5.100   6.281   6.858
 8727SOL    HW127080   5.040   6.228   6.797
 8727SOL    HW227081   5.053   6.364   6.887
 8728SOL     OW27082   6.492   0.310   5.086
 8728SOL    HW127083   6.569   0.293   5.148
 8728SOL    HW227084   6.442   0.225   5.070
 8729SOL     OW27085   5.993   5.797   6.339
 8729SOL    HW127086   5.956   5.705   6.341
 8729SOL    HW227087   6.038   5.814   6.252
 8730SOL     OW27088   4.760   5.420   1.154
 8730SOL    HW127089   4.776   5.369   1.238
 8730SOL    HW227090   4.845   5.463   1.124
 8731SOL     OW27091   6.745   1.614   3.741
 8731SOL    HW127092   6.768   1.559   3.661
 8731SOL    HW227093   6.659   1.580   3.780
 8732SOL     OW27094   5.715   6.751   6.683
 8732SOL    HW127095   5.651   6.821   6.714
 8732SOL    HW227096   5.756   6.705   6.762
 8733SOL     OW27097   6.469   4.448   2.358
 8733SOL    HW127098   6.443   4.354   2.333
 8733SOL    HW227099   6.560   4.468   2.322
 8734SOL     OW27100   0.753   4.198   0.915
 8734SOL    HW127101   0.714   4.284   0.948
 8734SOL    HW227102   0.692   4.123   0.940
 8735SOL     OW27103   0.444   2.888   4.903
 8735SOL    HW127104   0.383   2.967   4.907
 8735SOL    HW227105   0.532   2.912   4.945
 8736SOL     OW27106   1.430   5.982   2.989
 8736SOL    HW127107   1.412   5.935   3.076
 8736SOL    HW227108   1.430   5.915   2.915
 8737SOL     OW27109   1.162   5.739   0.166
 8737SOL    HW127110   1.081   5.680   0.168
 8737SOL    HW227111   1.144   5.818   0.107
 8738SOL     OW27112   1.076   2.822   2.862
 8738SOL    HW127113   0.992   2.869   2.891
 8738SOL    HW227114   1.131   2.801   2.942
 8739SOL     OW27115   5.928   5.172   4.728
 8739SOL    HW127116   5.896   5.082   4.699
 8739SOL    HW227117   5.880   5.243   4.677
 8740SOL     OW27118   3.257   1.141   4.078
 8740SOL    HW127119   3.340   1.173   4.033
 8740SOL    HW227120   3.186   1.212   4.071
 8741SOL     OW27121   0.834   1.585   2.880
 8741SOL    HW127122   0.800   1.679   2.885
 8741SOL    HW227123   0.850   1.561   2.784
 8742SOL     OW27124   2.744   1.977   1.814
 8742SOL    HW127125   2.825   2.015   1.770
 8742SOL    HW227126   2.717   1.892   1.768
 8743SOL     OW27127   1.058   2.970   1.304
 8743SOL    HW127128   1.142   2.916   1.313
 8743SOL    HW227129   0.999   2.953   1.383
 8744SOL     OW27130   3.369   3.906   5.714
 8744SOL    HW127131   3.359   3.872   5.808
 8744SOL    HW227132   3.465   3.927   5.696
 8745SOL     OW27133   5.804   1.813   6.028
 8745SOL    HW127134   5.820   1.719   5.998
 8745SOL    HW227135   5.892   1.862   6.032
 8746SOL     OW27136   4.050   4.569   5.370
 8746SOL    HW127137   4.016   4.601   5.458
 8746SOL    HW227138   4.035   4.471   5.361
 8747SOL     OW27139   1.229   0.657   3.288
 8747SOL    HW127140   1.201   0.740   3.239
 8747SOL    HW227141   1.153   0.624   3.344
 8748SOL     OW27142   5.427   2.018   4.846
 8748SOL    HW127143   5.462   1.924   4.848
 8748SOL    HW227144   5.352   2.024   4.781
 8749SOL     OW27145   2.840   1.212   3.969
 8749SOL    HW127146   2.901   1.242   4.041
 8749SOL    HW227147   2.794   1.127   3.997
 8750SOL     OW27148   3.805   4.108   1.077
 8750SOL    HW127149   3.706   4.114   1.063
 8750SOL    HW227150   3.826   4.120   1.174
 8751SOL     OW27151   2.944   6.701   0.364
 8751SOL    HW127152   2.971   6.733   0.274
 8751SOL    HW227153   3.025   6.686   0.420
 8752SOL     OW27154   6.921   2.705   5.661
 8752SOL    HW127155   7.003   2.649   5.668
 8752SOL    HW227156   6.931   2.770   5.585
 8753SOL     OW27157   2.710   2.577   0.518
 8753SOL    HW127158   2.619   2.580   0.478
 8753SOL    HW227159   2.709   2.519   0.600
 8754SOL     OW27160   1.213   5.339   0.052
 8754SOL    HW127161   1.171   5.349   6.987
 8754SOL    HW227162   1.198   5.423   0.105
 8755SOL     OW27163   0.459   2.633   2.240
 8755SOL    HW127164   0.400   2.557   2.266
 8755SOL    HW227165   0.405   2.718   2.239
 8756SOL     OW27166   1.807   1.746   2.043
 8756SOL    HW127167   1.859   1.794   2.114
 8756SOL    HW227168   1.713   1.733   2.073
 8757SOL     OW27169   5.482   6.091   5.828
 8757SOL    HW127170   5.448   6.001   5.800
 8757SOL    HW227171   5.452   6.111   5.922
 8758SOL     OW27172   3.321   5.716   5.349
 8758SOL    HW127173   3.256   5.762   5.289
 8758SOL    HW227174   3.278   5.699   5.438
 8759SOL     OW27175   6.005   1.240   1.223
 8759SOL    HW127176   6.068   1.315   1.202
 8759SOL    HW227177   6.002   1.225   1.322
 8760SOL     OW27178   2.529   2.548   4.212
 8760SOL    HW127179   2.517   2.634   4.260
 8760SOL    HW227180   2.457   2.484   4.239
 8761SOL     OW27181   4.921   1.874   2.720
 8761SOL    HW127182   4.965   1.928   2.648
 8761SOL    HW227183   4.822   1.871   2.703
 8762SOL     OW27184   3.160   5.408   3.194
 8762SOL    HW127185   3.150   5.366   3.284
 8762SOL    HW227186   3.164   5.337   3.123
 8763SOL     OW27187   0.238   0.845   6.676
 8763SOL    HW127188   0.274   0.928   6.719
 8763SOL    HW227189   0.311   0.777   6.668
 8764SOL     OW27190   3.323   4.746   5.635
 8764SOL    HW127191   3.385   4.781   5.705
 8764SOL    HW227192   3.257   4.684   5.677
 8765SOL     OW27193   4.039   0.224   3.707
 8765SOL    HW127194   4.090   0.286   3.766
 8765SOL    HW227195   4.094   0.142   3.690
 8766SOL     OW27196   5.362   6.472   5.798
 8766SOL    HW127197   5.452   6.436   5.774
 8766SOL    HW227198   5.368   6.524   5.883
 8767SOL     OW27199   1.922   1.543   3.389
 8767SOL    HW127200   2.000   1.482   3.401
 8767SOL    HW227201   1.844   1.508   3.441
 8768SOL     OW27202   7.003   1.907   6.716
 8768SOL    HW127203   0.026   1.967   6.652
 8768SOL    HW227204   0.018   1.917   6.807
 8769SOL     OW27205   6.085   0.230   6.983
 8769SOL    HW127206   6.139   0.313   6.982
 8769SOL    HW227207   5.989   0.253   7.001
 8770SOL     OW27208   5.290   2.332   0.376
 8770SOL    HW127209   5.231   2.265   0.331
 8770SOL    HW227210   5.287   2.319   0.475
 8771SOL     OW27211   0.400   2.486   6.725
 8771SOL    HW127212   0.304   2.496   6.751
 8771SOL    HW227213   0.424   2.555   6.657
 8772SOL     OW27214   0.153   0.191   4.885
 8772SOL    HW127215   0.225   0.260   4.879
 8772SOL    HW227216   0.063   0.236   4.882
 8773SOL     OW27217   6.942   0.591   4.624
 8773SOL    HW127218   6.873   0.661   4.609
 8773SOL    HW227219   6.901   0.501   4.612
 8774SOL     OW27220   1.118   1.806   0.230
 8774SOL    HW127221   1.164   1.728   0.189
 8774SOL    HW227222   1.139   1.889   0.178
 8775SOL     OW27223   5.591   2.669   3.738
 8775SOL    HW127224   5.516   2.690   3.676
 8775SOL    HW227225   5.654   2.605   3.693
 8776SOL     OW27226   4.237   2.745   0.392
 8776SOL    HW127227   4.301   2.669   0.404
 8776SOL    HW227228   4.154   2.728   0.446
 8777SOL     OW27229   6.832   1.820   3.376
 8777SOL    HW127230   6.795   1.866   3.295
 8777SOL    HW227231   6.885   1.740   3.348
 8778SOL     OW27232   3.310   4.051   6.981
 8778SOL    HW127233   3.408   4.069   6.986
 8778SOL    HW227234   3.263   4.133   6.946
 8779SOL     OW27235   4.151   5.038   2.848
 8779SOL    HW127236   4.082   4.967   2.832
 8779SOL    HW227237   4.146   5.105   2.774
 8780SOL     OW27238   0.454   4.605   3.716
 8780SOL    HW127239   0.497   4.515   3.724
 8780SOL    HW227240   0.495   4.668   3.782
 8781SOL     OW27241   2.349   0.754   1.184
 8781SOL    HW127242   2.297   0.708   1.256
 8781SOL    HW227243   2.415   0.817   1.225
 8782SOL     OW27244   5.803   2.115   0.539
 8782SOL    HW127245   5.807   2.164   0.451
 8782SOL    HW227246   5.750   2.169   0.604
 8783SOL     OW27247   4.985   4.343   4.575
 8783SOL    HW127248   5.045   4.416   4.608
 8783SOL    HW227249   4.948   4.292   4.653
 8784SOL     OW27250   5.002   0.551   0.832
 8784SOL    HW127251   4.932   0.479   0.832
 8784SOL    HW227252   5.093   0.510   0.834
 8785SOL     OW27253   0.179   5.571   4.865
 8785SOL    HW127254   0.085   5.600   4.881
 8785SOL    HW227255   0.240   5.649   4.874
 8786SOL     OW27256   5.181   1.516   2.343
 8786SOL    HW127257   5.137   1.565   2.418
 8786SOL    HW227258   5.280   1.529   2.348
 8787SOL     OW27259   3.456   5.717   1.283
 8787SOL    HW127260   3.510   5.638   1.312
 8787SOL    HW227261   3.395   5.689   1.209
 8788SOL     OW27262   0.277   6.548   4.047
 8788SOL    HW127263   0.363   6.524   4.001
 8788SOL    HW227264   0.226   6.465   4.069
 8789SOL     OW27265   1.084   2.040   5.987
 8789SOL    HW127266   1.024   2.119   5.984
 8789SOL    HW227267   1.160   2.053   5.923
 8790SOL     OW27268   4.019   2.982   5.233
 8790SOL    HW127269   3.967   3.034   5.300
 8790SOL    HW227270   3.992   3.009   5.140
 8791SOL     OW27271   3.656   6.331   4.281
 8791SOL    HW127272   3.582   6.342   4.214
 8791SOL    HW227273   3.618   6.300   4.368
 8792SOL     OW27274   5.419   4.986   2.000
 8792SOL    HW127275   5.480   5.056   1.961
 8792SOL    HW227276   5.458   4.951   2.085
 8793SOL     OW27277   6.941   6.494   5.296
 8793SOL    HW127278   6.854   6.540   5.277
 8793SOL    HW227279   6.937   6.400   5.263
 8794SOL     OW27280   6.768   1.248   2.657
 8794SOL    HW127281   6.699   1.248   2.729
 8794SOL    HW227282   6.857   1.275   2.696
 8795SOL     OW27283   1.064   6.534   6.876
 8795SOL    HW127284   1.099   6.582   6.957
 8795SOL    HW227285   0.978   6.575   6.847
 8796SOL     OW27286   5.899   3.789   4.698
 8796SOL    HW127287   5.968   3.848   4.654
 8796SOL    HW227288   5.923   3.693   4.682
 8797SOL     OW27289   4.457   6.620   4.146
 8797SOL    HW127290   4.463   6.547   4.214
 8797SOL    HW227291   4.416   6.583   4.062
 8798SOL     OW27292   2.745   6.597   5.715
 8798SOL    HW127293   2.758   6.498   5.708
 8798SOL    HW227294   2.660   6.616   5.765
 8799SOL     OW27295   1.610   5.572   1.776
 8799SOL    HW127296   1.543   5.635   1.736
 8799SOL    HW227297   1.564   5.511   1.841
 8800SOL     OW27298   6.302   6.389   4.856
 8800SOL    HW127299   6.206   6.416   4.866
 8800SOL    HW227300   6.310   6.321   4.783
 8801SOL     OW27301   5.647   3.585   5.310
 8801SOL    HW127302   5.551   3.607   5.327
 8801SOL    HW227303   5.697   3.588   5.396
 8802SOL     OW27304   1.080   5.596   6.381
 8802SOL    HW127305   1.025   5.526   6.335
 8802SOL    HW227306   1.080   5.679   6.325
 8803SOL     OW27307   6.112   6.271   6.351
 8803SOL    HW127308   6.102   6.361   6.393
 8803SOL    HW227309   6.026   6.220   6.361
 8804SOL     OW27310   1.841   6.290   1.877
 8804SOL    HW127311   1.858   6.229   1.954
 8804SOL    HW227312   1.921   6.293   1.818
 8805SOL     OW27313   5.101   4.981   3.263
 8805SOL    HW127314   5.083   4.899   3.209
 8805SOL    HW227315   5.199   5.001   3.262
 8806SOL     OW27316   1.384   7.011   1.517
 8806SOL    HW127317   1.448   6.939   1.492
 8806SOL    HW227318   1.384   7.024   1.616
 8807SOL     OW27319   5.692   2.930   0.908
 8807SOL    HW127320   5.684   2.945   0.809
 8807SOL    HW227321   5.608   2.961   0.953
 8808SOL     OW27322   1.844   2.286   6.231
 8808SOL    HW127323   1.770   2.349   6.206
 8808SOL    HW227324   1.864   2.296   6.329
 8809SOL     OW27325   0.038   3.280   3.210
 8809SOL    HW127326   6.963   3.279   3.219
 8809SOL    HW227327   0.079   3.271   3.301
 8810SOL     OW27328   1.194   1.203   4.850
 8810SOL    HW127329   1.210   1.145   4.770
 8810SOL    HW227330   1.146   1.150   4.920
 8811SOL     OW27331   4.208   4.719   2.602
 8811SOL    HW127332   4.263   4.649   2.648
 8811SOL    HW227333   4.266   4.771   2.539
 8812SOL     OW27334   5.345   1.108   6.572
 8812SOL    HW127335   5.330   1.157   6.486
 8812SOL    HW227336   5.297   1.020   6.569
 8813SOL     OW27337   2.162   3.826   3.212
 8813SOL    HW127338   2.221   3.770   3.270
 8813SOL    HW227339   2.200   3.918   3.205
 8814SOL     OW27340   4.937   0.000   5.544
 8814SOL    HW127341   4.842   0.002   5.515
 8814SOL    HW227342   4.966   0.093   5.569
 8815SOL     OW27343   5.508   1.115   1.417
 8815SOL    HW127344   5.415   1.104   1.454
 8815SOL    HW227345   5.571   1.059   1.469
 8816SOL     OW27346   0.884   6.175   4.551
 8816SOL    HW127347   0.867   6.274   4.547
 8816SOL    HW227348   0.796   6.126   4.546
 8817SOL     OW27349   1.452   2.938   3.299
 8817SOL    HW127350   1.445   2.888   3.385
 8817SOL    HW227351   1.398   3.022   3.305
 8818SOL     OW27352   1.002   0.060   6.076
 8818SOL    HW127353   1.089   0.089   6.116
 8818SOL    HW227354   0.962   7.012   6.133
 8819SOL     OW27355   4.405   4.878   6.343
 8819SOL    HW127356   4.498   4.841   6.335
 8819SOL    HW227357   4.381   4.889   6.439
 8820SOL     OW27358   4.003   6.544   5.564
 8820SOL    HW127359   4.056   6.490   5.629
 8820SOL    HW227360   3.912   6.562   5.602
 8821SOL     OW27361   6.982   4.528   6.171
 8821SOL    HW127362   0.001   4.477   6.097
 8821SOL    HW227363   6.883   4.513   6.167
 8822SOL     OW27364   6.397   0.489   4.935
 8822SOL    HW127365   6.415   0.582   4.965
 8822SOL    HW227366   6.435   0.424   5.001
 8823SOL     OW27367   3.550   1.698   3.259
 8823SOL    HW127368   3.506   1.773   3.308
 8823SOL    HW227369   3.490   1.665   3.186
 8824SOL     OW27370   1.304   0.318   2.819
 8824SOL    HW127371   1.246   0.251   2.866
 8824SOL    HW227372   1.330   0.390   2.883
 8825SOL     OW27373   0.117   0.246   0.482
 8825SOL    HW127374   0.020   0.242   0.508
 8825SOL    HW227375   0.129   0.205   0.392
 8826SOL     OW27376   0.748   4.635   1.024
 8826SOL    HW127377   0.825   4.632   0.961
 8826SOL    HW227378   0.702   4.546   1.024
 8827SOL     OW27379   4.474   6.931   3.044
 8827SOL    HW127380   4.442   6.997   2.976
 8827SOL    HW227381   4.570   6.910   3.028
 8828SOL     OW27382   5.269   2.574   6.508
 8828SOL    HW127383   5.250   2.610   6.416
 8828SOL    HW227384   5.187   2.582   6.564
 8829SOL     OW27385   6.856   0.859   2.810
 8829SOL    HW127386   6.930   0.811   2.765
 8829SOL    HW227387   6.815   0.925   2.747
 8830SOL     OW27388   3.325   0.379   3.317
 8830SOL    HW127389   3.365   0.363   3.227
 8830SOL    HW227390   3.397   0.403   3.382
 8831SOL     OW27391   0.126   2.851   2.184
 8831SOL    HW127392   0.079   2.783   2.127
 8831SOL    HW227393   0.215   2.873   2.144
 8832SOL     OW27394   5.560   6.914   5.544
 8832SOL    HW127395   5.491   6.903   5.615
 8832SOL    HW227396   5.580   6.825   5.503
 8833SOL     OW27397   5.046   2.166   1.377
 8833SOL    HW127398   5.097   2.252   1.385
 8833SOL    HW227399   5.085   2.098   1.438
 8834SOL     OW27400   6.021   3.662   5.961
 8834SOL    HW127401   6.079   3.600   6.014
 8834SOL    HW227402   5.930   3.621   5.951
 8835SOL     OW27403   6.942   0.482   5.728
 8835SOL    HW127404   6.923   0.560   5.669
 8835SOL    HW227405   6.856   0.444   5.763
 8836SOL     OW27406   4.555   1.276   1.395
 8836SOL    HW127407   4.486   1.292   1.466
 8836SOL    HW227408   4.643   1.255   1.439
 8837SOL     OW27409   4.105   6.773   0.712
 8837SOL    HW127410   4.010   6.789   0.685
 8837SOL    HW227411   4.114   6.681   0.750
 8838SOL     OW27412   1.738   3.735   3.764
 8838SOL    HW127413   1.668   3.668   3.741
 8838SOL    HW227414   1.726   3.765   3.859
 8839SOL     OW27415   4.755   6.011   1.875
 8839SOL    HW127416   4.746   5.971   1.784
 8839SOL    HW227417   4.725   6.106   1.873
 8840SOL     OW27418   6.671   0.947   0.909
 8840SOL    HW127419   6.639   0.875   0.848
 8840SOL    HW227420   6.754   0.988   0.870
 8841SOL     OW27421   3.529   1.481   0.714
 8841SOL    HW127422   3.468   1.499   0.792
 8841SOL    HW227423   3.623   1.505   0.738
 8842SOL     OW27424   3.147   3.616   4.511
 8842SOL    HW127425   3.181   3.579   4.425
 8842SOL    HW227426   3.223   3.631   4.574
 8843SOL     OW27427   2.615   5.986   6.102
 8843SOL    HW127428   2.631   5.952   6.009
 8843SOL    HW227429   2.534   6.045   6.102
 8844SOL     OW27430   3.329   2.773   6.203
 8844SOL    HW127431   3.373   2.814   6.123
 8844SOL    HW227432   3.382   2.796   6.285
 8845SOL     OW27433   0.144   3.493   2.127
 8845SOL    HW127434   0.146   3.406   2.176
 8845SOL    HW227435   0.065   3.546   2.157
 8846SOL     OW27436   5.568   4.650   4.397
 8846SOL    HW127437   5.594   4.650   4.301
 8846SOL    HW227438   5.598   4.735   4.440
 8847SOL     OW27439   1.335   2.214   3.729
 8847SOL    HW127440   1.320   2.169   3.817
 8847SOL    HW227441   1.399   2.159   3.674
 8848SOL     OW27442   5.796   1.001   0.597
 8848SOL    HW127443   5.740   1.006   0.515
 8848SOL    HW227444   5.786   0.912   0.640
 8849SOL     OW27445   3.417   4.970   4.320
 8849SOL    HW127446   3.367   4.970   4.406
 8849SOL    HW227447   3.514   4.952   4.338
 8850SOL     OW27448   3.304   1.192   1.510
 8850SOL    HW127449   3.321   1.139   1.427
 8850SOL    HW227450   3.213   1.171   1.546
 8851SOL     OW27451   6.526   5.005   2.487
 8851SOL    HW127452   6.486   5.086   2.529
 8851SOL    HW227453   6.525   5.015   2.387
 8852SOL     OW27454   4.512   2.618   4.586
 8852SOL    HW127455   4.444   2.687   4.611
 8852SOL    HW227456   4.465   2.534   4.558
 8853SOL     OW27457   4.239   1.970   5.421
 8853SOL    HW127458   4.311   1.902   5.413
 8853SOL    HW227459   4.188   1.975   5.335
 8854SOL     OW27460   1.613   1.475   6.830
 8854SOL    HW127461   1.617   1.570   6.802
 8854SOL    HW227462   1.675   1.460   6.908
 8855SOL     OW27463   6.113   4.973   0.513
 8855SOL    HW127464   6.024   5.018   0.517
 8855SOL    HW227465   6.149   4.959   0.605
 8856SOL     OW27466   5.341   1.268   5.098
 8856SOL    HW127467   5.401   1.197   5.135
 8856SOL    HW227468   5.385   1.313   5.021
 8857SOL     OW27469   6.810   2.458   4.592
 8857SOL    HW127470   6.721   2.503   4.595
 8857SOL    HW227471   6.803   2.367   4.633
 8858SOL     OW27472   6.622   4.256   5.911
 8858SOL    HW127473   6.575   4.328   5.860
 8858SOL    HW227474   6.572   4.235   5.995
 8859SOL     OW27475   2.944   5.580   5.545
 8859SOL    HW127476   2.952   5.632   5.631
 8859SOL    HW227477   2.918   5.486   5.566
 8860SOL     OW27478   1.298   2.417   1.650
 8860SOL    HW127479   1.266   2.337   1.597
 8860SOL    HW227480   1.393   2.402   1.678
 8861SOL     OW27481   2.561   2.972   0.852
 8861SOL    HW127482   2.592   2.938   0.941
 8861SOL    HW227483   2.608   3.058   0.832
 8862SOL     OW27484   6.301   2.127   4.585
 8862SOL    HW127485   6.334   2.109   4.678
 8862SOL    HW227486   6.293   2.225   4.571
 8863SOL     OW27487   0.895   5.684   5.061
 8863SOL    HW127488   0.961   5.621   5.018
 8863SOL    HW227489   0.941   5.770   5.083
 8864SOL     OW27490   1.356   3.417   5.775
 8864SOL    HW127491   1.338   3.484   5.847
 8864SOL    HW227492   1.448   3.379   5.787
 8865SOL     OW27493   2.250   2.008   5.704
 8865SOL    HW127494   2.237   2.045   5.612
 8865SOL    HW227495   2.203   1.920   5.712
 8866SOL     OW27496   4.227   6.738   5.544
 8866SOL    HW127497   4.167   6.815   5.524
 8866SOL    HW227498   4.174   6.653   5.538
 8867SOL     OW27499   6.459   2.034   3.444
 8867SOL    HW127500   6.414   1.962   3.391
 8867SOL    HW227501   6.393   2.075   3.507
 8868SOL     OW27502   4.953   3.708   1.305
 8868SOL    HW127503   5.013   3.787   1.289
 8868SOL    HW227504   5.008   3.625   1.309
 8869SOL     OW27505   4.921   3.373   3.868
 8869SOL    HW127506   4.928   3.472   3.880
 8869SOL    HW227507   4.948   3.327   3.953
 8870SOL     OW27508   4.101   1.114   1.341
 8870SOL    HW127509   4.103   1.029   1.392
 8870SOL    HW227510   4.113   1.095   1.243
 8871SOL     OW27511   1.207   2.589   4.520
 8871SOL    HW127512   1.274   2.655   4.553
 8871SOL    HW227513   1.150   2.631   4.450
 8872SOL     OW27514   2.205   2.853   3.095
 8872SOL    HW127515   2.233   2.861   3.191
 8872SOL    HW227516   2.224   2.760   3.064
 8873SOL     OW27517   0.071   6.157   4.815
 8873SOL    HW127518   0.015   6.195   4.889
 8873SOL    HW227519   0.166   6.148   4.846
 8874SOL     OW27520   1.491   1.596   0.201
 8874SOL    HW127521   1.397   1.625   0.182
 8874SOL    HW227522   1.498   1.497   0.190
 8875SOL     OW27523   1.492   1.527   3.978
 8875SOL    HW127524   1.416   1.479   3.933
 8875SOL    HW227525   1.575   1.472   3.972
 8876SOL     OW27526   2.339   0.710   4.911
 8876SOL    HW127527   2.344   0.696   4.812
 8876SOL    HW227528   2.403   0.783   4.937
 8877SOL     OW27529   2.840   6.240   4.155
 8877SOL    HW127530   2.864   6.149   4.186
 8877SOL    HW227531   2.916   6.279   4.103
 8878SOL     OW27532   5.898   4.564   5.511
 8878SOL    HW127533   5.934   4.587   5.601
 8878SOL    HW227534   5.800   4.585   5.507
 8879SOL     OW27535   4.090   5.743   4.925
 8879SOL    HW127536   4.077   5.684   4.845
 8879SOL    HW227537   4.187   5.767   4.933
 8880SOL     OW27538   6.984   6.041   5.966
 8880SOL    HW127539   0.049   6.064   6.001
 8880SOL    HW227540   6.929   6.124   5.956
 8881SOL     OW27541   6.943   0.773   1.935
 8881SOL    HW127542   7.010   0.720   1.884
 8881SOL    HW227543   6.989   0.826   2.006
 8882SOL     OW27544   6.036   1.779   6.393
 8882SOL    HW127545   6.038   1.701   6.331
 8882SOL    HW227546   5.941   1.808   6.406
 8883SOL     OW27547   7.005   0.950   5.751
 8883SOL    HW127548   6.983   1.039   5.792
 8883SOL    HW227549   6.974   0.949   5.656
 8884SOL     OW27550   6.578   0.511   5.692
 8884SOL    HW127551   6.583   0.585   5.625
 8884SOL    HW227552   6.568   0.423   5.645
 8885SOL     OW27553   5.242   3.374   1.744
 8885SOL    HW127554   5.234   3.466   1.781
 8885SOL    HW227555   5.318   3.326   1.787
 8886SOL     OW27556   2.990   6.398   6.493
 8886SOL    HW127557   3.030   6.436   6.410
 8886SOL    HW227558   3.014   6.455   6.571
 8887SOL     OW27559   1.892   0.195   1.262
 8887SOL    HW127560   1.793   0.211   1.259
 8887SOL    HW227561   1.929   0.239   1.344
 8888SOL     OW27562   3.765   1.203   3.397
 8888SOL    HW127563   3.716   1.286   3.426
 8888SOL    HW227564   3.800   1.155   3.477
 8889SOL     OW27565   3.191   6.801   4.701
 8889SOL    HW127566   3.210   6.776   4.606
 8889SOL    HW227567   3.092   6.799   4.716
 8890SOL     OW27568   1.305   4.463   3.853
 8890SOL    HW127569   1.347   4.552   3.868
 8890SOL    HW227570   1.364   4.408   3.794
 8891SOL     OW27571   2.593   1.847   7.007
 8891SOL    HW127572   2.564   1.847   0.078
 8891SOL    HW227573   2.613   1.940   6.979
 8892SOL     OW27574   1.343   6.856   2.414
 8892SOL    HW127575   1.400   6.843   2.333
 8892SOL    HW227576   1.400   6.857   2.496
 8893SOL     OW27577   0.688   1.346   1.437
 8893SOL    HW127578   0.676   1.366   1.534
 8893SOL    HW227579   0.621   1.277   1.409
 8894SOL     OW27580   4.128   3.402   6.505
 8894SOL    HW127581   4.160   3.496   6.515
 8894SOL    HW227582   4.030   3.402   6.485
 8895SOL     OW27583   0.884   0.591   2.609
 8895SOL    HW127584   0.942   0.536   2.550
 8895SOL    HW227585   0.886   0.554   2.702
 8896SOL     OW27586   1.997   4.431   5.024
 8896SOL    HW127587   2.063   4.369   4.981
 8896SOL    HW227588   1.960   4.389   5.106
 8897SOL     OW27589   1.168   1.879   1.503
 8897SOL    HW127590   1.241   1.838   1.558
 8897SOL    HW227591   1.170   1.978   1.513
 8898SOL     OW27592   6.762   2.853   4.541
 8898SOL    HW127593   6.713   2.766   4.537
 8898SOL    HW227594   6.808   2.862   4.629
 8899SOL     OW27595   2.695   4.277   0.156
 8899SOL    HW127596   2.753   4.227   0.221
 8899SOL    HW227597   2.750   4.308   0.079
 8900SOL     OW27598   6.104   1.584   3.270
 8900SOL    HW127599   6.067   1.533   3.347
 8900SOL    HW227600   6.194   1.619   3.293
 8901SOL     OW27601   1.906   6.766   1.791
 8901SOL    HW127602   1.854   6.686   1.822
 8901SOL    HW227603   1.995   6.736   1.755
 8902SOL     OW27604   2.569   5.038   5.540
 8902SOL    HW127605   2.537   4.952   5.500
 8902SOL    HW227606   2.560   5.033   5.639
 8903SOL     OW27607   0.747   1.767   3.991
 8903SOL    HW127608   0.784   1.783   4.083
 8903SOL    HW227609   0.704   1.677   3.989
 8904SOL     OW27610   1.126   5.096   3.447
 8904SOL    HW127611   1.035   5.135   3.459
 8904SOL    HW227612   1.190   5.142   3.509
 8905SOL     OW27613   2.437   4.242   5.285
 8905SOL    HW127614   2.492   4.258   5.367
 8905SOL    HW227615   2.458   4.151   5.248
 8906SOL     OW27616   1.225   4.838   4.498
 8906SOL    HW127617   1.128   4.832   4.477
 8906SOL    HW227618   1.270   4.752   4.475
 8907SOL     OW27619   3.883   2.893   5.821
 8907SOL    HW127620   3.938   2.963   5.775
 8907SOL    HW227621   3.793   2.930   5.843
 8908SOL     OW27622   0.175   3.226   1.618
 8908SOL    HW127623   0.203   3.319   1.596
 8908SOL    HW227624   0.162   3.217   1.716
 8909SOL     OW27625   2.713   6.340   5.802
 8909SOL    HW127626   2.761   6.285   5.871
 8909SOL    HW227627   2.620   6.359   5.834
 8910SOL     OW27628   3.649   3.381   6.589
 8910SOL    HW127629   3.709   3.407   6.664
 8910SOL    HW227630   3.674   3.289   6.556
 8911SOL     OW27631   4.195   2.327   3.967
 8911SOL    HW127632   4.192   2.413   3.915
 8911SOL    HW227633   4.290   2.302   3.985
 8912SOL     OW27634   5.301   2.285   6.542
 8912SOL    HW127635   5.297   2.264   6.640
 8912SOL    HW227636   5.273   2.379   6.526
 8913SOL     OW27637   4.835   3.852   0.854
 8913SOL    HW127638   4.736   3.857   0.870
 8913SOL    HW227639   4.875   3.788   0.919
 8914SOL     OW27640   4.988   2.148   3.632
 8914SOL    HW127641   4.975   2.064   3.685
 8914SOL    HW227642   4.905   2.166   3.579
 8915SOL     OW27643   1.288   4.926   1.860
 8915SOL    HW127644   1.339   4.932   1.774
 8915SOL    HW227645   1.343   4.964   1.934
 8916SOL     OW27646   6.798   4.038   1.698
 8916SOL    HW127647   6.770   4.134   1.701
 8916SOL    HW227648   6.748   3.987   1.768
 8917SOL     OW27649   6.089   5.783   6.075
 8917SOL    HW127650   6.112   5.704   6.018
 8917SOL    HW227651   6.009   5.829   6.038
 8918SOL     OW27652   4.760   4.500   6.174
 8918SOL    HW127653   4.726   4.530   6.085
 8918SOL    HW227654   4.842   4.444   6.161
 8919SOL     OW27655   2.224   3.815   1.384
 8919SOL    HW127656   2.160   3.855   1.319
 8919SOL    HW227657   2.281   3.887   1.424
 8920SOL     OW27658   6.326   5.358   5.694
 8920SOL    HW127659   6.286   5.274   5.657
 8920SOL    HW227660   6.304   5.434   5.633
 8921SOL     OW27661   1.580   5.793   3.636
 8921SOL    HW127662   1.508   5.725   3.644
 8921SOL    HW227663   1.543   5.876   3.595
 8922SOL     OW27664   6.562   4.261   0.159
 8922SOL    HW127665   6.612   4.208   0.228
 8922SOL    HW227666   6.482   4.210   0.129
 8923SOL     OW27667   1.765   4.590   5.042
 8923SOL    HW127668   1.849   4.559   4.998
 8923SOL    HW227669   1.724   4.514   5.093
 8924SOL     OW27670   2.744   5.887   5.049
 8924SOL    HW127671   2.833   5.878   5.003
 8924SOL    HW227672   2.706   5.977   5.031
 8925SOL     OW27673   5.659   6.351   1.596
 8925SOL    HW127674   5.626   6.408   1.521
 8925SOL    HW227675   5.737   6.396   1.641
 8926SOL     OW27676   5.743   1.692   0.291
 8926SOL    HW127677   5.715   1.723   0.200
 8926SOL    HW227678   5.692   1.609   0.315
 8927SOL     OW27679   2.883   1.938   4.472
 8927SOL    HW127680   2.789   1.922   4.501
 8927SOL    HW227681   2.923   1.852   4.439
 8928SOL     OW27682   0.934   6.688   5.118
 8928SOL    HW127683   0.978   6.668   5.205
 8928SOL    HW227684   0.998   6.736   5.058
 8929SOL     OW27685   5.141   4.184   4.417
 8929SOL    HW127686   5.235   4.214   4.399
 8929SOL    HW227687   5.095   4.252   4.474
 8930SOL     OW27688   1.342   4.877   4.732
 8930SOL    HW127689   1.279   4.864   4.655
 8930SOL    HW227690   1.412   4.806   4.730
 8931SOL     OW27691   5.679   1.088   1.871
 8931SOL    HW127692   5.608   1.158   1.856
 8931SOL    HW227693   5.643   1.018   1.932
 8932SOL     OW27694   6.682   1.079   6.964
 8932SOL    HW127695   6.671   1.177   6.982
 8932SOL    HW227696   6.699   1.031   0.025
 8933SOL     OW27697   1.939   0.381   5.438
 8933SOL    HW127698   1.866   0.425   5.386
 8933SOL    HW227699   1.935   0.282   5.425
 8934SOL     OW27700   5.065   6.675   3.252
 8934SOL    HW127701   5.143   6.631   3.207
 8934SOL    HW227702   5.006   6.605   3.291
 8935SOL     OW27703   5.928   2.724   3.226
 8935SOL    HW127704   5.974   2.812   3.213
 8935SOL    HW227705   5.880   2.724   3.314
 8936SOL     OW27706   1.738   4.005   2.803
 8936SOL    HW127707   1.648   3.975   2.836
 8936SOL    HW227708   1.729   4.096   2.761
 8937SOL     OW27709   4.164   0.041   5.450
 8937SOL    HW127710   4.241   0.091   5.412
 8937SOL    HW227711   4.126   7.004   5.381
 8938SOL     OW27712   5.733   0.128   2.076
 8938SOL    HW127713   5.663   0.096   2.012
 8938SOL    HW227714   5.731   0.071   2.159
 8939SOL     OW27715   0.510   2.761   3.956
 8939SOL    HW127716   0.459   2.717   3.882
 8939SOL    HW227717   0.601   2.722   3.962
 8940SOL     OW27718   6.690   2.914   1.107
 8940SOL    HW127719   6.643   2.826   1.094
 8940SOL    HW227720   6.781   2.909   1.066
 8941SOL     OW27721   4.823   2.532   2.224
 8941SOL    HW127722   4.794   2.625   2.201
 8941SOL    HW227723   4.831   2.523   2.323
 8942SOL     OW27724   5.182   4.534   4.689
 8942SOL    HW127725   5.220   4.479   4.763
 8942SOL    HW227726   5.249   4.542   4.615
 8943SOL     OW27727   4.375   2.900   0.994
 8943SOL    HW127728   4.315   2.835   0.948
 8943SOL    HW227729   4.327   2.988   1.003
 8944SOL     OW27730   4.684   5.696   5.021
 8944SOL    HW127731   4.690   5.666   4.926
 8944SOL    HW227732   4.629   5.631   5.073
 8945SOL     OW27733   5.747   4.513   2.688
 8945SOL    HW127734   5.673   4.447   2.675
 8945SOL    HW227735   5.745   4.546   2.782
 8946SOL     OW27736   4.759   1.505   5.405
 8946SOL    HW127737   4.814   1.437   5.453
 8946SOL    HW227738   4.779   1.596   5.440
 8947SOL     OW27739   1.921   5.060   6.427
 8947SOL    HW127740   1.993   5.003   6.466
 8947SOL    HW227741   1.881   5.013   6.348
 8948SOL     OW27742   5.089   0.878   2.638
 8948SOL    HW127743   5.088   0.977   2.630
 8948SOL    HW227744   5.183   0.845   2.638
 8949SOL     OW27745   3.840   6.101   0.907
 8949SOL    HW127746   3.923   6.081   0.960
 8949SOL    HW227747   3.813   6.020   0.855
 8950SOL     OW27748   3.409   3.674   1.784
 8950SOL    HW127749   3.315   3.657   1.755
 8950SOL    HW227750   3.465   3.594   1.764
 8951SOL     OW27751   1.332   7.001   4.715
 8951SOL    HW127752   1.336   0.063   4.764
 8951SOL    HW227753   1.379   6.931   4.769
 8952SOL     OW27754   1.018   4.538   4.088
 8952SOL    HW127755   1.108   4.536   4.045
 8952SOL    HW227756   0.991   4.446   4.115
 8953SOL     OW27757   1.573   4.884   1.175
 8953SOL    HW127758   1.488   4.859   1.129
 8953SOL    HW227759   1.567   4.978   1.209
 8954SOL     OW27760   2.319   4.506   5.489
 8954SOL    HW127761   2.328   4.494   5.390
 8954SOL    HW227762   2.275   4.593   5.509
 8955SOL     OW27763   5.146   2.862   5.204
 8955SOL    HW127764   5.077   2.817   5.148
 8955SOL    HW227765   5.167   2.805   5.284
 8956SOL     OW27766   0.489   6.415   0.399
 8956SOL    HW127767   0.529   6.505   0.379
 8956SOL    HW227768   0.465   6.411   0.496
 8957SOL     OW27769   0.910   6.340   2.661
 8957SOL    HW127770   0.984   6.372   2.722
 8957SOL    HW227771   0.847   6.283   2.713
 8958SOL     OW27772   1.244   3.624   5.284
 8958SOL    HW127773   1.238   3.643   5.382
 8958SOL    HW227774   1.191   3.542   5.263
 8959SOL     OW27775   5.835   2.501   3.735
 8959SOL    HW127776   5.894   2.581   3.744
 8959SOL    HW227777   5.887   2.424   3.698
 8960SOL     OW27778   4.576   4.941   3.042
 8960SOL    HW127779   4.503   4.974   3.103
 8960SOL    HW227780   4.535   4.901   2.960
 8961SOL     OW27781   2.611   1.916   4.976
 8961SOL    HW127782   2.675   1.865   5.033
 8961SOL    HW227783   2.655   1.999   4.941
 8962SOL     OW27784   6.699   5.758   2.365
 8962SOL    HW127785   6.688   5.710   2.452
 8962SOL    HW227786   6.681   5.696   2.289
 8963SOL     OW27787   3.704   6.229   6.136
 8963SOL    HW127788   3.746   6.141   6.157
 8963SOL    HW227789   3.660   6.266   6.218
 8964SOL     OW27790   2.189   3.099   4.292
 8964SOL    HW127791   2.237   3.014   4.316
 8964SOL    HW227792   2.181   3.106   4.192
 8965SOL     OW27793   3.670   5.701   0.343
 8965SOL    HW127794   3.693   5.773   0.278
 8965SOL    HW227795   3.745   5.636   0.349
 8966SOL     OW27796   5.379   6.477   4.817
 8966SOL    HW127797   5.297   6.533   4.832
 8966SOL    HW227798   5.415   6.497   4.726
 8967SOL     OW27799   3.351   0.016   3.276
 8967SOL    HW127800   3.274   0.049   3.222
 8967SOL    HW227801   3.349   6.941   3.282
 8968SOL     OW27802   3.405   4.952   2.322
 8968SOL    HW127803   3.393   5.051   2.316
 8968SOL    HW227804   3.366   4.909   2.241
 8969SOL     OW27805   0.604   0.302   2.665
 8969SOL    HW127806   0.570   0.357   2.741
 8969SOL    HW227807   0.700   0.278   2.681
 8970SOL     OW27808   1.619   0.910   3.867
 8970SOL    HW127809   1.621   0.927   3.768
 8970SOL    HW227810   1.686   0.839   3.890
 8971SOL     OW27811   2.822   4.398   0.694
 8971SOL    HW127812   2.833   4.372   0.598
 8971SOL    HW227813   2.793   4.318   0.747
 8972SOL     OW27814   5.517   3.859   6.624
 8972SOL    HW127815   5.614   3.877   6.633
 8972SOL    HW227816   5.466   3.919   6.686
 8973SOL     OW27817   2.015   2.231   3.389
 8973SOL    HW127818   1.952   2.308   3.389
 8973SOL    HW227819   2.055   2.221   3.298
 8974SOL     OW27820   2.244   4.515   4.296
 8974SOL    HW127821   2.259   4.596   4.352
 8974SOL    HW227822   2.223   4.437   4.355
 8975SOL     OW27823   6.960   4.787   5.646
 8975SOL    HW127824   6.928   4.882   5.645
 8975SOL    HW227825   6.976   4.756   5.553
 8976SOL     OW27826   5.837   0.431   2.414
 8976SOL    HW127827   5.768   0.492   2.454
 8976SOL    HW227828   5.839   0.345   2.465
 8977SOL     OW27829   6.061   4.092   6.672
 8977SOL    HW127830   6.040   4.183   6.707
 8977SOL    HW227831   5.996   4.068   6.600
 8978SOL     OW27832   6.090   5.783   6.869
 8978SOL    HW127833   6.066   5.772   6.966
 8978SOL    HW227834   6.101   5.880   6.848
 8979SOL     OW27835   1.499   4.902   4.179
 8979SOL    HW127836   1.486   4.953   4.264
 8979SOL    HW227837   1.590   4.862   4.177
 8980SOL     OW27838   3.203   0.565   0.250
 8980SOL    HW127839   3.214   0.662   0.273
 8980SOL    HW227840   3.289   0.517   0.265
 8981SOL     OW27841   4.376   3.315   6.151
 8981SOL    HW127842   4.368   3.385   6.080
 8981SOL    HW227843   4.431   3.350   6.226
 8982SOL     OW27844   0.526   2.051   1.667
 8982SOL    HW127845   0.463   1.991   1.618
 8982SOL    HW227846   0.577   1.999   1.736
 8983SOL     OW27847   1.482   6.643   1.895
 8983SOL    HW127848   1.439   6.598   1.817
 8983SOL    HW227849   1.478   6.742   1.884
 8984SOL     OW27850   6.967   1.038   4.614
 8984SOL    HW127851   0.020   1.030   4.676
 8984SOL    HW227852   6.988   0.992   4.528
 8985SOL     OW27853   4.818   1.456   2.716
 8985SOL    HW127854   4.731   1.478   2.671
 8985SOL    HW227855   4.852   1.368   2.682
 8986SOL     OW27856   6.420   4.724   0.261
 8986SOL    HW127857   6.404   4.752   0.167
 8986SOL    HW227858   6.401   4.802   0.322
 8987SOL     OW27859   1.959   6.435   1.295
 8987SOL    HW127860   2.057   6.414   1.292
 8987SOL    HW227861   1.933   6.485   1.213
 8988SOL     OW27862   2.934   0.328   1.361
 8988SOL    HW127863   2.853   0.367   1.317
 8988SOL    HW227864   2.980   0.398   1.415
 8989SOL     OW27865   5.435   1.560   2.420
 8989SOL    HW127866   5.479   1.545   2.509
 8989SOL    HW227867   5.498   1.609   2.360
 8990SOL     OW27868   2.973   0.732   2.690
 8990SOL    HW127869   2.966   0.827   2.659
 8990SOL    HW227870   2.896   0.680   2.653
 8991SOL     OW27871   1.276   1.980   0.774
 8991SOL    HW127872   1.246   1.963   0.868
 8991SOL    HW227873   1.202   2.025   0.723
 8992SOL     OW27874   6.486   4.223   6.518
 8992SOL    HW127875   6.433   4.141   6.500
 8992SOL    HW227876   6.529   4.216   6.608
 8993SOL     OW27877   5.207   3.867   4.955
 8993SOL    HW127878   5.223   3.953   4.908
 8993SOL    HW227879   5.125   3.824   4.919
 8994SOL     OW27880   1.235   5.910   2.579
 8994SOL    HW127881   1.312   5.915   2.516
 8994SOL    HW227882   1.225   5.817   2.613
 8995SOL     OW27883   1.862   3.791   5.093
 8995SOL    HW127884   1.961   3.783   5.078
 8995SOL    HW227885   1.817   3.708   5.059
 8996SOL     OW27886   1.525   3.826   1.549
 8996SOL    HW127887   1.468   3.795   1.625
 8996SOL    HW227888   1.492   3.785   1.464
 8997SOL     OW27889   4.510   1.430   5.606
 8997SOL    HW127890   4.501   1.476   5.518
 8997SOL    HW227891   4.487   1.494   5.679
 8998SOL     OW27892   1.427   1.416   6.506
 8998SOL    HW127893   1.438   1.505   6.550
 8998SOL    HW227894   1.513   1.365   6.514
 8999SOL     OW27895   5.139   1.827   5.094
 8999SOL    HW127896   5.236   1.852   5.086
 8999SOL    HW227897   5.129   1.757   5.164
 9000SOL     OW27898   2.700   4.699   0.437
 9000SOL    HW127899   2.677   4.760   0.361
 9000SOL    HW227900   2.773   4.636   0.409
 9001SOL     OW27901   1.968   4.733   3.516
 9001SOL    HW127902   1.997   4.639   3.533
 9001SOL    HW227903   2.037   4.796   3.551
 9002SOL     OW27904   5.449   3.923   5.123
 9002SOL    HW127905   5.365   3.907   5.071
 9002SOL    HW227906   5.512   3.846   5.108
 9003SOL     OW27907   6.594   2.921   6.847
 9003SOL    HW127908   6.504   2.953   6.815
 9003SOL    HW227909   6.588   2.825   6.872
 9004SOL     OW27910   4.421   5.438   0.854
 9004SOL    HW127911   4.519   5.440   0.837
 9004SOL    HW227912   4.399   5.358   0.911
 9005SOL     OW27913   4.675   2.365   2.931
 9005SOL    HW127914   4.639   2.426   3.002
 9005SOL    HW227915   4.625   2.380   2.846
 9006SOL     OW27916   2.615   6.596   0.832
 9006SOL    HW127917   2.706   6.634   0.818
 9006SOL    HW227918   2.612   6.502   0.800
 9007SOL     OW27919   2.571   6.654   4.382
 9007SOL    HW127920   2.490   6.657   4.323
 9007SOL    HW227921   2.547   6.687   4.473
 9008SOL     OW27922   6.908   4.330   2.659
 9008SOL    HW127923   6.921   4.250   2.601
 9008SOL    HW227924   6.959   4.319   2.744
 9009SOL     OW27925   4.089   6.500   0.842
 9009SOL    HW127926   3.995   6.470   0.860
 9009SOL    HW227927   4.143   6.423   0.807
 9010SOL     OW27928   0.428   5.466   4.985
 9010SOL    HW127929   0.511   5.434   4.939
 9010SOL    HW227930   0.371   5.515   4.919
 9011SOL     OW27931   4.704   2.056   1.979
 9011SOL    HW127932   4.714   2.137   2.036
 9011SOL    HW227933   4.624   2.066   1.919
 9012SOL     OW27934   5.669   5.447   2.030
 9012SOL    HW127935   5.635   5.534   1.994
 9012SOL    HW227936   5.649   5.442   2.128
 9013SOL     OW27937   4.378   6.175   2.305
 9013SOL    HW127938   4.320   6.257   2.314
 9013SOL    HW227939   4.367   6.137   2.213
 9014SOL     OW27940   2.095   0.842   1.097
 9014SOL    HW127941   2.094   0.795   1.009
 9014SOL    HW227942   2.184   0.827   1.141
 9015SOL     OW27943   6.186   1.160   5.005
 9015SOL    HW127944   6.191   1.073   5.054
 9015SOL    HW227945   6.253   1.160   4.931
 9016SOL     OW27946   0.034   5.764   6.611
 9016SOL    HW127947   6.989   5.712   6.562
 9016SOL    HW227948   0.116   5.771   6.554
 9017SOL     OW27949   6.801   3.966   3.329
 9017SOL    HW127950   6.892   3.964   3.371
 9017SOL    HW227951   6.753   4.049   3.357
 9018SOL     OW27952   3.981   1.636   6.187
 9018SOL    HW127953   4.071   1.671   6.214
 9018SOL    HW227954   3.913   1.664   6.254
 9019SOL     OW27955   1.547   5.357   0.145
 9019SOL    HW127956   1.618   5.416   0.106
 9019SOL    HW227957   1.588   5.270   0.174
 9020SOL     OW27958   0.473   4.892   3.272
 9020SOL    HW127959   0.522   4.814   3.313
 9020SOL    HW227960   0.467   4.966   3.339
 9021SOL     OW27961   6.473   6.125   5.494
 9021SOL    HW127962   6.414   6.051   5.526
 9021SOL    HW227963   6.539   6.148   5.567
 9022SOL     OW27964   3.840   0.819   6.440
 9022SOL    HW127965   3.767   0.764   6.399
 9022SOL    HW227966   3.808   0.913   6.452
 9023SOL     OW27967   3.035   3.168   3.106
 9023SOL    HW127968   2.989   3.257   3.108
 9023SOL    HW227969   3.061   3.142   3.199
 9024SOL     OW27970   1.317   0.083   6.961
 9024SOL    HW127971   1.227   0.103   7.000
 9024SOL    HW227972   1.329   7.009   6.955
 9025SOL     OW27973   0.324   3.956   0.524
 9025SOL    HW127974   0.365   3.869   0.497
 9025SOL    HW227975   0.270   3.944   0.607
 9026SOL     OW27976   2.979   3.109   5.728
 9026SOL    HW127977   2.904   3.062   5.776
 9026SOL    HW227978   2.941   3.182   5.671
 9027SOL     OW27979   2.481   2.576   3.154
 9027SOL    HW127980   2.384   2.558   3.139
 9027SOL    HW227981   2.491   2.647   3.224
 9028SOL     OW27982   2.849   5.068   4.773
 9028SOL    HW127983   2.809   5.152   4.809
 9028SOL    HW227984   2.852   4.998   4.844
 9029SOL     OW27985   5.469   5.433   2.632
 9029SOL    HW127986   5.567   5.448   2.621
 9029SOL    HW227987   5.427   5.422   2.542
 9030SOL     OW27988   3.406   2.040   1.890
 9030SOL    HW127989   3.327   1.989   1.855
 9030SOL    HW227990   3.431   2.112   1.825
 9031SOL     OW27991   1.721   1.647   1.253
 9031SOL    HW127992   1.673   1.714   1.196
 9031SOL    HW227993   1.810   1.625   1.213
 9032SOL     OW27994   1.024   2.541   2.990
 9032SOL    HW127995   1.055   2.505   2.902
 9032SOL    HW227996   0.958   2.614   2.974
 9033SOL     OW27997   1.141   4.031   2.194
 9033SOL    HW127998   1.063   4.092   2.197
 9033SOL    HW227999   1.222   4.083   2.165
 9034SOL     OW28000   1.248   0.178   6.163
 9034SOL    HW128001   1.298   0.233   6.230
 9034SOL    HW228002   1.243   0.228   6.077
 9035SOL     OW28003   0.068   0.217   4.487
 9035SOL    HW128004   7.011   0.275   4.483
 9035SOL    HW228005   0.056   0.149   4.560
 9036SOL     OW28006   1.672   1.601   4.873
 9036SOL    HW128007   1.605   1.674   4.879
 9036SOL    HW228008   1.667   1.544   4.954
 9037SOL     OW28009   2.879   3.923   5.878
 9037SOL    HW128010   2.858   3.970   5.792
 9037SOL    HW228011   2.961   3.963   5.919
 9038SOL     OW28012   4.899   6.399   5.546
 9038SOL    HW128013   4.886   6.299   5.542
 9038SOL    HW228014   4.996   6.421   5.535
 9039SOL     OW28015   2.041   4.837   6.514
 9039SOL    HW128016   1.974   4.763   6.508
 9039SOL    HW228017   2.090   4.830   6.601
 9040SOL     OW28018   2.450   1.882   2.252
 9040SOL    HW128019   2.434   1.808   2.318
 9040SOL    HW228020   2.491   1.960   2.300
 9041SOL     OW28021   1.922   2.802   6.656
 9041SOL    HW128022   1.999   2.821   6.595
 9041SOL    HW228023   1.913   2.877   6.721
 9042SOL     OW28024   2.338   5.403   3.076
 9042SOL    HW128025   2.412   5.338   3.062
 9042SOL    HW228026   2.253   5.354   3.095
 9043SOL     OW28027   6.540   2.583   0.724
 9043SOL    HW128028   6.489   2.667   0.704
 9043SOL    HW228029   6.497   2.536   0.801
 9044SOL     OW28030   6.837   4.686   0.950
 9044SOL    HW128031   6.766   4.756   0.949
 9044SOL    HW228032   6.824   4.626   1.029
 9045SOL     OW28033   2.739   5.435   4.287
 9045SOL    HW128034   2.782   5.524   4.301
 9045SOL    HW228035   2.656   5.448   4.232
 9046SOL     OW28036   3.803   4.350   5.806
 9046SOL    HW128037   3.823   4.321   5.713
 9046SOL    HW228038   3.743   4.430   5.803
 9047SOL     OW28039   1.376   4.819   5.011
 9047SOL    HW128040   1.380   4.837   4.913
 9047SOL    HW228041   1.328   4.733   5.027
 9048SOL     OW28042   1.913   2.082   5.054
 9048SOL    HW128043   1.964   2.085   4.968
 9048SOL    HW228044   1.968   2.123   5.127
 9049SOL     OW28045   5.134   5.743   6.386
 9049SOL    HW128046   5.179   5.828   6.412
 9049SOL    HW228047   5.128   5.738   6.286
 9050SOL     OW28048   0.193   5.700   5.195
 9050SOL    HW128049   0.240   5.613   5.178
 9050SOL    HW228050   0.113   5.684   5.251
 9051SOL     OW28051   5.527   6.609   6.216
 9051SOL    HW128052   5.451   6.626   6.153
 9051SOL    HW228053   5.601   6.672   6.197
 9052SOL     OW28054   2.188   5.139   5.077
 9052SOL    HW128055   2.189   5.225   5.127
 9052SOL    HW228056   2.211   5.155   4.981
 9053SOL     OW28057   3.067   1.658   3.710
 9053SOL    HW128058   2.993   1.685   3.772
 9053SOL    HW228059   3.037   1.580   3.655
 9054SOL     OW28060   3.260   0.160   1.077
 9054SOL    HW128061   3.289   0.190   0.986
 9054SOL    HW228062   3.231   0.240   1.130
 9055SOL     OW28063   0.818   1.629   4.822
 9055SOL    HW128064   0.722   1.607   4.837
 9055SOL    HW228065   0.867   1.546   4.794
 9056SOL     OW28066   4.890   2.288   2.635
 9056SOL    HW128067   4.880   2.294   2.734
 9056SOL    HW228068   4.908   2.194   2.608
 9057SOL     OW28069   4.736   6.094   0.110
 9057SOL    HW128070   4.792   6.052   0.039
 9057SOL    HW228071   4.795   6.138   0.178
 9058SOL     OW28072   2.340   2.337   4.054
 9058SOL    HW128073   2.305   2.266   4.115
 9058SOL    HW228074   2.263   2.379   4.005
 9059SOL     OW28075   6.582   0.723   2.642
 9059SOL    HW128076   6.624   0.814   2.649
 9059SOL    HW228077   6.609   0.680   2.556
 9060SOL     OW28078   1.070   5.471   1.785
 9060SOL    HW128079   1.152   5.489   1.732
 9060SOL    HW228080   1.075   5.378   1.823
 9061SOL     OW28081   5.079   4.412   2.551
 9061SOL    HW128082   5.045   4.320   2.569
 9061SOL    HW228083   5.007   4.467   2.508
 9062SOL     OW28084   0.596   5.856   2.726
 9062SOL    HW128085   0.573   5.891   2.635
 9062SOL    HW228086   0.614   5.933   2.788
 9063SOL     OW28087   4.524   1.866   1.632
 9063SOL    HW128088   4.477   1.929   1.694
 9063SOL    HW228089   4.619   1.854   1.663
 9064SOL     OW28090   0.568   5.268   3.236
 9064SOL    HW128091   0.662   5.262   3.203
 9064SOL    HW228092   0.551   5.196   3.303
 9065SOL     OW28093   3.081   4.080   6.049
 9065SOL    HW128094   3.099   4.174   6.022
 9065SOL    HW228095   3.025   4.080   6.132
 9066SOL     OW28096   4.630   5.145   4.555
 9066SOL    HW128097   4.581   5.188   4.479
 9066SOL    HW228098   4.623   5.045   4.547
 9067SOL     OW28099   1.263   6.209   4.750
 9067SOL    HW128100   1.208   6.163   4.680
 9067SOL    HW228101   1.230   6.303   4.763
 9068SOL     OW28102   4.148   6.901   5.786
 9068SOL    HW128103   4.229   6.958   5.775
 9068SOL    HW228104   4.173   6.805   5.783
 9069SOL     OW28105   5.040   2.778   1.002
 9069SOL    HW128106   5.034   2.765   0.903
 9069SOL    HW228107   5.017   2.872   1.025
 9070SOL     OW28108   2.532   1.317   5.560
 9070SOL    HW128109   2.567   1.283   5.473
 9070SOL    HW228110   2.525   1.242   5.626
 9071SOL     OW28111   6.052   2.320   6.241
 9071SOL    HW128112   5.996   2.244   6.274
 9071SOL    HW228113   6.003   2.406   6.254
 9072SOL     OW28114   5.320   0.305   2.933
 9072SOL    HW128115   5.343   0.219   2.977
 9072SOL    HW228116   5.237   0.342   2.973
 9073SOL     OW28117   4.910   2.481   4.983
 9073SOL    HW128118   4.838   2.448   4.921
 9073SOL    HW228119   4.907   2.430   5.068
 9074SOL     OW28120   2.069   1.067   2.609
 9074SOL    HW128121   1.980   1.037   2.642
 9074SOL    HW228122   2.058   1.124   2.528
 9075SOL     OW28123   6.090   5.741   0.456
 9075SOL    HW128124   6.184   5.755   0.426
 9075SOL    HW228125   6.048   5.829   0.480
 9076SOL     OW28126   6.910   6.797   1.976
 9076SOL    HW128127   6.979   6.735   1.940
 9076SOL    HW228128   6.898   6.874   1.912
 9077SOL     OW28129   6.551   1.715   7.003
 9077SOL    HW128130   6.585   1.800   6.963
 9077SOL    HW228131   6.540   1.646   6.931
 9078SOL     OW28132   4.895   6.584   0.037
 9078SOL    HW128133   4.828   6.601   0.109
 9078SOL    HW228134   4.979   6.547   0.076
 9079SOL     OW28135   1.612   1.240   6.637
 9079SOL    HW128136   1.590   1.297   6.716
 9079SOL    HW228137   1.585   1.145   6.656
 9080SOL     OW28138   6.183   3.899   2.235
 9080SOL    HW128139   6.215   3.960   2.162
 9080SOL    HW228140   6.085   3.915   2.251
 9081SOL     OW28141   5.445   1.200   0.583
 9081SOL    HW128142   5.517   1.148   0.537
 9081SOL    HW228143   5.472   1.296   0.588
 9082SOL     OW28144   3.246   5.870   6.422
 9082SOL    HW128145   3.178   5.942   6.434
 9082SOL    HW228146   3.259   5.852   6.324
 9083SOL     OW28147   4.046   6.078   0.221
 9083SOL    HW128148   4.083   6.103   0.131
 9083SOL    HW228149   4.060   6.153   0.285
 9084SOL     OW28150   0.074   3.190   5.340
 9084SOL    HW128151   0.004   3.237   5.394
 9084SOL    HW228152   0.134   3.138   5.400
 9085SOL     OW28153   2.546   4.955   0.296
 9085SOL    HW128154   2.461   4.971   0.247
 9085SOL    HW228155   2.612   5.027   0.272
 9086SOL     OW28156   7.024   4.177   1.100
 9086SOL    HW128157   7.011   4.257   1.041
 9086SOL    HW228158   0.097   4.163   1.114
 9087SOL     OW28159   5.697   0.666   1.366
 9087SOL    HW128160   5.658   0.691   1.277
 9087SOL    HW228161   5.676   0.570   1.385
 9088SOL     OW28162   6.381   6.232   0.588
 9088SOL    HW128163   6.426   6.280   0.663
 9088SOL    HW228164   6.450   6.191   0.529
 9089SOL     OW28165   5.714   5.430   3.273
 9089SOL    HW128166   5.708   5.379   3.187
 9089SOL    HW228167   5.697   5.368   3.349
 9090SOL     OW28168   5.052   6.151   5.709
 9090SOL    HW128169   5.053   6.085   5.784
 9090SOL    HW228170   4.982   6.126   5.642
 9091SOL     OW28171   2.163   1.735   1.828
 9091SOL    HW128172   2.138   1.738   1.925
 9091SOL    HW228173   2.239   1.798   1.811
 9092SOL     OW28174   2.601   0.883   5.364
 9092SOL    HW128175   2.655   0.924   5.291
 9092SOL    HW228176   2.504   0.888   5.340
 9093SOL     OW28177   1.979   3.966   0.788
 9093SOL    HW128178   1.901   4.012   0.745
 9093SOL    HW228179   2.015   3.896   0.726
 9094SOL     OW28180   6.626   4.352   1.418
 9094SOL    HW128181   6.688   4.341   1.495
 9094SOL    HW228182   6.551   4.413   1.444
 9095SOL     OW28183   3.383   2.767   6.957
 9095SOL    HW128184   3.341   2.759   0.022
 9095SOL    HW228185   3.424   2.858   6.948
 9096SOL     OW28186   5.886   3.183   3.295
 9096SOL    HW128187   5.982   3.178   3.322
 9096SOL    HW228188   5.831   3.211   3.374
 9097SOL     OW28189   0.760   4.768   5.877
 9097SOL    HW128190   0.748   4.731   5.969
 9097SOL    HW228191   0.714   4.856   5.870
 9098SOL     OW28192   3.945   3.436   3.298
 9098SOL    HW128193   4.002   3.507   3.257
 9098SOL    HW228194   3.849   3.462   3.291
 9099SOL     OW28195   1.709   2.814   0.640
 9099SOL    HW128196   1.808   2.803   0.632
 9099SOL    HW228197   1.684   2.826   0.736
 9100SOL     OW28198   0.838   3.392   0.886
 9100SOL    HW128199   0.892   3.374   0.967
 9100SOL    HW228200   0.810   3.305   0.844
 9101SOL     OW28201   2.125   2.069   0.175
 9101SOL    HW128202   2.198   2.001   0.175
 9101SOL    HW228203   2.140   2.135   0.249
 9102SOL     OW28204   4.183   5.781   2.627
 9102SOL    HW128205   4.133   5.865   2.609
 9102SOL    HW228206   4.168   5.752   2.722
 9103SOL     OW28207   0.103   3.883   6.279
 9103SOL    HW128208   0.024   3.839   6.236
 9103SOL    HW228209   0.123   3.838   6.366
 9104SOL     OW28210   3.997   6.600   1.797
 9104SOL    HW128211   4.031   6.672   1.737
 9104SOL    HW228212   3.909   6.567   1.762
 9105SOL     OW28213   2.725   1.509   5.619
 9105SOL    HW128214   2.661   1.440   5.585
 9105SOL    HW228215   2.677   1.571   5.681
 9106SOL     OW28216   6.766   5.152   1.247
 9106SOL    HW128217   6.840   5.167   1.182
 9106SOL    HW228218   6.802   5.160   1.340
 9107SOL     OW28219   4.282   0.859   1.327
 9107SOL    HW128220   4.260   0.868   1.424
 9107SOL    HW228221   4.373   0.896   1.310
 9108SOL     OW28222   4.679   5.576   6.423
 9108SOL    HW128223   4.626   5.537   6.347
 9108SOL    HW228224   4.761   5.619   6.387
 9109SOL     OW28225   2.898   2.261   4.057
 9109SOL    HW128226   2.895   2.191   3.985
 9109SOL    HW228227   2.919   2.350   4.016
 9110SOL     OW28228   1.762   3.667   3.173
 9110SOL    HW128229   1.760   3.654   3.074
 9110SOL    HW228230   1.712   3.751   3.196
 9111SOL     OW28231   4.102   4.399   1.679
 9111SOL    HW128232   4.200   4.383   1.669
 9111SOL    HW228233   4.054   4.311   1.680
 9112SOL     OW28234   6.901   5.155   2.463
 9112SOL    HW128235   6.978   5.128   2.521
 9112SOL    HW228236   6.912   5.116   2.372
 9113SOL     OW28237   3.739   6.722   0.178
 9113SOL    HW128238   3.749   6.745   0.082
 9113SOL    HW228239   3.681   6.789   0.224
 9114SOL     OW28240   2.581   4.429   1.747
 9114SOL    HW128241   2.650   4.487   1.791
 9114SOL    HW228242   2.566   4.347   1.802
 9115SOL     OW28243   1.613   4.476   4.488
 9115SOL    HW128244   1.614   4.519   4.578
 9115SOL    HW228245   1.704   4.481   4.447
 9116SOL     OW28246   1.537   1.176   5.965
 9116SOL    HW128247   1.455   1.226   5.992
 9116SOL    HW228248   1.543   1.092   6.018
 9117SOL     OW28249   6.649   2.669   0.013
 9117SOL    HW128250   6.666   2.766   0.033
 9117SOL    HW228251   6.735   2.619   0.015
 9118SOL     OW28252   6.381   6.059   1.826
 9118SOL    HW128253   6.474   6.030   1.799
 9118SOL    HW228254   6.362   6.149   1.788
 9119SOL     OW28255   6.758   0.428   1.592
 9119SOL    HW128256   6.784   0.331   1.591
 9119SOL    HW228257   6.659   0.436   1.584
 9120SOL     OW28258   5.613   1.359   6.111
 9120SOL    HW128259   5.593   1.457   6.116
 9120SOL    HW228260   5.609   1.319   6.202
 9121SOL     OW28261   1.076   1.142   6.354
 9121SOL    HW128262   0.999   1.133   6.291
 9121SOL    HW228263   1.104   1.237   6.360
 9122SOL     OW28264   0.938   2.627   1.809
 9122SOL    HW128265   0.994   2.551   1.843
 9122SOL    HW228266   0.951   2.637   1.711
 9123SOL     OW28267   2.597   5.247   6.749
 9123SOL    HW128268   2.546   5.188   6.811
 9123SOL    HW228269   2.658   5.191   6.692
 9124SOL     OW28270   6.438   5.544   5.284
 9124SOL    HW128271   6.365   5.519   5.221
 9124SOL    HW228272   6.481   5.629   5.254
 9125SOL     OW28273   5.027   5.020   3.565
 9125SOL    HW128274   4.969   5.086   3.518
 9125SOL    HW228275   5.052   4.947   3.501
 9126SOL     OW28276   5.861   0.762   1.572
 9126SOL    HW128277   5.800   0.738   1.497
 9126SOL    HW228278   5.921   0.837   1.545
 9127SOL     OW28279   5.198   0.863   0.047
 9127SOL    HW128280   5.115   0.846   7.019
 9127SOL    HW228281   5.190   0.817   0.136
 9128SOL     OW28282   4.390   2.316   5.023
 9128SOL    HW128283   4.307   2.361   5.056
 9128SOL    HW228284   4.448   2.292   5.101
 9129SOL     OW28285   2.088   2.025   6.392
 9129SOL    HW128286   2.085   1.994   6.296
 9129SOL    HW228287   2.100   1.946   6.452
 9130SOL     OW28288   5.964   4.877   0.853
 9130SOL    HW128289   5.949   4.816   0.931
 9130SOL    HW228290   6.035   4.839   0.794
 9131SOL     OW28291   0.969   4.209   4.434
 9131SOL    HW128292   1.069   4.202   4.431
 9131SOL    HW228293   0.929   4.138   4.377
 9132SOL     OW28294   0.147   2.870   4.583
 9132SOL    HW128295   0.238   2.839   4.556
 9132SOL    HW228296   0.081   2.845   4.512
 9133SOL     OW28297   2.122   4.000   1.199
 9133SOL    HW128298   2.050   4.060   1.234
 9133SOL    HW228299   2.081   3.932   1.138
 9134SOL     OW28300   2.879   5.790   6.421
 9134SOL    HW128301   2.912   5.699   6.445
 9134SOL    HW228302   2.911   5.814   6.329
 9135SOL     OW28303   6.687   6.318   4.691
 9135SOL    HW128304   6.642   6.354   4.609
 9135SOL    HW228305   6.782   6.296   4.671
 9136SOL     OW28306   4.456   4.940   5.584
 9136SOL    HW128307   4.483   4.874   5.653
 9136SOL    HW228308   4.531   4.955   5.520
 9137SOL     OW28309   3.991   1.366   1.698
 9137SOL    HW128310   3.918   1.407   1.752
 9137SOL    HW228311   3.952   1.327   1.614
 9138SOL     OW28312   4.033   5.175   6.994
 9138SOL    HW128313   3.983   5.119   6.928
 9138SOL    HW228314   3.969   5.208   0.039
 9139SOL     OW28315   3.161   1.361   5.388
 9139SOL    HW128316   3.229   1.288   5.379
 9139SOL    HW228317   3.200   1.446   5.352
 9140SOL     OW28318   6.885   2.348   2.820
 9140SOL    HW128319   6.796   2.364   2.861
 9140SOL    HW228320   6.950   2.320   2.891
 9141SOL     OW28321   5.685   0.237   5.747
 9141SOL    HW128322   5.658   0.292   5.668
 9141SOL    HW228323   5.714   0.146   5.717
 9142SOL     OW28324   0.037   2.952   5.803
 9142SOL    HW128325   7.015   3.027   5.850
 9142SOL    HW228326   0.095   2.903   5.868
 9143SOL     OW28327   4.778   4.071   0.594
 9143SOL    HW128328   4.836   4.121   0.530
 9143SOL    HW228329   4.792   4.106   0.686
 9144SOL     OW28330   2.070   5.418   5.483
 9144SOL    HW128331   2.075   5.517   5.469
 9144SOL    HW228332   2.153   5.387   5.529
 9145SOL     OW28333   0.019   4.772   6.267
 9145SOL    HW128334   7.017   4.690   6.217
 9145SOL    HW228335   0.084   4.825   6.212
 9146SOL     OW28336   6.067   2.053   2.070
 9146SOL    HW128337   6.002   1.982   2.097
 9146SOL    HW228338   6.017   2.136   2.047
 9147SOL     OW28339   4.050   5.725   5.482
 9147SOL    HW128340   4.090   5.803   5.434
 9147SOL    HW228341   4.025   5.752   5.575
 9148SOL     OW28342   4.435   5.335   3.577
 9148SOL    HW128343   4.417   5.425   3.536
 9148SOL    HW228344   4.437   5.266   3.505
 9149SOL     OW28345   5.578   3.451   4.168
 9149SOL    HW128346   5.630   3.527   4.128
 9149SOL    HW228347   5.636   3.369   4.169
 9150SOL     OW28348   4.825   0.196   3.075
 9150SOL    HW128349   4.833   0.113   3.020
 9150SOL    HW228350   4.765   0.177   3.154
 9151SOL     OW28351   1.677   4.334   2.075
 9151SOL    HW128352   1.618   4.284   2.011
 9151SOL    HW228353   1.744   4.387   2.024
 9152SOL     OW28354   1.935   5.931   3.346
 9152SOL    HW128355   1.837   5.923   3.327
 9152SOL    HW228356   1.985   5.859   3.299
 9153SOL     OW28357   2.009   2.985   6.329
 9153SOL    HW128358   2.055   2.935   6.402
 9153SOL    HW228359   1.958   2.921   6.271
 9154SOL     OW28360   2.463   5.882   0.264
 9154SOL    HW128361   2.532   5.813   0.246
 9154SOL    HW228362   2.383   5.840   0.307
 9155SOL     OW28363   1.305   4.009   0.130
 9155SOL    HW128364   1.312   4.103   0.095
 9155SOL    HW228365   1.228   3.963   0.086
 9156SOL     OW28366   4.705   2.278   1.215
 9156SOL    HW128367   4.716   2.215   1.138
 9156SOL    HW228368   4.659   2.230   1.290
 9157SOL     OW28369   5.113   4.047   5.891
 9157SOL    HW128370   5.026   4.066   5.845
 9157SOL    HW228371   5.106   3.959   5.938
 9158SOL     OW28372   0.867   3.731   4.166
 9158SOL    HW128373   0.804   3.774   4.102
 9158SOL    HW228374   0.886   3.637   4.136
 9159SOL     OW28375   6.753   5.223   2.723
 9159SOL    HW128376   6.666   5.240   2.676
 9159SOL    HW228377   6.824   5.203   2.656
 9160SOL     OW28378   0.683   0.223   0.200
 9160SOL    HW128379   0.623   0.276   0.260
 9160SOL    HW228380   0.761   0.190   0.252
 9161SOL     OW28381   4.972   4.151   4.787
 9161SOL    HW128382   5.067   4.143   4.817
 9161SOL    HW228383   4.955   4.086   4.713
 9162SOL     OW28384   4.744   2.804   2.464
 9162SOL    HW128385   4.699   2.738   2.524
 9162SOL    HW228386   4.806   2.862   2.518
 9163SOL     OW28387   2.991   2.103   3.776
 9163SOL    HW128388   2.962   2.044   3.700
 9163SOL    HW228389   2.939   2.188   3.774
 9164SOL     OW28390   3.384   0.472   6.862
 9164SOL    HW128391   3.413   0.379   6.837
 9164SOL    HW228392   3.302   0.467   6.918
 9165SOL     OW28393   5.856   0.443   6.942
 9165SOL    HW128394   5.783   0.419   6.877
 9165SOL    HW228395   5.923   0.501   6.896
 9166SOL     OW28396   2.936   5.187   0.954
 9166SOL    HW128397   2.863   5.242   0.914
 9166SOL    HW228398   3.001   5.247   1.001
 9167SOL     OW28399   1.919   4.401   5.497
 9167SOL    HW128400   1.898   4.369   5.405
 9167SOL    HW228401   1.968   4.488   5.491
 9168SOL     OW28402   2.231   0.546   6.099
 9168SOL    HW128403   2.155   0.587   6.048
 9168SOL    HW228404   2.195   0.483   6.168
 9169SOL     OW28405   0.526   0.923   3.784
 9169SOL    HW128406   0.489   0.832   3.803
 9169SOL    HW228407   0.494   0.954   3.694
 9170SOL     OW28408   6.925   5.377   6.951
 9170SOL    HW128409   6.895   5.412   0.015
 9170SOL    HW228410   6.846   5.358   6.894
 9171SOL     OW28411   2.863   5.584   0.112
 9171SOL    HW128412   2.827   5.593   0.019
 9171SOL    HW228413   2.792   5.607   0.178
 9172SOL     OW28414   3.196   1.304   3.745
 9172SOL    HW128415   3.244   1.330   3.661
 9172SOL    HW228416   3.233   1.356   3.822
 9173SOL     OW28417   7.024   5.157   3.915
 9173SOL    HW128418   6.981   5.222   3.852
 9173SOL    HW228419   0.087   5.195   3.946
 9174SOL     OW28420   0.076   4.847   0.211
 9174SOL    HW128421   0.041   4.754   0.201
 9174SOL    HW228422   0.140   4.851   0.288
 9175SOL     OW28423   1.966   5.758   6.016
 9175SOL    HW128424   2.037   5.720   5.956
 9175SOL    HW228425   1.966   5.858   6.009
 9176SOL     OW28426   1.961   0.248   5.703
 9176SOL    HW128427   2.033   0.185   5.730
 9176SOL    HW228428   1.990   0.298   5.621
 9177SOL     OW28429   1.273   4.460   3.298
 9177SOL    HW128430   1.324   4.540   3.331
 9177SOL    HW228431   1.195   4.491   3.244
 9178SOL     OW28432   2.011   4.921   0.725
 9178SOL    HW128433   1.946   4.996   0.732
 9178SOL    HW228434   2.059   4.927   0.637
 9179SOL     OW28435   3.186   4.953   4.136
 9179SOL    HW128436   3.276   4.978   4.171
 9179SOL    HW228437   3.143   4.888   4.198
 9180SOL     OW28438   5.685   2.305   3.836
 9180SOL    HW128439   5.590   2.284   3.809
 9180SOL    HW228440   5.715   2.387   3.787
 9181SOL     OW28441   4.648   2.273   2.514
 9181SOL    HW128442   4.576   2.264   2.582
 9181SOL    HW228443   4.731   2.308   2.557
 9182SOL     OW28444   1.094   6.234   1.643
 9182SOL    HW128445   1.192   6.244   1.631
 9182SOL    HW228446   1.046   6.289   1.574
 9183SOL     OW28447   4.816   6.307   0.909
 9183SOL    HW128448   4.827   6.252   0.991
 9183SOL    HW228449   4.895   6.367   0.898
 9184SOL     OW28450   5.002   0.149   1.039
 9184SOL    HW128451   4.931   0.079   1.041
 9184SOL    HW228452   4.961   0.239   1.057
 9185SOL     OW28453   3.875   0.886   5.044
 9185SOL    HW128454   3.929   0.838   4.975
 9185SOL    HW228455   3.793   0.924   5.002
 9186SOL     OW28456   6.120   1.303   5.802
 9186SOL    HW128457   6.219   1.299   5.790
 9186SOL    HW228458   6.093   1.396   5.829
 9187SOL     OW28459   2.552   6.676   1.911
 9187SOL    HW128460   2.465   6.711   1.875
 9187SOL    HW228461   2.564   6.581   1.883
 9188SOL     OW28462   2.640   6.514   1.215
 9188SOL    HW128463   2.737   6.510   1.191
 9188SOL    HW228464   2.604   6.421   1.223
 9189SOL     OW28465   5.291   5.555   3.011
 9189SOL    HW128466   5.229   5.488   2.970
 9189SOL    HW228467   5.326   5.521   3.098
 9190SOL     OW28468   1.639   5.179   0.703
 9190SOL    HW128469   1.642   5.279   0.706
 9190SOL    HW228470   1.596   5.144   0.786
 9191SOL     OW28471   6.775   0.369   6.041
 9191SOL    HW128472   6.758   0.321   5.955
 9191SOL    HW228473   6.778   0.467   6.025
 9192SOL     OW28474   6.899   4.149   4.421
 9192SOL    HW128475   6.944   4.144   4.332
 9192SOL    HW228476   6.858   4.239   4.433
 9193SOL     OW28477   2.919   3.494   0.071
 9193SOL    HW128478   2.990   3.548   0.115
 9193SOL    HW228479   2.950   3.399   0.061
 9194SOL     OW28480   3.377   0.757   3.845
 9194SOL    HW128481   3.323   0.749   3.761
 9194SOL    HW228482   3.337   0.827   3.903
 9195SOL     OW28483   1.850   2.068   3.995
 9195SOL    HW128484   1.869   2.120   4.078
 9195SOL    HW228485   1.786   2.119   3.938
 9196SOL     OW28486   4.678   1.881   5.161
 9196SOL    HW128487   4.728   1.925   5.235
 9196SOL    HW228488   4.740   1.819   5.112
 9197SOL     OW28489   2.240   3.652   1.669
 9197SOL    HW128490   2.259   3.597   1.750
 9197SOL    HW228491   2.238   3.749   1.695
 9198SOL     OW28492   6.377   5.162   5.076
 9198SOL    HW128493   6.389   5.124   4.984
 9198SOL    HW228494   6.279   5.169   5.096
 9199SOL     OW28495   0.025   4.329   5.325
 9199SOL    HW128496   6.958   4.368   5.311
 9199SOL    HW228497   0.037   4.249   5.267
 9200SOL     OW28498   3.390   0.162   0.404
 9200SOL    HW128499   3.381   0.104   0.323
 9200SOL    HW228500   3.352   0.115   0.483
 9201SOL     OW28501   1.566   4.345   0.368
 9201SOL    HW128502   1.659   4.359   0.334
 9201SOL    HW228503   1.564   4.360   0.467
 9202SOL     OW28504   1.666   0.743   3.034
 9202SOL    HW128505   1.725   0.676   2.990
 9202SOL    HW228506   1.604   0.697   3.098
 9203SOL     OW28507   6.633   5.526   0.558
 9203SOL    HW128508   6.575   5.533   0.640
 9203SOL    HW228509   6.599   5.590   0.488
 9204SOL     OW28510   5.336   1.310   6.333
 9204SOL    HW128511   5.346   1.258   6.249
 9204SOL    HW228512   5.425   1.343   6.363
 9205SOL     OW28513   6.705   3.651   3.086
 9205SOL    HW128514   6.743   3.738   3.055
 9205SOL    HW228515   6.686   3.657   3.184
 9206SOL     OW28516   3.859   6.428   0.467
 9206SOL    HW128517   3.929   6.361   0.492
 9206SOL    HW228518   3.786   6.428   0.536
 9207SOL     OW28519   4.813   5.433   0.537
 9207SOL    HW128520   4.752   5.492   0.484
 9207SOL    HW228521   4.872   5.382   0.475
 9208SOL     OW28522   0.762   3.902   3.499
 9208SOL    HW128523   0.816   3.827   3.535
 9208SOL    HW228524   0.765   3.980   3.562
 9209SOL     OW28525   2.962   1.559   6.286
 9209SOL    HW128526   2.866   1.583   6.301
 9209SOL    HW228527   3.012   1.639   6.255
 9210SOL     OW28528   6.624   1.064   3.526
 9210SOL    HW128529   6.676   1.090   3.608
 9210SOL    HW228530   6.542   1.121   3.520
 9211SOL     OW28531   0.486   1.462   3.335
 9211SOL    HW128532   0.579   1.443   3.302
 9211SOL    HW228533   0.484   1.554   3.376
 9212SOL     OW28534   3.154   5.093   4.882
 9212SOL    HW128535   3.068   5.068   4.836
 9212SOL    HW228536   3.226   5.029   4.855
 9213SOL     OW28537   5.665   3.956   6.332
 9213SOL    HW128538   5.696   3.999   6.248
 9213SOL    HW228539   5.653   4.026   6.403
 9214SOL     OW28540   0.825   5.721   0.715
 9214SOL    HW128541   0.886   5.679   0.648
 9214SOL    HW228542   0.826   5.666   0.799
 9215SOL     OW28543   0.967   0.799   0.395
 9215SOL    HW128544   0.925   0.774   0.308
 9215SOL    HW228545   0.946   0.895   0.416
 9216SOL     OW28546   2.156   6.747   2.939
 9216SOL    HW128547   2.256   6.747   2.938
 9216SOL    HW228548   2.121   6.758   2.846
 9217SOL     OW28549   1.191   2.279   6.381
 9217SOL    HW128550   1.268   2.233   6.425
 9217SOL    HW228551   1.123   2.212   6.354
 9218SOL     OW28552   3.090   6.951   0.735
 9218SOL    HW128553   3.050   6.932   0.825
 9218SOL    HW228554   3.017   6.957   0.667
 9219SOL     OW28555   0.415   2.359   0.831
 9219SOL    HW128556   0.486   2.404   0.777
 9219SOL    HW228557   0.403   2.265   0.797
 9220SOL     OW28558   3.398   6.407   1.802
 9220SOL    HW128559   3.335   6.484   1.792
 9220SOL    HW228560   3.413   6.387   1.898
 9221SOL     OW28561   2.571   5.521   3.844
 9221SOL    HW128562   2.511   5.529   3.923
 9221SOL    HW228563   2.518   5.498   3.763
 9222SOL     OW28564   3.113   1.830   6.209
 9222SOL    HW128565   3.129   1.841   6.307
 9222SOL    HW228566   3.037   1.888   6.181
 9223SOL     OW28567   2.487   2.832   5.355
 9223SOL    HW128568   2.580   2.826   5.393
 9223SOL    HW228569   2.485   2.902   5.284
 9224SOL     OW28570   2.074   5.370   4.651
 9224SOL    HW128571   2.081   5.282   4.699
 9224SOL    HW228572   2.000   5.423   4.693
 9225SOL     OW28573   2.525   5.898   6.996
 9225SOL    HW128574   2.610   5.903   6.945
 9225SOL    HW228575   2.519   5.975   0.035
 9226SOL     OW28576   5.160   6.839   1.209
 9226SOL    HW128577   5.200   6.898   1.138
 9226SOL    HW228578   5.088   6.783   1.168
 9227SOL     OW28579   1.822   5.790   2.850
 9227SOL    HW128580   1.767   5.873   2.837
 9227SOL    HW228581   1.900   5.792   2.788
 9228SOL     OW28582   1.573   0.868   6.605
 9228SOL    HW128583   1.510   0.916   6.667
 9228SOL    HW228584   1.596   0.779   6.644
 9229SOL     OW28585   0.862   5.637   4.439
 9229SOL    HW128586   0.852   5.558   4.499
 9229SOL    HW228587   0.826   5.615   4.348
 9230SOL     OW28588   5.597   0.737   3.879
 9230SOL    HW128589   5.579   0.639   3.872
 9230SOL    HW228590   5.547   0.775   3.957
 9231SOL     OW28591   1.065   2.692   4.323
 9231SOL    HW128592   0.973   2.724   4.300
 9231SOL    HW228593   1.125   2.770   4.339
 9232SOL     OW28594   3.337   4.748   0.803
 9232SOL    HW128595   3.344   4.791   0.713
 9232SOL    HW228596   3.281   4.806   0.863
 9233SOL     OW28597   5.730   4.936   0.753
 9233SOL    HW128598   5.668   4.957   0.829
 9233SOL    HW228599   5.818   4.905   0.789
 9234SOL     OW28600   2.395   5.769   3.328
 9234SOL    HW128601   2.415   5.671   3.337
 9234SOL    HW228602   2.475   5.822   3.358
 9235SOL     OW28603   0.581   2.295   2.997
 9235SOL    HW128604   0.526   2.309   2.915
 9235SOL    HW228605   0.539   2.344   3.074
 9236SOL     OW28606   2.998   3.534   5.008
 9236SOL    HW128607   2.995   3.434   5.004
 9236SOL    HW228608   2.946   3.572   4.931
 9237SOL     OW28609   1.734   4.224   3.705
 9237SOL    HW128610   1.834   4.218   3.700
 9237SOL    HW228611   1.694   4.148   3.654
 9238SOL     OW28612   4.502   2.819   6.272
 9238SOL    HW128613   4.585   2.847   6.319
 9238SOL    HW228614   4.445   2.899   6.253
 9239SOL     OW28615   1.022   4.174   0.823
 9239SOL    HW128616   1.046   4.077   0.817
 9239SOL    HW228617   0.927   4.184   0.852
 9240SOL     OW28618   4.491   1.647   1.875
 9240SOL    HW128619   4.526   1.555   1.859
 9240SOL    HW228620   4.557   1.714   1.841
 9241SOL     OW28621   0.733   5.928   6.935
 9241SOL    HW128622   0.700   5.900   0.001
 9241SOL    HW228623   0.810   5.871   6.908
 9242SOL     OW28624   5.898   5.991   1.874
 9242SOL    HW128625   5.829   5.940   1.823
 9242SOL    HW228626   5.988   5.953   1.855
 9243SOL     OW28627   6.612   5.780   5.237
 9243SOL    HW128628   6.693   5.779   5.178
 9243SOL    HW228629   6.530   5.784   5.180
 9244SOL     OW28630   3.786   5.360   6.176
 9244SOL    HW128631   3.738   5.320   6.254
 9244SOL    HW228632   3.719   5.391   6.109
 9245SOL     OW28633   0.739   5.937   1.776
 9245SOL    HW128634   0.756   5.842   1.803
 9245SOL    HW228635   0.824   5.976   1.739
 9246SOL     OW28636   6.628   5.191   3.960
 9246SOL    HW128637   6.543   5.230   3.924
 9246SOL    HW228638   6.610   5.147   4.048
 9247SOL     OW28639   1.094   6.810   2.712
 9247SOL    HW128640   1.112   6.752   2.791
 9247SOL    HW228641   1.100   6.756   2.628
 9248SOL     OW28642   2.827   2.038   6.624
 9248SOL    HW128643   2.762   2.021   6.550
 9248SOL    HW228644   2.919   2.016   6.593
 9249SOL     OW28645   5.143   0.279   3.774
 9249SOL    HW128646   5.112   0.286   3.869
 9249SOL    HW228647   5.138   0.368   3.730
 9250SOL     OW28648   5.400   3.441   3.774
 9250SOL    HW128649   5.330   3.443   3.702
 9250SOL    HW228650   5.430   3.534   3.794
 9251SOL     OW28651   3.515   1.958   2.534
 9251SOL    HW128652   3.561   1.869   2.532
 9251SOL    HW228653   3.435   1.955   2.474
 9252SOL     OW28654   0.273   0.143   5.278
 9252SOL    HW128655   0.355   0.098   5.315
 9252SOL    HW228656   0.296   0.190   5.193
 9253SOL     OW28657   1.597   6.971   5.965
 9253SOL    HW128658   1.662   0.022   5.961
 9253SOL    HW228659   1.646   6.887   5.987
 9254SOL     OW28660   6.036   3.844   1.569
 9254SOL    HW128661   6.109   3.886   1.515
 9254SOL    HW228662   6.067   3.755   1.602
 9255SOL     OW28663   5.558   4.357   0.863
 9255SOL    HW128664   5.563   4.448   0.906
 9255SOL    HW228665   5.648   4.333   0.828
 9256SOL     OW28666   4.304   4.780   1.940
 9256SOL    HW128667   4.374   4.709   1.937
 9256SOL    HW228668   4.346   4.869   1.924
 9257SOL     OW28669   1.027   4.268   1.253
 9257SOL    HW128670   1.006   4.216   1.171
 9257SOL    HW228671   0.946   4.318   1.283
 9258SOL     OW28672   4.017   3.179   3.369
 9258SOL    HW128673   3.957   3.105   3.338
 9258SOL    HW228674   3.975   3.267   3.350
 9259SOL     OW28675   1.424   2.692   0.962
 9259SOL    HW128676   1.328   2.717   0.962
 9259SOL    HW228677   1.458   2.688   1.056
 9260SOL     OW28678   4.934   3.521   5.914
 9260SOL    HW128679   5.032   3.499   5.911
 9260SOL    HW228680   4.896   3.492   6.002
 9261SOL     OW28681   4.875   0.173   6.352
 9261SOL    HW128682   4.786   0.214   6.371
 9261SOL    HW228683   4.948   0.239   6.370
 9262SOL     OW28684   4.925   1.370   5.585
 9262SOL    HW128685   4.912   1.285   5.636
 9262SOL    HW228686   5.022   1.382   5.564
 9263SOL     OW28687   4.944   3.767   1.735
 9263SOL    HW128688   5.024   3.737   1.787
 9263SOL    HW228689   4.892   3.832   1.790
 9264SOL     OW28690   6.508   3.646   0.134
 9264SOL    HW128691   6.485   3.735   0.173
 9264SOL    HW228692   6.427   3.608   0.088
 9265SOL     OW28693   2.768   1.202   0.259
 9265SOL    HW128694   2.699   1.160   0.318
 9265SOL    HW228695   2.724   1.238   0.177
 9266SOL     OW28696   2.118   6.502   3.048
 9266SOL    HW128697   2.104   6.588   2.999
 9266SOL    HW228698   2.216   6.486   3.061
 9267SOL     OW28699   0.976   4.789   4.395
 9267SOL    HW128700   0.982   4.751   4.303
 9267SOL    HW228701   0.908   4.862   4.396
 9268SOL     OW28702   0.593   6.883   2.882
 9268SOL    HW128703   0.584   6.873   2.782
 9268SOL    HW228704   0.660   6.818   2.916
 9269SOL     OW28705   3.401   1.612   6.533
 9269SOL    HW128706   3.436   1.545   6.598
 9269SOL    HW228707   3.322   1.659   6.573
 9270SOL     OW28708   6.744   6.715   6.404
 9270SOL    HW128709   6.823   6.687   6.458
 9270SOL    HW228710   6.771   6.727   6.308
 9271SOL     OW28711   2.127   5.330   0.756
 9271SOL    HW128712   2.172   5.416   0.781
 9271SOL    HW228713   2.154   5.258   0.821
 9272SOL     OW28714   2.491   4.940   5.792
 9272SOL    HW128715   2.424   4.965   5.862
 9272SOL    HW228716   2.466   4.851   5.754
 9273SOL     OW28717   4.213   5.578   4.446
 9273SOL    HW128718   4.255   5.664   4.417
 9273SOL    HW228719   4.168   5.534   4.369
 9274SOL     OW28720   6.187   2.358   6.715
 9274SOL    HW128721   6.150   2.344   6.806
 9274SOL    HW228722   6.287   2.355   6.719
 9275SOL     OW28723   1.693   0.421   6.263
 9275SOL    HW128724   1.618   0.391   6.204
 9275SOL    HW228725   1.752   0.485   6.212
 9276SOL     OW28726   3.947   5.816   4.697
 9276SOL    HW128727   3.975   5.809   4.793
 9276SOL    HW228728   3.865   5.873   4.691
 9277SOL     OW28729   3.897   2.916   6.838
 9277SOL    HW128730   3.845   2.976   6.898
 9277SOL    HW228731   3.852   2.827   6.833
 9278SOL     OW28732   1.234   1.977   2.845
 9278SOL    HW128733   1.191   2.008   2.761
 9278SOL    HW228734   1.165   1.968   2.917
 9279SOL     OW28735   2.809   0.118   1.935
 9279SOL    HW128736   2.888   0.122   1.873
 9279SOL    HW228737   2.755   0.036   1.915
 9280SOL     OW28738   2.167   6.733   3.799
 9280SOL    HW128739   2.100   6.683   3.854
 9280SOL    HW228740   2.202   6.810   3.852
 9281SOL     OW28741   2.001   2.450   6.934
 9281SOL    HW128742   2.001   2.417   6.840
 9281SOL    HW228743   1.939   2.528   6.942
 9282SOL     OW28744   4.460   1.826   5.393
 9282SOL    HW128745   4.523   1.860   5.322
 9282SOL    HW228746   4.462   1.726   5.394
 9283SOL     OW28747   5.694   2.822   1.982
 9283SOL    HW128748   5.731   2.844   2.072
 9283SOL    HW228749   5.607   2.871   1.969
 9284SOL     OW28750   3.055   3.422   1.440
 9284SOL    HW128751   2.982   3.472   1.393
 9284SOL    HW228752   3.092   3.353   1.378
 9285SOL     OW28753   6.861   2.433   6.766
 9285SOL    HW128754   6.792   2.502   6.787
 9285SOL    HW228755   6.866   2.420   6.667
 9286SOL     OW28756   5.135   7.014   5.273
 9286SOL    HW128757   5.083   6.953   5.332
 9286SOL    HW228758   5.104   0.083   5.286
 9287SOL     OW28759   3.064   6.542   0.917
 9287SOL    HW128760   2.991   6.521   0.983
 9287SOL    HW228761   3.024   6.586   0.836
 9288SOL     OW28762   5.144   2.322   5.937
 9288SOL    HW128763   5.199   2.349   6.016
 9288SOL    HW228764   5.074   2.392   5.919
 9289SOL     OW28765   5.136   2.429   2.311
 9289SOL    HW128766   5.099   2.454   2.221
 9289SOL    HW228767   5.061   2.411   2.374
 9290SOL     OW28768   4.935   1.941   4.191
 9290SOL    HW128769   4.983   1.862   4.153
 9290SOL    HW228770   4.924   2.011   4.120
 9291SOL     OW28771   0.897   1.109   4.539
 9291SOL    HW128772   0.954   1.189   4.519
 9291SOL    HW228773   0.870   1.065   4.454
 9292SOL     OW28774   0.316   3.249   6.175
 9292SOL    HW128775   0.322   3.279   6.270
 9292SOL    HW228776   0.357   3.159   6.166
 9293SOL     OW28777   5.634   4.345   0.431
 9293SOL    HW128778   5.542   4.308   0.430
 9293SOL    HW228779   5.686   4.310   0.354
 9294SOL     OW28780   5.524   6.640   0.099
 9294SOL    HW128781   5.492   6.654   0.193
 9294SOL    HW228782   5.464   6.574   0.053
 9295SOL     OW28783   4.629   1.601   3.115
 9295SOL    HW128784   4.604   1.542   3.192
 9295SOL    HW228785   4.725   1.626   3.121
 9296SOL     OW28786   5.807   6.593   5.842
 9296SOL    HW128787   5.798   6.518   5.908
 9296SOL    HW228788   5.717   6.635   5.827
 9297SOL     OW28789   0.446   0.639   0.987
 9297SOL    HW128790   0.423   0.621   0.891
 9297SOL    HW228791   0.362   0.660   1.037
 9298SOL     OW28792   1.484   5.895   5.064
 9298SOL    HW128793   1.457   5.799   5.059
 9298SOL    HW228794   1.408   5.949   5.101
 9299SOL     OW28795   1.881   3.620   4.286
 9299SOL    HW128796   1.882   3.714   4.321
 9299SOL    HW228797   1.959   3.570   4.324
 9300SOL     OW28798   5.357   4.493   4.497
 9300SOL    HW128799   5.366   4.416   4.434
 9300SOL    HW228800   5.398   4.575   4.456
 9301SOL     OW28801   5.227   4.799   2.413
 9301SOL    HW128802   5.311   4.835   2.454
 9301SOL    HW228803   5.228   4.818   2.315
 9302SOL     OW28804   2.329   2.258   2.644
 9302SOL    HW128805   2.247   2.315   2.639
 9302SOL    HW228806   2.313   2.172   2.596
 9303SOL     OW28807   3.814   5.854   6.839
 9303SOL    HW128808   3.802   5.783   6.770
 9303SOL    HW228809   3.906   5.892   6.833
 9304SOL     OW28810   3.610   3.620   1.048
 9304SOL    HW128811   3.612   3.556   0.971
 9304SOL    HW228812   3.685   3.599   1.110
 9305SOL     OW28813   5.806   3.003   1.670
 9305SOL    HW128814   5.892   2.955   1.652
 9305SOL    HW228815   5.730   2.950   1.633
 9306SOL     OW28816   0.032   4.090   4.160
 9306SOL    HW128817   6.979   4.087   4.097
 9306SOL    HW228818   0.076   4.000   4.164
 9307SOL     OW28819   1.669   1.858   0.512
 9307SOL    HW128820   1.635   1.764   0.523
 9307SOL    HW228821   1.709   1.867   0.421
 9308SOL     OW28822   0.348   3.553   1.067
 9308SOL    HW128823   0.311   3.614   0.996
 9308SOL    HW228824   0.446   3.568   1.076
 9309SOL     OW28825   4.623   3.590   6.162
 9309SOL    HW128826   4.584   3.603   6.071
 9309SOL    HW228827   4.683   3.510   6.162
 9310SOL     OW28828   4.409   6.138   6.883
 9310SOL    HW128829   4.399   6.039   6.893
 9310SOL    HW228830   4.395   6.163   6.788
 9311SOL     OW28831   5.651   3.311   0.885
 9311SOL    HW128832   5.747   3.300   0.859
 9311SOL    HW228833   5.640   3.395   0.938
 9312SOL     OW28834   0.977   4.201   6.356
 9312SOL    HW128835   0.910   4.264   6.397
 9312SOL    HW228836   0.933   4.112   6.339
 9313SOL     OW28837   6.895   0.145   3.113
 9313SOL    HW128838   6.892   0.054   3.069
 9313SOL    HW228839   6.862   0.137   3.207
 9314SOL     OW28840   4.927   4.967   6.814
 9314SOL    HW128841   4.907   4.909   6.893
 9314SOL    HW228842   4.850   5.028   6.797
 9315SOL     OW28843   0.149   6.864   5.650
 9315SOL    HW128844   0.085   6.802   5.695
 9315SOL    HW228845   0.098   6.928   5.592
 9316SOL     OW28846   4.182   5.930   3.745
 9316SOL    HW128847   4.156   5.871   3.821
 9316SOL    HW228848   4.279   5.918   3.724
 9317SOL     OW28849   6.537   5.103   3.615
 9317SOL    HW128850   6.483   5.143   3.689
 9317SOL    HW228851   6.615   5.053   3.654
 9318SOL     OW28852   0.480   0.712   6.662
 9318SOL    HW128853   0.471   0.709   6.562
 9318SOL    HW228854   0.547   0.783   6.687
 9319SOL     OW28855   0.658   3.205   6.192
 9319SOL    HW128856   0.745   3.241   6.227
 9319SOL    HW228857   0.642   3.241   6.100
 9320SOL     OW28858   4.154   2.500   5.861
 9320SOL    HW128859   4.161   2.593   5.823
 9320SOL    HW228860   4.166   2.504   5.960
 9321SOL     OW28861   6.059   6.301   3.125
 9321SOL    HW128862   6.073   6.359   3.044
 9321SOL    HW228863   6.003   6.222   3.100
 9322SOL     OW28864   0.967   6.507   5.777
 9322SOL    HW128865   1.012   6.571   5.840
 9322SOL    HW228866   0.906   6.447   5.828
 9323SOL     OW28867   0.883   1.350   6.633
 9323SOL    HW128868   0.847   1.408   6.560
 9323SOL    HW228869   0.983   1.345   6.626
 9324SOL     OW28870   1.342   5.705   0.373
 9324SOL    HW128871   1.278   5.649   0.426
 9324SOL    HW228872   1.296   5.740   0.292
 9325SOL     OW28873   5.744   2.207   1.007
 9325SOL    HW128874   5.822   2.154   0.975
 9325SOL    HW228875   5.707   2.165   1.090
 9326SOL     OW28876   1.885   6.954   1.102
 9326SOL    HW128877   1.877   0.001   1.034
 9326SOL    HW228878   1.975   6.958   1.145
 9327SOL     OW28879   4.305   1.017   2.632
 9327SOL    HW128880   4.349   0.994   2.545
 9327SOL    HW228881   4.338   1.106   2.664
 9328SOL     OW28882   3.528   1.297   1.179
 9328SOL    HW128883   3.548   1.361   1.105
 9328SOL    HW228884   3.603   1.231   1.188
 9329SOL     OW28885   0.926   3.270   2.301
 9329SOL    HW128886   1.015   3.315   2.291
 9329SOL    HW228887   0.909   3.252   2.398
 9330SOL     OW28888   5.968   0.858   0.304
 9330SOL    HW128889   5.929   0.766   0.302
 9330SOL    HW228890   6.031   0.866   0.381
 9331SOL     OW28891   0.642   0.873   6.851
 9331SOL    HW128892   0.641   0.907   6.945
 9331SOL    HW228893   0.675   0.945   6.790
 9332SOL     OW28894   3.021   3.191   4.304
 9332SOL    HW128895   2.955   3.222   4.236
 9332SOL    HW228896   3.065   3.107   4.273
 9333SOL     OW28897   6.056   4.619   0.720
 9333SOL    HW128898   6.087   4.543   0.664
 9333SOL    HW228899   6.124   4.693   0.717
 9334SOL     OW28900   2.781   0.235   4.728
 9334SOL    HW128901   2.776   0.155   4.667
 9334SOL    HW228902   2.700   0.292   4.715
 9335SOL     OW28903   1.404   0.567   6.875
 9335SOL    HW128904   1.355   0.604   6.796
 9335SOL    HW228905   1.340   0.517   6.933
 9336SOL     OW28906   2.681   6.653   6.016
 9336SOL    HW128907   2.726   6.739   5.993
 9336SOL    HW228908   2.737   6.577   5.984
 9337SOL     OW28909   5.266   0.058   2.176
 9337SOL    HW128910   5.256   0.034   2.080
 9337SOL    HW228911   5.297   0.153   2.184
 9338SOL     OW28912   3.354   6.784   2.573
 9338SOL    HW128913   3.356   6.721   2.496
 9338SOL    HW228914   3.365   6.878   2.540
 9339SOL     OW28915   4.231   6.175   1.218
 9339SOL    HW128916   4.315   6.217   1.252
 9339SOL    HW228917   4.154   6.204   1.274
 9340SOL     OW28918   6.218   3.709   6.917
 9340SOL    HW128919   6.254   3.642   6.982
 9340SOL    HW228920   6.192   3.664   6.832
 9341SOL     OW28921   0.258   5.541   6.448
 9341SOL    HW128922   0.230   5.633   6.422
 9341SOL    HW228923   0.275   5.537   6.546
 9342SOL     OW28924   1.563   6.375   6.360
 9342SOL    HW128925   1.613   6.452   6.401
 9342SOL    HW228926   1.481   6.356   6.413
 9343SOL     OW28927   5.718   5.008   5.044
 9343SOL    HW128928   5.812   5.004   5.079
 9343SOL    HW228929   5.721   5.012   4.944
 9344SOL     OW28930   4.938   6.471   1.322
 9344SOL    HW128931   4.925   6.379   1.360
 9344SOL    HW228932   4.977   6.531   1.392
 9345SOL     OW28933   6.872   3.324   0.802
 9345SOL    HW128934   6.942   3.279   0.857
 9345SOL    HW228935   6.827   3.395   0.856
 9346SOL     OW28936   5.554   6.958   0.612
 9346SOL    HW128937   5.560   6.863   0.580
 9346SOL    HW228938   5.508   6.960   0.701
 9347SOL     OW28939   1.879   6.854   1.393
 9347SOL    HW128940   1.885   6.882   1.297
 9347SOL    HW228941   1.851   6.932   1.449
 9348SOL     OW28942   3.151   4.852   6.721
 9348SOL    HW128943   3.066   4.889   6.684
 9348SOL    HW228944   3.156   4.754   6.702
 9349SOL     OW28945   1.480   6.845   2.656
 9349SOL    HW128946   1.553   6.882   2.714
 9349SOL    HW228947   1.497   6.747   2.641
 9350SOL     OW28948   0.849   2.162   6.323
 9350SOL    HW128949   0.788   2.187   6.398
 9350SOL    HW228950   0.805   2.182   6.236
 9351SOL     OW28951   3.502   2.074   6.462
 9351SOL    HW128952   3.408   2.107   6.451
 9351SOL    HW228953   3.545   2.121   6.539
 9352SOL     OW28954   2.446   5.195   6.023
 9352SOL    HW128955   2.402   5.282   6.044
 9352SOL    HW228956   2.378   5.127   5.998
 9353SOL     OW28957   6.266   0.250   1.186
 9353SOL    HW128958   6.309   0.307   1.116
 9353SOL    HW228959   6.167   0.261   1.182
 9354SOL     OW28960   6.817   2.368   6.497
 9354SOL    HW128961   6.880   2.415   6.435
 9354SOL    HW228962   6.760   2.305   6.445
 9355SOL     OW28963   0.214   1.254   4.786
 9355SOL    HW128964   0.304   1.286   4.816
 9355SOL    HW228965   0.183   1.307   4.707
 9356SOL     OW28966   4.638   6.637   2.128
 9356SOL    HW128967   4.592   6.564   2.077
 9356SOL    HW228968   4.610   6.725   2.091
 9357SOL     OW28969   0.941   1.804   6.864
 9357SOL    HW128970   0.906   1.897   6.876
 9357SOL    HW228971   0.932   1.753   6.950
 9358SOL     OW28972   0.933   3.456   1.893
 9358SOL    HW128973   0.895   3.489   1.980
 9358SOL    HW228974   0.978   3.532   1.847
 9359SOL     OW28975   1.405   0.098   5.588
 9359SOL    HW128976   1.462   0.078   5.508
 9359SOL    HW228977   1.462   0.138   5.660
 9360SOL     OW28978   0.899   0.244   6.531
 9360SOL    HW128979   0.983   0.255   6.586
 9360SOL    HW228980   0.912   0.286   6.442
 9361SOL     OW28981   1.992   6.072   4.151
 9361SOL    HW128982   1.985   6.011   4.230
 9361SOL    HW228983   2.059   6.035   4.087
 9362SOL     OW28984   1.779   0.031   2.278
 9362SOL    HW128985   1.850   6.985   2.285
 9362SOL    HW228986   1.756   0.045   2.182
 9363SOL     OW28987   2.581   4.918   2.179
 9363SOL    HW128988   2.580   4.949   2.085
 9363SOL    HW228989   2.537   4.986   2.238
 9364SOL     OW28990   1.366   2.060   1.096
 9364SOL    HW128991   1.391   2.087   1.189
 9364SOL    HW228992   1.448   2.031   1.047
 9365SOL     OW28993   3.177   2.147   4.178
 9365SOL    HW128994   3.215   2.150   4.271
 9365SOL    HW228995   3.087   2.190   4.177
 9366SOL     OW28996   4.032   5.257   0.734
 9366SOL    HW128997   4.032   5.330   0.802
 9366SOL    HW228998   3.940   5.219   0.725
 9367SOL     OW28999   6.784   0.780   1.637
 9367SOL    HW129000   6.766   0.701   1.696
 9367SOL    HW229001   6.728   0.774   1.555
 9368SOL     OW29002   3.483   0.572   2.624
 9368SOL    HW129003   3.475   0.473   2.637
 9368SOL    HW229004   3.411   0.618   2.675
 9369SOL     OW29005   2.613   5.375   6.980
 9369SOL    HW129006   2.656   5.352   6.892
 9369SOL    HW229007   2.565   5.462   6.971
 9370SOL     OW29008   4.523   1.573   4.309
 9370SOL    HW129009   4.456   1.602   4.241
 9370SOL    HW229010   4.476   1.541   4.391
 9371SOL     OW29011   4.541   5.581   1.114
 9371SOL    HW129012   4.605   5.505   1.119
 9371SOL    HW229013   4.479   5.568   1.037
 9372SOL     OW29014   4.478   6.207   1.400
 9372SOL    HW129015   4.570   6.201   1.360
 9372SOL    HW229016   4.473   6.288   1.459
 9373SOL     OW29017   0.040   2.151   0.699
 9373SOL    HW129018   0.076   2.216   0.632
 9373SOL    HW229019   7.022   2.202   0.774
 9374SOL     OW29020   0.230   5.354   6.078
 9374SOL    HW129021   0.316   5.369   6.126
 9374SOL    HW229022   0.192   5.265   6.103
 9375SOL     OW29023   0.353   0.912   0.078
 9375SOL    HW129024   0.293   0.989   0.102
 9375SOL    HW229025   0.309   0.856   0.009
 9376SOL     OW29026   2.127   3.910   1.739
 9376SOL    HW129027   2.129   3.886   1.836
 9376SOL    HW229028   2.032   3.913   1.706
 9377SOL     OW29029   1.818   0.737   3.921
 9377SOL    HW129030   1.882   0.812   3.907
 9377SOL    HW229031   1.823   0.674   3.844
 9378SOL     OW29032   3.283   0.721   4.233
 9378SOL    HW129033   3.267   0.787   4.159
 9378SOL    HW229034   3.199   0.708   4.285
 9379SOL     OW29035   4.064   6.283   4.384
 9379SOL    HW129036   4.138   6.291   4.317
 9379SOL    HW229037   4.096   6.228   4.462
 9380SOL     OW29038   5.142   5.787   6.998
 9380SOL    HW129039   5.187   5.716   6.942
 9380SOL    HW229040   5.086   5.743   0.043
 9381SOL     OW29041   5.877   1.622   5.124
 9381SOL    HW129042   5.953   1.573   5.081
 9381SOL    HW229043   5.881   1.719   5.098
 9382SOL     OW29044   3.188   5.817   5.030
 9382SOL    HW129045   3.103   5.807   4.978
 9382SOL    HW229046   3.259   5.857   4.972
 9383SOL     OW29047   5.501   4.653   2.588
 9383SOL    HW129048   5.599   4.640   2.606
 9383SOL    HW229049   5.482   4.751   2.579
 9384SOL     OW29050   2.500   0.762   2.184
 9384SOL    HW129051   2.431   0.789   2.251
 9384SOL    HW229052   2.521   0.840   2.125
 9385SOL     OW29053   4.812   1.777   3.436
 9385SOL    HW129054   4.728   1.815   3.473
 9385SOL    HW229055   4.864   1.848   3.390
 9386SOL     OW29056   4.731   6.574   6.819
 9386SOL    HW129057   4.788   6.558   6.900
 9386SOL    HW229058   4.729   6.491   6.763
 9387SOL     OW29059   3.006   2.265   0.568
 9387SOL    HW129060   2.985   2.342   0.507
 9387SOL    HW229061   2.920   2.225   0.601
 9388SOL     OW29062   2.195   6.022   5.105
 9388SOL    HW129063   2.222   5.926   5.113
 9388SOL    HW229064   2.271   6.081   5.132
 9389SOL     OW29065   2.693   5.024   1.632
 9389SOL    HW129066   2.593   5.019   1.630
 9389SOL    HW229067   2.728   4.955   1.694
 9390SOL     OW29068   5.158   5.253   4.609
 9390SOL    HW129069   5.179   5.177   4.671
 9390SOL    HW229070   5.081   5.228   4.550
 9391SOL     OW29071   1.301   5.057   4.362
 9391SOL    HW129072   1.234   5.128   4.342
 9391SOL    HW229073   1.261   4.992   4.427
 9392SOL     OW29074   5.153   4.218   3.101
 9392SOL    HW129075   5.236   4.165   3.082
 9392SOL    HW229076   5.098   4.225   3.017
 9393SOL     OW29077   2.701   6.472   6.455
 9393SOL    HW129078   2.642   6.409   6.504
 9393SOL    HW229079   2.796   6.456   6.481
 9394SOL     OW29080   3.460   0.857   0.156
 9394SOL    HW129081   3.377   0.910   0.139
 9394SOL    HW229082   3.534   0.892   0.099
 9395SOL     OW29083   2.159   1.515   0.572
 9395SOL    HW129084   2.073   1.530   0.523
 9395SOL    HW229085   2.148   1.543   0.667
 9396SOL     OW29086   0.556   6.559   6.768
 9396SOL    HW129087   0.557   6.526   6.862
 9396SOL    HW229088   0.484   6.627   6.758
 9397SOL     OW29089   3.363   0.755   5.139
 9397SOL    HW129090   3.361   0.834   5.077
 9397SOL    HW229091   3.423   0.685   5.102
 9398SOL     OW29092   0.531   1.762   0.329
 9398SOL    HW129093   0.479   1.798   0.252
 9398SOL    HW229094   0.629   1.770   0.310
 9399SOL     OW29095   1.222   3.001   4.378
 9399SOL    HW129096   1.191   2.998   4.282
 9399SOL    HW229097   1.160   3.058   4.431
 9400SOL     OW29098   5.735   1.192   0.822
 9400SOL    HW129099   5.745   1.142   0.736
 9400SOL    HW229100   5.764   1.287   0.809
 9401SOL     OW29101   0.547   2.351   3.762
 9401SOL    HW129102   0.619   2.351   3.831
 9401SOL    HW229103   0.527   2.257   3.735
 9402SOL     OW29104   2.319   6.517   3.828
 9402SOL    HW129105   2.332   6.503   3.926
 9402SOL    HW229106   2.268   6.602   3.813
 9403SOL     OW29107   6.031   2.715   2.231
 9403SOL    HW129108   5.999   2.628   2.266
 9403SOL    HW229109   6.021   2.717   2.132
 9404SOL     OW29110   2.023   2.911   0.827
 9404SOL    HW129111   1.939   2.955   0.861
 9404SOL    HW229112   2.003   2.865   0.741
 9405SOL     OW29113   6.972   5.695   5.388
 9405SOL    HW129114   6.986   5.727   5.482
 9405SOL    HW229115   6.925   5.607   5.390
 9406SOL     OW29116   0.900   2.806   6.797
 9406SOL    HW129117   0.856   2.895   6.806
 9406SOL    HW229118   0.861   2.758   6.718
 9407SOL     OW29119   1.176   5.295   5.416
 9407SOL    HW129120   1.195   5.203   5.448
 9407SOL    HW229121   1.113   5.341   5.479
 9408SOL     OW29122   0.514   3.676   4.661
 9408SOL    HW129123   0.568   3.692   4.578
 9408SOL    HW229124   0.431   3.624   4.637
 9409SOL     OW29125   6.440   4.350   2.923
 9409SOL    HW129126   6.533   4.379   2.902
 9409SOL    HW229127   6.412   4.388   3.011
 9410SOL     OW29128   3.562   0.977   0.610
 9410SOL    HW129129   3.509   1.062   0.603
 9410SOL    HW229130   3.502   0.899   0.594
 9411SOL     OW29131   2.955   3.663   3.013
 9411SOL    HW129132   2.992   3.752   2.985
 9411SOL    HW229133   2.930   3.611   2.932
 9412SOL     OW29134   5.933   6.173   1.251
 9412SOL    HW129135   5.835   6.154   1.252
 9412SOL    HW229136   5.950   6.259   1.203
 9413SOL     OW29137   4.574   4.325   2.637
 9413SOL    HW129138   4.630   4.316   2.555
 9413SOL    HW229139   4.596   4.250   2.700
 9414SOL     OW29140   1.770   1.935   3.206
 9414SOL    HW129141   1.843   1.888   3.255
 9414SOL    HW229142   1.796   1.945   3.109
 9415SOL     OW29143   4.666   1.433   1.970
 9415SOL    HW129144   4.703   1.366   2.034
 9415SOL    HW229145   4.694   1.525   1.997
 9416SOL     OW29146   5.717   5.197   5.541
 9416SOL    HW129147   5.811   5.226   5.561
 9416SOL    HW229148   5.701   5.107   5.581
 9417SOL     OW29149   3.367   5.225   2.333
 9417SOL    HW129150   3.436   5.202   2.401
 9417SOL    HW229151   3.314   5.303   2.365
 9418SOL     OW29152   3.719   1.386   5.140
 9418SOL    HW129153   3.785   1.381   5.216
 9418SOL    HW229154   3.757   1.341   5.060
 9419SOL     OW29155   1.707   2.910   6.240
 9419SOL    HW129156   1.722   2.984   6.174
 9419SOL    HW229157   1.611   2.882   6.237
 9420SOL     OW29158   5.960   4.038   6.410
 9420SOL    HW129159   5.959   4.115   6.346
 9420SOL    HW229160   5.866   4.016   6.436
 9421SOL     OW29161   4.177   6.222   6.373
 9421SOL    HW129162   4.125   6.288   6.319
 9421SOL    HW229163   4.242   6.271   6.431
 9422SOL     OW29164   1.959   6.056   5.847
 9422SOL    HW129165   1.994   6.150   5.847
 9422SOL    HW229166   1.974   6.015   5.937
 9423SOL     OW29167   4.439   4.571   2.686
 9423SOL    HW129168   4.392   4.552   2.772
 9423SOL    HW229169   4.500   4.495   2.663
 9424SOL     OW29170   5.876   6.934   4.167
 9424SOL    HW129171   5.935   6.888   4.101
 9424SOL    HW229172   5.920   6.936   4.256
 9425SOL     OW29173   6.750   4.561   1.178
 9425SOL    HW129174   6.692   4.596   1.251
 9425SOL    HW229175   6.703   4.488   1.129
 9426SOL     OW29176   0.164   2.281   6.363
 9426SOL    HW129177   0.189   2.304   6.270
 9426SOL    HW229178   0.246   2.268   6.418
 9427SOL     OW29179   4.627   4.676   2.498
 9427SOL    HW129180   4.553   4.671   2.565
 9427SOL    HW229181   4.593   4.651   2.408
 9428SOL     OW29182   0.760   5.716   5.629
 9428SOL    HW129183   0.666   5.748   5.642
 9428SOL    HW229184   0.805   5.772   5.560
 9429SOL     OW29185   2.633   2.446   4.629
 9429SOL    HW129186   2.668   2.366   4.678
 9429SOL    HW229187   2.700   2.520   4.633
 9430SOL     OW29188   1.556   1.810   4.705
 9430SOL    HW129189   1.569   1.717   4.670
 9430SOL    HW229190   1.458   1.824   4.724
 9431SOL     OW29191   0.715   4.462   5.400
 9431SOL    HW129192   0.621   4.482   5.373
 9431SOL    HW229193   0.744   4.527   5.470
 9432SOL     OW29194   6.893   1.208   3.365
 9432SOL    HW129195   6.844   1.155   3.435
 9432SOL    HW229196   6.990   1.184   3.366
 9433SOL     OW29197   4.117   6.066   1.766
 9433SOL    HW129198   4.020   6.047   1.781
 9433SOL    HW229199   4.172   6.001   1.818
 9434SOL     OW29200   4.729   5.494   4.225
 9434SOL    HW129201   4.708   5.415   4.167
 9434SOL    HW229202   4.647   5.550   4.238
 9435SOL     OW29203   7.004   3.696   1.360
 9435SOL    HW129204   0.032   3.633   1.304
 9435SOL    HW229205   6.938   3.645   1.414
 9436SOL     OW29206   2.385   0.995   3.076
 9436SOL    HW129207   2.304   1.036   3.034
 9436SOL    HW229208   2.466   1.020   3.024
 9437SOL     OW29209   5.421   0.422   4.995
 9437SOL    HW129210   5.493   0.437   5.063
 9437SOL    HW229211   5.341   0.478   5.018
 9438SOL     OW29212   4.233   6.326   2.659
 9438SOL    HW129213   4.199   6.416   2.633
 9438SOL    HW229214   4.229   6.264   2.581
 9439SOL     OW29215   1.694   3.817   0.926
 9439SOL    HW129216   1.781   3.769   0.941
 9439SOL    HW229217   1.665   3.804   0.831
 9440SOL     OW29218   2.052   5.280   3.160
 9440SOL    HW129219   2.090   5.190   3.185
 9440SOL    HW229220   1.954   5.281   3.181
 9441SOL     OW29221   0.052   6.851   4.464
 9441SOL    HW129222   0.131   6.793   4.489
 9441SOL    HW229223   0.055   6.935   4.517
 9442SOL     OW29224   5.927   3.049   0.778
 9442SOL    HW129225   5.840   3.049   0.729
 9442SOL    HW229226   5.977   3.133   0.760
 9443SOL     OW29227   2.135   4.496   2.241
 9443SOL    HW129228   2.063   4.560   2.215
 9443SOL    HW229229   2.094   4.411   2.273
 9444SOL     OW29230   1.320   4.473   6.169
 9444SOL    HW129231   1.241   4.415   6.192
 9444SOL    HW229232   1.366   4.500   6.253
 9445SOL     OW29233   0.233   1.586   4.578
 9445SOL    HW129234   0.272   1.495   4.570
 9445SOL    HW229235   0.297   1.653   4.540
 9446SOL     OW29236   6.308   3.771   4.336
 9446SOL    HW129237   6.396   3.728   4.317
 9446SOL    HW229238   6.255   3.712   4.398
 9447SOL     OW29239   4.929   4.203   1.902
 9447SOL    HW129240   4.876   4.264   1.844
 9447SOL    HW229241   4.983   4.257   1.967
 9448SOL     OW29242   5.970   1.250   6.035
 9448SOL    HW129243   6.049   1.236   5.976
 9448SOL    HW229244   5.916   1.327   6.002
 9449SOL     OW29245   5.224   6.789   2.305
 9449SOL    HW129246   5.238   6.884   2.276
 9449SOL    HW229247   5.149   6.786   2.372
 9450SOL     OW29248   1.159   6.256   2.593
 9450SOL    HW129249   1.188   6.194   2.666
 9450SOL    HW229250   1.059   6.266   2.596
 9451SOL     OW29251   3.916   4.793   6.647
 9451SOL    HW129252   3.969   4.748   6.719
 9451SOL    HW229253   3.846   4.729   6.613
 9452SOL     OW29254   5.998   4.361   6.662
 9452SOL    HW129255   6.065   4.434   6.674
 9452SOL    HW229256   5.909   4.400   6.639
 9453SOL     OW29257   5.013   5.132   1.491
 9453SOL    HW129258   4.995   5.120   1.393
 9453SOL    HW229259   5.103   5.095   1.512
 9454SOL     OW29260   6.188   4.641   0.392
 9454SOL    HW129261   6.258   4.636   0.321
 9454SOL    HW229262   6.232   4.638   0.482
 9455SOL     OW29263   3.553   1.471   1.757
 9455SOL    HW129264   3.496   1.502   1.681
 9455SOL    HW229265   3.523   1.380   1.786
 9456SOL     OW29266   6.962   2.577   3.081
 9456SOL    HW129267   6.921   2.490   3.055
 9456SOL    HW229268   6.904   2.652   3.050
 9457SOL     OW29269   6.397   6.715   5.118
 9457SOL    HW129270   6.327   6.763   5.066
 9457SOL    HW229271   6.375   6.617   5.122
 9458SOL     OW29272   6.603   3.616   6.871
 9458SOL    HW129273   6.568   3.592   6.962
 9458SOL    HW229274   6.558   3.699   6.838
 9459SOL     OW29275   4.794   4.627   5.429
 9459SOL    HW129276   4.837   4.646   5.517
 9459SOL    HW229277   4.695   4.619   5.441
 9460SOL     OW29278   0.844   2.998   2.841
 9460SOL    HW129279   0.830   2.945   2.925
 9460SOL    HW229280   0.770   3.063   2.829
 9461SOL     OW29281   1.546   1.853   1.629
 9461SOL    HW129282   1.472   1.786   1.635
 9461SOL    HW229283   1.528   1.929   1.691
 9462SOL     OW29284   0.287   1.288   4.252
 9462SOL    HW129285   0.203   1.340   4.240
 9462SOL    HW229286   0.291   1.214   4.185
 9463SOL     OW29287   5.743   4.167   1.538
 9463SOL    HW129288   5.816   4.224   1.577
 9463SOL    HW229289   5.765   4.071   1.552
 9464SOL     OW29290   1.376   0.787   2.037
 9464SOL    HW129291   1.451   0.802   2.102
 9464SOL    HW229292   1.289   0.815   2.079
 9465SOL     OW29293   6.641   4.908   0.941
 9465SOL    HW129294   6.696   4.961   1.005
 9465SOL    HW229295   6.550   4.947   0.935
 9466SOL     OW29296   3.922   4.052   5.518
 9466SOL    HW129297   4.020   4.069   5.528
 9466SOL    HW229298   3.875   4.139   5.500
 9467SOL     OW29299   1.787   3.110   0.271
 9467SOL    HW129300   1.720   3.041   0.245
 9467SOL    HW229301   1.772   3.193   0.218
 9468SOL     OW29302   6.086   1.743   0.865
 9468SOL    HW129303   6.109   1.730   0.962
 9468SOL    HW229304   5.986   1.747   0.855
 9469SOL     OW29305   6.859   6.538   1.360
 9469SOL    HW129306   6.946   6.581   1.337
 9469SOL    HW229307   6.833   6.474   1.288
 9470SOL     OW29308   3.536   3.644   6.832
 9470SOL    HW129309   3.600   3.610   6.901
 9470SOL    HW229310   3.471   3.707   6.875
 9471SOL     OW29311   6.275   2.588   4.896
 9471SOL    HW129312   6.216   2.646   4.839
 9471SOL    HW229313   6.236   2.581   4.988
 9472SOL     OW29314   1.614   3.238   5.868
 9472SOL    HW129315   1.652   3.328   5.891
 9472SOL    HW229316   1.644   3.171   5.935
 9473SOL     OW29317   2.402   3.991   1.171
 9473SOL    HW129318   2.325   4.054   1.161
 9473SOL    HW229319   2.375   3.900   1.140
 9474SOL     OW29320   5.698   4.128   1.107
 9474SOL    HW129321   5.716   4.153   1.012
 9474SOL    HW229322   5.695   4.211   1.163
 9475SOL     OW29323   5.438   4.326   6.165
 9475SOL    HW129324   5.407   4.401   6.224
 9475SOL    HW229325   5.361   4.292   6.111
 9476SOL     OW29326   4.293   3.930   0.499
 9476SOL    HW129327   4.266   3.863   0.569
 9476SOL    HW229328   4.393   3.934   0.493
 9477SOL     OW29329   2.231   4.403   0.166
 9477SOL    HW129330   2.296   4.345   0.215
 9477SOL    HW229331   2.177   4.455   0.232
 9478SOL     OW29332   5.718   3.661   5.898
 9478SOL    HW129333   5.722   3.645   5.799
 9478SOL    HW229334   5.694   3.757   5.914
 9479SOL     OW29335   3.842   0.551   2.225
 9479SOL    HW129336   3.894   0.582   2.305
 9479SOL    HW229337   3.860   0.613   2.149
 9480SOL     OW29338   6.208   1.029   0.935
 9480SOL    HW129339   6.272   1.105   0.926
 9480SOL    HW229340   6.115   1.062   0.916
 9481SOL     OW29341   4.184   0.118   2.898
 9481SOL    HW129342   4.259   0.125   2.963
 9481SOL    HW229343   4.103   0.079   2.943
 9482SOL     OW29344   6.456   6.135   6.823
 9482SOL    HW129345   6.383   6.185   6.779
 9482SOL    HW229346   6.423   6.044   6.851
 9483SOL     OW29347   6.770   6.668   0.286
 9483SOL    HW129348   6.759   6.586   0.343
 9483SOL    HW229349   6.719   6.656   0.201
 9484SOL     OW29350   3.542   5.828   3.966
 9484SOL    HW129351   3.525   5.773   4.048
 9484SOL    HW229352   3.551   5.924   3.992
 9485SOL     OW29353   0.442   1.278   6.436
 9485SOL    HW129354   0.420   1.346   6.366
 9485SOL    HW229355   0.446   1.187   6.394
 9486SOL     OW29356   5.712   5.987   0.125
 9486SOL    HW129357   5.620   6.006   0.160
 9486SOL    HW229358   5.709   5.979   0.025
 9487SOL     OW29359   3.434   3.620   2.950
 9487SOL    HW129360   3.387   3.686   3.008
 9487SOL    HW229361   3.405   3.527   2.974
 9488SOL     OW29362   1.773   0.881   1.394
 9488SOL    HW129363   1.688   0.903   1.347
 9488SOL    HW229364   1.797   0.786   1.377
 9489SOL     OW29365   5.484   3.157   0.022
 9489SOL    HW129366   5.576   3.139   7.013
 9489SOL    HW229367   5.428   3.075   0.012
 9490SOL     OW29368   5.283   3.578   4.860
 9490SOL    HW129369   5.276   3.549   4.955
 9490SOL    HW229370   5.254   3.674   4.852
 9491SOL     OW29371   5.404   6.550   2.519
 9491SOL    HW129372   5.404   6.576   2.422
 9491SOL    HW229373   5.413   6.633   2.575
 9492SOL     OW29374   5.141   2.840   3.519
 9492SOL    HW129375   5.104   2.750   3.496
 9492SOL    HW229376   5.226   2.856   3.469
 9493SOL     OW29377   3.971   5.800   1.205
 9493SOL    HW129378   3.935   5.708   1.211
 9493SOL    HW229379   3.953   5.849   1.290
 9494SOL     OW29380   5.850   1.868   2.208
 9494SOL    HW129381   5.779   1.937   2.197
 9494SOL    HW229382   5.909   1.892   2.286
 9495SOL     OW29383   0.107   2.434   1.361
 9495SOL    HW129384   0.111   2.526   1.398
 9495SOL    HW229385   0.195   2.389   1.370
 9496SOL     OW29386   5.984   1.943   1.229
 9496SOL    HW129387   5.937   1.961   1.316
 9496SOL    HW229388   5.926   1.887   1.170
 9497SOL     OW29389   4.734   4.457   4.514
 9497SOL    HW129390   4.805   4.414   4.571
 9497SOL    HW229391   4.658   4.485   4.572
 9498SOL     OW29392   0.467   5.811   3.997
 9498SOL    HW129393   0.460   5.712   4.009
 9498SOL    HW229394   0.375   5.851   3.997
 9499SOL     OW29395   6.116   5.756   5.145
 9499SOL    HW129396   6.128   5.681   5.080
 9499SOL    HW229397   6.020   5.785   5.145
 9500SOL     OW29398   3.252   2.053   0.933
 9500SOL    HW129399   3.260   2.041   0.834
 9500SOL    HW229400   3.341   2.042   0.975
 9501SOL     OW29401   1.693   3.588   4.955
 9501SOL    HW129402   1.693   3.491   4.979
 9501SOL    HW229403   1.668   3.598   4.858
 9502SOL     OW29404   5.420   4.960   4.456
 9502SOL    HW129405   5.396   4.865   4.475
 9502SOL    HW229406   5.400   5.016   4.536
 9503SOL     OW29407   6.270   1.158   0.535
 9503SOL    HW129408   6.184   1.159   0.586
 9503SOL    HW229409   6.288   1.250   0.499
 9504SOL     OW29410   6.096   5.454   2.116
 9504SOL    HW129411   6.110   5.553   2.116
 9504SOL    HW229412   6.063   5.424   2.026
 9505SOL     OW29413   4.294   4.576   5.712
 9505SOL    HW129414   4.269   4.556   5.807
 9505SOL    HW229415   4.217   4.619   5.665
 9506SOL     OW29416   2.961   0.800   1.419
 9506SOL    HW129417   2.917   0.787   1.330
 9506SOL    HW229418   3.019   0.722   1.439
 9507SOL     OW29419   4.950   0.004   2.178
 9507SOL    HW129420   4.980   0.094   2.145
 9507SOL    HW229421   4.976   7.017   2.274
 9508SOL     OW29422   4.455   2.158   2.763
 9508SOL    HW129423   4.379   2.099   2.734
 9508SOL    HW229424   4.511   2.111   2.831
 9509SOL     OW29425   5.373   0.605   3.099
 9509SOL    HW129426   5.457   0.552   3.110
 9509SOL    HW229427   5.310   0.584   3.174
 9510SOL     OW29428   1.224   2.852   3.651
 9510SOL    HW129429   1.151   2.814   3.709
 9510SOL    HW229430   1.203   2.948   3.631
 9511SOL     OW29431   0.652   1.701   1.167
 9511SOL    HW129432   0.582   1.635   1.192
 9511SOL    HW229433   0.672   1.760   1.245
 9512SOL     OW29434   6.383   2.073   1.073
 9512SOL    HW129435   6.350   2.003   1.010
 9512SOL    HW229436   6.479   2.092   1.053
 9513SOL     OW29437   4.581   4.195   5.742
 9513SOL    HW129438   4.640   4.121   5.773
 9513SOL    HW229439   4.490   4.159   5.721
 9514SOL     OW29440   3.658   2.890   6.579
 9514SOL    HW129441   3.732   2.955   6.597
 9514SOL    HW229442   3.692   2.797   6.591
 9515SOL     OW29443   0.843   5.839   3.172
 9515SOL    HW129444   0.767   5.775   3.164
 9515SOL    HW229445   0.809   5.932   3.163
 9516SOL     OW29446   0.172   4.643   6.753
 9516SOL    HW129447   0.186   4.548   6.726
 9516SOL    HW229448   0.114   4.689   6.686
 9517SOL     OW29449   0.474   6.160   1.439
 9517SOL    HW129450   0.416   6.111   1.505
 9517SOL    HW229451   0.565   6.173   1.479
 9518SOL     OW29452   1.406   0.673   1.169
 9518SOL    HW129453   1.338   0.643   1.103
 9518SOL    HW229454   1.426   0.599   1.233
 9519SOL     OW29455   1.199   3.530   5.569
 9519SOL    HW129456   1.270   3.495   5.630
 9519SOL    HW229457   1.161   3.614   5.607
 9520SOL     OW29458   4.662   0.332   1.736
 9520SOL    HW129459   4.751   0.375   1.753
 9520SOL    HW229460   4.657   0.244   1.783
 9521SOL     OW29461   5.189   5.256   3.619
 9521SOL    HW129462   5.192   5.253   3.719
 9521SOL    HW229463   5.156   5.169   3.583
 9522SOL     OW29464   3.776   6.449   0.167
 9522SOL    HW129465   3.761   6.548   0.165
 9522SOL    HW229466   3.752   6.413   0.258
 9523SOL     OW29467   2.254   6.176   5.798
 9523SOL    HW129468   2.319   6.115   5.753
 9523SOL    HW229469   2.205   6.229   5.729
 9524SOL     OW29470   4.383   2.207   0.776
 9524SOL    HW129471   4.352   2.148   0.851
 9524SOL    HW229472   4.320   2.200   0.699
 9525SOL     OW29473   3.745   0.104   5.770
 9525SOL    HW129474   3.685   0.047   5.827
 9525SOL    HW229475   3.691   0.149   5.699
 9526SOL     OW29476   4.806   5.817   2.053
 9526SOL    HW129477   4.872   5.750   2.019
 9526SOL    HW229478   4.781   5.879   1.979
 9527SOL     OW29479   6.163   2.116   1.253
 9527SOL    HW129480   6.238   2.087   1.193
 9527SOL    HW229481   6.082   2.060   1.236
 9528SOL     OW29482   6.460   0.648   1.888
 9528SOL    HW129483   6.387   0.598   1.934
 9528SOL    HW229484   6.420   0.713   1.823
 9529SOL     OW29485   1.328   3.595   4.607
 9529SOL    HW129486   1.355   3.560   4.517
 9529SOL    HW229487   1.282   3.522   4.658
 9530SOL     OW29488   1.680   2.681   4.037
 9530SOL    HW129489   1.697   2.772   4.074
 9530SOL    HW229490   1.606   2.685   3.970
 9531SOL     OW29491   2.604   6.201   3.178
 9531SOL    HW129492   2.626   6.187   3.274
 9531SOL    HW229493   2.534   6.135   3.150
 9532SOL     OW29494   2.626   0.807   1.216
 9532SOL    HW129495   2.614   0.894   1.264
 9532SOL    HW229496   2.707   0.812   1.158
 9533SOL     OW29497   1.398   0.215   4.810
 9533SOL    HW129498   1.418   0.238   4.905
 9533SOL    HW229499   1.327   0.276   4.775
 9534SOL     OW29500   4.434   2.064   4.255
 9534SOL    HW129501   4.474   2.150   4.224
 9534SOL    HW229502   4.506   1.995   4.264
 9535SOL     OW29503   2.546   2.203   4.768
 9535SOL    HW129504   2.633   2.193   4.817
 9535SOL    HW229505   2.540   2.134   4.696
 9536SOL     OW29506   3.187   6.815   6.425
 9536SOL    HW129507   3.235   6.882   6.368
 9536SOL    HW229508   3.222   6.724   6.407
 9537SOL     OW29509   2.657   6.722   0.519
 9537SOL    HW129510   2.700   6.634   0.535
 9537SOL    HW229511   2.577   6.732   0.578
 9538SOL     OW29512   5.747   3.681   4.114
 9538SOL    HW129513   5.712   3.775   4.111
 9538SOL    HW229514   5.814   3.673   4.188
 9539SOL     OW29515   0.196   4.357   0.739
 9539SOL    HW129516   0.124   4.421   0.764
 9539SOL    HW229517   0.280   4.380   0.787
 9540SOL     OW29518   5.416   3.375   5.448
 9540SOL    HW129519   5.450   3.353   5.540
 9540SOL    HW229520   5.388   3.471   5.445
 9541SOL     OW29521   0.129   1.219   3.429
 9541SOL    HW129522   0.199   1.193   3.361
 9541SOL    HW229523   0.161   1.297   3.482
 9542SOL     OW29524   4.816   4.237   4.351
 9542SOL    HW129525   4.766   4.323   4.364
 9542SOL    HW229526   4.909   4.247   4.385
 9543SOL     OW29527   5.733   1.991   1.757
 9543SOL    HW129528   5.659   2.058   1.747
 9543SOL    HW229529   5.696   1.899   1.745
 9544SOL     OW29530   3.611   1.852   1.897
 9544SOL    HW129531   3.570   1.943   1.905
 9544SOL    HW229532   3.696   1.858   1.844
 9545SOL     OW29533   0.763   0.230   4.807
 9545SOL    HW129534   0.674   0.219   4.853
 9545SOL    HW229535   0.772   0.324   4.774
 9546SOL     OW29536   2.127   4.197   1.482
 9546SOL    HW129537   2.117   4.249   1.567
 9546SOL    HW229538   2.036   4.173   1.446
 9547SOL     OW29539   6.206   5.622   3.327
 9547SOL    HW129540   6.116   5.663   3.343
 9547SOL    HW229541   6.235   5.642   3.234
 9548SOL     OW29542   4.655   6.777   2.775
 9548SOL    HW129543   4.662   6.681   2.747
 9548SOL    HW229544   4.690   6.786   2.869
 9549SOL     OW29545   2.669   5.592   0.650
 9549SOL    HW129546   2.743   5.575   0.585
 9549SOL    HW229547   2.621   5.506   0.669
 9550SOL     OW29548   1.758   1.074   6.830
 9550SOL    HW129549   1.674   1.110   6.872
 9550SOL    HW229550   1.809   1.148   6.788
 9551SOL     OW29551   1.494   6.270   5.876
 9551SOL    HW129552   1.513   6.362   5.909
 9551SOL    HW229553   1.574   6.212   5.893
 9552SOL     OW29554   0.395   5.494   3.308
 9552SOL    HW129555   0.432   5.409   3.269
 9552SOL    HW229556   0.432   5.507   3.400
 9553SOL     OW29557   5.355   4.431   5.696
 9553SOL    HW129558   5.282   4.466   5.754
 9553SOL    HW229559   5.443   4.446   5.741
 9554SOL     OW29560   2.007   1.424   1.384
 9554SOL    HW129561   2.056   1.458   1.464
 9554SOL    HW229562   1.963   1.500   1.337
 9555SOL     OW29563   6.633   2.590   6.486
 9555SOL    HW129564   6.708   2.533   6.518
 9555SOL    HW229565   6.577   2.618   6.564
 9556SOL     OW29566   6.669   1.766   0.931
 9556SOL    HW129567   6.590   1.715   0.965
 9556SOL    HW229568   6.638   1.836   0.867
 9557SOL     OW29569   5.432   2.395   1.621
 9557SOL    HW129570   5.508   2.448   1.582
 9557SOL    HW229571   5.408   2.432   1.710
 9558SOL     OW29572   5.640   4.583   1.857
 9558SOL    HW129573   5.659   4.497   1.905
 9558SOL    HW229574   5.650   4.570   1.759
 9559SOL     OW29575   6.300   3.090   2.795
 9559SOL    HW129576   6.307   3.171   2.854
 9559SOL    HW229577   6.235   3.025   2.834
 9560SOL     OW29578   3.773   1.865   5.192
 9560SOL    HW129579   3.712   1.803   5.142
 9560SOL    HW229580   3.863   1.823   5.203
 9561SOL     OW29581   3.518   6.391   6.772
 9561SOL    HW129582   3.531   6.307   6.824
 9561SOL    HW229583   3.604   6.417   6.728
 9562SOL     OW29584   5.931   4.589   3.710
 9562SOL    HW129585   5.943   4.619   3.805
 9562SOL    HW229586   6.006   4.623   3.654
 9563SOL     OW29587   0.216   6.222   6.816
 9563SOL    HW129588   0.130   6.273   6.830
 9563SOL    HW229589   0.229   6.205   6.718
 9564SOL     OW29590   2.149   0.285   6.444
 9564SOL    HW129591   2.077   0.351   6.466
 9564SOL    HW229592   2.151   0.271   6.346
 9565SOL     OW29593   3.840   5.772   4.133
 9565SOL    HW129594   3.749   5.745   4.102
 9565SOL    HW229595   3.871   5.708   4.205
 9566SOL     OW29596   3.440   4.851   5.877
 9566SOL    HW129597   3.521   4.891   5.919
 9566SOL    HW229598   3.396   4.789   5.942
 9567SOL     OW29599   6.231   5.458   5.103
 9567SOL    HW129600   6.179   5.507   5.032
 9567SOL    HW229601   6.313   5.418   5.062
 9568SOL     OW29602   5.305   3.948   6.414
 9568SOL    HW129603   5.348   4.035   6.439
 9568SOL    HW229604   5.363   3.872   6.443
 9569SOL     OW29605   5.389   6.594   2.248
 9569SOL    HW129606   5.485   6.621   2.238
 9569SOL    HW229607   5.333   6.675   2.260
 9570SOL     OW29608   0.872   0.801   6.636
 9570SOL    HW129609   0.836   0.894   6.626
 9570SOL    HW229610   0.823   0.754   6.709
 9571SOL     OW29611   2.552   2.881   0.050
 9571SOL    HW129612   2.609   2.908   0.128
 9571SOL    HW229613   2.463   2.927   0.056
 9572SOL     OW29614   0.187   3.972   0.763
 9572SOL    HW129615   0.097   4.001   0.795
 9572SOL    HW229616   0.257   4.034   0.796
 9573SOL     OW29617   5.895   1.186   2.120
 9573SOL    HW129618   5.974   1.177   2.059
 9573SOL    HW229619   5.813   1.205   2.065
 9574SOL     OW29620   2.721   1.951   3.839
 9574SOL    HW129621   2.785   1.878   3.861
 9574SOL    HW229622   2.682   1.989   3.923
 9575SOL     OW29623   4.670   1.049   2.411
 9575SOL    HW129624   4.662   0.966   2.356
 9575SOL    HW229625   4.710   1.026   2.500
 9576SOL     OW29626   4.157   2.755   5.701
 9576SOL    HW129627   4.160   2.722   5.607
 9576SOL    HW229628   4.093   2.832   5.708
 9577SOL     OW29629   0.322   6.235   3.538
 9577SOL    HW129630   0.333   6.212   3.634
 9577SOL    HW229631   0.387   6.307   3.513
 9578SOL     OW29632   6.112   4.256   2.189
 9578SOL    HW129633   6.161   4.201   2.122
 9578SOL    HW229634   6.158   4.247   2.278
 9579SOL     OW29635   1.731   6.424   2.900
 9579SOL    HW129636   1.768   6.507   2.941
 9579SOL    HW229637   1.730   6.351   2.968
 9580SOL     OW29638   4.431   3.387   5.556
 9580SOL    HW129639   4.488   3.392   5.474
 9580SOL    HW229640   4.391   3.477   5.575
 9581SOL     OW29641   1.147   5.394   5.704
 9581SOL    HW129642   1.116   5.455   5.778
 9581SOL    HW229643   1.096   5.308   5.709
 9582SOL     OW29644   4.298   4.641   3.905
 9582SOL    HW129645   4.382   4.590   3.888
 9582SOL    HW229646   4.297   4.674   3.999
 9583SOL     OW29647   2.053   4.842   1.915
 9583SOL    HW129648   2.018   4.751   1.937
 9583SOL    HW229649   2.127   4.835   1.848
 9584SOL     OW29650   5.448   5.354   0.001
 9584SOL    HW129651   5.507   5.386   6.952
 9584SOL    HW229652   5.498   5.289   0.058
 9585SOL     OW29653   0.999   0.245   3.426
 9585SOL    HW129654   1.078   0.256   3.486
 9585SOL    HW229655   0.947   0.330   3.424
 9586SOL     OW29656   5.381   2.939   2.473
 9586SOL    HW129657   5.293   2.955   2.428
 9586SOL    HW229658   5.446   3.010   2.446
 9587SOL     OW29659   4.831   6.295   2.353
 9587SOL    HW129660   4.921   6.251   2.347
 9587SOL    HW229661   4.773   6.263   2.278
 9588SOL     OW29662   7.019   0.682   3.601
 9588SOL    HW129663   6.971   0.615   3.544
 9588SOL    HW229664   0.091   0.681   3.578
 9589SOL     OW29665   2.973   1.950   4.812
 9589SOL    HW129666   2.899   2.016   4.805
 9589SOL    HW229667   2.936   1.860   4.835
 9590SOL     OW29668   0.744   4.937   4.396
 9590SOL    HW129669   0.684   4.858   4.405
 9590SOL    HW229670   0.726   5.002   4.470
 9591SOL     OW29671   1.228   4.663   2.540
 9591SOL    HW129672   1.180   4.751   2.541
 9591SOL    HW229673   1.310   4.670   2.484
 9592SOL     OW29674   4.726   5.935   1.610
 9592SOL    HW129675   4.732   5.871   1.534
 9592SOL    HW229676   4.640   5.985   1.605
 9593SOL     OW29677   2.285   2.836   3.351
 9593SOL    HW129678   2.289   2.906   3.422
 9593SOL    HW229679   2.323   2.750   3.385
 9594SOL     OW29680   5.884   6.993   1.277
 9594SOL    HW129681   5.877   0.067   1.292
 9594SOL    HW229682   5.794   6.957   1.250
 9595SOL     OW29683   1.276   4.644   4.187
 9595SOL    HW129684   1.310   4.606   4.273
 9595SOL    HW229685   1.342   4.626   4.114
 9596SOL     OW29686   5.321   5.465   2.427
 9596SOL    HW129687   5.225   5.464   2.457
 9596SOL    HW229688   5.357   5.558   2.434
 9597SOL     OW29689   1.753   4.555   0.534
 9597SOL    HW129690   1.781   4.642   0.494
 9597SOL    HW229691   1.834   4.502   0.558
 9598SOL     OW29692   1.085   5.586   5.960
 9598SOL    HW129693   1.157   5.651   5.985
 9598SOL    HW229694   1.098   5.500   6.009
 9599SOL     OW29695   4.167   1.655   4.458
 9599SOL    HW129696   4.228   1.683   4.531
 9599SOL    HW229697   4.188   1.561   4.431
 9600SOL     OW29698   2.104   5.981   6.942
 9600SOL    HW129699   2.028   6.018   6.889
 9600SOL    HW229700   2.189   6.024   6.911
 9601SOL     OW29701   0.584   6.978   6.513
 9601SOL    HW129702   0.486   6.994   6.517
 9601SOL    HW229703   0.629   0.006   6.585
 9602SOL     OW29704   0.310   5.287   6.779
 9602SOL    HW129705   0.294   5.385   6.769
 9602SOL    HW229706   0.226   5.242   6.809
 9603SOL     OW29707   1.102   4.874   3.208
 9603SOL    HW129708   1.086   4.787   3.162
 9603SOL    HW229709   1.058   4.873   3.298
 9604SOL     OW29710   6.884   0.036   0.224
 9604SOL    HW129711   6.953   6.992   0.248
 9604SOL    HW229712   6.929   0.124   0.210
 9605SOL     OW29713   2.508   5.618   6.975
 9605SOL    HW129714   2.420   5.602   6.931
 9605SOL    HW229715   2.510   5.710   7.013
 9606SOL     OW29716   6.543   0.262   5.607
 9606SOL    HW129717   6.566   0.188   5.544
 9606SOL    HW229718   6.444   0.262   5.624
 9607SOL     OW29719   7.016   1.746   2.305
 9607SOL    HW129720   6.939   1.685   2.287
 9607SOL    HW229721   7.013   1.823   2.241
 9608SOL     OW29722   6.627   6.943   2.389
 9608SOL    HW129723   6.537   6.938   2.345
 9608SOL    HW229724   6.696   6.965   2.320
 9609SOL     OW29725   1.549   2.124   3.582
 9609SOL    HW129726   1.616   2.052   3.597
 9609SOL    HW229727   1.546   2.147   3.485
 9610SOL     OW29728   3.821   0.883   6.036
 9610SOL    HW129729   3.909   0.853   6.073
 9610SOL    HW229730   3.768   0.802   6.009
 9611SOL     OW29731   5.932   5.812   1.339
 9611SOL    HW129732   6.013   5.848   1.293
 9611SOL    HW229733   5.872   5.888   1.366
 9612SOL     OW29734   5.318   3.540   2.921
 9612SOL    HW129735   5.313   3.513   3.017
 9612SOL    HW229736   5.228   3.531   2.878
 9613SOL     OW29737   6.161   6.811   5.299
 9613SOL    HW129738   6.249   6.782   5.263
 9613SOL    HW229739   6.108   6.731   5.328
 9614SOL     OW29740   2.976   2.741   1.718
 9614SOL    HW129741   3.072   2.713   1.712
 9614SOL    HW229742   2.917   2.660   1.714
 9615SOL     OW29743   0.335   5.958   3.642
 9615SOL    HW129744   0.373   5.866   3.638
 9615SOL    HW229745   0.273   5.972   3.565
 9616SOL     OW29746   1.764   2.838   1.643
 9616SOL    HW129747   1.773   2.937   1.634
 9616SOL    HW229748   1.744   2.815   1.738
 9617SOL     OW29749   0.028   2.917   2.429
 9617SOL    HW129750   0.059   2.888   2.338
 9617SOL    HW229751   6.961   2.955   2.422
 9618SOL     OW29752   4.474   4.188   0.764
 9618SOL    HW129753   4.375   4.181   0.751
 9618SOL    HW229754   4.514   4.097   0.772
 9619SOL     OW29755   1.196   6.643   1.535
 9619SOL    HW129756   1.173   6.591   1.452
 9619SOL    HW229757   1.167   6.738   1.524
 9620SOL     OW29758   3.700   2.052   6.857
 9620SOL    HW129759   3.703   1.952   6.860
 9620SOL    HW229760   3.605   2.082   6.846
 9621SOL     OW29761   0.222   0.879   1.810
 9621SOL    HW129762   0.219   0.979   1.808
 9621SOL    HW229763   0.232   0.848   1.904
 9622SOL     OW29764   7.011   5.461   6.271
 9622SOL    HW129765   0.069   5.410   6.250
 9622SOL    HW229766   7.006   5.542   6.212
 9623SOL     OW29767   3.679   6.218   5.645
 9623SOL    HW129768   3.685   6.316   5.665
 9623SOL    HW229769   3.628   6.204   5.561
 9624SOL     OW29770   4.198   5.310   5.112
 9624SOL    HW129771   4.101   5.299   5.129
 9624SOL    HW229772   4.226   5.248   5.038
 9625SOL     OW29773   5.046   4.092   6.368
 9625SOL    HW129774   4.976   4.056   6.429
 9625SOL    HW229775   5.132   4.043   6.383
 9626SOL     OW29776   2.516   2.296   6.772
 9626SOL    HW129777   2.602   2.329   6.732
 9626SOL    HW229778   2.454   2.373   6.784
 9627SOL     OW29779   0.378   5.214   0.453
 9627SOL    HW129780   0.470   5.223   0.413
 9627SOL    HW229781   0.342   5.124   0.432
 9628SOL     OW29782   6.845   1.688   6.272
 9628SOL    HW129783   6.796   1.623   6.330
 9628SOL    HW229784   6.781   1.734   6.211
 9629SOL     OW29785   0.146   6.160   3.968
 9629SOL    HW129786   0.207   6.176   3.890
 9629SOL    HW229787   0.056   6.200   3.950
 9630SOL     OW29788   5.876   1.517   5.961
 9630SOL    HW129789   5.966   1.558   5.943
 9630SOL    HW229790   5.822   1.519   5.877
 9631SOL     OW29791   4.422   6.580   0.809
 9631SOL    HW129792   4.472   6.594   0.723
 9631SOL    HW229793   4.458   6.499   0.856
 9632SOL     OW29794   2.693   4.994   2.579
 9632SOL    HW129795   2.645   4.915   2.616
 9632SOL    HW229796   2.786   4.997   2.616
 9633SOL     OW29797   3.263   2.938   3.509
 9633SOL    HW129798   3.315   2.919   3.426
 9633SOL    HW229799   3.194   3.007   3.490
 9634SOL     OW29800   4.832   4.732   3.316
 9634SOL    HW129801   4.834   4.716   3.217
 9634SOL    HW229802   4.751   4.787   3.339
 9635SOL     OW29803   0.851   5.125   3.612
 9635SOL    HW129804   0.777   5.192   3.612
 9635SOL    HW229805   0.885   5.112   3.705
 9636SOL     OW29806   5.721   3.955   4.065
 9636SOL    HW129807   5.664   4.017   4.119
 9636SOL    HW229808   5.687   3.951   3.971
 9637SOL     OW29809   1.330   3.541   0.101
 9637SOL    HW129810   1.400   3.469   0.101
 9637SOL    HW229811   1.311   3.569   0.007
 9638SOL     OW29812   5.990   5.483   6.272
 9638SOL    HW129813   6.066   5.520   6.218
 9638SOL    HW229814   5.987   5.384   6.262
 9639SOL     OW29815   4.338   1.823   0.978
 9639SOL    HW129816   4.302   1.915   0.970
 9639SOL    HW229817   4.347   1.799   1.075
 9640SOL     OW29818   4.303   0.539   3.607
 9640SOL    HW129819   4.237   0.472   3.573
 9640SOL    HW229820   4.254   0.620   3.641
 9641SOL     OW29821   6.706   2.786   3.825
 9641SOL    HW129822   6.642   2.799   3.900
 9641SOL    HW229823   6.793   2.751   3.860
 9642SOL     OW29824   0.904   1.370   4.702
 9642SOL    HW129825   0.936   1.301   4.767
 9642SOL    HW229826   0.969   1.374   4.625
 9643SOL     OW29827   5.490   5.049   3.831
 9643SOL    HW129828   5.463   5.143   3.849
 9643SOL    HW229829   5.575   5.049   3.777
 9644SOL     OW29830   0.616   5.286   3.595
 9644SOL    HW129831   0.694   5.340   3.566
 9644SOL    HW229832   0.545   5.346   3.632
 9645SOL     OW29833   0.958   5.074   6.218
 9645SOL    HW129834   0.885   5.109   6.277
 9645SOL    HW229835   1.026   5.026   6.274
 9646SOL     OW29836   3.866   5.860   0.529
 9646SOL    HW129837   3.904   5.919   0.457
 9646SOL    HW229838   3.856   5.767   0.494
 9647SOL     OW29839   5.993   6.590   3.028
 9647SOL    HW129840   5.955   6.619   2.940
 9647SOL    HW229841   6.082   6.632   3.041
 9648SOL     OW29842   3.252   1.793   0.838
 9648SOL    HW129843   3.341   1.804   0.794
 9648SOL    HW229844   3.223   1.880   0.878
 9649SOL     OW29845   0.037   5.397   0.806
 9649SOL    HW129846   0.062   5.300   0.800
 9649SOL    HW229847   6.977   5.406   0.858
 9650SOL     OW29848   0.825   4.923   3.824
 9650SOL    HW129849   0.860   4.845   3.772
 9650SOL    HW229850   0.900   4.964   3.876
 9651SOL     OW29851   3.951   2.089   6.746
 9651SOL    HW129852   3.861   2.081   6.790
 9651SOL    HW229853   3.958   2.021   6.673
 9652SOL     OW29854   0.575   4.251   0.686
 9652SOL    HW129855   0.548   4.228   0.593
 9652SOL    HW229856   0.620   4.340   0.686
 9653SOL     OW29857   4.860   4.318   5.775
 9653SOL    HW129858   4.855   4.237   5.716
 9653SOL    HW229859   4.783   4.378   5.756
 9654SOL     OW29860   3.610   3.514   3.341
 9654SOL    HW129861   3.664   3.534   3.423
 9654SOL    HW229862   3.594   3.599   3.291
 9655SOL     OW29863   4.469   1.563   0.953
 9655SOL    HW129864   4.451   1.661   0.942
 9655SOL    HW229865   4.460   1.539   1.050
 9656SOL     OW29866   5.410   4.223   6.473
 9656SOL    HW129867   5.385   4.298   6.412
 9656SOL    HW229868   5.359   4.231   6.559
 9657SOL     OW29869   5.347   4.583   4.044
 9657SOL    HW129870   5.253   4.560   4.021
 9657SOL    HW229871   5.395   4.613   3.961
 9658SOL     OW29872   4.788   1.667   2.053
 9658SOL    HW129873   4.881   1.642   2.081
 9658SOL    HW229874   4.753   1.740   2.111
 9659SOL     OW29875   2.752   2.745   6.415
 9659SOL    HW129876   2.836   2.794   6.439
 9659SOL    HW229877   2.692   2.806   6.363
 9660SOL     OW29878   1.692   6.551   1.572
 9660SOL    HW129879   1.670   6.487   1.645
 9660SOL    HW229880   1.789   6.542   1.548
 9661SOL     OW29881   3.978   3.942   1.303
 9661SOL    HW129882   4.020   4.027   1.271
 9661SOL    HW229883   4.040   3.897   1.368
 9662SOL     OW29884   5.604   6.548   6.505
 9662SOL    HW129885   5.569   6.563   6.412
 9662SOL    HW229886   5.649   6.631   6.537
 9663SOL     OW29887   0.954   5.253   2.748
 9663SOL    HW129888   0.885   5.306   2.797
 9663SOL    HW229889   0.910   5.198   2.677
 9664SOL     OW29890   3.652   4.904   2.139
 9664SOL    HW129891   3.606   4.837   2.079
 9664SOL    HW229892   3.604   4.908   2.226
 9665SOL     OW29893   6.686   4.995   5.833
 9665SOL    HW129894   6.691   4.998   5.933
 9665SOL    HW229895   6.618   4.928   5.805
 9666SOL     OW29896   5.381   4.020   0.282
 9666SOL    HW129897   5.380   4.045   0.379
 9666SOL    HW229898   5.330   4.088   0.229
 9667SOL     OW29899   5.740   6.259   0.358
 9667SOL    HW129900   5.792   6.229   0.278
 9667SOL    HW229901   5.669   6.324   0.329
 9668SOL     OW29902   1.492   0.903   5.954
 9668SOL    HW129903   1.404   0.920   6.000
 9668SOL    HW229904   1.482   0.826   5.891
 9669SOL     OW29905   2.798   0.197   0.541
 9669SOL    HW129906   2.862   0.235   0.608
 9669SOL    HW229907   2.811   0.243   0.453
 9670SOL     OW29908   0.613   0.280   0.463
 9670SOL    HW129909   0.584   0.376   0.465
 9670SOL    HW229910   0.704   0.271   0.505
 9671SOL     OW29911   0.739   5.185   6.716
 9671SOL    HW129912   0.814   5.123   6.690
 9671SOL    HW229913   0.652   5.137   6.706
 9672SOL     OW29914   1.147   3.802   4.510
 9672SOL    HW129915   1.203   3.720   4.513
 9672SOL    HW229916   1.122   3.822   4.415
 9673SOL     OW29917   2.081   3.700   0.040
 9673SOL    HW129918   2.042   3.684   0.131
 9673SOL    HW229919   2.164   3.646   0.029
 9674SOL     OW29920   2.025   6.346   4.049
 9674SOL    HW129921   2.053   6.262   4.095
 9674SOL    HW229922   1.934   6.334   4.008
 9675SOL     OW29923   6.111   3.538   5.703
 9675SOL    HW129924   6.190   3.487   5.737
 9675SOL    HW229925   6.106   3.627   5.749
 9676SOL     OW29926   0.675   2.956   6.407
 9676SOL    HW129927   0.632   3.010   6.480
 9676SOL    HW229928   0.737   3.015   6.354
 9677SOL     OW29929   6.362   5.227   2.568
 9677SOL    HW129930   6.332   5.312   2.611
 9677SOL    HW229931   6.320   5.218   2.478
 9678SOL     OW29932   3.434   3.838   5.136
 9678SOL    HW129933   3.342   3.841   5.175
 9678SOL    HW229934   3.445   3.911   5.069
 9679SOL     OW29935   1.521   0.903   4.227
 9679SOL    HW129936   1.582   0.946   4.294
 9679SOL    HW229937   1.566   0.823   4.188
 9680SOL     OW29938   4.620   0.087   1.866
 9680SOL    HW129939   4.677   0.010   1.896
 9680SOL    HW229940   4.586   0.137   1.946
 9681SOL     OW29941   1.074   2.422   1.962
 9681SOL    HW129942   1.162   2.460   1.932
 9681SOL    HW229943   1.080   2.397   2.058
 9682SOL     OW29944   5.120   6.408   6.306
 9682SOL    HW129945   5.085   6.483   6.249
 9682SOL    HW229946   5.205   6.373   6.266
 9683SOL     OW29947   3.150   6.203   3.569
 9683SOL    HW129948   3.162   6.289   3.519
 9683SOL    HW229949   3.239   6.163   3.588
 9684SOL     OW29950   6.817   3.530   5.198
 9684SOL    HW129951   6.862   3.444   5.176
 9684SOL    HW229952   6.789   3.576   5.113
 9685SOL     OW29953   3.187   4.427   1.544
 9685SOL    HW129954   3.242   4.355   1.586
 9685SOL    HW229955   3.221   4.517   1.574
 9686SOL     OW29956   6.574   1.043   5.777
 9686SOL    HW129957   6.648   1.053   5.710
 9686SOL    HW229958   6.489   1.020   5.729
 9687SOL     OW29959   4.744   0.999   3.124
 9687SOL    HW129960   4.792   0.913   3.110
 9687SOL    HW229961   4.776   1.066   3.057
 9688SOL     OW29962   0.808   4.902   1.750
 9688SOL    HW129963   0.826   4.965   1.826
 9688SOL    HW229964   0.749   4.946   1.683
 9689SOL     OW29965   2.208   6.075   0.982
 9689SOL    HW129966   2.130   6.092   0.921
 9689SOL    HW229967   2.220   5.977   0.995
 9690SOL     OW29968   6.971   4.732   4.496
 9690SOL    HW129969   0.015   4.660   4.487
 9690SOL    HW229970   6.990   4.786   4.578
 9691SOL     OW29971   2.809   3.460   1.694
 9691SOL    HW129972   2.835   3.430   1.786
 9691SOL    HW229973   2.884   3.513   1.653
 9692SOL     OW29974   5.147   4.519   0.698
 9692SOL    HW129975   5.181   4.581   0.769
 9692SOL    HW229976   5.147   4.425   0.733
 9693SOL     OW29977   4.314   3.043   5.326
 9693SOL    HW129978   4.399   3.008   5.287
 9693SOL    HW229979   4.255   2.966   5.351
 9694SOL     OW29980   3.298   0.117   1.892
 9694SOL    HW129981   3.347   0.106   1.806
 9694SOL    HW229982   3.220   0.055   1.895
 9695SOL     OW29983   0.938   2.912   3.941
 9695SOL    HW129984   0.864   2.920   3.874
 9695SOL    HW229985   1.002   2.840   3.912
 9696SOL     OW29986   5.535   2.499   3.970
 9696SOL    HW129987   5.533   2.545   3.881
 9696SOL    HW229988   5.552   2.401   3.956
 9697SOL     OW29989   0.131   6.627   1.310
 9697SOL    HW129990   0.130   6.724   1.286
 9697SOL    HW229991   0.173   6.574   1.236
 9698SOL     OW29992   6.994   3.062   2.026
 9698SOL    HW129993   7.018   3.159   2.035
 9698SOL    HW229994   7.020   3.013   2.110
 9699SOL     OW29995   2.163   5.780   0.999
 9699SOL    HW129996   2.075   5.820   1.025
 9699SOL    HW229997   2.196   5.722   1.074
 9700SOL     OW29998   5.217   0.239   5.910
 9700SOL    HW129999   5.163   0.270   5.988
 9700SOL    HW230000   5.301   0.293   5.905
 9701SOL     OW30001   4.901   4.143   6.843
 9701SOL    HW130002   4.913   4.044   6.848
 9701SOL    HW230003   4.958   4.187   6.912
 9702SOL     OW30004   4.061   3.841   2.369
 9702SOL    HW130005   4.069   3.913   2.437
 9702SOL    HW230006   4.085   3.876   2.279
 9703SOL     OW30007   6.337   4.712   3.990
 9703SOL    HW130008   6.418   4.668   4.028
 9703SOL    HW230009   6.358   4.747   3.899
 9704SOL     OW30010   1.295   4.481   2.749
 9704SOL    HW130011   1.279   4.529   2.662
 9704SOL    HW230012   1.362   4.532   2.803
 9705SOL     OW30013   0.523   2.675   5.786
 9705SOL    HW130014   0.500   2.603   5.851
 9705SOL    HW230015   0.620   2.668   5.762
 9706SOL     OW30016   0.573   1.390   2.646
 9706SOL    HW130017   0.513   1.456   2.690
 9706SOL    HW230018   0.524   1.346   2.570
 9707SOL     OW30019   0.603   4.807   2.888
 9707SOL    HW130020   0.606   4.888   2.945
 9707SOL    HW230021   0.529   4.746   2.919
 9708SOL     OW30022   2.587   0.437   2.262
 9708SOL    HW130023   2.603   0.343   2.234
 9708SOL    HW230024   2.673   0.489   2.258
 9709SOL     OW30025   5.471   2.119   1.716
 9709SOL    HW130026   5.409   2.123   1.794
 9709SOL    HW230027   5.469   2.206   1.667
 9710SOL     OW30028   5.885   5.517   4.459
 9710SOL    HW130029   5.812   5.481   4.517
 9710SOL    HW230030   5.900   5.456   4.381
 9711SOL     OW30031   3.597   1.454   6.902
 9711SOL    HW130032   3.592   1.411   6.992
 9711SOL    HW230033   3.534   1.409   6.840
 9712SOL     OW30034   5.831   1.014   6.774
 9712SOL    HW130035   5.831   0.940   6.842
 9712SOL    HW230036   5.752   1.002   6.713
 9713SOL     OW30037   2.433   6.742   2.511
 9713SOL    HW130038   2.402   6.732   2.417
 9713SOL    HW230039   2.355   6.728   2.573
 9714SOL     OW30040   2.224   4.242   4.386
 9714SOL    HW130041   2.182   4.160   4.347
 9714SOL    HW230042   2.242   4.227   4.483
 9715SOL     OW30043   6.466   3.342   6.167
 9715SOL    HW130044   6.435   3.256   6.127
 9715SOL    HW230045   6.559   3.361   6.135
 9716SOL     OW30046   2.628   5.425   0.256
 9716SOL    HW130047   2.530   5.409   0.248
 9716SOL    HW230048   2.675   5.392   0.174
 9717SOL     OW30049   3.493   1.954   5.306
 9717SOL    HW130050   3.496   1.907   5.218
 9717SOL    HW230051   3.521   2.049   5.294
 9718SOL     OW30052   4.438   2.256   5.710
 9718SOL    HW130053   4.464   2.277   5.805
 9718SOL    HW230054   4.339   2.249   5.704
 9719SOL     OW30055   5.320   6.686   6.040
 9719SOL    HW130056   5.321   6.777   6.000
 9719SOL    HW230057   5.226   6.662   6.066
 9720SOL     OW30058   1.956   3.272   2.642
 9720SOL    HW130059   1.859   3.248   2.639
 9720SOL    HW230060   1.991   3.282   2.549
 9721SOL     OW30061   1.150   1.065   1.058
 9721SOL    HW130062   1.114   1.157   1.071
 9721SOL    HW230063   1.181   1.029   1.145
 9722SOL     OW30064   3.913   2.248   5.348
 9722SOL    HW130065   3.889   2.175   5.284
 9722SOL    HW230066   3.840   2.316   5.349
 9723SOL     OW30067   6.880   0.448   5.398
 9723SOL    HW130068   6.968   0.469   5.354
 9723SOL    HW230069   6.849   0.528   5.448
 9724SOL     OW30070   1.372   4.589   0.423
 9724SOL    HW130071   1.430   4.629   0.494
 9724SOL    HW230072   1.398   4.494   0.408
 9725SOL     OW30073   4.409   4.769   4.688
 9725SOL    HW130074   4.354   4.793   4.768
 9725SOL    HW230075   4.363   4.801   4.606
 9726SOL     OW30076   0.244   0.380   3.696
 9726SOL    HW130077   0.331   0.405   3.652
 9726SOL    HW230078   0.221   0.448   3.766
 9727SOL     OW30079   6.459   2.152   1.869
 9727SOL    HW130080   6.446   2.249   1.886
 9727SOL    HW230081   6.543   2.121   1.913
 9728SOL     OW30082   5.235   2.177   4.082
 9728SOL    HW130083   5.138   2.203   4.084
 9728SOL    HW230084   5.291   2.260   4.073
 9729SOL     OW30085   7.014   4.915   3.122
 9729SOL    HW130086   7.003   5.013   3.133
 9729SOL    HW230087   0.062   4.882   3.182
 9730SOL     OW30088   1.088   4.555   3.108
 9730SOL    HW130089   1.118   4.593   3.021
 9730SOL    HW230090   0.994   4.524   3.101
 9731SOL     OW30091   5.304   2.961   1.780
 9731SOL    HW130092   5.363   3.042   1.773
 9731SOL    HW230093   5.272   2.936   1.689
 9732SOL     OW30094   1.031   3.819   2.804
 9732SOL    HW130095   1.108   3.756   2.814
 9732SOL    HW230096   0.945   3.767   2.806
 9733SOL     OW30097   6.002   5.160   2.065
 9733SOL    HW130098   5.993   5.245   2.117
 9733SOL    HW230099   5.961   5.172   1.975
 9734SOL     OW30100   5.314   5.163   6.156
 9734SOL    HW130101   5.385   5.105   6.194
 9734SOL    HW230102   5.258   5.110   6.092
 9735SOL     OW30103   0.236   2.660   0.879
 9735SOL    HW130104   0.327   2.701   0.885
 9735SOL    HW230105   0.236   2.570   0.923
 9736SOL     OW30106   4.905   2.133   4.857
 9736SOL    HW130107   4.828   2.189   4.888
 9736SOL    HW230108   4.933   2.163   4.765
 9737SOL     OW30109   5.939   2.921   4.001
 9737SOL    HW130110   5.926   3.020   3.998
 9737SOL    HW230111   5.938   2.884   3.908
 9738SOL     OW30112   2.264   6.534   1.846
 9738SOL    HW130113   2.219   6.552   1.934
 9738SOL    HW230114   2.257   6.437   1.825
 9739SOL     OW30115   5.985   6.823   0.821
 9739SOL    HW130116   5.937   6.738   0.802
 9739SOL    HW230117   5.970   6.888   0.747
 9740SOL     OW30118   6.268   0.934   2.385
 9740SOL    HW130119   6.205   0.945   2.463
 9740SOL    HW230120   6.349   0.990   2.400
 9741SOL     OW30121   2.031   2.167   4.455
 9741SOL    HW130122   2.001   2.072   4.440
 9741SOL    HW230123   2.130   2.168   4.471
 9742SOL     OW30124   3.658   1.894   6.170
 9742SOL    HW130125   3.562   1.869   6.187
 9742SOL    HW230126   3.717   1.826   6.213
 9743SOL     OW30127   5.988   4.018   4.146
 9743SOL    HW130128   6.038   3.984   4.225
 9743SOL    HW230129   5.909   3.959   4.129
 9744SOL     OW30130   1.948   1.844   2.536
 9744SOL    HW130131   1.998   1.757   2.541
 9744SOL    HW230132   1.936   1.869   2.440
 9745SOL     OW30133   0.318   0.865   6.096
 9745SOL    HW130134   0.357   0.794   6.037
 9745SOL    HW230135   0.261   0.926   6.041
 9746SOL     OW30136   3.499   5.870   6.104
 9746SOL    HW130137   3.444   5.808   6.048
 9746SOL    HW230138   3.578   5.901   6.051
 9747SOL     OW30139   3.080   1.414   2.924
 9747SOL    HW130140   3.009   1.388   2.858
 9747SOL    HW230141   3.168   1.378   2.894
 9748SOL     OW30142   1.471   1.338   3.043
 9748SOL    HW130143   1.373   1.354   3.034
 9748SOL    HW230144   1.515   1.418   3.082
 9749SOL     OW30145   6.941   0.197   1.756
 9749SOL    HW130146   6.936   0.210   1.656
 9749SOL    HW230147   0.010   0.209   1.787
 9750SOL     OW30148   5.870   2.746   4.923
 9750SOL    HW130149   5.826   2.658   4.905
 9750SOL    HW230150   5.807   2.804   4.976
 9751SOL     OW30151   3.614   6.813   1.475
 9751SOL    HW130152   3.583   6.797   1.569
 9751SOL    HW230153   3.602   6.909   1.452
 9752SOL     OW30154   3.054   2.667   0.235
 9752SOL    HW130155   3.051   2.767   0.238
 9752SOL    HW230156   3.030   2.636   0.143
 9753SOL     OW30157   6.325   6.462   5.127
 9753SOL    HW130158   6.402   6.421   5.175
 9753SOL    HW230159   6.330   6.438   5.030
 9754SOL     OW30160   3.063   1.306   2.216
 9754SOL    HW130161   3.156   1.296   2.250
 9754SOL    HW230162   3.064   1.323   2.118
 9755SOL     OW30163   3.331   3.951   0.436
 9755SOL    HW130164   3.346   3.881   0.366
 9755SOL    HW230165   3.409   4.014   0.437
 9756SOL     OW30166   6.047   0.296   5.484
 9756SOL    HW130167   6.024   0.212   5.534
 9756SOL    HW230168   5.989   0.302   5.402
 9757SOL     OW30169   5.260   3.928   4.395
 9757SOL    HW130170   5.252   3.893   4.301
 9757SOL    HW230171   5.238   4.025   4.396
 9758SOL     OW30172   2.432   1.151   2.365
 9758SOL    HW130173   2.476   1.077   2.415
 9758SOL    HW230174   2.412   1.226   2.428
 9759SOL     OW30175   6.758   1.800   1.641
 9759SOL    HW130176   6.669   1.837   1.666
 9759SOL    HW230177   6.830   1.858   1.678
 9760SOL     OW30178   4.626   0.253   0.296
 9760SOL    HW130179   4.541   0.272   0.248
 9760SOL    HW230180   4.684   0.334   0.297
 9761SOL     OW30181   1.297   2.881   1.343
 9761SOL    HW130182   1.365   2.852   1.277
 9761SOL    HW230183   1.300   2.822   1.424
 9762SOL     OW30184   2.841   1.655   5.383
 9762SOL    HW130185   2.768   1.612   5.437
 9762SOL    HW230186   2.901   1.584   5.346
 9763SOL     OW30187   6.345   2.219   1.621
 9763SOL    HW130188   6.271   2.286   1.624
 9763SOL    HW230189   6.380   2.202   1.713
 9764SOL     OW30190   0.245   2.062   2.923
 9764SOL    HW130191   0.154   2.044   2.887
 9764SOL    HW230192   0.313   2.046   2.852
 9765SOL     OW30193   6.741   0.333   1.885
 9765SOL    HW130194   6.824   0.296   1.844
 9765SOL    HW230195   6.737   0.432   1.868
 9766SOL     OW30196   1.628   2.284   3.013
 9766SOL    HW130197   1.554   2.220   3.036
 9766SOL    HW230198   1.716   2.239   3.023
 9767SOL     OW30199   2.530   1.354   5.045
 9767SOL    HW130200   2.590   1.427   5.014
 9767SOL    HW230201   2.437   1.371   5.014
 9768SOL     OW30202   5.660   3.005   0.645
 9768SOL    HW130203   5.705   2.941   0.582
 9768SOL    HW230204   5.610   3.074   0.592
 9769SOL     OW30205   3.214   1.625   5.358
 9769SOL    HW130206   3.245   1.672   5.441
 9769SOL    HW230207   3.231   1.684   5.279
 9770SOL     OW30208   1.885   2.931   5.628
 9770SOL    HW130209   1.920   2.937   5.534
 9770SOL    HW230210   1.947   2.875   5.683
 9771SOL     OW30211   3.620   0.325   1.693
 9771SOL    HW130212   3.579   0.397   1.748
 9771SOL    HW230213   3.548   0.269   1.651
 9772SOL     OW30214   1.088   0.691   1.579
 9772SOL    HW130215   1.094   0.654   1.672
 9772SOL    HW230216   1.110   0.620   1.513
 9773SOL     OW30217   5.621   5.453   2.290
 9773SOL    HW130218   5.573   5.533   2.326
 9773SOL    HW230219   5.556   5.378   2.277
 9774SOL     OW30220   1.630   4.637   4.721
 9774SOL    HW130221   1.611   4.584   4.804
 9774SOL    HW230222   1.669   4.725   4.746
 9775SOL     OW30223   2.510   1.300   3.207
 9775SOL    HW130224   2.528   1.398   3.198
 9775SOL    HW230225   2.513   1.274   3.304
 9776SOL     OW30226   2.743   4.868   0.773
 9776SOL    HW130227   2.727   4.916   0.687
 9776SOL    HW230228   2.810   4.794   0.759
 9777SOL     OW30229   4.413   0.931   5.510
 9777SOL    HW130230   4.343   0.889   5.567
 9777SOL    HW230231   4.465   0.998   5.563
 9778SOL     OW30232   1.287   4.294   3.539
 9778SOL    HW130233   1.364   4.323   3.597
 9778SOL    HW230234   1.288   4.347   3.454
 9779SOL     OW30235   2.736   1.199   3.445
 9779SOL    HW130236   2.820   1.216   3.393
 9779SOL    HW230237   2.758   1.148   3.528
 9780SOL     OW30238   0.850   2.728   2.031
 9780SOL    HW130239   0.916   2.783   2.083
 9780SOL    HW230240   0.893   2.694   1.948
 9781SOL     OW30241   1.581   1.797   2.344
 9781SOL    HW130242   1.553   1.702   2.345
 9781SOL    HW230243   1.545   1.843   2.425
 9782SOL     OW30244   0.414   2.138   0.670
 9782SOL    HW130245   0.452   2.098   0.587
 9782SOL    HW230246   0.315   2.148   0.661
 9783SOL     OW30247   4.155   1.437   2.886
 9783SOL    HW130248   4.152   1.433   2.985
 9783SOL    HW230249   4.165   1.345   2.848
 9784SOL     OW30250   2.263   1.429   6.310
 9784SOL    HW130251   2.292   1.361   6.242
 9784SOL    HW230252   2.325   1.427   6.388
 9785SOL     OW30253   0.382   3.939   4.539
 9785SOL    HW130254   0.402   3.929   4.636
 9785SOL    HW230255   0.284   3.933   4.525
 9786SOL     OW30256   2.203   4.431   6.641
 9786SOL    HW130257   2.128   4.432   6.707
 9786SOL    HW230258   2.263   4.354   6.659
 9787SOL     OW30259   2.999   3.774   2.644
 9787SOL    HW130260   2.941   3.693   2.659
 9787SOL    HW230261   3.004   3.793   2.546
 9788SOL     OW30262   3.969   6.747   2.069
 9788SOL    HW130263   4.046   6.810   2.073
 9788SOL    HW230264   3.966   6.702   1.980
 9789SOL     OW30265   4.018   1.745   6.837
 9789SOL    HW130266   4.041   1.781   6.747
 9789SOL    HW230267   4.055   1.653   6.847
 9790SOL     OW30268   5.784   5.811   4.368
 9790SOL    HW130269   5.768   5.893   4.313
 9790SOL    HW230270   5.870   5.819   4.417
 9791SOL     OW30271   0.807   0.303   1.764
 9791SOL    HW130272   0.816   0.387   1.709
 9791SOL    HW230273   0.728   0.251   1.732
 9792SOL     OW30274   3.970   4.775   0.786
 9792SOL    HW130275   4.034   4.852   0.777
 9792SOL    HW230276   4.003   4.698   0.730
 9793SOL     OW30277   5.876   1.090   3.312
 9793SOL    HW130278   5.780   1.118   3.316
 9793SOL    HW230279   5.927   1.154   3.255
 9794SOL     OW30280   4.241   4.797   4.476
 9794SOL    HW130281   4.268   4.703   4.455
 9794SOL    HW230282   4.141   4.804   4.472
 9795SOL     OW30283   1.435   3.513   2.943
 9795SOL    HW130284   1.363   3.575   2.910
 9795SOL    HW230285   1.394   3.425   2.967
 9796SOL     OW30286   3.244   4.124   4.038
 9796SOL    HW130287   3.271   4.118   4.134
 9796SOL    HW230288   3.161   4.072   4.023
 9797SOL     OW30289   2.572   5.157   0.099
 9797SOL    HW130290   2.588   5.246   0.056
 9797SOL    HW230291   2.480   5.156   0.138
 9798SOL     OW30292   6.805   4.043   6.558
 9798SOL    HW130293   6.884   4.040   6.619
 9798SOL    HW230294   6.762   3.953   6.555
 9799SOL     OW30295   3.222   0.243   6.682
 9799SOL    HW130296   3.222   0.144   6.695
 9799SOL    HW230297   3.225   0.263   6.584
 9800SOL     OW30298   6.987   3.129   4.188
 9800SOL    HW130299   7.014   3.156   4.280
 9800SOL    HW230300   0.041   3.088   4.141
 9801SOL     OW30301   5.760   6.437   0.576
 9801SOL    HW130302   5.664   6.450   0.600
 9801SOL    HW230303   5.767   6.372   0.500
 9802SOL     OW30304   4.119   3.940   0.278
 9802SOL    HW130305   4.169   3.923   0.363
 9802SOL    HW230306   4.104   3.854   0.230
 9803SOL     OW30307   0.914   3.169   6.342
 9803SOL    HW130308   0.968   3.090   6.369
 9803SOL    HW230309   0.915   3.238   6.415
 9804SOL     OW30310   0.800   5.242   2.415
 9804SOL    HW130311   0.804   5.150   2.377
 9804SOL    HW230312   0.727   5.246   2.483
 9805SOL     OW30313   0.527   5.722   3.752
 9805SOL    HW130314   0.481   5.782   3.817
 9805SOL    HW230315   0.614   5.691   3.790
 9806SOL     OW30316   3.936   1.822   0.219
 9806SOL    HW130317   3.847   1.865   0.231
 9806SOL    HW230318   4.003   1.891   0.192
 9807SOL     OW30319   3.844   2.969   2.980
 9807SOL    HW130320   3.854   2.895   2.914
 9807SOL    HW230321   3.906   3.044   2.957
 9808SOL     OW30322   3.995   5.700   2.364
 9808SOL    HW130323   3.910   5.735   2.324
 9808SOL    HW230324   3.983   5.605   2.393
 9809SOL     OW30325   6.401   3.415   0.541
 9809SOL    HW130326   6.485   3.445   0.496
 9809SOL    HW230327   6.423   3.373   0.629
 9810SOL     OW30328   3.077   1.906   0.041
 9810SOL    HW130329   3.121   1.952   0.118
 9810SOL    HW230330   3.146   1.874   7.001
 9811SOL     OW30331   5.906   3.668   4.328
 9811SOL    HW130332   5.892   3.622   4.416
 9811SOL    HW230333   5.967   3.746   4.340
 9812SOL     OW30334   3.321   6.139   5.807
 9812SOL    HW130335   3.406   6.170   5.850
 9812SOL    HW230336   3.341   6.065   5.742
 9813SOL     OW30337   5.215   0.701   1.946
 9813SOL    HW130338   5.234   0.706   2.044
 9813SOL    HW230339   5.269   0.770   1.898
 9814SOL     OW30340   5.759   1.224   0.259
 9814SOL    HW130341   5.803   1.288   0.322
 9814SOL    HW230342   5.728   1.144   0.310
 9815SOL     OW30343   4.674   2.717   4.382
 9815SOL    HW130344   4.697   2.803   4.428
 9815SOL    HW230345   4.613   2.663   4.440
 9816SOL     OW30346   1.981   0.537   1.256
 9816SOL    HW130347   1.930   0.516   1.339
 9816SOL    HW230348   2.066   0.583   1.280
 9817SOL     OW30349   6.640   6.770   2.876
 9817SOL    HW130350   6.670   6.690   2.929
 9817SOL    HW230351   6.617   6.742   2.783
 9818SOL     OW30352   5.669   2.862   5.077
 9818SOL    HW130353   5.659   2.849   5.175
 9818SOL    HW230354   5.641   2.955   5.052
 9819SOL     OW30355   4.258   0.759   2.707
 9819SOL    HW130356   4.159   0.747   2.706
 9819SOL    HW230357   4.282   0.849   2.673
 9820SOL     OW30358   4.405   3.169   5.716
 9820SOL    HW130359   4.430   3.240   5.650
 9820SOL    HW230360   4.440   3.080   5.685
 9821SOL     OW30361   6.325   5.173   0.033
 9821SOL    HW130362   6.408   5.228   0.023
 9821SOL    HW230363   6.247   5.232   0.048
 9822SOL     OW30364   0.584   6.982   2.185
 9822SOL    HW130365   0.654   6.955   2.251
 9822SOL    HW230366   0.529   0.032   2.223
 9823SOL     OW30367   3.829   0.576   1.877
 9823SOL    HW130368   3.751   0.550   1.934
 9823SOL    HW230369   3.801   0.576   1.781
 9824SOL     OW30370   1.238   3.833   5.925
 9824SOL    HW130371   1.148   3.816   5.965
 9824SOL    HW230372   1.237   3.921   5.877
 9825SOL     OW30373   3.928   5.236   4.827
 9825SOL    HW130374   4.015   5.188   4.834
 9825SOL    HW230375   3.943   5.326   4.786
 9826SOL     OW30376   5.164   0.575   5.988
 9826SOL    HW130377   5.090   0.599   6.051
 9826SOL    HW230378   5.244   0.547   6.041
 9827SOL     OW30379   1.530   3.907   4.235
 9827SOL    HW130380   1.522   3.819   4.188
 9827SOL    HW230381   1.531   3.891   4.334
 9828SOL     OW30382   3.458   3.230   6.799
 9828SOL    HW130383   3.437   3.318   6.756
 9828SOL    HW230384   3.438   3.236   6.897
 9829SOL     OW30385   2.924   4.536   0.303
 9829SOL    HW130386   2.917   4.600   0.226
 9829SOL    HW230387   3.008   4.553   0.353
 9830SOL     OW30388   5.908   0.578   1.001
 9830SOL    HW130389   5.859   0.507   0.952
 9830SOL    HW230390   5.932   0.653   0.939
 9831SOL     OW30391   6.158   6.995   0.935
 9831SOL    HW130392   6.120   6.912   0.893
 9831SOL    HW230393   6.213   6.969   1.014
 9832SOL     OW30394   4.336   4.361   0.976
 9832SOL    HW130395   4.367   4.337   0.884
 9832SOL    HW230396   4.403   4.423   1.018
 9833SOL     OW30397   3.696   3.727   5.239
 9833SOL    HW130398   3.603   3.763   5.232
 9833SOL    HW230399   3.733   3.748   5.330
 9834SOL     OW30400   0.744   3.467   4.389
 9834SOL    HW130401   0.775   3.512   4.473
 9834SOL    HW230402   0.810   3.396   4.363
 9835SOL     OW30403   5.309   1.743   4.074
 9835SOL    HW130404   5.301   1.834   4.033
 9835SOL    HW230405   5.222   1.719   4.116
 9836SOL     OW30406   4.950   5.406   3.314
 9836SOL    HW130407   5.015   5.449   3.377
 9836SOL    HW230408   4.920   5.472   3.246
 9837SOL     OW30409   2.175   6.264   4.302
 9837SOL    HW130410   2.123   6.180   4.286
 9837SOL    HW230411   2.126   6.322   4.368
 9838SOL     OW30412   0.548   5.592   6.081
 9838SOL    HW130413   0.617   5.636   6.138
 9838SOL    HW230414   0.591   5.518   6.028
 9839SOL     OW30415   6.981   1.664   1.968
 9839SOL    HW130416   0.044   1.706   1.986
 9839SOL    HW230417   6.988   1.565   1.980
 9840SOL     OW30418   6.985   0.654   1.388
 9840SOL    HW130419   0.013   0.598   1.324
 9840SOL    HW230420   6.988   0.613   1.479
 9841SOL     OW30421   1.785   3.741   4.037
 9841SOL    HW130422   1.708   3.703   4.088
 9841SOL    HW230423   1.870   3.702   4.071
 9842SOL     OW30424   3.334   2.938   2.301
 9842SOL    HW130425   3.237   2.961   2.293
 9842SOL    HW230426   3.361   2.879   2.225
 9843SOL     OW30427   5.989   2.676   1.944
 9843SOL    HW130428   5.977   2.599   1.882
 9843SOL    HW230429   5.912   2.739   1.934
 9844SOL     OW30430   5.074   6.632   2.709
 9844SOL    HW130431   5.023   6.644   2.794
 9844SOL    HW230432   5.036   6.693   2.639
 9845SOL     OW30433   0.879   2.388   3.362
 9845SOL    HW130434   0.897   2.323   3.435
 9845SOL    HW230435   0.782   2.388   3.340
 9846SOL     OW30436   2.856   3.499   2.789
 9846SOL    HW130437   2.759   3.478   2.778
 9846SOL    HW230438   2.903   3.420   2.829
 9847SOL     OW30439   1.979   4.082   5.985
 9847SOL    HW130440   2.007   4.165   6.032
 9847SOL    HW230441   2.003   4.088   5.888
 9848SOL     OW30442   4.835   3.370   0.139
 9848SOL    HW130443   4.838   3.459   0.093
 9848SOL    HW230444   4.927   3.342   0.163
 9849SOL     OW30445   0.343   0.040   6.148
 9849SOL    HW130446   0.362   0.124   6.097
 9849SOL    HW230447   0.281   0.061   6.224
 9850SOL     OW30448   3.696   6.307   2.530
 9850SOL    HW130449   3.677   6.321   2.628
 9850SOL    HW230450   3.730   6.214   2.517
 9851SOL     OW30451   5.792   1.856   5.590
 9851SOL    HW130452   5.707   1.876   5.638
 9851SOL    HW230453   5.845   1.941   5.580
 9852SOL     OW30454   5.119   1.637   3.758
 9852SOL    HW130455   5.181   1.699   3.711
 9852SOL    HW230456   5.025   1.672   3.750
 9853SOL     OW30457   6.247   4.092   2.025
 9853SOL    HW130458   6.334   4.129   2.056
 9853SOL    HW230459   6.226   4.127   1.933
 9854SOL     OW30460   5.323   5.440   4.144
 9854SOL    HW130461   5.306   5.379   4.222
 9854SOL    HW230462   5.312   5.535   4.173
 9855SOL     OW30463   1.138   3.581   1.741
 9855SOL    HW130464   1.180   3.492   1.723
 9855SOL    HW230465   1.210   3.650   1.748
 9856SOL     OW30466   3.979   2.700   1.104
 9856SOL    HW130467   4.044   2.708   1.180
 9856SOL    HW230468   3.907   2.636   1.129
 9857SOL     OW30469   5.530   3.955   3.504
 9857SOL    HW130470   5.579   4.026   3.453
 9857SOL    HW230471   5.561   3.865   3.473
 9858SOL     OW30472   5.045   0.655   1.707
 9858SOL    HW130473   5.098   0.675   1.790
 9858SOL    HW230474   5.108   0.634   1.632
 9859SOL     OW30475   6.643   0.310   2.474
 9859SOL    HW130476   6.584   0.373   2.525
 9859SOL    HW230477   6.586   0.246   2.422
 9860SOL     OW30478   0.504   1.025   2.238
 9860SOL    HW130479   0.522   0.928   2.246
 9860SOL    HW230480   0.489   1.048   2.142
 9861SOL     OW30481   3.718   6.700   4.432
 9861SOL    HW130482   3.733   6.611   4.474
 9861SOL    HW230483   3.769   6.770   4.482
 9862SOL     OW30484   1.005   2.454   0.684
 9862SOL    HW130485   1.080   2.416   0.631
 9862SOL    HW230486   1.041   2.513   0.755
 9863SOL     OW30487   3.587   7.017   1.843
 9863SOL    HW130488   3.686   7.001   1.851
 9863SOL    HW230489   3.572   0.082   1.802
 9864SOL     OW30490   4.963   5.599   2.001
 9864SOL    HW130491   5.009   5.536   1.938
 9864SOL    HW230492   5.018   5.611   2.083
 9865SOL     OW30493   0.646   1.331   4.519
 9865SOL    HW130494   0.719   1.349   4.585
 9865SOL    HW230495   0.625   1.234   4.518
 9866SOL     OW30496   4.723   4.287   4.040
 9866SOL    HW130497   4.636   4.329   4.015
 9866SOL    HW230498   4.766   4.338   4.115
 9867SOL     OW30499   4.747   1.099   6.995
 9867SOL    HW130500   4.665   1.137   0.012
 9867SOL    HW230501   4.826   1.155   7.020
 9868SOL     OW30502   0.163   5.104   0.128
 9868SOL    HW130503   0.162   5.013   0.170
 9868SOL    HW230504   0.098   5.163   0.175
 9869SOL     OW30505   1.703   4.344   3.021
 9869SOL    HW130506   1.681   4.253   3.056
 9869SOL    HW230507   1.619   4.400   3.017
 9870SOL     OW30508   4.897   4.881   2.785
 9870SOL    HW130509   4.883   4.943   2.862
 9870SOL    HW230510   4.991   4.891   2.751
 9871SOL     OW30511   2.128   0.957   5.115
 9871SOL    HW130512   2.066   0.937   5.039
 9871SOL    HW230513   2.223   0.951   5.082
 9872SOL     OW30514   2.014   4.795   3.256
 9872SOL    HW130515   2.098   4.847   3.269
 9872SOL    HW230516   1.984   4.758   3.344
 9873SOL     OW30517   1.273   2.767   0.166
 9873SOL    HW130518   1.313   2.743   0.077
 9873SOL    HW230519   1.260   2.685   0.220
 9874SOL     OW30520   0.757   2.828   3.740
 9874SOL    HW130521   0.840   2.841   3.686
 9874SOL    HW230522   0.754   2.734   3.774
 9875SOL     OW30523   1.256   0.366   3.493
 9875SOL    HW130524   1.331   0.424   3.523
 9875SOL    HW230525   1.272   0.337   3.398
 9876SOL     OW30526   0.021   6.469   2.502
 9876SOL    HW130527   0.111   6.482   2.545
 9876SOL    HW230528   0.033   6.459   2.403
 9877SOL     OW30529   2.910   6.848   2.674
 9877SOL    HW130530   2.949   6.902   2.599
 9877SOL    HW230531   2.819   6.816   2.649
 9878SOL     OW30532   0.480   6.309   5.328
 9878SOL    HW130533   0.549   6.263   5.273
 9878SOL    HW230534   0.481   6.407   5.307
 9879SOL     OW30535   4.478   5.747   5.799
 9879SOL    HW130536   4.520   5.659   5.821
 9879SOL    HW230537   4.512   5.779   5.711
 9880SOL     OW30538   1.705   1.388   5.622
 9880SOL    HW130539   1.772   1.355   5.554
 9880SOL    HW230540   1.703   1.325   5.699
 9881SOL     OW30541   0.671   2.230   6.108
 9881SOL    HW130542   0.678   2.169   6.030
 9881SOL    HW230543   0.596   2.200   6.167
 9882SOL     OW30544   1.417   1.922   3.800
 9882SOL    HW130545   1.486   1.932   3.728
 9882SOL    HW230546   1.446   1.850   3.863
 9883SOL     OW30547   1.630   0.811   2.143
 9883SOL    HW130548   1.647   0.760   2.228
 9883SOL    HW230549   1.621   0.908   2.165
 9884SOL     OW30550   3.886   0.359   4.265
 9884SOL    HW130551   3.820   0.427   4.235
 9884SOL    HW230552   3.885   0.353   4.365
 9885SOL     OW30553   6.548   4.634   4.175
 9885SOL    HW130554   6.608   4.712   4.197
 9885SOL    HW230555   6.554   4.566   4.248
 9886SOL     OW30556   0.907   4.186   2.223
 9886SOL    HW130557   0.847   4.264   2.239
 9886SOL    HW230558   0.859   4.102   2.247
 9887SOL     OW30559   4.086   1.269   6.902
 9887SOL    HW130560   4.073   1.213   6.983
 9887SOL    HW230561   4.091   1.211   6.821
 9888SOL     OW30562   0.160   4.204   0.532
 9888SOL    HW130563   0.189   4.265   0.605
 9888SOL    HW230564   0.215   4.120   0.533
 9889SOL     OW30565   6.395   4.930   0.432
 9889SOL    HW130566   6.295   4.943   0.431
 9889SOL    HW230567   6.434   4.983   0.508
 9890SOL     OW30568   1.519   2.711   1.223
 9890SOL    HW130569   1.561   2.639   1.277
 9890SOL    HW230570   1.568   2.797   1.238
 9891SOL     OW30571   5.476   2.605   0.732
 9891SOL    HW130572   5.426   2.595   0.818
 9891SOL    HW230573   5.424   2.664   0.670
 9892SOL     OW30574   6.666   5.286   6.868
 9892SOL    HW130575   6.630   5.278   6.961
 9892SOL    HW230576   6.591   5.278   6.802
 9893SOL     OW30577   2.657   1.563   0.609
 9893SOL    HW130578   2.563   1.567   0.641
 9893SOL    HW230579   2.686   1.653   0.578
 9894SOL     OW30580   1.329   2.125   0.477
 9894SOL    HW130581   1.338   2.055   0.549
 9894SOL    HW230582   1.382   2.097   0.397
 9895SOL     OW30583   5.554   3.468   5.669
 9895SOL    HW130584   5.538   3.422   5.756
 9895SOL    HW230585   5.534   3.566   5.679
 9896SOL     OW30586   6.362   0.289   0.058
 9896SOL    HW130587   6.350   0.306   0.156
 9896SOL    HW230588   6.313   0.360   0.006
 9897SOL     OW30589   5.422   5.462   3.257
 9897SOL    HW130590   5.468   5.550   3.256
 9897SOL    HW230591   5.474   5.397   3.201
 9898SOL     OW30592   3.239   6.256   5.514
 9898SOL    HW130593   3.187   6.295   5.590
 9898SOL    HW230594   3.326   6.222   5.548
 9899SOL     OW30595   0.162   5.411   0.118
 9899SOL    HW130596   0.118   5.447   0.035
 9899SOL    HW230597   0.092   5.373   0.179
 9900SOL     OW30598   2.163   4.044   3.495
 9900SOL    HW130599   2.254   4.076   3.469
 9900SOL    HW230600   2.158   4.033   3.594
 9901SOL     OW30601   2.431   1.846   5.325
 9901SOL    HW130602   2.481   1.759   5.324
 9901SOL    HW230603   2.351   1.840   5.265
 9902SOL     OW30604   2.213   4.845   6.742
 9902SOL    HW130605   2.266   4.923   6.709
 9902SOL    HW230606   2.273   4.783   6.794
 9903SOL     OW30607   4.993   0.858   2.977
 9903SOL    HW130608   5.067   0.879   3.041
 9903SOL    HW230609   5.001   0.917   2.897
 9904SOL     OW30610   6.902   3.203   6.674
 9904SOL    HW130611   6.984   3.255   6.699
 9904SOL    HW230612   6.848   3.255   6.609
 9905SOL     OW30613   4.013   1.812   0.643
 9905SOL    HW130614   4.020   1.760   0.557
 9905SOL    HW230615   4.075   1.773   0.711
 9906SOL     OW30616   3.860   2.981   3.267
 9906SOL    HW130617   3.767   2.977   3.304
 9906SOL    HW230618   3.856   2.994   3.168
 9907SOL     OW30619   0.497   0.230   2.037
 9907SOL    HW130620   0.485   0.212   2.135
 9907SOL    HW230621   0.466   0.150   1.985
 9908SOL     OW30622   5.118   3.159   3.097
 9908SOL    HW130623   5.133   3.149   2.998
 9908SOL    HW230624   5.048   3.230   3.113
 9909SOL     OW30625   2.146   6.481   4.807
 9909SOL    HW130626   2.105   6.556   4.860
 9909SOL    HW230627   2.108   6.394   4.838
 9910SOL     OW30628   0.800   4.573   2.975
 9910SOL    HW130629   0.837   4.500   2.918
 9910SOL    HW230630   0.748   4.637   2.918
 9911SOL     OW30631   3.549   6.736   1.717
 9911SOL    HW130632   3.519   6.823   1.757
 9911SOL    HW230633   3.590   6.679   1.789
 9912SOL     OW30634   4.767   1.769   0.755
 9912SOL    HW130635   4.792   1.796   0.848
 9912SOL    HW230636   4.675   1.803   0.734
 9913SOL     OW30637   5.911   3.221   0.054
 9913SOL    HW130638   5.983   3.212   0.122
 9913SOL    HW230639   5.831   3.168   0.082
 9914SOL     OW30640   0.407   2.609   4.891
 9914SOL    HW130641   0.419   2.580   4.986
 9914SOL    HW230642   0.422   2.708   4.885
 9915SOL     OW30643   5.300   1.379   3.044
 9915SOL    HW130644   5.219   1.332   3.077
 9915SOL    HW230645   5.281   1.477   3.037
 9916SOL     OW30646   2.251   2.745   2.384
 9916SOL    HW130647   2.240   2.646   2.375
 9916SOL    HW230648   2.294   2.781   2.302
 9917SOL     OW30649   6.700   4.299   5.459
 9917SOL    HW130650   6.642   4.227   5.420
 9917SOL    HW230651   6.744   4.350   5.386
 9918SOL     OW30652   3.824   2.021   3.044
 9918SOL    HW130653   3.856   2.076   3.122
 9918SOL    HW230654   3.813   1.926   3.073
 9919SOL     OW30655   6.137   5.970   1.225
 9919SOL    HW130656   6.082   6.053   1.232
 9919SOL    HW230657   6.179   5.965   1.134
 9920SOL     OW30658   4.321   1.665   2.829
 9920SOL    HW130659   4.286   1.685   2.738
 9920SOL    HW230660   4.274   1.585   2.866
 9921SOL     OW30661   3.642   5.489   6.002
 9921SOL    HW130662   3.565   5.461   5.946
 9921SOL    HW230663   3.709   5.537   5.945
 9922SOL     OW30664   0.456   5.852   0.919
 9922SOL    HW130665   0.477   5.819   0.827
 9922SOL    HW230666   0.450   5.775   0.982
 9923SOL     OW30667   4.826   5.199   0.011
 9923SOL    HW130668   4.806   5.266   0.082
 9923SOL    HW230669   4.923   5.175   0.014
 9924SOL     OW30670   0.767   3.258   4.933
 9924SOL    HW130671   0.685   3.314   4.926
 9924SOL    HW230672   0.829   3.297   5.001
 9925SOL     OW30673   4.945   2.768   4.455
 9925SOL    HW130674   4.875   2.839   4.450
 9925SOL    HW230675   4.930   2.702   4.382
 9926SOL     OW30676   2.084   4.662   6.974
 9926SOL    HW130677   2.045   4.753   6.984
 9926SOL    HW230678   2.064   4.627   6.882
 9927SOL     OW30679   6.015   0.080   3.053
 9927SOL    HW130680   6.104   0.125   3.055
 9927SOL    HW230681   6.019   7.020   3.106
 9928SOL     OW30682   4.697   4.637   1.235
 9928SOL    HW130683   4.710   4.733   1.213
 9928SOL    HW230684   4.778   4.585   1.206
 9929SOL     OW30685   2.443   4.800   4.617
 9929SOL    HW130686   2.505   4.762   4.686
 9929SOL    HW230687   2.498   4.846   4.546
 9930SOL     OW30688   6.853   0.338   4.579
 9930SOL    HW130689   6.804   0.320   4.664
 9930SOL    HW230690   6.788   0.361   4.507
 9931SOL     OW30691   1.090   4.313   4.946
 9931SOL    HW130692   1.005   4.261   4.940
 9931SOL    HW230693   1.167   4.252   4.929
 9932SOL     OW30694   1.042   6.205   6.152
 9932SOL    HW130695   1.127   6.195   6.101
 9932SOL    HW230696   0.966   6.170   6.096
 9933SOL     OW30697   1.033   5.335   2.355
 9933SOL    HW130698   0.934   5.335   2.365
 9933SOL    HW230699   1.057   5.343   2.258
 9934SOL     OW30700   6.431   2.021   5.578
 9934SOL    HW130701   6.378   1.979   5.505
 9934SOL    HW230702   6.393   1.995   5.667
 9935SOL     OW30703   3.099   0.969   6.460
 9935SOL    HW130704   3.012   1.020   6.461
 9935SOL    HW230705   3.164   1.017   6.401
 9936SOL     OW30706   0.523   4.290   4.129
 9936SOL    HW130707   0.573   4.211   4.092
 9936SOL    HW230708   0.588   4.354   4.170
 9937SOL     OW30709   0.052   2.197   5.826
 9937SOL    HW130710   6.987   2.164   5.796
 9937SOL    HW230711   0.084   2.142   5.903
 9938SOL     OW30712   6.430   6.084   2.656
 9938SOL    HW130713   6.373   6.166   2.666
 9938SOL    HW230714   6.504   6.086   2.724
 9939SOL     OW30715   3.020   2.982   1.874
 9939SOL    HW130716   3.005   2.896   1.824
 9939SOL    HW230717   2.943   3.044   1.856
 9940SOL     OW30718   6.892   1.059   0.812
 9940SOL    HW130719   6.930   1.086   0.723
 9940SOL    HW230720   6.957   1.001   0.860
 9941SOL     OW30721   3.138   4.537   5.694
 9941SOL    HW130722   3.166   4.445   5.665
 9941SOL    HW230723   3.039   4.545   5.690
 9942SOL     OW30724   2.533   5.614   3.031
 9942SOL    HW130725   2.538   5.621   2.931
 9942SOL    HW230726   2.464   5.546   3.056
 9943SOL     OW30727   0.642   5.976   6.083
 9943SOL    HW130728   0.666   5.880   6.093
 9943SOL    HW230729   0.601   6.009   6.169
 9944SOL     OW30730   1.032   4.012   6.751
 9944SOL    HW130731   0.983   3.945   6.806
 9944SOL    HW230732   1.072   3.967   6.671
 9945SOL     OW30733   6.487   5.314   0.476
 9945SOL    HW130734   6.565   5.359   0.519
 9945SOL    HW230735   6.440   5.379   0.417
 9946SOL     OW30736   4.857   0.684   5.274
 9946SOL    HW130737   4.885   0.772   5.312
 9946SOL    HW230738   4.764   0.691   5.239
 9947SOL     OW30739   6.615   4.636   4.658
 9947SOL    HW130740   6.596   4.710   4.593
 9947SOL    HW230741   6.664   4.562   4.612
 9948SOL     OW30742   4.742   4.533   4.842
 9948SOL    HW130743   4.788   4.579   4.765
 9948SOL    HW230744   4.684   4.599   4.890
 9949SOL     OW30745   5.515   5.301   3.037
 9949SOL    HW130746   5.588   5.361   3.004
 9949SOL    HW230747   5.461   5.269   2.959
 9950SOL     OW30748   4.127   6.321   5.395
 9950SOL    HW130749   4.042   6.274   5.371
 9950SOL    HW230750   4.136   6.325   5.495
 9951SOL     OW30751   5.710   2.651   3.033
 9951SOL    HW130752   5.699   2.748   3.015
 9951SOL    HW230753   5.763   2.638   3.117
 9952SOL     OW30754   6.790   4.442   0.385
 9952SOL    HW130755   6.743   4.528   0.363
 9952SOL    HW230756   6.753   4.404   0.470
 9953SOL     OW30757   6.660   1.138   3.808
 9953SOL    HW130758   6.608   1.221   3.827
 9953SOL    HW230759   6.674   1.087   3.893
 9954SOL     OW30760   5.558   0.017   5.321
 9954SOL    HW130761   5.548   7.014   5.416
 9954SOL    HW230762   5.523   6.970   5.261
 9955SOL     OW30763   0.160   3.814   4.192
 9955SOL    HW130764   0.258   3.812   4.171
 9955SOL    HW230765   0.109   3.782   4.112
 9956SOL     OW30766   2.025   6.375   1.677
 9956SOL    HW130767   2.084   6.306   1.635
 9956SOL    HW230768   1.982   6.431   1.606
 9957SOL     OW30769   6.753   4.288   3.853
 9957SOL    HW130770   6.765   4.369   3.911
 9957SOL    HW230771   6.656   4.265   3.847
 9958SOL     OW30772   2.548   3.880   1.371
 9958SOL    HW130773   2.522   3.902   1.465
 9958SOL    HW230774   2.500   3.941   1.308
 9959SOL     OW30775   4.112   3.417   0.298
 9959SOL    HW130776   4.106   3.388   0.203
 9959SOL    HW230777   4.158   3.346   0.351
 9960SOL     OW30778   6.971   1.616   2.644
 9960SOL    HW130779   6.909   1.656   2.578
 9960SOL    HW230780   6.991   1.522   2.619
 9961SOL     OW30781   2.131   5.592   4.503
 9961SOL    HW130782   2.208   5.649   4.533
 9961SOL    HW230783   2.106   5.529   4.577
 9962SOL     OW30784   4.558   6.512   4.956
 9962SOL    HW130785   4.564   6.603   4.997
 9962SOL    HW230786   4.464   6.479   4.961
 9963SOL     OW30787   3.147   1.301   0.766
 9963SOL    HW130788   3.117   1.337   0.677
 9963SOL    HW230789   3.069   1.260   0.813
 9964SOL     OW30790   4.080   6.001   5.101
 9964SOL    HW130791   4.085   6.070   5.028
 9964SOL    HW230792   4.027   5.923   5.069
 9965SOL     OW30793   4.371   0.266   0.178
 9965SOL    HW130794   4.328   0.213   0.251
 9965SOL    HW230795   4.302   0.323   0.133
 9966SOL     OW30796   0.737   6.536   2.316
 9966SOL    HW130797   0.785   6.450   2.329
 9966SOL    HW230798   0.657   6.521   2.257
 9967SOL     OW30799   1.424   5.703   1.034
 9967SOL    HW130800   1.453   5.766   1.106
 9967SOL    HW230801   1.457   5.734   0.945
 9968SOL     OW30802   4.113   3.248   2.237
 9968SOL    HW130803   4.179   3.319   2.262
 9968SOL    HW230804   4.072   3.270   2.148
 9969SOL     OW30805   1.214   3.665   2.145
 9969SOL    HW130806   1.184   3.730   2.075
 9969SOL    HW230807   1.292   3.702   2.194
 9970SOL     OW30808   5.777   3.927   1.628
 9970SOL    HW130809   5.740   3.854   1.571
 9970SOL    HW230810   5.873   3.909   1.648
 9971SOL     OW30811   2.022   4.608   0.633
 9971SOL    HW130812   2.106   4.584   0.681
 9971SOL    HW230813   1.992   4.699   0.661
 9972SOL     OW30814   6.782   4.343   2.374
 9972SOL    HW130815   6.753   4.427   2.329
 9972SOL    HW230816   6.870   4.358   2.419
 9973SOL     OW30817   6.163   0.953   4.334
 9973SOL    HW130818   6.182   1.051   4.323
 9973SOL    HW230819   6.151   0.933   4.431
 9974SOL     OW30820   1.999   1.147   4.192
 9974SOL    HW130821   2.003   1.200   4.276
 9974SOL    HW230822   2.092   1.127   4.160
 9975SOL     OW30823   0.646   2.847   0.278
 9975SOL    HW130824   0.713   2.915   0.309
 9975SOL    HW230825   0.555   2.888   0.276
 9976SOL     OW30826   1.850   6.913   4.891
 9976SOL    HW130827   1.885   6.998   4.852
 9976SOL    HW230828   1.776   6.934   4.955
 9977SOL     OW30829   6.447   4.438   4.798
 9977SOL    HW130830   6.501   4.368   4.751
 9977SOL    HW230831   6.485   4.529   4.778
 9978SOL     OW30832   6.543   1.529   4.456
 9978SOL    HW130833   6.563   1.433   4.474
 9978SOL    HW230834   6.466   1.536   4.392
 9979SOL     OW30835   6.650   3.609   5.414
 9979SOL    HW130836   6.624   3.536   5.478
 9979SOL    HW230837   6.658   3.572   5.322
 9980SOL     OW30838   3.904   0.516   6.094
 9980SOL    HW130839   3.947   0.489   6.008
 9980SOL    HW230840   3.826   0.575   6.076
 9981SOL     OW30841   3.222   2.067   3.931
 9981SOL    HW130842   3.193   2.104   4.019
 9981SOL    HW230843   3.146   2.070   3.866
 9982SOL     OW30844   6.946   6.448   4.377
 9982SOL    HW130845   6.862   6.503   4.381
 9982SOL    HW230846   6.965   6.410   4.468
 9983SOL     OW30847   0.130   1.474   1.730
 9983SOL    HW130848   0.037   1.457   1.697
 9983SOL    HW230849   0.191   1.491   1.653
 9984SOL     OW30850   3.102   1.974   6.711
 9984SOL    HW130851   3.022   2.001   6.765
 9984SOL    HW230852   3.174   1.944   6.773
 9985SOL     OW30853   1.433   0.512   2.106
 9985SOL    HW130854   1.358   0.456   2.072
 9985SOL    HW230855   1.411   0.609   2.092
 9986SOL     OW30856   5.248   4.139   4.831
 9986SOL    HW130857   5.338   4.115   4.795
 9986SOL    HW230858   5.253   4.229   4.874
 9987SOL     OW30859   6.552   3.909   6.000
 9987SOL    HW130860   6.585   3.854   5.924
 9987SOL    HW230861   6.627   3.965   6.035
 9988SOL     OW30862   7.005   6.794   5.375
 9988SOL    HW130863   0.018   6.887   5.376
 9988SOL    HW230864   6.915   6.794   5.419
 9989SOL     OW30865   0.717   3.192   5.366
 9989SOL    HW130866   0.788   3.212   5.299
 9989SOL    HW230867   0.652   3.126   5.328
 9990SOL     OW30868   1.217   5.290   2.739
 9990SOL    HW130869   1.250   5.196   2.744
 9990SOL    HW230870   1.117   5.290   2.741
 9991SOL     OW30871   3.675   2.019   3.686
 9991SOL    HW130872   3.677   2.029   3.785
 9991SOL    HW230873   3.592   2.059   3.649
 9992SOL     OW30874   6.658   5.321   6.061
 9992SOL    HW130875   6.750   5.287   6.078
 9992SOL    HW230876   6.630   5.298   5.967
 9993SOL     OW30877   1.014   1.343   1.961
 9993SOL    HW130878   0.940   1.381   1.907
 9993SOL    HW230879   1.082   1.299   1.901
 9994SOL     OW30880   5.795   4.742   3.191
 9994SOL    HW130881   5.759   4.668   3.134
 9994SOL    HW230882   5.718   4.794   3.229
 9995SOL     OW30883   4.865   0.947   4.703
 9995SOL    HW130884   4.889   0.932   4.607
 9995SOL    HW230885   4.835   1.042   4.716
 9996SOL     OW30886   2.364   3.804   0.115
 9996SOL    HW130887   2.342   3.707   0.129
 9996SOL    HW230888   2.294   3.846   0.057
 9997SOL     OW30889   2.714   0.263   5.066
 9997SOL    HW130890   2.670   0.259   5.155
 9997SOL    HW230891   2.714   0.172   5.025
 9998SOL     OW30892   6.054   5.675   5.460
 9998SOL    HW130893   6.021   5.620   5.384
 9998SOL    HW230894   5.985   5.745   5.483
 9999SOL     OW30895   6.684   1.976   5.237
 9999SOL    HW130896   6.621   1.898   5.244
 9999SOL    HW230897   6.748   1.960   5.161
10000SOL     OW30898   0.239   2.856   6.501
10000SOL    HW130899   0.171   2.930   6.506
10000SOL    HW230900   0.297   2.858   6.582
10001SOL     OW30901   4.205   0.055   2.633
10001SOL    HW130902   4.196   0.083   2.729
10001SOL    HW230903   4.300   0.069   2.603
10002SOL     OW30904   0.776   1.011   2.081
10002SOL    HW130905   0.728   1.014   2.168
10002SOL    HW230906   0.710   1.007   2.006
10003SOL     OW30907   4.397   2.140   3.703
10003SOL    HW130908   4.305   2.180   3.700
10003SOL    HW230909   4.429   2.122   3.610
10004SOL     OW30910   0.198   1.387   3.097
10004SOL    HW130911   0.257   1.458   3.133
10004SOL    HW230912   0.231   1.297   3.128
10005SOL     OW30913   5.123   6.593   4.676
10005SOL    HW130914   5.065   6.528   4.724
10005SOL    HW230915   5.148   6.556   4.587
10006SOL     OW30916   3.540   0.375   4.400
10006SOL    HW130917   3.564   0.431   4.479
10006SOL    HW230918   3.469   0.422   4.346
10007SOL     OW30919   6.519   3.290   3.807
10007SOL    HW130920   6.556   3.199   3.788
10007SOL    HW230921   6.419   3.286   3.803
10008SOL     OW30922   3.183   6.936   3.931
10008SOL    HW130923   3.151   6.909   4.022
10008SOL    HW230924   3.275   6.972   3.937
10009SOL     OW30925   1.009   4.567   1.939
10009SOL    HW130926   1.084   4.571   1.873
10009SOL    HW230927   0.998   4.473   1.972
10010SOL     OW30928   0.865   1.080   6.197
10010SOL    HW130929   0.788   1.018   6.214
10010SOL    HW230930   0.842   1.172   6.230
10011SOL     OW30931   0.112   6.617   5.138
10011SOL    HW130932   0.033   6.594   5.196
10011SOL    HW230933   0.178   6.668   5.192
10012SOL     OW30934   5.786   1.368   3.766
10012SOL    HW130935   5.766   1.466   3.758
10012SOL    HW230936   5.740   1.332   3.847
10013SOL     OW30937   0.705   0.708   3.269
10013SOL    HW130938   0.650   0.762   3.204
10013SOL    HW230939   0.718   0.616   3.233
10014SOL     OW30940   1.134   4.574   5.883
10014SOL    HW130941   1.201   4.528   5.941
10014SOL    HW230942   1.088   4.645   5.935
10015SOL     OW30943   1.814   4.355   0.227
10015SOL    HW130944   1.839   4.450   0.204
10015SOL    HW230945   1.808   4.301   0.143
10016SOL     OW30946   2.426   0.438   5.631
10016SOL    HW130947   2.417   0.465   5.727
10016SOL    HW230948   2.522   0.423   5.609
10017SOL     OW30949   1.187   2.322   4.562
10017SOL    HW130950   1.219   2.412   4.533
10017SOL    HW230951   1.254   2.281   4.624
10018SOL     OW30952   5.087   7.004   6.447
10018SOL    HW130953   5.061   7.011   6.350
10018SOL    HW230954   5.111   6.909   6.467
10019SOL     OW30955   0.919   1.260   2.766
10019SOL    HW130956   1.017   1.260   2.787
10019SOL    HW230957   0.896   1.345   2.718
10020SOL     OW30958   0.583   3.148   1.046
10020SOL    HW130959   0.590   3.191   0.956
10020SOL    HW230960   0.675   3.136   1.084
10021SOL     OW30961   6.782   3.666   0.554
10021SOL    HW130962   6.703   3.620   0.513
10021SOL    HW230963   6.843   3.699   0.481
10022SOL     OW30964   1.853   1.301   6.479
10022SOL    HW130965   1.939   1.286   6.527
10022SOL    HW230966   1.779   1.256   6.529
10023SOL     OW30967   0.012   3.497   0.601
10023SOL    HW130968   6.993   3.424   0.654
10023SOL    HW230969   6.967   3.560   0.568
10024SOL     OW30970   1.625   4.732   3.795
10024SOL    HW130971   1.709   4.786   3.805
10024SOL    HW230972   1.648   4.636   3.784
10025SOL     OW30973   1.430   1.356   0.837
10025SOL    HW130974   1.502   1.385   0.775
10025SOL    HW230975   1.444   1.260   0.861
10026SOL     OW30976   0.025   0.527   3.880
10026SOL    HW130977   0.001   0.430   3.880
10026SOL    HW230978   0.029   0.561   3.786
10027SOL     OW30979   4.669   2.445   5.520
10027SOL    HW130980   4.601   2.393   5.571
10027SOL    HW230981   4.625   2.522   5.473
10028SOL     OW30982   1.768   0.645   1.156
10028SOL    HW130983   1.856   0.609   1.189
10028SOL    HW230984   1.701   0.640   1.229
10029SOL     OW30985   5.668   2.071   3.610
10029SOL    HW130986   5.754   2.044   3.568
10029SOL    HW230987   5.603   2.099   3.539
10030SOL     OW30988   1.906   0.666   3.630
10030SOL    HW130989   1.824   0.635   3.583
10030SOL    HW230990   1.952   0.736   3.575
10031SOL     OW30991   6.909   4.403   5.025
10031SOL    HW130992   6.834   4.449   4.978
10031SOL    HW230993   6.877   4.316   5.062
10032SOL     OW30994   3.007   1.412   4.848
10032SOL    HW130995   3.040   1.415   4.754
10032SOL    HW230996   2.957   1.326   4.863
10033SOL     OW30997   5.642   2.584   5.075
10033SOL    HW130998   5.642   2.683   5.060
10033SOL    HW230999   5.552   2.547   5.052
10034SOL     OW31000   5.467   0.815   6.378
10034SOL    HW131001   5.386   0.765   6.411
10034SOL    HW231002   5.543   0.751   6.368
10035SOL     OW31003   0.215   6.617   2.105
10035SOL    HW131004   0.273   6.694   2.134
10035SOL    HW231005   0.269   6.553   2.051
10036SOL     OW31006   7.000   1.078   0.545
10036SOL    HW131007   0.063   1.114   0.576
10036SOL    HW231008   6.998   0.979   0.556
10037SOL     OW31009   0.580   6.893   1.106
10037SOL    HW131010   0.622   6.983   1.108
10037SOL    HW231011   0.580   6.857   1.013
10038SOL     OW31012   6.471   0.603   1.228
10038SOL    HW131013   6.501   0.694   1.198
10038SOL    HW231014   6.551   0.548   1.252
10039SOL     OW31015   3.114   0.551   3.336
10039SOL    HW131016   3.074   0.564   3.245
10039SOL    HW231017   3.173   0.471   3.335
10040SOL     OW31018   0.854   3.114   1.133
10040SOL    HW131019   0.923   3.184   1.117
10040SOL    HW231020   0.896   3.037   1.181
10041SOL     OW31021   2.036   6.052   0.165
10041SOL    HW131022   2.053   6.000   0.081
10041SOL    HW231023   2.123   6.072   0.210
10042SOL     OW31024   5.546   3.272   2.781
10042SOL    HW131025   5.557   3.367   2.810
10042SOL    HW231026   5.535   3.268   2.682
10043SOL     OW31027   0.484   2.303   4.835
10043SOL    HW131028   0.478   2.402   4.821
10043SOL    HW231029   0.409   2.258   4.786
10044SOL     OW31030   3.712   1.287   5.814
10044SOL    HW131031   3.631   1.278   5.872
10044SOL    HW231032   3.685   1.323   5.725
10045SOL     OW31033   2.961   1.124   0.560
10045SOL    HW131034   2.885   1.061   0.541
10045SOL    HW231035   2.966   1.192   0.487
10046SOL     OW31036   0.629   5.435   0.851
10046SOL    HW131037   0.722   5.418   0.817
10046SOL    HW231038   0.568   5.453   0.773
10047SOL     OW31039   0.972   3.654   1.011
10047SOL    HW131040   1.042   3.712   1.055
10047SOL    HW231041   1.000   3.558   1.017
10048SOL     OW31042   5.900   5.121   3.157
10048SOL    HW131043   5.927   5.144   3.250
10048SOL    HW231044   5.977   5.135   3.095
10049SOL     OW31045   6.590   0.711   5.527
10049SOL    HW131046   6.541   0.677   5.447
10049SOL    HW231047   6.530   0.770   5.581
10050SOL     OW31048   0.362   2.857   6.748
10050SOL    HW131049   0.302   2.897   6.817
10050SOL    HW231050   0.412   2.780   6.788
10051SOL     OW31051   2.557   2.107   4.036
10051SOL    HW131052   2.612   2.060   4.106
10051SOL    HW231053   2.592   2.200   4.024
10052SOL     OW31054   1.079   6.839   3.291
10052SOL    HW131055   1.148   6.810   3.224
10052SOL    HW231056   1.096   6.793   3.378
10053SOL     OW31057   5.971   4.969   3.630
10053SOL    HW131058   6.027   4.905   3.578
10053SOL    HW231059   6.028   5.016   3.697
10054SOL     OW31060   6.960   3.628   4.825
10054SOL    HW131061   6.957   3.726   4.848
10054SOL    HW231062   6.870   3.588   4.842
10055SOL     OW31063   1.568   2.647   6.493
10055SOL    HW131064   1.660   2.608   6.500
10055SOL    HW231065   1.539   2.646   6.397
10056SOL     OW31066   5.965   2.008   3.529
10056SOL    HW131067   5.972   1.964   3.439
10056SOL    HW231068   5.980   1.939   3.600
10057SOL     OW31069   5.475   5.120   5.419
10057SOL    HW131070   5.560   5.173   5.417
10057SOL    HW231071   5.493   5.031   5.461
10058SOL     OW31072   0.161   3.544   4.985
10058SOL    HW131073   0.092   3.587   4.927
10058SOL    HW231074   0.135   3.449   5.003
10059SOL     OW31075   5.488   0.069   0.152
10059SOL    HW131076   5.565   0.018   0.114
10059SOL    HW231077   5.431   0.105   0.078
10060SOL     OW31078   2.655   1.794   1.607
10060SOL    HW131079   2.583   1.859   1.583
10060SOL    HW231080   2.620   1.727   1.672
10061SOL     OW31081   3.480   6.826   2.043
10061SOL    HW131082   3.567   6.826   2.091
10061SOL    HW231083   3.483   6.892   1.968
10062SOL     OW31084   0.645   6.541   5.091
10062SOL    HW131085   0.566   6.562   5.149
10062SOL    HW231086   0.718   6.606   5.110
10063SOL     OW31087   2.165   2.345   5.374
10063SOL    HW131088   2.163   2.329   5.275
10063SOL    HW231089   2.175   2.443   5.392
10064SOL     OW31090   2.515   6.927   0.335
10064SOL    HW131091   2.516   7.005   0.398
10064SOL    HW231092   2.501   6.843   0.388
10065SOL     OW31093   0.477   2.289   1.810
10065SOL    HW131094   0.553   2.330   1.861
10065SOL    HW231095   0.507   2.202   1.771
10066SOL     OW31096   6.155   4.693   4.217
10066SOL    HW131097   6.142   4.595   4.229
10066SOL    HW231098   6.228   4.709   4.150
10067SOL     OW31099   6.732   2.685   5.171
10067SOL    HW131100   6.729   2.747   5.250
10067SOL    HW231101   6.639   2.670   5.137
10068SOL     OW31102   1.504   3.655   2.626
10068SOL    HW131103   1.600   3.635   2.649
10068SOL    HW231104   1.449   3.573   2.642
10069SOL     OW31105   2.917   4.823   0.209
10069SOL    HW131106   2.920   4.890   0.283
10069SOL    HW231107   2.842   4.846   0.146
10070SOL     OW31108   4.719   6.955   6.823
10070SOL    HW131109   4.687   0.011   6.774
10070SOL    HW231110   4.816   6.941   6.805
10071SOL     OW31111   5.916   0.608   5.173
10071SOL    HW131112   6.016   0.607   5.163
10071SOL    HW231113   5.889   0.686   5.230
10072SOL     OW31114   6.272   3.195   1.493
10072SOL    HW131115   6.202   3.201   1.564
10072SOL    HW231116   6.239   3.139   1.418
10073SOL     OW31117   5.782   4.680   4.916
10073SOL    HW131118   5.822   4.695   5.006
10073SOL    HW231119   5.754   4.584   4.907
10074SOL     OW31120   2.190   4.946   0.518
10074SOL    HW131121   2.172   5.043   0.504
10074SOL    HW231122   2.163   4.895   0.437
10075SOL     OW31123   0.989   3.197   2.009
10075SOL    HW131124   1.000   3.263   1.935
10075SOL    HW231125   1.001   3.244   2.097
10076SOL     OW31126   5.393   5.098   4.168
10076SOL    HW131127   5.391   5.171   4.100
10076SOL    HW231128   5.366   5.135   4.257
10077SOL     OW31129   4.336   4.122   6.651
10077SOL    HW131130   4.402   4.050   6.626
10077SOL    HW231131   4.277   4.089   6.724
10078SOL     OW31132   6.405   5.402   4.844
10078SOL    HW131133   6.485   5.346   4.820
10078SOL    HW231134   6.423   5.497   4.822
10079SOL     OW31135   4.892   3.820   4.187
10079SOL    HW131136   4.843   3.906   4.190
10079SOL    HW231137   4.857   3.764   4.111
10080SOL     OW31138   5.189   1.445   5.824
10080SOL    HW131139   5.214   1.421   5.730
10080SOL    HW231140   5.159   1.540   5.828
10081SOL     OW31141   0.961   4.638   0.872
10081SOL    HW131142   1.013   4.696   0.936
10081SOL    HW231143   1.023   4.572   0.829
10082SOL     OW31144   1.101   4.785   2.077
10082SOL    HW131145   1.177   4.803   2.014
10082SOL    HW231146   1.070   4.690   2.066
10083SOL     OW31147   2.609   5.955   2.390
10083SOL    HW131148   2.531   5.957   2.453
10083SOL    HW231149   2.688   5.997   2.434
10084SOL     OW31150   0.625   1.955   4.548
10084SOL    HW131151   0.698   1.890   4.566
10084SOL    HW231152   0.635   2.035   4.608
10085SOL     OW31153   5.325   6.632   1.208
10085SOL    HW131154   5.264   6.555   1.188
10085SOL    HW231155   5.272   6.716   1.213
10086SOL     OW31156   4.552   6.341   3.340
10086SOL    HW131157   4.467   6.372   3.298
10086SOL    HW231158   4.614   6.308   3.268
10087SOL     OW31159   1.547   5.499   5.332
10087SOL    HW131160   1.620   5.530   5.392
10087SOL    HW231161   1.525   5.403   5.352
10088SOL     OW31162   6.315   2.946   1.832
10088SOL    HW131163   6.364   2.989   1.908
10088SOL    HW231164   6.354   2.978   1.746
10089SOL     OW31165   3.733   0.632   1.615
10089SOL    HW131166   3.707   0.723   1.646
10089SOL    HW231167   3.654   0.588   1.572
10090SOL     OW31168   2.019   6.757   3.385
10090SOL    HW131169   2.041   6.808   3.301
10090SOL    HW231170   2.035   6.660   3.370
10091SOL     OW31171   5.729   4.868   4.503
10091SOL    HW131172   5.782   4.893   4.584
10091SOL    HW231173   5.746   4.936   4.431
10092SOL     OW31174   1.225   2.579   4.080
10092SOL    HW131175   1.282   2.503   4.110
10092SOL    HW231176   1.180   2.621   4.159
10093SOL     OW31177   4.550   4.113   6.084
10093SOL    HW131178   4.568   4.210   6.097
10093SOL    HW231179   4.481   4.101   6.013
10094SOL     OW31180   3.463   2.015   1.097
10094SOL    HW131181   3.484   1.937   1.156
10094SOL    HW231182   3.511   2.096   1.131
10095SOL     OW31183   4.222   3.280   5.240
10095SOL    HW131184   4.248   3.188   5.271
10095SOL    HW231185   4.154   3.273   5.168
10096SOL     OW31186   6.835   3.272   2.173
10096SOL    HW131187   6.857   3.336   2.099
10096SOL    HW231188   6.793   3.190   2.135
10097SOL     OW31189   0.322   1.420   1.058
10097SOL    HW131190   0.417   1.429   1.029
10097SOL    HW231191   0.262   1.456   0.987
10098SOL     OW31192   3.394   5.409   4.344
10098SOL    HW131193   3.321   5.419   4.412
10098SOL    HW231194   3.357   5.431   4.253
10099SOL     OW31195   0.179   5.298   3.019
10099SOL    HW131196   0.169   5.397   3.013
10099SOL    HW231197   0.193   5.259   2.928
10100SOL     OW31198   5.379   4.610   3.778
10100SOL    HW131199   5.469   4.643   3.752
10100SOL    HW231200   5.314   4.686   3.775
10101SOL     OW31201   6.567   3.137   0.200
10101SOL    HW131202   6.620   3.052   0.204
10101SOL    HW231203   6.605   3.198   0.131
10102SOL     OW31204   6.860   4.849   3.529
10102SOL    HW131205   6.890   4.911   3.456
10102SOL    HW231206   6.923   4.856   3.607
10103SOL     OW31207   0.525   6.270   6.804
10103SOL    HW131208   0.541   6.367   6.783
10103SOL    HW231209   0.426   6.253   6.804
10104SOL     OW31210   2.848   0.887   4.572
10104SOL    HW131211   2.762   0.929   4.544
10104SOL    HW231212   2.924   0.950   4.552
10105SOL     OW31213   2.707   1.000   4.079
10105SOL    HW131214   2.623   1.049   4.101
10105SOL    HW231215   2.727   0.934   4.152
10106SOL     OW31216   5.478   4.238   1.478
10106SOL    HW131217   5.399   4.254   1.538
10106SOL    HW231218   5.557   4.212   1.533
10107SOL     OW31219   5.329   5.614   6.897
10107SOL    HW131220   5.327   5.669   6.813
10107SOL    HW231221   5.418   5.624   6.941
10108SOL     OW31222   2.013   2.775   4.857
10108SOL    HW131223   2.003   2.706   4.785
10108SOL    HW231224   2.108   2.781   4.886
10109SOL     OW31225   1.127   2.578   0.893
10109SOL    HW131226   1.139   2.652   0.958
10109SOL    HW231227   1.194   2.506   0.911
10110SOL     OW31228   5.855   5.839   2.682
10110SOL    HW131229   5.897   5.918   2.636
10110SOL    HW231230   5.823   5.867   2.773
10111SOL     OW31231   6.730   2.413   1.884
10111SOL    HW131232   6.806   2.421   1.948
10111SOL    HW231233   6.667   2.490   1.897
10112SOL     OW31234   6.285   2.487   3.765
10112SOL    HW131235   6.200   2.525   3.800
10112SOL    HW231236   6.286   2.388   3.782
10113SOL     OW31237   6.086   0.201   6.299
10113SOL    HW131238   6.185   0.195   6.308
10113SOL    HW231239   6.061   0.290   6.261
10114SOL     OW31240   5.853   3.110   2.011
10114SOL    HW131241   5.830   3.093   1.915
10114SOL    HW231242   5.952   3.102   2.024
10115SOL     OW31243   3.147   2.704   5.766
10115SOL    HW131244   3.089   2.724   5.687
10115SOL    HW231245   3.146   2.781   5.829
10116SOL     OW31246   0.439   0.353   6.225
10116SOL    HW131247   0.487   0.301   6.296
10116SOL    HW231248   0.487   0.439   6.209
10117SOL     OW31249   6.772   4.091   2.834
10117SOL    HW131250   6.765   4.024   2.908
10117SOL    HW231251   6.757   4.183   2.870
10118SOL     OW31252   4.061   4.920   3.582
10118SOL    HW131253   4.094   4.895   3.491
10118SOL    HW231254   4.063   5.020   3.592
10119SOL     OW31255   6.012   6.534   6.683
10119SOL    HW131256   6.062   6.555   6.767
10119SOL    HW231257   5.916   6.515   6.705
10120SOL     OW31258   2.729   2.125   3.435
10120SOL    HW131259   2.657   2.172   3.486
10120SOL    HW231260   2.767   2.051   3.492
10121SOL     OW31261   6.863   5.147   1.500
10121SOL    HW131262   6.810   5.215   1.552
10121SOL    HW231263   6.960   5.157   1.522
10122SOL     OW31264   2.262   0.470   3.307
10122SOL    HW131265   2.298   0.538   3.370
10122SOL    HW231266   2.337   0.414   3.272
10123SOL     OW31267   0.154   5.765   6.352
10123SOL    HW131268   0.078   5.736   6.293
10123SOL    HW231269   0.135   5.855   6.390
10124SOL     OW31270   2.128   5.388   2.140
10124SOL    HW131271   2.098   5.349   2.227
10124SOL    HW231272   2.051   5.433   2.095
10125SOL     OW31273   0.879   0.729   4.604
10125SOL    HW131274   0.938   0.778   4.668
10125SOL    HW231275   0.820   0.665   4.653
10126SOL     OW31276   6.588   6.160   5.726
10126SOL    HW131277   6.575   6.211   5.811
10126SOL    HW231278   6.685   6.150   5.707
10127SOL     OW31279   2.153   6.520   6.069
10127SOL    HW131280   2.244   6.560   6.077
10127SOL    HW231281   2.119   6.532   5.976
10128SOL     OW31282   2.320   2.764   6.922
10128SOL    HW131283   2.335   2.850   6.972
10128SOL    HW231284   2.332   2.780   6.824
10129SOL     OW31285   6.248   1.930   4.850
10129SOL    HW131286   6.330   1.920   4.908
10129SOL    HW231287   6.248   1.860   4.779
10130SOL     OW31288   0.280   1.811   3.823
10130SOL    HW131289   0.361   1.856   3.861
10130SOL    HW231290   0.233   1.874   3.761
10131SOL     OW31291   2.140   6.519   5.190
10131SOL    HW131292   2.101   6.563   5.109
10131SOL    HW231293   2.199   6.584   5.238
10132SOL     OW31294   5.445   6.971   2.391
10132SOL    HW131295   5.388   6.987   2.311
10132SOL    HW231296   5.411   6.892   2.442
10133SOL     OW31297   5.478   6.357   0.908
10133SOL    HW131298   5.455   6.272   0.955
10133SOL    HW231299   5.493   6.429   0.975
10134SOL     OW31300   0.354   6.754   3.549
10134SOL    HW131301   0.342   6.850   3.573
10134SOL    HW231302   0.267   6.706   3.561
10135SOL     OW31303   6.232   6.689   3.095
10135SOL    HW131304   6.269   6.622   3.159
10135SOL    HW231305   6.296   6.766   3.086
10136SOL     OW31306   4.785   1.302   3.272
10136SOL    HW131307   4.735   1.378   3.314
10136SOL    HW231308   4.772   1.219   3.326
10137SOL     OW31309   6.647   5.715   4.630
10137SOL    HW131310   6.733   5.666   4.616
10137SOL    HW231311   6.617   5.755   4.543
10138SOL     OW31312   0.007   2.649   2.011
10138SOL    HW131313   0.049   2.639   1.920
10138SOL    HW231314   7.004   2.559   2.044
10139SOL     OW31315   3.000   2.895   6.455
10139SOL    HW131316   3.020   2.992   6.459
10139SOL    HW231317   3.040   2.855   6.372
10140SOL     OW31318   0.445   5.911   5.135
10140SOL    HW131319   0.494   5.829   5.163
10140SOL    HW231320   0.504   5.965   5.074
10141SOL     OW31321   1.812   2.507   3.850
10141SOL    HW131322   1.788   2.542   3.941
10141SOL    HW231323   1.733   2.517   3.789
10142SOL     OW31324   4.869   5.608   3.146
10142SOL    HW131325   4.852   5.646   3.055
10142SOL    HW231326   4.803   5.646   3.211
10143SOL     OW31327   5.679   2.973   5.966
10143SOL    HW131328   5.777   2.979   5.983
10143SOL    HW231329   5.654   3.029   5.887
10144SOL     OW31330   3.401   0.132   0.829
10144SOL    HW131331   3.415   0.042   0.870
10144SOL    HW231332   3.487   0.182   0.828
10145SOL     OW31333   6.529   6.597   6.241
10145SOL    HW131334   6.594   6.597   6.166
10145SOL    HW231335   6.578   6.612   6.327
10146SOL     OW31336   1.485   3.053   5.441
10146SOL    HW131337   1.544   3.036   5.520
10146SOL    HW231338   1.449   3.146   5.446
10147SOL     OW31339   3.886   5.882   6.477
10147SOL    HW131340   3.961   5.935   6.517
10147SOL    HW231341   3.840   5.830   6.549
10148SOL     OW31342   0.473   4.718   6.484
10148SOL    HW131343   0.445   4.777   6.559
10148SOL    HW231344   0.519   4.637   6.521
10149SOL     OW31345   3.593   3.718   1.500
10149SOL    HW131346   3.495   3.738   1.497
10149SOL    HW231347   3.643   3.788   1.448
10150SOL     OW31348   4.853   4.184   1.224
10150SOL    HW131349   4.781   4.187   1.155
10150SOL    HW231350   4.942   4.197   1.180
10151SOL     OW31351   6.992   0.473   6.315
10151SOL    HW131352   0.002   0.486   6.222
10151SOL    HW231353   0.041   0.441   6.374
10152SOL     OW31354   4.166   6.794   2.800
10152SOL    HW131355   4.174   6.725   2.728
10152SOL    HW231356   4.165   6.885   2.758
10153SOL     OW31357   4.583   4.038   1.726
10153SOL    HW131358   4.631   4.089   1.654
10153SOL    HW231359   4.529   4.101   1.781
10154SOL     OW31360   3.616   5.394   5.285
10154SOL    HW131361   3.612   5.438   5.195
10154SOL    HW231362   3.631   5.296   5.274
10155SOL     OW31363   4.362   1.561   3.711
10155SOL    HW131364   4.388   1.508   3.629
10155SOL    HW231365   4.325   1.649   3.683
10156SOL     OW31366   3.973   1.614   5.923
10156SOL    HW131367   3.910   1.690   5.902
10156SOL    HW231368   3.999   1.618   6.019
10157SOL     OW31369   0.531   4.648   1.493
10157SOL    HW131370   0.503   4.552   1.489
10157SOL    HW231371   0.623   4.657   1.456
10158SOL     OW31372   5.565   5.479   6.663
10158SOL    HW131373   5.617   5.470   6.747
10158SOL    HW231374   5.499   5.404   6.656
10159SOL     OW31375   3.409   2.792   1.795
10159SOL    HW131376   3.409   2.771   1.893
10159SOL    HW231377   3.441   2.886   1.781
10160SOL     OW31378   0.028   3.844   2.475
10160SOL    HW131379   7.016   3.866   2.385
10160SOL    HW231380   0.019   3.924   2.534
10161SOL     OW31381   5.407   3.311   5.927
10161SOL    HW131382   5.452   3.285   6.012
10161SOL    HW231383   5.368   3.230   5.883
10162SOL     OW31384   1.725   2.939   2.398
10162SOL    HW131385   1.670   2.905   2.474
10162SOL    HW231386   1.782   2.865   2.362
10163SOL     OW31387   2.984   5.339   4.871
10163SOL    HW131388   3.082   5.323   4.883
10163SOL    HW231389   2.963   5.344   4.773
10164SOL     OW31390   6.949   1.158   3.680
10164SOL    HW131391   6.927   1.244   3.633
10164SOL    HW231392   7.017   1.176   3.751
10165SOL     OW31393   1.309   3.495   4.074
10165SOL    HW131394   1.297   3.550   3.992
10165SOL    HW231395   1.385   3.431   4.061
10166SOL     OW31396   2.668   5.977   2.773
10166SOL    HW131397   2.733   5.947   2.842
10166SOL    HW231398   2.575   5.972   2.810
10167SOL     OW31399   2.568   2.424   6.243
10167SOL    HW131400   2.545   2.449   6.149
10167SOL    HW231401   2.513   2.345   6.271
10168SOL     OW31402   0.294   0.491   0.169
10168SOL    HW131403   0.329   0.466   0.079
10168SOL    HW231404   0.198   0.517   0.162
10169SOL     OW31405   4.815   5.203   3.745
10169SOL    HW131406   4.886   5.142   3.782
10169SOL    HW231407   4.827   5.213   3.647
10170SOL     OW31408   5.033   6.520   0.477
10170SOL    HW131409   4.958   6.462   0.509
10170SOL    HW231410   5.058   6.584   0.549
10171SOL     OW31411   2.211   4.269   4.932
10171SOL    HW131412   2.259   4.191   4.973
10171SOL    HW231413   2.275   4.342   4.913
10172SOL     OW31414   0.191   1.128   2.506
10172SOL    HW131415   0.139   1.062   2.453
10172SOL    HW231416   0.278   1.089   2.534
10173SOL     OW31417   3.792   3.495   5.041
10173SOL    HW131418   3.713   3.556   5.048
10173SOL    HW231419   3.785   3.423   5.110
10174SOL     OW31420   4.572   5.112   1.026
10174SOL    HW131421   4.482   5.156   1.027
10174SOL    HW231422   4.643   5.183   1.020
10175SOL     OW31423   6.223   7.024   4.735
10175SOL    HW131424   6.214   7.018   4.636
10175SOL    HW231425   6.155   6.963   4.778
10176SOL     OW31426   0.351   0.417   4.775
10176SOL    HW131427   0.328   0.477   4.852
10176SOL    HW231428   0.321   0.458   4.690
10177SOL     OW31429   2.615   0.569   4.199
10177SOL    HW131430   2.591   0.538   4.107
10177SOL    HW231431   2.627   0.491   4.260
10178SOL     OW31432   0.707   1.859   1.374
10178SOL    HW131433   0.700   1.957   1.395
10178SOL    HW231434   0.793   1.823   1.409
10179SOL     OW31435   0.068   5.855   0.616
10179SOL    HW131436   0.112   5.901   0.693
10179SOL    HW231437   0.085   5.756   0.622
10180SOL     OW31438   3.513   6.745   6.636
10180SOL    HW131439   3.457   6.764   6.716
10180SOL    HW231440   3.557   6.656   6.646
10181SOL     OW31441   6.591   3.405   3.521
10181SOL    HW131442   6.583   3.432   3.617
10181SOL    HW231443   6.673   3.349   3.509
10182SOL     OW31444   3.942   0.683   0.851
10182SOL    HW131445   3.929   0.618   0.777
10182SOL    HW231446   3.959   0.634   0.936
10183SOL     OW31447   4.340   6.304   5.896
10183SOL    HW131448   4.417   6.355   5.859
10183SOL    HW231449   4.374   6.226   5.950
10184SOL     OW31450   5.204   2.061   5.514
10184SOL    HW131451   5.153   1.993   5.566
10184SOL    HW231452   5.255   2.120   5.576
10185SOL     OW31453   3.278   5.235   1.674
10185SOL    HW131454   3.353   5.212   1.736
10185SOL    HW231455   3.209   5.163   1.677
10186SOL     OW31456   3.779   3.198   6.861
10186SOL    HW131457   3.847   3.262   6.898
10186SOL    HW231458   3.687   3.231   6.882
10187SOL     OW31459   2.054   4.188   5.626
10187SOL    HW131460   2.149   4.190   5.595
10187SOL    HW231461   2.012   4.277   5.612
10188SOL     OW31462   2.687   6.972   6.396
10188SOL    HW131463   2.617   6.900   6.388
10188SOL    HW231464   2.764   6.938   6.449
10189SOL     OW31465   2.116   1.642   4.621
10189SOL    HW131466   2.109   1.583   4.702
10189SOL    HW231467   2.029   1.688   4.606
10190SOL     OW31468   4.567   3.925   0.854
10190SOL    HW131469   4.534   3.952   0.944
10190SOL    HW231470   4.520   3.841   0.825
10191SOL     OW31471   5.143   0.395   0.182
10191SOL    HW131472   5.062   0.453   0.171
10191SOL    HW231473   5.202   0.403   0.101
10192SOL     OW31474   1.768   0.849   4.545
10192SOL    HW131475   1.787   0.903   4.627
10192SOL    HW231476   1.672   0.820   4.547
10193SOL     OW31477   3.944   3.569   3.708
10193SOL    HW131478   3.963   3.667   3.697
10193SOL    HW231479   4.018   3.515   3.669
10194SOL     OW31480   3.361   0.335   3.060
10194SOL    HW131481   3.341   0.370   2.968
10194SOL    HW231482   3.323   0.243   3.069
10195SOL     OW31483   5.473   0.197   2.516
10195SOL    HW131484   5.457   0.101   2.491
10195SOL    HW231485   5.437   0.257   2.444
10196SOL     OW31486   5.217   3.768   4.632
10196SOL    HW131487   5.273   3.798   4.556
10196SOL    HW231488   5.208   3.668   4.630
10197SOL     OW31489   5.380   1.588   2.769
10197SOL    HW131490   5.442   1.661   2.797
10197SOL    HW231491   5.308   1.577   2.838
10198SOL     OW31492   3.041   0.933   1.756
10198SOL    HW131493   2.952   0.890   1.767
10198SOL    HW231494   3.047   0.979   1.668
10199SOL     OW31495   1.044   2.095   0.648
10199SOL    HW131496   1.080   2.183   0.617
10199SOL    HW231497   0.962   2.110   0.703
10200SOL     OW31498   5.860   5.499   5.305
10200SOL    HW131499   5.806   5.464   5.382
10200SOL    HW231500   5.803   5.502   5.223
10201SOL     OW31501   1.859   4.941   2.770
10201SOL    HW131502   1.838   4.938   2.868
10201SOL    HW231503   1.776   4.962   2.719
10202SOL     OW31504   0.461   2.544   3.157
10202SOL    HW131505   0.450   2.555   3.058
10202SOL    HW231506   0.422   2.623   3.204
10203SOL     OW31507   0.905   2.906   1.621
10203SOL    HW131508   0.954   2.918   1.708
10203SOL    HW231509   0.807   2.902   1.639
10204SOL     OW31510   2.880   4.942   4.066
10204SOL    HW131511   2.976   4.967   4.076
10204SOL    HW231512   2.824   5.025   4.075
10205SOL     OW31513   4.379   0.606   1.233
10205SOL    HW131514   4.469   0.588   1.273
10205SOL    HW231515   4.344   0.693   1.268
10206SOL     OW31516   5.171   0.221   6.188
10206SOL    HW131517   5.109   0.271   6.249
10206SOL    HW231518   5.134   0.130   6.171
10207SOL     OW31519   3.878   1.370   3.209
10207SOL    HW131520   3.933   1.337   3.132
10207SOL    HW231521   3.835   1.293   3.256
10208SOL     OW31522   6.644   3.914   5.475
10208SOL    HW131523   6.679   3.824   5.450
10208SOL    HW231524   6.702   3.955   5.546
10209SOL     OW31525   4.843   6.736   6.606
10209SOL    HW131526   4.790   6.713   6.688
10209SOL    HW231527   4.908   6.663   6.587
10210SOL     OW31528   5.586   6.156   0.698
10210SOL    HW131529   5.593   6.255   0.707
10210SOL    HW231530   5.614   6.112   0.784
10211SOL     OW31531   3.318   5.544   4.994
10211SOL    HW131532   3.409   5.575   5.021
10211SOL    HW231533   3.250   5.614   5.015
10212SOL     OW31534   6.188   5.847   5.781
10212SOL    HW131535   6.246   5.809   5.853
10212SOL    HW231536   6.242   5.862   5.699
10213SOL     OW31537   4.809   0.525   4.674
10213SOL    HW131538   4.709   0.523   4.668
10213SOL    HW231539   4.848   0.556   4.588
10214SOL     OW31540   0.414   1.251   1.395
10214SOL    HW131541   0.389   1.172   1.450
10214SOL    HW231542   0.340   1.318   1.396
10215SOL     OW31543   3.719   2.639   6.595
10215SOL    HW131544   3.794   2.608   6.653
10215SOL    HW231545   3.693   2.566   6.532
10216SOL     OW31546   4.999   6.800   2.474
10216SOL    HW131547   4.906   6.772   2.449
10216SOL    HW231548   5.007   6.899   2.471
10217SOL     OW31549   3.491   2.395   5.675
10217SOL    HW131550   3.453   2.428   5.589
10217SOL    HW231551   3.472   2.297   5.685
10218SOL     OW31552   2.841   2.359   7.018
10218SOL    HW131553   2.842   2.263   6.990
10218SOL    HW231554   2.816   2.365   0.091
10219SOL     OW31555   0.613   4.509   6.573
10219SOL    HW131556   0.553   4.429   6.578
10219SOL    HW231557   0.649   4.530   6.664
10220SOL     OW31558   4.277   2.969   0.237
10220SOL    HW131559   4.269   2.896   0.305
10220SOL    HW231560   4.187   3.011   0.222
10221SOL     OW31561   3.292   1.039   4.376
10221SOL    HW131562   3.367   0.977   4.355
10221SOL    HW231563   3.264   1.087   4.292
10222SOL     OW31564   1.648   4.847   5.785
10222SOL    HW131565   1.691   4.853   5.695
10222SOL    HW231566   1.652   4.936   5.830
10223SOL     OW31567   6.929   4.385   0.921
10223SOL    HW131568   6.961   4.452   0.855
10223SOL    HW231569   6.835   4.407   0.949
10224SOL     OW31570   2.426   0.252   4.976
10224SOL    HW131571   2.416   0.185   5.050
10224SOL    HW231572   2.483   0.328   5.006
10225SOL     OW31573   4.922   6.019   4.308
10225SOL    HW131574   4.833   6.024   4.263
10225SOL    HW231575   4.910   5.985   4.402
10226SOL     OW31576   0.193   2.900   6.999
10226SOL    HW131577   0.187   2.801   7.011
10226SOL    HW231578   0.101   2.938   6.989
10227SOL     OW31579   6.037   5.508   5.690
10227SOL    HW131580   5.954   5.543   5.733
10227SOL    HW231581   6.066   5.570   5.618
10228SOL     OW31582   1.148   4.012   2.610
10228SOL    HW131583   1.092   3.967   2.681
10228SOL    HW231584   1.235   3.964   2.602
10229SOL     OW31585   1.725   1.623   1.730
10229SOL    HW131586   1.627   1.600   1.731
10229SOL    HW231587   1.735   1.721   1.746
10230SOL     OW31588   5.984   6.918   4.438
10230SOL    HW131589   5.921   6.939   4.512
10230SOL    HW231590   6.037   7.001   4.415
10231SOL     OW31591   4.878   0.173   4.514
10231SOL    HW131592   4.929   0.166   4.599
10231SOL    HW231593   4.926   0.123   4.442
10232SOL     OW31594   4.564   1.840   3.579
10232SOL    HW131595   4.574   1.878   3.671
10232SOL    HW231596   4.466   1.832   3.557
10233SOL     OW31597   5.009   1.145   5.339
10233SOL    HW131598   4.948   1.119   5.414
10233SOL    HW231599   4.972   1.112   5.252
10234SOL     OW31600   4.703   5.645   1.837
10234SOL    HW131601   4.773   5.647   1.765
10234SOL    HW231602   4.718   5.566   1.896
10235SOL     OW31603   4.999   1.434   6.844
10235SOL    HW131604   4.901   1.432   6.858
10235SOL    HW231605   5.030   1.529   6.833
10236SOL     OW31606   2.408   5.938   1.760
10236SOL    HW131607   2.468   5.909   1.835
10236SOL    HW231608   2.410   5.869   1.688
10237SOL     OW31609   5.746   2.682   3.422
10237SOL    HW131610   5.774   2.588   3.409
10237SOL    HW231611   5.654   2.685   3.463
10238SOL     OW31612   4.533   5.877   4.795
10238SOL    HW131613   4.484   5.863   4.880
10238SOL    HW231614   4.553   5.789   4.752
10239SOL     OW31615   6.676   3.415   4.296
10239SOL    HW131616   6.734   3.474   4.241
10239SOL    HW231617   6.613   3.365   4.237
10240SOL     OW31618   5.871   3.783   3.852
10240SOL    HW131619   5.805   3.854   3.830
10240SOL    HW231620   5.896   3.790   3.948
10241SOL     OW31621   1.882   1.474   3.095
10241SOL    HW131622   1.893   1.375   3.105
10241SOL    HW231623   1.892   1.519   3.184
10242SOL     OW31624   0.886   6.009   6.448
10242SOL    HW131625   0.810   6.073   6.443
10242SOL    HW231626   0.882   5.958   6.534
10243SOL     OW31627   0.728   6.570   2.849
10243SOL    HW131628   0.775   6.626   2.917
10243SOL    HW231629   0.734   6.614   2.760
10244SOL     OW31630   1.522   5.921   0.005
10244SOL    HW131631   1.581   5.933   6.950
10244SOL    HW231632   1.474   5.834   7.023
10245SOL     OW31633   2.165   2.743   0.110
10245SOL    HW131634   2.113   2.828   0.103
10245SOL    HW231635   2.218   2.730   0.026
10246SOL     OW31636   3.406   3.471   3.801
10246SOL    HW131637   3.501   3.452   3.776
10246SOL    HW231638   3.398   3.479   3.901
10247SOL     OW31639   0.761   5.844   5.362
10247SOL    HW131640   0.769   5.938   5.329
10247SOL    HW231641   0.727   5.785   5.289
10248SOL     OW31642   4.760   0.989   2.671
10248SOL    HW131643   4.842   0.933   2.674
10248SOL    HW231644   4.723   0.999   2.763
10249SOL     OW31645   5.353   0.943   6.854
10249SOL    HW131646   5.291   0.925   6.778
10249SOL    HW231647   5.306   0.921   6.940
10250SOL     OW31648   4.785   0.476   0.324
10250SOL    HW131649   4.839   0.433   0.396
10250SOL    HW231650   4.700   0.512   0.363
10251SOL     OW31651   4.118   4.539   6.997
10251SOL    HW131652   4.019   4.548   7.010
10251SOL    HW231653   4.143   4.582   6.910
10252SOL     OW31654   6.485   4.896   1.801
10252SOL    HW131655   6.509   4.800   1.813
10252SOL    HW231656   6.434   4.927   1.882
10253SOL     OW31657   3.823   4.890   0.141
10253SOL    HW131658   3.827   4.990   0.153
10253SOL    HW231659   3.914   4.851   0.151
10254SOL     OW31660   2.414   1.730   4.341
10254SOL    HW131661   2.374   1.652   4.390
10254SOL    HW231662   2.356   1.755   4.264
10255SOL     OW31663   2.996   5.400   2.880
10255SOL    HW131664   2.931   5.364   2.947
10255SOL    HW231665   2.947   5.451   2.809
10256SOL     OW31666   6.079   6.397   0.257
10256SOL    HW131667   5.985   6.407   0.225
10256SOL    HW231668   6.079   6.349   0.345
10257SOL     OW31669   2.316   6.419   6.341
10257SOL    HW131670   2.388   6.371   6.290
10257SOL    HW231671   2.269   6.483   6.279
10258SOL     OW31672   4.718   0.512   3.557
10258SOL    HW131673   4.815   0.533   3.548
10258SOL    HW231674   4.702   0.466   3.645
10259SOL     OW31675   1.034   3.509   4.092
10259SOL    HW131676   1.025   3.451   4.011
10259SOL    HW231677   1.131   3.527   4.110
10260SOL     OW31678   0.102   6.323   1.688
10260SOL    HW131679   0.013   6.362   1.663
10260SOL    HW231680   0.170   6.396   1.695
10261SOL     OW31681   1.793   0.040   1.527
10261SOL    HW131682   1.718   0.069   1.467
10261SOL    HW231683   1.849   0.119   1.550
10262SOL     OW31684   1.085   5.809   4.438
10262SOL    HW131685   1.004   5.751   4.430
10262SOL    HW231686   1.144   5.774   4.511
10263SOL     OW31687   6.812   2.387   5.680
10263SOL    HW131688   6.815   2.466   5.741
10263SOL    HW231689   6.859   2.409   5.595
10264SOL     OW31690   0.200   0.121   0.221
10264SOL    HW131691   0.297   0.096   0.228
10264SOL    HW231692   0.150   0.049   0.174
10265SOL     OW31693   4.196   2.223   2.117
10265SOL    HW131694   4.098   2.208   2.099
10265SOL    HW231695   4.249   2.196   2.036
10266SOL     OW31696   4.175   3.697   6.588
10266SOL    HW131697   4.081   3.694   6.623
10266SOL    HW231698   4.201   3.792   6.572
10267SOL     OW31699   0.361   1.491   6.287
10267SOL    HW131700   0.263   1.484   6.306
10267SOL    HW231701   0.398   1.571   6.335
10268SOL     OW31702   6.138   4.568   1.463
10268SOL    HW131703   6.106   4.649   1.412
10268SOL    HW231704   6.096   4.567   1.553
10269SOL     OW31705   3.145   2.479   6.019
10269SOL    HW131706   3.186   2.537   5.948
10269SOL    HW231707   3.214   2.417   6.056
10270SOL     OW31708   3.243   6.870   1.035
10270SOL    HW131709   3.272   6.961   1.066
10270SOL    HW231710   3.145   6.870   1.016
10271SOL     OW31711   3.239   4.959   0.594
10271SOL    HW131712   3.216   5.031   0.528
10271SOL    HW231713   3.168   4.954   0.664
10272SOL     OW31714   1.304   1.540   5.127
10272SOL    HW131715   1.380   1.604   5.111
10272SOL    HW231716   1.330   1.475   5.199
10273SOL     OW31717   3.957   6.569   3.940
10273SOL    HW131718   4.014   6.492   3.910
10273SOL    HW231719   3.988   6.600   4.030
10274SOL     OW31720   2.128   5.480   6.540
10274SOL    HW131721   2.143   5.526   6.628
10274SOL    HW231722   2.197   5.408   6.528
10275SOL     OW31723   0.869   6.799   2.318
10275SOL    HW131724   0.948   6.782   2.378
10275SOL    HW231725   0.811   6.718   2.315
10276SOL     OW31726   0.050   6.587   0.109
10276SOL    HW131727   7.013   6.654   0.068
10276SOL    HW231728   0.015   6.561   0.200
10277SOL     OW31729   1.117   6.193   2.333
10277SOL    HW131730   1.160   6.150   2.255
10277SOL    HW231731   1.184   6.204   2.407
10278SOL     OW31732   6.894   0.133   6.520
10278SOL    HW131733   6.849   0.165   6.437
10278SOL    HW231734   6.898   0.207   6.587
10279SOL     OW31735   3.946   6.143   3.800
10279SOL    HW131736   3.971   6.056   3.759
10279SOL    HW231737   3.937   6.132   3.899
10280SOL     OW31738   3.307   2.524   6.349
10280SOL    HW131739   3.217   2.516   6.392
10280SOL    HW231740   3.315   2.614   6.306
10281SOL     OW31741   4.113   0.251   4.167
10281SOL    HW131742   4.031   0.293   4.208
10281SOL    HW231743   4.109   0.152   4.179
10282SOL     OW31744   1.003   2.713   4.911
10282SOL    HW131745   1.074   2.644   4.925
10282SOL    HW231746   1.023   2.764   4.827
10283SOL     OW31747   1.525   3.756   5.948
10283SOL    HW131748   1.580   3.816   5.891
10283SOL    HW231749   1.430   3.786   5.946
10284SOL     OW31750   5.443   2.689   6.980
10284SOL    HW131751   5.515   2.619   6.984
10284SOL    HW231752   5.423   2.721   0.047
10285SOL     OW31753   5.727   0.549   0.564
10285SOL    HW131754   5.678   0.462   0.565
10285SOL    HW231755   5.680   0.612   0.502
10286SOL     OW31756   4.112   0.735   4.116
10286SOL    HW131757   4.200   0.762   4.156
10286SOL    HW231758   4.037   0.762   4.176
10287SOL     OW31759   1.433   4.987   1.638
10287SOL    HW131760   1.384   5.006   1.553
10287SOL    HW231761   1.531   4.987   1.621
10288SOL     OW31762   5.091   6.235   4.451
10288SOL    HW131763   5.191   6.246   4.449
10288SOL    HW231764   5.062   6.178   4.374
10289SOL     OW31765   2.556   1.479   1.346
10289SOL    HW131766   2.510   1.568   1.342
10289SOL    HW231767   2.537   1.436   1.435
10290SOL     OW31768   2.762   3.391   1.958
10290SOL    HW131769   2.679   3.345   1.988
10290SOL    HW231770   2.820   3.410   2.038
10291SOL     OW31771   4.779   0.365   5.763
10291SOL    HW131772   4.838   0.318   5.697
10291SOL    HW231773   4.768   0.461   5.737
10292SOL     OW31774   0.199   0.628   5.315
10292SOL    HW131775   0.252   0.690   5.373
10292SOL    HW231776   0.216   0.534   5.342
10293SOL     OW31777   2.917   5.782   3.322
10293SOL    HW131778   2.846   5.814   3.259
10293SOL    HW231779   3.003   5.768   3.273
10294SOL     OW31780   6.359   1.501   3.349
10294SOL    HW131781   6.449   1.484   3.309
10294SOL    HW231782   6.352   1.451   3.436
10295SOL     OW31783   1.919   4.517   4.516
10295SOL    HW131784   1.937   4.588   4.449
10295SOL    HW231785   1.948   4.548   4.607
10296SOL     OW31786   6.765   2.699   1.452
10296SOL    HW131787   6.675   2.679   1.492
10296SOL    HW231788   6.778   2.642   1.371
10297SOL     OW31789   2.813   5.593   4.746
10297SOL    HW131790   2.776   5.512   4.701
10297SOL    HW231791   2.742   5.636   4.801
10298SOL     OW31792   6.035   3.361   3.018
10298SOL    HW131793   5.992   3.408   3.095
10298SOL    HW231794   6.017   3.413   2.934
10299SOL     OW31795   4.920   3.788   2.070
10299SOL    HW131796   4.977   3.866   2.094
10299SOL    HW231797   4.837   3.820   2.025
10300SOL     OW31798   2.004   5.987   1.890
10300SOL    HW131799   2.037   6.016   1.800
10300SOL    HW231800   2.074   5.931   1.934
10301SOL     OW31801   5.395   1.385   1.426
10301SOL    HW131802   5.320   1.362   1.364
10301SOL    HW231803   5.479   1.343   1.394
10302SOL     OW31804   1.270   5.265   3.629
10302SOL    HW131805   1.329   5.205   3.683
10302SOL    HW231806   1.232   5.336   3.688
10303SOL     OW31807   3.892   3.124   1.416
10303SOL    HW131808   3.896   3.025   1.433
10303SOL    HW231809   3.863   3.140   1.322
10304SOL     OW31810   6.145   6.695   4.111
10304SOL    HW131811   6.220   6.647   4.066
10304SOL    HW231812   6.074   6.718   4.044
10305SOL     OW31813   1.893   5.084   1.026
10305SOL    HW131814   1.905   4.986   1.011
10305SOL    HW231815   1.935   5.110   1.113
10306SOL     OW31816   4.083   4.788   0.193
10306SOL    HW131817   4.182   4.779   0.190
10306SOL    HW231818   4.050   4.767   0.286
10307SOL     OW31819   3.042   0.951   5.550
10307SOL    HW131820   3.085   0.996   5.472
10307SOL    HW231821   2.943   0.948   5.536
10308SOL     OW31822   2.810   5.383   3.943
10308SOL    HW131823   2.831   5.460   4.004
10308SOL    HW231824   2.721   5.398   3.900
10309SOL     OW31825   0.047   6.197   3.429
10309SOL    HW131826   7.007   6.272   3.440
10309SOL    HW231827   0.141   6.231   3.438
10310SOL     OW31828   2.886   3.312   4.077
10310SOL    HW131829   2.957   3.262   4.029
10310SOL    HW231830   2.858   3.391   4.022
10311SOL     OW31831   0.471   6.546   1.082
10311SOL    HW131832   0.460   6.457   1.127
10311SOL    HW231833   0.471   6.618   1.151
10312SOL     OW31834   2.258   4.535   0.723
10312SOL    HW131835   2.266   4.445   0.766
10312SOL    HW231836   2.341   4.554   0.670
10313SOL     OW31837   6.249   6.191   4.169
10313SOL    HW131838   6.330   6.202   4.225
10313SOL    HW231839   6.270   6.132   4.091
10314SOL     OW31840   6.428   5.044   5.341
10314SOL    HW131841   6.335   5.018   5.319
10314SOL    HW231842   6.466   5.099   5.267
10315SOL     OW31843   4.816   6.093   5.600
10315SOL    HW131844   4.827   6.021   5.531
10315SOL    HW231845   4.725   6.086   5.640
10316SOL     OW31846   0.320   3.323   2.660
10316SOL    HW131847   0.251   3.395   2.660
10316SOL    HW231848   0.276   3.235   2.645
10317SOL     OW31849   4.343   4.577   0.550
10317SOL    HW131850   4.346   4.537   0.458
10317SOL    HW231851   4.436   4.594   0.582
10318SOL     OW31852   6.303   5.923   2.260
10318SOL    HW131853   6.395   5.962   2.264
10318SOL    HW231854   6.238   5.992   2.229
10319SOL     OW31855   5.356   5.972   4.921
10319SOL    HW131856   5.347   5.891   4.863
10319SOL    HW231857   5.413   6.040   4.874
10320SOL     OW31858   4.471   6.059   1.628
10320SOL    HW131859   4.464   6.122   1.550
10320SOL    HW231860   4.385   6.007   1.636
10321SOL     OW31861   3.688   0.020   3.713
10321SOL    HW131862   3.723   0.107   3.677
10321SOL    HW231863   3.691   0.022   3.812
10322SOL     OW31864   0.590   2.362   0.153
10322SOL    HW131865   0.554   2.454   0.139
10322SOL    HW231866   0.687   2.367   0.177
10323SOL     OW31867   0.255   2.285   5.323
10323SOL    HW131868   0.222   2.274   5.416
10323SOL    HW231869   0.307   2.370   5.316
10324SOL     OW31870   3.652   2.963   3.997
10324SOL    HW131871   3.607   3.037   3.948
10324SOL    HW231872   3.681   2.995   4.087
10325SOL     OW31873   0.127   3.498   3.010
10325SOL    HW131874   0.110   3.446   3.094
10325SOL    HW231875   0.046   3.554   2.989
10326SOL     OW31876   5.196   1.520   0.967
10326SOL    HW131877   5.182   1.619   0.965
10326SOL    HW231878   5.151   1.478   0.888
10327SOL     OW31879   6.875   0.674   3.290
10327SOL    HW131880   6.825   0.620   3.223
10327SOL    HW231881   6.815   0.743   3.330
10328SOL     OW31882   6.230   3.586   2.484
10328SOL    HW131883   6.135   3.595   2.514
10328SOL    HW231884   6.247   3.493   2.451
10329SOL     OW31885   3.436   6.688   3.068
10329SOL    HW131886   3.496   6.660   2.993
10329SOL    HW231887   3.358   6.626   3.073
10330SOL     OW31888   3.407   4.298   1.001
10330SOL    HW131889   3.457   4.211   1.000
10330SOL    HW231890   3.312   4.281   1.028
10331SOL     OW31891   4.922   0.393   4.309
10331SOL    HW131892   4.833   0.375   4.267
10331SOL    HW231893   4.941   0.322   4.378
10332SOL     OW31894   0.369   1.714   6.986
10332SOL    HW131895   0.316   1.684   0.041
10332SOL    HW231896   0.366   1.644   6.915
10333SOL     OW31897   5.215   4.662   5.125
10333SOL    HW131898   5.146   4.664   5.053
10333SOL    HW231899   5.224   4.569   5.161
10334SOL     OW31900   0.977   5.011   4.781
10334SOL    HW131901   1.066   5.025   4.825
10334SOL    HW231902   0.946   4.917   4.799
10335SOL     OW31903   2.830   5.225   1.856
10335SOL    HW131904   2.795   5.229   1.762
10335SOL    HW231905   2.835   5.130   1.885
10336SOL     OW31906   4.683   6.304   3.084
10336SOL    HW131907   4.663   6.258   2.997
10336SOL    HW231908   4.719   6.396   3.065
10337SOL     OW31909   0.876   4.743   5.128
10337SOL    HW131910   0.884   4.717   5.032
10337SOL    HW231911   0.924   4.676   5.185
10338SOL     OW31912   3.236   4.876   3.118
10338SOL    HW131913   3.313   4.887   3.055
10338SOL    HW231914   3.266   4.826   3.199
10339SOL     OW31915   3.073   5.436   0.317
10339SOL    HW131916   3.019   5.445   0.234
10339SOL    HW231917   3.030   5.490   0.390
10340SOL     OW31918   1.670   6.617   0.158
10340SOL    HW131919   1.754   6.563   0.146
10340SOL    HW231920   1.593   6.569   0.115
10341SOL     OW31921   1.042   2.490   2.490
10341SOL    HW131922   0.980   2.497   2.412
10341SOL    HW231923   1.057   2.581   2.528
10342SOL     OW31924   3.398   6.254   3.654
10342SOL    HW131925   3.368   6.240   3.748
10342SOL    HW231926   3.404   6.353   3.636
10343SOL     OW31927   2.338   2.821   3.736
10343SOL    HW131928   2.392   2.755   3.682
10343SOL    HW231929   2.291   2.884   3.674
10344SOL     OW31930   4.265   3.745   0.714
10344SOL    HW131931   4.348   3.689   0.715
10344SOL    HW231932   4.216   3.733   0.801
10345SOL     OW31933   1.966   2.035   5.350
10345SOL    HW131934   2.045   2.056   5.408
10345SOL    HW231935   1.946   1.937   5.354
10346SOL     OW31936   5.747   4.824   0.484
10346SOL    HW131937   5.729   4.862   0.575
10346SOL    HW231938   5.676   4.757   0.461
10347SOL     OW31939   4.985   0.259   2.008
10347SOL    HW131940   4.965   0.269   1.910
10347SOL    HW231941   5.037   0.338   2.039
10348SOL     OW31942   6.516   4.793   5.755
10348SOL    HW131943   6.518   4.741   5.670
10348SOL    HW231944   6.516   4.730   5.833
10349SOL     OW31945   6.695   2.129   0.984
10349SOL    HW131946   6.786   2.168   0.999
10349SOL    HW231947   6.661   2.158   0.894
10350SOL     OW31948   2.161   4.942   4.848
10350SOL    HW131949   2.099   4.916   4.922
10350SOL    HW231950   2.252   4.906   4.867
10351SOL     OW31951   3.905   4.943   4.190
10351SOL    HW131952   3.993   4.973   4.152
10351SOL    HW231953   3.832   4.963   4.125
10352SOL     OW31954   6.622   0.993   0.445
10352SOL    HW131955   6.621   1.050   0.528
10352SOL    HW231956   6.535   1.003   0.396
10353SOL     OW31957   6.247   2.133   3.552
10353SOL    HW131958   6.264   2.150   3.649
10353SOL    HW231959   6.157   2.091   3.540
10354SOL     OW31960   6.265   2.931   1.054
10354SOL    HW131961   6.167   2.941   1.041
10354SOL    HW231962   6.307   2.899   0.969
10355SOL     OW31963   0.847   1.156   0.927
10355SOL    HW131964   0.852   1.256   0.935
10355SOL    HW231965   0.854   1.115   1.018
10356SOL     OW31966   5.884   2.834   5.716
10356SOL    HW131967   5.803   2.892   5.727
10356SOL    HW231968   5.946   2.876   5.650
10357SOL     OW31969   1.494   0.400   6.043
10357SOL    HW131970   1.452   0.472   6.098
10357SOL    HW231971   1.423   0.347   5.997
10358SOL     OW31972   0.185   2.881   3.094
10358SOL    HW131973   0.256   2.810   3.094
10358SOL    HW231974   0.142   2.886   3.184
10359SOL     OW31975   6.724   1.680   2.520
10359SOL    HW131976   6.759   1.639   2.436
10359SOL    HW231977   6.663   1.756   2.497
10360SOL     OW31978   5.455   3.785   1.658
10360SOL    HW131979   5.446   3.883   1.674
10360SOL    HW231980   5.508   3.769   1.575
10361SOL     OW31981   5.852   2.212   2.384
10361SOL    HW131982   5.783   2.181   2.318
10361SOL    HW231983   5.921   2.140   2.396
10362SOL     OW31984   1.368   6.104   1.215
10362SOL    HW131985   1.412   6.193   1.205
10362SOL    HW231986   1.270   6.112   1.195
10363SOL     OW31987   5.324   4.467   6.369
10363SOL    HW131988   5.232   4.429   6.364
10363SOL    HW231989   5.327   4.537   6.441
10364SOL     OW31990   5.469   4.920   2.552
10364SOL    HW131991   5.488   4.943   2.647
10364SOL    HW231992   5.523   4.978   2.492
10365SOL     OW31993   6.065   5.200   0.873
10365SOL    HW131994   6.105   5.214   0.963
10365SOL    HW231995   6.031   5.106   0.866
10366SOL     OW31996   3.315   6.210   3.920
10366SOL    HW131997   3.297   6.285   3.984
10366SOL    HW231998   3.251   6.135   3.938
10367SOL     OW31999   5.204   6.264   1.544
10367SOL    HW132000   5.269   6.307   1.607
10367SOL    HW232001   5.135   6.214   1.597
10368SOL     OW32002   1.745   6.229   1.306
10368SOL    HW132003   1.808   6.304   1.328
10368SOL    HW232004   1.774   6.186   1.221
10369SOL     OW32005   2.576   0.127   6.170
10369SOL    HW132006   2.508   0.075   6.119
10369SOL    HW232007   2.578   0.095   6.265
10370SOL     OW32008   1.914   1.165   5.303
10370SOL    HW132009   1.900   1.066   5.308
10370SOL    HW232010   2.012   1.185   5.300
10371SOL     OW32011   4.597   5.411   3.160
10371SOL    HW132012   4.619   5.486   3.222
10371SOL    HW232013   4.671   5.399   3.094
10372SOL     OW32014   2.344   6.702   0.860
10372SOL    HW132015   2.414   6.635   0.885
10372SOL    HW232016   2.382   6.769   0.797
10373SOL     OW32017   6.414   1.318   6.595
10373SOL    HW132018   6.458   1.333   6.683
10373SOL    HW232019   6.444   1.388   6.530
10374SOL     OW32020   3.398   4.968   3.419
10374SOL    HW132021   3.470   4.964   3.489
10374SOL    HW232022   3.440   4.978   3.329
10375SOL     OW32023   2.627   4.993   0.546
10375SOL    HW132024   2.588   4.977   0.455
10375SOL    HW232025   2.565   5.049   0.600
10376SOL     OW32026   2.393   5.073   4.626
10376SOL    HW132027   2.380   4.975   4.607
10376SOL    HW232028   2.409   5.121   4.540
10377SOL     OW32029   1.971   1.117   2.333
10377SOL    HW132030   2.039   1.047   2.313
10377SOL    HW232031   1.882   1.088   2.298
10378SOL     OW32032   6.958   5.794   3.890
10378SOL    HW132033   0.027   5.815   3.917
10378SOL    HW232034   6.940   5.830   3.799
10379SOL     OW32035   1.768   0.046   4.423
10379SOL    HW132036   1.697   0.032   4.492
10379SOL    HW232037   1.756   7.006   4.348
10380SOL     OW32038   2.707   2.286   4.254
10380SOL    HW132039   2.619   2.326   4.228
10380SOL    HW232040   2.763   2.274   4.172
10381SOL     OW32041   3.970   6.387   2.523
10381SOL    HW132042   3.873   6.365   2.522
10381SOL    HW232043   4.021   6.314   2.476
10382SOL     OW32044   4.158   5.504   1.116
10382SOL    HW132045   4.202   5.454   1.191
10382SOL    HW232046   4.183   5.601   1.121
10383SOL     OW32047   0.995   5.022   0.284
10383SOL    HW132048   0.918   5.085   0.272
10383SOL    HW232049   1.061   5.037   0.210
10384SOL     OW32050   5.064   5.677   0.852
10384SOL    HW132051   5.046   5.612   0.778
10384SOL    HW232052   5.157   5.711   0.845
10385SOL     OW32053   4.021   4.229   0.454
10385SOL    HW132054   4.105   4.213   0.402
10385SOL    HW232055   3.962   4.292   0.403
10386SOL     OW32056   0.023   0.932   1.007
10386SOL    HW132057   0.087   0.995   0.963
10386SOL    HW232058   0.072   0.849   1.035
10387SOL     OW32059   4.918   3.172   1.919
10387SOL    HW132060   4.832   3.145   1.963
10387SOL    HW232061   4.924   3.272   1.916
10388SOL     OW32062   1.882   6.377   5.932
10388SOL    HW132063   1.922   6.447   5.991
10388SOL    HW232064   1.797   6.412   5.892
10389SOL     OW32065   0.544   4.131   6.934
10389SOL    HW132066   0.494   4.215   6.955
10389SOL    HW232067   0.617   4.152   6.869
10390SOL     OW32068   2.495   2.485   2.001
10390SOL    HW132069   2.565   2.454   1.936
10390SOL    HW232070   2.521   2.458   2.094
10391SOL     OW32071   5.724   6.714   3.761
10391SOL    HW132072   5.743   6.616   3.767
10391SOL    HW232073   5.687   6.746   3.848
10392SOL     OW32074   6.383   3.465   4.613
10392SOL    HW132075   6.371   3.492   4.709
10392SOL    HW232076   6.365   3.367   4.605
10393SOL     OW32077   1.713   3.500   3.380
10393SOL    HW132078   1.736   3.552   3.298
10393SOL    HW232079   1.795   3.456   3.416
10394SOL     OW32080   3.334   0.443   4.235
10394SOL    HW132081   3.267   0.390   4.183
10394SOL    HW232082   3.322   0.540   4.215
10395SOL     OW32083   1.194   6.749   1.187
10395SOL    HW132084   1.172   6.659   1.149
10395SOL    HW232085   1.293   6.762   1.186
10396SOL     OW32086   3.258   2.138   4.485
10396SOL    HW132087   3.250   2.186   4.573
10396SOL    HW232088   3.354   2.125   4.462
10397SOL     OW32089   4.471   1.949   3.873
10397SOL    HW132090   4.382   1.911   3.898
10397SOL    HW232091   4.458   2.039   3.831
10398SOL     OW32092   6.099   3.218   1.702
10398SOL    HW132093   6.080   3.159   1.780
10398SOL    HW232094   6.014   3.243   1.658
10399SOL     OW32095   0.898   3.877   1.789
10399SOL    HW132096   0.854   3.819   1.721
10399SOL    HW232097   0.966   3.936   1.745
10400SOL     OW32098   3.073   6.106   0.963
10400SOL    HW132099   3.131   6.184   0.987
10400SOL    HW232100   2.978   6.136   0.956
10401SOL     OW32101   0.252   1.078   5.892
10401SOL    HW132102   0.237   1.068   5.793
10401SOL    HW232103   0.231   1.172   5.919
10402SOL     OW32104   0.099   2.838   5.199
10402SOL    HW132105   0.198   2.829   5.210
10402SOL    HW232106   0.053   2.818   5.286
10403SOL     OW32107   3.499   0.911   1.188
10403SOL    HW132108   3.582   0.959   1.159
10403SOL    HW232109   3.468   0.850   1.115
10404SOL     OW32110   0.160   6.371   6.546
10404SOL    HW132111   0.060   6.364   6.536
10404SOL    HW232112   0.183   6.456   6.593
10405SOL     OW32113   0.486   2.644   6.506
10405SOL    HW132114   0.569   2.698   6.516
10405SOL    HW232115   0.451   2.652   6.412
10406SOL     OW32116   2.744   5.047   1.344
10406SOL    HW132117   2.710   5.044   1.439
10406SOL    HW232118   2.788   4.960   1.322
10407SOL     OW32119   2.773   6.710   6.682
10407SOL    HW132120   2.677   6.736   6.673
10407SOL    HW232121   2.780   6.612   6.698
10408SOL     OW32122   4.100   1.959   0.021
10408SOL    HW132123   4.054   2.025   6.987
10408SOL    HW232124   4.082   1.866   7.012
10409SOL     OW32125   5.914   4.764   1.124
10409SOL    HW132126   5.925   4.670   1.090
10409SOL    HW232127   5.922   4.764   1.224
10410SOL     OW32128   5.790   0.367   0.858
10410SOL    HW132129   5.843   0.282   0.862
10410SOL    HW232130   5.697   0.347   0.827
10411SOL     OW32131   2.345   5.235   3.355
10411SOL    HW132132   2.394   5.321   3.344
10411SOL    HW232133   2.255   5.252   3.396
10412SOL     OW32134   6.575   0.667   0.800
10412SOL    HW132135   6.608   0.624   0.716
10412SOL    HW232136   6.482   0.636   0.819
10413SOL     OW32137   0.259   2.903   1.752
10413SOL    HW132138   0.165   2.920   1.780
10413SOL    HW232139   0.316   2.982   1.776
10414SOL     OW32140   4.787   2.981   4.006
10414SOL    HW132141   4.770   3.021   3.916
10414SOL    HW232142   4.828   3.049   4.067
10415SOL     OW32143   0.117   6.962   6.007
10415SOL    HW132144   0.179   0.008   6.041
10415SOL    HW232145   0.170   6.893   5.957
10416SOL     OW32146   5.540   2.600   4.392
10416SOL    HW132147   5.453   2.597   4.440
10416SOL    HW232148   5.612   2.629   4.455
10417SOL     OW32149   2.403   4.554   3.792
10417SOL    HW132150   2.381   4.468   3.838
10417SOL    HW232151   2.364   4.554   3.700
10418SOL     OW32152   0.837   4.300   5.582
10418SOL    HW132153   0.790   4.349   5.509
10418SOL    HW232154   0.826   4.350   5.668
10419SOL     OW32155   1.228   1.400   0.621
10419SOL    HW132156   1.295   1.389   0.694
10419SOL    HW232157   1.144   1.439   0.658
10420SOL     OW32158   0.004   3.412   3.764
10420SOL    HW132159   6.979   3.498   3.754
10420SOL    HW232160   0.095   3.430   3.802
10421SOL     OW32161   0.255   0.913   3.140
10421SOL    HW132162   0.205   0.830   3.165
10421SOL    HW232163   0.229   0.942   3.048
10422SOL     OW32164   5.957   3.308   6.123
10422SOL    HW132165   5.932   3.236   6.059
10422SOL    HW232166   5.878   3.367   6.140
10423SOL     OW32167   5.521   4.587   3.082
10423SOL    HW132168   5.471   4.516   3.132
10423SOL    HW232169   5.601   4.547   3.038
10424SOL     OW32170   4.981   1.914   6.224
10424SOL    HW132171   5.059   1.975   6.218
10424SOL    HW232172   4.955   1.901   6.320
10425SOL     OW32173   2.141   6.706   1.675
10425SOL    HW132174   2.080   6.667   1.606
10425SOL    HW232175   2.192   6.632   1.720
10426SOL     OW32176   6.622   4.160   6.762
10426SOL    HW132177   6.640   4.198   6.853
10426SOL    HW232178   6.684   4.084   6.744
10427SOL     OW32179   5.011   1.498   0.273
10427SOL    HW132180   5.029   1.573   0.209
10427SOL    HW232181   4.981   1.535   0.361
10428SOL     OW32182   4.695   0.857   4.448
10428SOL    HW132183   4.732   0.903   4.367
10428SOL    HW232184   4.732   0.765   4.455
10429SOL     OW32185   6.451   6.212   2.039
10429SOL    HW132186   6.417   6.158   1.963
10429SOL    HW232187   6.512   6.156   2.096
10430SOL     OW32188   3.654   6.368   3.127
10430SOL    HW132189   3.690   6.400   3.039
10430SOL    HW232190   3.572   6.419   3.151
10431SOL     OW32191   3.065   0.972   4.970
10431SOL    HW132192   3.161   0.988   4.991
10431SOL    HW232193   3.058   0.900   4.900
10432SOL     OW32194   6.239   0.705   5.508
10432SOL    HW132195   6.164   0.640   5.511
10432SOL    HW232196   6.306   0.675   5.440
10433SOL     OW32197   2.624   6.325   0.753
10433SOL    HW132198   2.536   6.320   0.802
10433SOL    HW232199   2.681   6.248   0.780
10434SOL     OW32200   2.335   1.433   3.808
10434SOL    HW132201   2.247   1.481   3.806
10434SOL    HW232202   2.384   1.449   3.722
10435SOL     OW32203   5.263   6.436   0.259
10435SOL    HW132204   5.214   6.383   0.190
10435SOL    HW232205   5.198   6.496   0.306
10436SOL     OW32206   1.061   6.274   2.898
10436SOL    HW132207   0.979   6.253   2.952
10436SOL    HW232208   1.123   6.330   2.953
10437SOL     OW32209   6.808   4.956   6.103
10437SOL    HW132210   6.806   4.913   6.193
10437SOL    HW232211   6.825   5.054   6.113
10438SOL     OW32212   3.076   5.750   6.723
10438SOL    HW132213   3.150   5.815   6.738
10438SOL    HW232214   3.099   5.689   6.647
10439SOL     OW32215   4.219   6.673   5.949
10439SOL    HW132216   4.248   6.724   6.030
10439SOL    HW232217   4.184   6.584   5.976
10440SOL     OW32218   2.106   5.698   0.654
10440SOL    HW132219   2.162   5.738   0.581
10440SOL    HW232220   2.165   5.656   0.723
10441SOL     OW32221   5.350   1.587   6.566
10441SOL    HW132222   5.374   1.635   6.650
10441SOL    HW232223   5.294   1.507   6.587
10442SOL     OW32224   4.265   5.473   5.743
10442SOL    HW132225   4.306   5.535   5.676
10442SOL    HW232226   4.188   5.425   5.700
10443SOL     OW32227   6.049   2.938   5.188
10443SOL    HW132228   6.141   2.934   5.227
10443SOL    HW232229   6.003   2.851   5.202
10444SOL     OW32230   3.953   5.424   3.952
10444SOL    HW132231   3.914   5.355   4.013
10444SOL    HW232232   3.895   5.434   3.872
10445SOL     OW32233   6.365   6.018   4.977
10445SOL    HW132234   6.456   6.058   4.972
10445SOL    HW232235   6.310   6.068   5.043
10446SOL     OW32236   0.775   5.227   6.412
10446SOL    HW132237   0.676   5.218   6.402
10446SOL    HW232238   0.799   5.231   6.509
10447SOL     OW32239   6.143   2.450   1.349
10447SOL    HW132240   6.092   2.364   1.341
10447SOL    HW232241   6.117   2.511   1.274
10448SOL     OW32242   3.552   4.075   2.408
10448SOL    HW132243   3.520   3.980   2.413
10448SOL    HW232244   3.526   4.123   2.491
10449SOL     OW32245   2.063   5.117   4.232
10449SOL    HW132246   2.122   5.176   4.287
10449SOL    HW232247   1.999   5.069   4.292
10450SOL     OW32248   0.454   2.928   1.138
10450SOL    HW132249   0.505   3.006   1.102
10450SOL    HW232250   0.371   2.960   1.184
10451SOL     OW32251   2.378   4.283   2.820
10451SOL    HW132252   2.358   4.278   2.722
10451SOL    HW232253   2.452   4.348   2.836
10452SOL     OW32254   1.344   3.398   4.979
10452SOL    HW132255   1.350   3.328   4.908
10452SOL    HW232256   1.280   3.469   4.951
10453SOL     OW32257   4.978   7.007   1.688
10453SOL    HW132258   4.960   0.064   1.634
10453SOL    HW232259   4.970   6.926   1.630
10454SOL     OW32260   4.865   3.449   2.553
10454SOL    HW132261   4.769   3.453   2.529
10454SOL    HW232262   4.880   3.380   2.624
10455SOL     OW32263   0.071   4.572   3.252
10455SOL    HW132264   0.111   4.663   3.240
10455SOL    HW232265   6.999   4.575   3.228
10456SOL     OW32266   4.151   6.004   0.538
10456SOL    HW132267   4.116   5.924   0.588
10456SOL    HW232268   4.202   5.974   0.458
10457SOL     OW32269   3.474   3.877   4.061
10457SOL    HW132270   3.397   3.878   3.997
10457SOL    HW232271   3.456   3.810   4.133
10458SOL     OW32272   0.270   6.914   1.517
10458SOL    HW132273   0.229   6.942   1.430
10458SOL    HW232274   0.202   6.866   1.572
10459SOL     OW32275   6.699   5.341   2.430
10459SOL    HW132276   6.780   5.287   2.454
10459SOL    HW232277   6.652   5.299   2.353
10460SOL     OW32278   1.960   5.707   2.248
10460SOL    HW132279   1.943   5.806   2.255
10460SOL    HW232280   1.926   5.674   2.160
10461SOL     OW32281   2.600   1.800   6.701
10461SOL    HW132282   2.543   1.743   6.760
10461SOL    HW232283   2.640   1.874   6.755
10462SOL     OW32284   6.734   0.263   1.257
10462SOL    HW132285   6.776   0.229   1.173
10462SOL    HW232286   6.730   0.363   1.255
10463SOL     OW32287   2.758   3.793   1.174
10463SOL    HW132288   2.690   3.834   1.234
10463SOL    HW232289   2.721   3.785   1.081
10464SOL     OW32290   5.526   0.100   1.899
10464SOL    HW132291   5.430   0.083   1.878
10464SOL    HW232292   5.563   0.165   1.833
10465SOL     OW32293   6.300   5.089   5.594
10465SOL    HW132294   6.320   5.095   5.496
10465SOL    HW232295   6.220   5.031   5.609
10466SOL     OW32296   4.985   5.943   5.921
10466SOL    HW132297   4.921   6.007   5.964
10466SOL    HW232298   4.935   5.876   5.867
10467SOL     OW32299   3.863   0.719   4.294
10467SOL    HW132300   3.830   0.699   4.386
10467SOL    HW232301   3.832   0.810   4.267
10468SOL     OW32302   3.611   5.650   2.811
10468SOL    HW132303   3.616   5.634   2.909
10468SOL    HW232304   3.525   5.614   2.775
10469SOL     OW32305   1.113   4.595   0.412
10469SOL    HW132306   1.080   4.501   0.427
10469SOL    HW232307   1.213   4.595   0.408
10470SOL     OW32308   3.015   1.702   4.273
10470SOL    HW132309   3.099   1.647   4.268
10470SOL    HW232310   2.947   1.653   4.327
10471SOL     OW32311   3.957   3.712   0.644
10471SOL    HW132312   3.941   3.791   0.702
10471SOL    HW232313   4.054   3.687   0.647
10472SOL     OW32314   4.517   1.281   2.498
10472SOL    HW132315   4.566   1.194   2.488
10472SOL    HW232316   4.543   1.343   2.424
10473SOL     OW32317   4.955   5.848   0.532
10473SOL    HW132318   4.885   5.829   0.464
10473SOL    HW232319   4.999   5.936   0.510
10474SOL     OW32320   4.133   6.989   4.387
10474SOL    HW132321   4.124   6.963   4.291
10474SOL    HW232322   4.217   6.950   4.425
10475SOL     OW32323   4.352   5.781   1.472
10475SOL    HW132324   4.377   5.844   1.399
10475SOL    HW232325   4.419   5.707   1.477
10476SOL     OW32326   0.240   4.684   0.797
10476SOL    HW132327   0.301   4.703   0.720
10476SOL    HW232328   0.161   4.632   0.765
10477SOL     OW32329   5.547   4.503   4.805
10477SOL    HW132330   5.593   4.449   4.875
10477SOL    HW232331   5.549   4.454   4.718
10478SOL     OW32332   0.511   6.326   1.793
10478SOL    HW132333   0.502   6.226   1.796
10478SOL    HW232334   0.608   6.350   1.791
10479SOL     OW32335   1.634   4.968   3.232
10479SOL    HW132336   1.536   4.986   3.219
10479SOL    HW232337   1.645   4.888   3.292
10480SOL     OW32338   6.161   6.995   2.611
10480SOL    HW132339   6.190   0.066   2.602
10480SOL    HW232340   6.096   6.973   2.538
10481SOL     OW32341   2.497   0.424   5.188
10481SOL    HW132342   2.434   0.501   5.176
10481SOL    HW232343   2.586   0.458   5.217
10482SOL     OW32344   0.843   5.129   5.938
10482SOL    HW132345   0.888   5.080   6.012
10482SOL    HW232346   0.894   5.117   5.853
10483SOL     OW32347   6.788   5.255   0.681
10483SOL    HW132348   6.692   5.229   0.672
10483SOL    HW232349   6.800   5.311   0.763
10484SOL     OW32350   6.047   2.146   1.683
10484SOL    HW132351   6.112   2.078   1.715
10484SOL    HW232352   5.998   2.110   1.603
10485SOL     OW32353   3.386   4.111   3.796
10485SOL    HW132354   3.332   4.121   3.879
10485SOL    HW232355   3.481   4.138   3.814
10486SOL     OW32356   6.109   6.004   5.326
10486SOL    HW132357   6.169   6.073   5.287
10486SOL    HW232358   6.096   5.930   5.260
10487SOL     OW32359   4.694   1.902   2.200
10487SOL    HW132360   4.739   1.948   2.277
10487SOL    HW232361   4.683   1.968   2.125
10488SOL     OW32362   6.743   2.061   5.481
10488SOL    HW132363   6.700   2.022   5.399
10488SOL    HW232364   6.836   2.026   5.489
10489SOL     OW32365   6.282   4.180   4.595
10489SOL    HW132366   6.279   4.279   4.579
10489SOL    HW232367   6.312   4.134   4.511
10490SOL     OW32368   5.775   6.859   0.274
10490SOL    HW132369   5.706   6.831   0.340
10490SOL    HW232370   5.730   6.892   0.190
10491SOL     OW32371   2.028   2.585   5.490
10491SOL    HW132372   2.052   2.646   5.565
10491SOL    HW232373   1.932   2.558   5.498
10492SOL     OW32374   4.035   6.703   6.876
10492SOL    HW132375   4.007   6.707   6.972
10492SOL    HW232376   4.049   6.796   6.841
10493SOL     OW32377   3.525   5.447   1.617
10493SOL    HW132378   3.513   5.372   1.551
10493SOL    HW232379   3.531   5.408   1.709
10494SOL     OW32380   1.262   4.187   4.461
10494SOL    HW132381   1.273   4.170   4.363
10494SOL    HW232382   1.339   4.241   4.495
10495SOL     OW32383   6.694   6.054   0.745
10495SOL    HW132384   6.674   6.033   0.841
10495SOL    HW232385   6.720   6.150   0.736
10496SOL     OW32386   0.567   3.555   5.968
10496SOL    HW132387   0.499   3.605   6.022
10496SOL    HW232388   0.550   3.457   5.975
10497SOL     OW32389   2.554   0.328   1.974
10497SOL    HW132390   2.499   0.248   1.993
10497SOL    HW232391   2.639   0.301   1.927
10498SOL     OW32392   4.642   4.275   6.856
10498SOL    HW132393   4.730   4.228   6.854
10498SOL    HW232394   4.645   4.352   6.793
10499SOL     OW32395   5.979   4.032   2.422
10499SOL    HW132396   5.930   3.993   2.501
10499SOL    HW232397   6.047   4.097   2.454
10500SOL     OW32398   0.712   3.623   5.351
10500SOL    HW132399   0.777   3.658   5.419
10500SOL    HW232400   0.748   3.639   5.259
10501SOL     OW32401   3.498   4.881   3.015
10501SOL    HW132402   3.552   4.858   2.934
10501SOL    HW232403   3.546   4.951   3.068
10502SOL     OW32404   3.546   3.391   2.379
10502SOL    HW132405   3.567   3.296   2.402
10502SOL    HW232406   3.620   3.428   2.323
10503SOL     OW32407   0.297   1.931   6.254
10503SOL    HW132408   0.199   1.940   6.238
10503SOL    HW232409   0.322   1.834   6.260
10504SOL     OW32410   0.903   3.059   5.887
10504SOL    HW132411   0.873   3.151   5.861
10504SOL    HW232412   0.823   3.000   5.900
10505SOL     OW32413   5.773   0.060   0.875
10505SOL    HW132414   5.847   0.098   0.930
10505SOL    HW232415   5.792   0.074   0.778
10506SOL     OW32416   1.134   3.409   6.283
10506SOL    HW132417   1.187   3.363   6.211
10506SOL    HW232418   1.040   3.420   6.253
10507SOL     OW32419   1.365   5.116   5.793
10507SOL    HW132420   1.331   5.033   5.750
10507SOL    HW232421   1.332   5.196   5.742
10508SOL     OW32422   1.783   5.496   5.527
10508SOL    HW132423   1.755   5.412   5.574
10508SOL    HW232424   1.879   5.490   5.502
10509SOL     OW32425   4.693   2.305   2.127
10509SOL    HW132426   4.768   2.370   2.140
10509SOL    HW232427   4.606   2.349   2.146
10510SOL     OW32428   5.800   5.914   3.727
10510SOL    HW132429   5.795   5.905   3.827
10510SOL    HW232430   5.869   5.851   3.692
10511SOL     OW32431   4.458   1.499   1.232
10511SOL    HW132432   4.497   1.416   1.272
10511SOL    HW232433   4.464   1.574   1.298
10512SOL     OW32434   4.678   0.996   4.924
10512SOL    HW132435   4.599   0.935   4.934
10512SOL    HW232436   4.731   0.968   4.845
10513SOL     OW32437   4.039   2.708   0.839
10513SOL    HW132438   3.953   2.733   0.795
10513SOL    HW232439   4.021   2.674   0.931
10514SOL     OW32440   1.758   3.542   2.039
10514SOL    HW132441   1.803   3.459   2.073
10514SOL    HW232442   1.822   3.594   1.983
10515SOL     OW32443   2.304   2.757   4.833
10515SOL    HW132444   2.361   2.680   4.862
10515SOL    HW232445   2.331   2.839   4.884
10516SOL     OW32446   4.724   2.539   1.564
10516SOL    HW132447   4.626   2.536   1.549
10516SOL    HW232448   4.770   2.479   1.498
10517SOL     OW32449   0.897   2.772   2.448
10517SOL    HW132450   0.964   2.769   2.522
10517SOL    HW232451   0.814   2.725   2.477
10518SOL     OW32452   0.732   5.324   2.920
10518SOL    HW132453   0.665   5.393   2.947
10518SOL    HW232454   0.769   5.279   3.001
10519SOL     OW32455   3.853   0.415   0.818
10519SOL    HW132456   3.933   0.356   0.809
10519SOL    HW232457   3.850   0.453   0.910
10520SOL     OW32458   0.789   2.630   5.702
10520SOL    HW132459   0.861   2.618   5.771
10520SOL    HW232460   0.831   2.646   5.613
10521SOL     OW32461   6.204   2.754   3.007
10521SOL    HW132462   6.138   2.679   3.004
10521SOL    HW232463   6.288   2.723   3.053
10522SOL     OW32464   5.742   2.081   3.973
10522SOL    HW132465   5.655   2.055   4.015
10522SOL    HW232466   5.726   2.153   3.906
10523SOL     OW32467   1.411   4.177   2.845
10523SOL    HW132468   1.452   4.266   2.865
10523SOL    HW232469   1.312   4.187   2.839
10524SOL     OW32470   6.518   6.597   5.393
10524SOL    HW132471   6.462   6.516   5.413
10524SOL    HW232472   6.583   6.575   5.321
10525SOL     OW32473   5.218   1.304   4.155
10525SOL    HW132474   5.275   1.374   4.111
10525SOL    HW232475   5.143   1.280   4.094
10526SOL     OW32476   0.763   4.891   6.966
10526SOL    HW132477   0.786   4.818   0.006
10526SOL    HW232478   0.663   4.898   6.959
10527SOL     OW32479   0.823   0.000   5.735
10527SOL    HW132480   0.823   6.927   5.717
10527SOL    HW232481   0.790   0.017   5.829
10528SOL     OW32482   1.408   3.971   5.359
10528SOL    HW132483   1.423   3.883   5.314
10528SOL    HW232484   1.415   4.045   5.292
10529SOL     OW32485   0.139   5.578   0.646
10529SOL    HW132486   0.139   5.514   0.723
10529SOL    HW232487   0.199   5.544   0.574
10530SOL     OW32488   6.926   6.068   1.386
10530SOL    HW132489   7.019   6.100   1.400
10530SOL    HW232490   6.872   6.140   1.344
10531SOL     OW32491   3.224   3.409   4.866
10531SOL    HW132492   3.159   3.448   4.932
10531SOL    HW232493   3.221   3.309   4.873
10532SOL     OW32494   5.269   6.118   6.709
10532SOL    HW132495   5.209   6.185   6.754
10532SOL    HW232496   5.357   6.161   6.687
10533SOL     OW32497   3.929   0.501   2.767
10533SOL    HW132498   3.921   0.442   2.687
10533SOL    HW232499   4.016   0.484   2.813
10534SOL     OW32500   1.519   5.997   3.905
10534SOL    HW132501   1.525   5.914   3.960
10534SOL    HW232502   1.579   5.989   3.825
10535SOL     OW32503   3.526   2.140   2.694
10535SOL    HW132504   3.521   2.064   2.628
10535SOL    HW232505   3.618   2.143   2.735
10536SOL     OW32506   4.984   3.259   4.768
10536SOL    HW132507   5.043   3.327   4.725
10536SOL    HW232508   5.029   3.170   4.768
10537SOL     OW32509   3.421   7.013   3.982
10537SOL    HW132510   3.420   0.082   4.017
10537SOL    HW232511   3.496   7.003   3.916
10538SOL     OW32512   6.762   3.231   3.168
10538SOL    HW132513   6.801   3.144   3.137
10538SOL    HW232514   6.673   3.245   3.124
10539SOL     OW32515   0.122   0.190   3.545
10539SOL    HW132516   0.137   0.246   3.626
10539SOL    HW232517   0.091   0.248   3.470
10540SOL     OW32518   1.496   4.593   6.686
10540SOL    HW132519   1.572   4.536   6.719
10540SOL    HW232520   1.435   4.614   6.762
10541SOL     OW32521   3.068   3.338   5.459
10541SOL    HW132522   3.043   3.418   5.405
10541SOL    HW232523   3.087   3.261   5.399
10542SOL     OW32524   5.312   6.782   3.381
10542SOL    HW132525   5.271   6.759   3.293
10542SOL    HW232526   5.406   6.747   3.384
10543SOL     OW32527   1.519   3.309   4.061
10543SOL    HW132528   1.549   3.294   3.967
10543SOL    HW232529   1.588   3.275   4.125
10544SOL     OW32530   2.595   1.597   3.024
10544SOL    HW132531   2.639   1.679   3.062
10544SOL    HW232532   2.664   1.539   2.981
10545SOL     OW32533   2.350   2.713   2.689
10545SOL    HW132534   2.420   2.770   2.645
10545SOL    HW232535   2.274   2.771   2.719
10546SOL     OW32536   2.963   0.161   6.329
10546SOL    HW132537   2.932   0.111   6.409
10546SOL    HW232538   2.948   0.105   6.247
10547SOL     OW32539   4.491   6.613   5.579
10547SOL    HW132540   4.406   6.663   5.565
10547SOL    HW232541   4.568   6.668   5.547
10548SOL     OW32542   6.917   6.231   2.882
10548SOL    HW132543   6.971   6.209   2.963
10548SOL    HW232544   6.886   6.326   2.887
10549SOL     OW32545   6.548   0.185   1.615
10549SOL    HW132546   6.517   0.155   1.524
10549SOL    HW232547   6.514   0.277   1.633
10550SOL     OW32548   5.032   5.987   3.127
10550SOL    HW132549   5.082   6.028   3.050
10550SOL    HW232550   5.089   5.917   3.170
10551SOL     OW32551   3.287   0.359   5.164
10551SOL    HW132552   3.257   0.387   5.073
10551SOL    HW232553   3.222   0.391   5.233
10552SOL     OW32554   2.758   0.045   3.817
10552SOL    HW132555   2.832   7.010   3.786
10552SOL    HW232556   2.749   0.122   3.754
10553SOL     OW32557   6.404   5.447   1.264
10553SOL    HW132558   6.389   5.546   1.273
10553SOL    HW232559   6.485   5.421   1.316
10554SOL     OW32560   5.868   6.247   2.920
10554SOL    HW132561   5.935   6.314   2.888
10554SOL    HW232562   5.777   6.288   2.919
10555SOL     OW32563   3.633   3.304   1.118
10555SOL    HW132564   3.619   3.334   1.024
10555SOL    HW232565   3.553   3.252   1.148
10556SOL     OW32566   2.186   1.705   2.133
10556SOL    HW132567   2.218   1.626   2.080
10556SOL    HW232568   2.256   1.777   2.131
10557SOL     OW32569   2.297   4.926   3.249
10557SOL    HW132570   2.380   4.976   3.273
10557SOL    HW232571   2.322   4.836   3.213
10558SOL     OW32572   3.335   5.060   5.479
10558SOL    HW132573   3.271   5.127   5.442
10558SOL    HW232574   3.356   4.992   5.409
10559SOL     OW32575   4.253   6.577   1.123
10559SOL    HW132576   4.156   6.558   1.139
10559SOL    HW232577   4.263   6.670   1.087
10560SOL     OW32578   5.782   6.829   2.992
10560SOL    HW132579   5.844   6.834   2.914
10560SOL    HW232580   5.832   6.848   3.076
10561SOL     OW32581   6.668   4.829   6.919
10561SOL    HW132582   6.725   4.808   6.998
10561SOL    HW232583   6.670   4.752   6.855
10562SOL     OW32584   4.739   5.631   2.284
10562SOL    HW132585   4.797   5.670   2.213
10562SOL    HW232586   4.646   5.668   2.275
10563SOL     OW32587   0.413   0.138   2.294
10563SOL    HW132588   0.403   0.177   2.386
10563SOL    HW232589   0.323   0.110   2.260
10564SOL     OW32590   5.073   4.073   3.508
10564SOL    HW132591   5.121   4.031   3.431
10564SOL    HW232592   4.975   4.080   3.487
10565SOL     OW32593   1.222   0.908   6.016
10565SOL    HW132594   1.166   0.826   6.011
10565SOL    HW232595   1.172   0.986   5.978
10566SOL     OW32596   3.626   2.386   6.934
10566SOL    HW132597   3.597   2.344   7.020
10566SOL    HW232598   3.722   2.366   6.917
10567SOL     OW32599   1.943   2.568   5.952
10567SOL    HW132600   2.038   2.573   5.923
10567SOL    HW232601   1.896   2.495   5.901
10568SOL     OW32602   4.332   2.417   6.083
10568SOL    HW132603   4.421   2.391   6.047
10568SOL    HW232604   4.344   2.477   6.162
10569SOL     OW32605   5.901   0.245   0.310
10569SOL    HW132606   5.999   0.250   0.331
10569SOL    HW232607   5.851   0.218   0.392
10570SOL     OW32608   1.259   3.939   3.202
10570SOL    HW132609   1.251   3.849   3.158
10570SOL    HW232610   1.293   3.927   3.295
10571SOL     OW32611   6.377   4.270   5.664
10571SOL    HW132612   6.325   4.321   5.595
10571SOL    HW232613   6.463   4.240   5.624
10572SOL     OW32614   6.038   4.106   1.004
10572SOL    HW132615   5.985   4.168   1.062
10572SOL    HW232616   6.094   4.047   1.061
10573SOL     OW32617   6.550   1.933   2.751
10573SOL    HW132618   6.536   1.964   2.658
10573SOL    HW232619   6.519   1.838   2.760
10574SOL     OW32620   5.651   3.065   2.483
10574SOL    HW132621   5.733   3.043   2.535
10574SOL    HW232622   5.642   3.003   2.406
10575SOL     OW32623   5.811   6.688   2.358
10575SOL    HW132624   5.908   6.670   2.342
10575SOL    HW232625   5.762   6.601   2.367
10576SOL     OW32626   1.503   4.445   4.231
10576SOL    HW132627   1.590   4.471   4.189
10576SOL    HW232628   1.511   4.453   4.331
10577SOL     OW32629   3.642   3.834   0.109
10577SOL    HW132630   3.675   3.790   0.025
10577SOL    HW232631   3.627   3.932   0.091
10578SOL     OW32632   0.448   3.879   3.698
10578SOL    HW132633   0.461   3.946   3.625
10578SOL    HW232634   0.517   3.806   3.688
10579SOL     OW32635   0.501   3.662   6.731
10579SOL    HW132636   0.478   3.754   6.763
10579SOL    HW232637   0.588   3.665   6.682
10580SOL     OW32638   6.157   0.220   0.384
10580SOL    HW132639   6.210   0.297   0.349
10580SOL    HW232640   6.213   0.137   0.382
10581SOL     OW32641   4.453   0.178   2.963
10581SOL    HW132642   4.489   0.208   2.875
10581SOL    HW232643   4.490   0.236   3.036
10582SOL     OW32644   6.328   3.435   6.376
10582SOL    HW132645   6.383   3.419   6.294
10582SOL    HW232646   6.246   3.379   6.373
10583SOL     OW32647   3.221   1.780   5.122
10583SOL    HW132648   3.284   1.727   5.065
10583SOL    HW232649   3.203   1.868   5.078
10584SOL     OW32650   0.832   6.722   3.841
10584SOL    HW132651   0.829   6.657   3.765
10584SOL    HW232652   0.853   6.813   3.806
10585SOL     OW32653   1.472   0.772   5.228
10585SOL    HW132654   1.454   0.869   5.212
10585SOL    HW232655   1.550   0.762   5.290
10586SOL     OW32656   4.144   4.207   5.286
10586SOL    HW132657   4.204   4.153   5.345
10586SOL    HW232658   4.200   4.267   5.228
10587SOL     OW32659   2.192   5.046   5.771
10587SOL    HW132660   2.111   5.105   5.773
10587SOL    HW232661   2.261   5.087   5.712
10588SOL     OW32662   1.560   3.865   3.397
10588SOL    HW132663   1.541   3.769   3.419
10588SOL    HW232664   1.476   3.918   3.403
10589SOL     OW32665   5.495   6.391   4.175
10589SOL    HW132666   5.435   6.470   4.163
10589SOL    HW232667   5.588   6.422   4.192
10590SOL     OW32668   0.519   5.046   2.270
10590SOL    HW132669   0.501   5.124   2.330
10590SOL    HW232670   0.525   5.078   2.176
10591SOL     OW32671   6.847   3.392   1.892
10591SOL    HW132672   6.781   3.458   1.855
10591SOL    HW232673   6.817   3.299   1.871
10592SOL     OW32674   6.948   1.022   5.196
10592SOL    HW132675   6.994   1.089   5.138
10592SOL    HW232676   6.853   1.052   5.211
10593SOL     OW32677   2.934   5.177   3.303
10593SOL    HW132678   2.901   5.238   3.375
10593SOL    HW232679   2.862   5.111   3.281
10594SOL     OW32680   3.386   5.441   3.609
10594SOL    HW132681   3.379   5.537   3.633
10594SOL    HW232682   3.295   5.400   3.608
10595SOL     OW32683   4.770   0.078   0.797
10595SOL    HW132684   4.699   0.100   0.730
10595SOL    HW232685   4.849   0.038   0.751
10596SOL     OW32686   5.107   3.377   0.173
10596SOL    HW132687   5.181   3.436   0.204
10596SOL    HW232688   5.105   3.376   0.073
10597SOL     OW32689   1.963   6.690   4.313
10597SOL    HW132690   1.887   6.659   4.255
10597SOL    HW232691   1.987   6.616   4.376
10598SOL     OW32692   3.262   1.063   6.252
10598SOL    HW132693   3.332   1.040   6.185
10598SOL    HW232694   3.183   1.102   6.205
10599SOL     OW32695   0.506   2.020   0.431
10599SOL    HW132696   0.581   2.086   0.428
10599SOL    HW232697   0.538   1.932   0.397
10600SOL     OW32698   3.381   2.021   1.539
10600SOL    HW132699   3.374   2.114   1.575
10600SOL    HW232700   3.470   1.983   1.564
10601SOL     OW32701   2.145   0.573   5.037
10601SOL    HW132702   2.224   0.621   5.000
10601SOL    HW232703   2.105   0.627   5.111
10602SOL     OW32704   6.887   6.920   1.461
10602SOL    HW132705   6.951   6.869   1.519
10602SOL    HW232706   6.799   6.873   1.459
10603SOL     OW32707   5.462   0.386   2.733
10603SOL    HW132708   5.477   0.311   2.668
10603SOL    HW232709   5.414   0.351   2.813
10604SOL     OW32710   5.206   0.634   4.983
10604SOL    HW132711   5.151   0.585   5.051
10604SOL    HW232712   5.145   0.674   4.915
10605SOL     OW32713   2.897   2.084   1.404
10605SOL    HW132714   2.960   2.083   1.326
10605SOL    HW232715   2.917   2.006   1.464
10606SOL     OW32716   6.732   0.926   0.208
10606SOL    HW132717   6.684   0.939   0.295
10606SOL    HW232718   6.746   0.828   0.192
10607SOL     OW32719   3.198   4.263   6.866
10607SOL    HW132720   3.178   4.327   6.940
10607SOL    HW232721   3.145   4.288   6.785
10608SOL     OW32722   5.624   4.131   4.282
10608SOL    HW132723   5.678   4.075   4.345
10608SOL    HW232724   5.673   4.215   4.262
10609SOL     OW32725   5.671   0.588   6.370
10609SOL    HW132726   5.701   0.549   6.457
10609SOL    HW232727   5.642   0.515   6.309
10610SOL     OW32728   0.500   0.997   3.516
10610SOL    HW132729   0.452   1.085   3.519
10610SOL    HW232730   0.559   0.994   3.435
10611SOL     OW32731   3.719   5.702   4.860
10611SOL    HW132732   3.722   5.797   4.889
10611SOL    HW232733   3.811   5.671   4.836
10612SOL     OW32734   6.513   2.279   3.361
10612SOL    HW132735   6.479   2.187   3.379
10612SOL    HW232736   6.486   2.308   3.270
10613SOL     OW32737   4.241   6.305   4.186
10613SOL    HW132738   4.272   6.375   4.121
10613SOL    HW232739   4.281   6.217   4.161
10614SOL     OW32740   4.117   1.932   5.954
10614SOL    HW132741   4.165   1.935   5.866
10614SOL    HW232742   4.051   2.006   5.959
10615SOL     OW32743   2.315   1.683   5.050
10615SOL    HW132744   2.252   1.742   5.100
10615SOL    HW232745   2.409   1.708   5.071
10616SOL     OW32746   1.848   6.102   6.858
10616SOL    HW132747   1.822   6.050   6.776
10616SOL    HW232748   1.886   6.190   6.831
10617SOL     OW32749   2.059   2.956   1.494
10617SOL    HW132750   2.049   3.055   1.507
10617SOL    HW232751   2.089   2.937   1.401
10618SOL     OW32752   0.966   5.314   3.900
10618SOL    HW132753   1.051   5.344   3.857
10618SOL    HW232754   0.982   5.301   3.998
10619SOL     OW32755   1.119   2.715   2.626
10619SOL    HW132756   1.215   2.720   2.602
10619SOL    HW232757   1.106   2.747   2.720
10620SOL     OW32758   3.521   0.499   5.733
10620SOL    HW132759   3.467   0.534   5.809
10620SOL    HW232760   3.537   0.573   5.667
10621SOL     OW32761   0.703   3.641   3.278
10621SOL    HW132762   0.676   3.603   3.190
10621SOL    HW232763   0.757   3.723   3.264
10622SOL     OW32764   4.377   2.021   6.979
10622SOL    HW132765   4.299   2.001   0.013
10622SOL    HW232766   4.376   2.118   6.954
10623SOL     OW32767   5.075   6.356   5.878
10623SOL    HW132768   5.081   6.285   5.808
10623SOL    HW232769   4.985   6.399   5.874
10624SOL     OW32770   0.723   2.199   0.455
10624SOL    HW132771   0.688   2.280   0.501
10624SOL    HW232772   0.775   2.225   0.374
10625SOL     OW32773   6.011   5.377   0.013
10625SOL    HW132774   6.068   5.454   0.040
10625SOL    HW232775   5.997   5.317   0.092
10626SOL     OW32776   5.457   2.989   1.050
10626SOL    HW132777   5.463   3.013   1.147
10626SOL    HW232778   5.429   3.070   0.998
10627SOL     OW32779   5.671   5.734   5.217
10627SOL    HW132780   5.733   5.720   5.294
10627SOL    HW232781   5.646   5.645   5.178
10628SOL     OW32782   3.300   6.668   0.168
10628SOL    HW132783   3.316   6.603   0.095
10628SOL    HW232784   3.373   6.661   0.236
10629SOL     OW32785   3.996   5.433   4.639
10629SOL    HW132786   4.026   5.393   4.553
10629SOL    HW232787   4.060   5.505   4.667
10630SOL     OW32788   3.841   1.532   1.466
10630SOL    HW132789   3.815   1.568   1.556
10630SOL    HW232790   3.777   1.565   1.397
10631SOL     OW32791   3.494   5.889   1.027
10631SOL    HW132792   3.566   5.825   0.999
10631SOL    HW232793   3.410   5.838   1.046
10632SOL     OW32794   5.144   6.087   3.792
10632SOL    HW132795   5.062   6.093   3.850
10632SOL    HW232796   5.193   6.175   3.795
10633SOL     OW32797   1.819   3.417   0.942
10633SOL    HW132798   1.835   3.351   0.869
10633SOL    HW232799   1.723   3.415   0.969
10634SOL     OW32800   0.167   4.256   6.889
10634SOL    HW132801   0.198   4.297   6.974
10634SOL    HW232802   0.204   4.307   6.811
10635SOL     OW32803   2.376   5.313   6.408
10635SOL    HW132804   2.442   5.237   6.409
10635SOL    HW232805   2.423   5.399   6.426
10636SOL     OW32806   6.726   2.065   0.082
10636SOL    HW132807   6.656   2.046   0.151
10636SOL    HW232808   6.702   2.147   0.031
10637SOL     OW32809   2.513   0.485   6.781
10637SOL    HW132810   2.569   0.405   6.803
10637SOL    HW232811   2.569   0.567   6.784
10638SOL     OW32812   5.585   5.065   1.221
10638SOL    HW132813   5.536   5.120   1.289
10638SOL    HW232814   5.681   5.091   1.220
10639SOL     OW32815   0.565   5.510   1.787
10639SOL    HW132816   0.561   5.473   1.694
10639SOL    HW232817   0.475   5.544   1.814
10640SOL     OW32818   4.684   6.642   3.612
10640SOL    HW132819   4.689   6.545   3.590
10640SOL    HW232820   4.600   6.660   3.664
10641SOL     OW32821   1.297   1.296   3.256
10641SOL    HW132822   1.395   1.292   3.234
10641SOL    HW232823   1.257   1.377   3.213
10642SOL     OW32824   6.970   3.139   5.983
10642SOL    HW132825   0.018   3.207   5.982
10642SOL    HW232826   6.908   3.157   6.060
10643SOL     OW32827   2.608   5.330   5.811
10643SOL    HW132828   2.692   5.277   5.826
10643SOL    HW232829   2.538   5.302   5.876
10644SOL     OW32830   6.542   2.877   2.787
10644SOL    HW132831   6.465   2.820   2.757
10644SOL    HW232832   6.508   2.964   2.822
10645SOL     OW32833   2.053   2.131   3.141
10645SOL    HW132834   2.121   2.085   3.084
10645SOL    HW232835   1.977   2.161   3.084
10646SOL     OW32836   5.294   0.749   3.430
10646SOL    HW132837   5.265   0.671   3.374
10646SOL    HW232838   5.361   0.719   3.498
10647SOL     OW32839   3.541   5.641   5.713
10647SOL    HW132840   3.472   5.608   5.649
10647SOL    HW232841   3.610   5.570   5.727
10648SOL     OW32842   4.620   4.469   5.730
10648SOL    HW132843   4.586   4.375   5.738
10648SOL    HW232844   4.554   4.523   5.678
10649SOL     OW32845   5.849   3.263   2.809
10649SOL    HW132846   5.863   3.362   2.816
10649SOL    HW232847   5.751   3.243   2.809
10650SOL     OW32848   0.890   6.991   3.720
10650SOL    HW132849   0.983   7.018   3.693
10650SOL    HW232850   0.852   0.036   3.781
10651SOL     OW32851   3.234   6.226   6.095
10651SOL    HW132852   3.257   6.208   5.999
10651SOL    HW232853   3.296   6.175   6.154
10652SOL     OW32854   1.998   0.535   0.613
10652SOL    HW132855   2.022   0.629   0.588
10652SOL    HW232856   1.997   0.478   0.531
10653SOL     OW32857   4.600   5.838   4.480
10653SOL    HW132858   4.645   5.760   4.524
10653SOL    HW232859   4.632   5.923   4.521
10654SOL     OW32860   6.079   1.411   4.569
10654SOL    HW132861   6.167   1.367   4.554
10654SOL    HW232862   6.065   1.483   4.500
10655SOL     OW32863   6.986   4.356   1.999
10655SOL    HW132864   0.043   4.320   2.043
10655SOL    HW232865   6.997   4.356   1.900
10656SOL     OW32866   6.076   2.604   3.900
10656SOL    HW132867   6.017   2.573   3.975
10656SOL    HW232868   6.036   2.684   3.856
10657SOL     OW32869   4.612   6.780   4.292
10657SOL    HW132870   4.632   6.721   4.370
10657SOL    HW232871   4.562   6.729   4.222
10658SOL     OW32872   0.697   2.737   5.208
10658SOL    HW132873   0.703   2.764   5.304
10658SOL    HW232874   0.607   2.696   5.191
10659SOL     OW32875   0.562   5.794   0.666
10659SOL    HW132876   0.659   5.774   0.681
10659SOL    HW232877   0.527   5.737   0.592
10660SOL     OW32878   5.581   3.064   5.422
10660SOL    HW132879   5.487   3.040   5.399
10660SOL    HW232880   5.605   3.151   5.379
10661SOL     OW32881   2.762   4.865   5.690
10661SOL    HW132882   2.754   4.915   5.604
10661SOL    HW232883   2.680   4.880   5.746
10662SOL     OW32884   2.309   1.075   1.371
10662SOL    HW132885   2.285   1.072   1.468
10662SOL    HW232886   2.243   1.133   1.323
10663SOL     OW32887   0.725   1.766   3.350
10663SOL    HW132888   0.749   1.738   3.257
10663SOL    HW232889   0.759   1.699   3.415
10664SOL     OW32890   0.653   5.447   4.832
10664SOL    HW132891   0.678   5.413   4.923
10664SOL    HW232892   0.733   5.442   4.772
10665SOL     OW32893   3.032   3.270   6.966
10665SOL    HW132894   3.042   3.256   6.868
10665SOL    HW232895   3.116   3.308   7.004
10666SOL     OW32896   3.645   4.253   1.399
10666SOL    HW132897   3.572   4.202   1.444
10666SOL    HW232898   3.683   4.320   1.463
10667SOL     OW32899   5.088   2.539   3.598
10667SOL    HW132900   5.055   2.613   3.656
10667SOL    HW232901   5.144   2.476   3.651
10668SOL     OW32902   3.114   2.944   5.548
10668SOL    HW132903   3.062   2.978   5.627
10668SOL    HW232904   3.082   2.853   5.524
10669SOL     OW32905   5.515   1.305   1.793
10669SOL    HW132906   5.603   1.339   1.760
10669SOL    HW232907   5.441   1.351   1.745
10670SOL     OW32908   4.952   3.935   4.601
10670SOL    HW132909   5.033   3.882   4.579
10670SOL    HW232910   4.898   3.950   4.518
10671SOL     OW32911   1.679   3.116   4.874
10671SOL    HW132912   1.717   3.198   4.917
10671SOL    HW232913   1.735   3.090   4.796
10672SOL     OW32914   5.724   3.414   1.792
10672SOL    HW132915   5.792   3.488   1.797
10672SOL    HW232916   5.709   3.377   1.884
10673SOL     OW32917   1.823   1.188   1.167
10673SOL    HW132918   1.809   1.091   1.148
10673SOL    HW232919   1.830   1.239   1.082
10674SOL     OW32920   3.908   3.902   3.381
10674SOL    HW132921   3.830   3.953   3.416
10674SOL    HW232922   3.910   3.811   3.422
10675SOL     OW32923   3.692   6.727   5.245
10675SOL    HW132924   3.791   6.708   5.245
10675SOL    HW232925   3.642   6.641   5.251
10676SOL     OW32926   1.629   0.421   5.352
10676SOL    HW132927   1.683   0.496   5.315
10676SOL    HW232928   1.533   0.448   5.357
10677SOL     OW32929   0.228   1.381   0.559
10677SOL    HW132930   0.180   1.387   0.471
10677SOL    HW232931   0.309   1.439   0.556
10678SOL     OW32932   4.015   5.811   3.275
10678SOL    HW132933   4.071   5.793   3.194
10678SOL    HW232934   4.070   5.857   3.344
10679SOL     OW32935   4.435   3.479   6.674
10679SOL    HW132936   4.468   3.466   6.581
10679SOL    HW232937   4.491   3.550   6.719
10680SOL     OW32938   4.120   1.217   4.259
10680SOL    HW132939   4.198   1.193   4.317
10680SOL    HW232940   4.037   1.216   4.314
10681SOL     OW32941   1.413   2.825   5.313
10681SOL    HW132942   1.430   2.904   5.372
10681SOL    HW232943   1.489   2.814   5.248
10682SOL     OW32944   5.068   3.301   6.201
10682SOL    HW132945   5.107   3.390   6.224
10682SOL    HW232946   5.138   3.230   6.212
10683SOL     OW32947   2.823   0.522   3.836
10683SOL    HW132948   2.744   0.470   3.868
10683SOL    HW232949   2.900   0.460   3.823
10684SOL     OW32950   4.341   4.838   2.206
10684SOL    HW132951   4.311   4.810   2.115
10684SOL    HW232952   4.411   4.910   2.197
10685SOL     OW32953   0.791   5.994   1.287
10685SOL    HW132954   0.736   6.069   1.251
10685SOL    HW232955   0.742   5.950   1.362
10686SOL     OW32956   3.078   1.621   6.542
10686SOL    HW132957   3.052   1.554   6.473
10686SOL    HW232958   3.009   1.622   6.614
10687SOL     OW32959   0.261   3.875   3.119
10687SOL    HW132960   0.259   3.864   3.218
10687SOL    HW232961   0.354   3.864   3.085
10688SOL     OW32962   5.095   1.833   2.261
10688SOL    HW132963   5.054   1.890   2.190
10688SOL    HW232964   5.069   1.866   2.351
10689SOL     OW32965   0.251   0.268   3.223
10689SOL    HW132966   0.206   0.254   3.134
10689SOL    HW232967   0.291   0.182   3.253
10690SOL     OW32968   6.917   6.933   4.088
10690SOL    HW132969   6.910   7.021   4.134
10690SOL    HW232970   7.010   6.897   4.096
10691SOL     OW32971   3.270   0.428   2.813
10691SOL    HW132972   3.290   0.525   2.825
10691SOL    HW232973   3.258   0.408   2.716
10692SOL     OW32974   2.122   0.579   3.998
10692SOL    HW132975   2.059   0.560   4.074
10692SOL    HW232976   2.195   0.510   3.999
10693SOL     OW32977   1.921   5.160   0.641
10693SOL    HW132978   1.991   5.231   0.655
10693SOL    HW232979   1.834   5.190   0.681
10694SOL     OW32980   4.408   6.735   5.302
10694SOL    HW132981   4.502   6.762   5.283
10694SOL    HW232982   4.368   6.797   5.370
10695SOL     OW32983   6.097   4.137   1.704
10695SOL    HW132984   6.166   4.145   1.632
10695SOL    HW232985   6.032   4.213   1.697
10696SOL     OW32986   6.528   4.819   4.462
10696SOL    HW132987   6.527   4.915   4.487
10696SOL    HW232988   6.606   4.802   4.401
10697SOL     OW32989   1.445   5.250   5.450
10697SOL    HW132990   1.475   5.275   5.542
10697SOL    HW232991   1.355   5.290   5.432
10698SOL     OW32992   4.699   2.817   0.063
10698SOL    HW132993   4.751   2.899   0.086
10698SOL    HW232994   4.673   2.770   0.147
10699SOL     OW32995   3.448   3.261   0.093
10699SOL    HW132996   3.389   3.183   0.115
10699SOL    HW232997   3.537   3.249   0.136
10700SOL     OW32998   5.153   0.941   1.308
10700SOL    HW132999   5.091   1.001   1.359
10700SOL    HW233000   5.099   0.871   1.261
10701SOL     OW33001   3.022   0.699   6.011
10701SOL    HW133002   3.072   0.715   6.097
10701SOL    HW233003   3.015   0.601   5.995
10702SOL     OW33004   5.965   2.379   1.824
10702SOL    HW133005   5.972   2.459   1.764
10702SOL    HW233006   5.990   2.297   1.773
10703SOL     OW33007   1.145   2.714   6.289
10703SOL    HW133008   1.144   2.764   6.203
10703SOL    HW233009   1.214   2.641   6.285
10704SOL     OW33010   5.847   6.877   1.522
10704SOL    HW133011   5.855   6.934   1.441
10704SOL    HW233012   5.810   6.787   1.496
10705SOL     OW33013   5.649   4.566   1.586
10705SOL    HW133014   5.605   4.570   1.496
10705SOL    HW233015   5.706   4.485   1.593
10706SOL     OW33016   4.620   0.298   1.470
10706SOL    HW133017   4.634   0.311   1.568
10706SOL    HW233018   4.692   0.238   1.433
10707SOL     OW33019   5.786   0.565   4.250
10707SOL    HW133020   5.784   0.664   4.237
10707SOL    HW233021   5.720   0.539   4.321
10708SOL     OW33022   4.506   1.745   2.334
10708SOL    HW133023   4.415   1.782   2.313
10708SOL    HW233024   4.576   1.801   2.290
10709SOL     OW33025   6.024   4.880   3.981
10709SOL    HW133026   5.950   4.935   3.942
10709SOL    HW233027   6.095   4.941   4.017
10710SOL     OW33028   5.036   1.099   3.324
10710SOL    HW133029   5.052   1.034   3.249
10710SOL    HW233030   4.951   1.076   3.370
10711SOL     OW33031   3.948   0.023   1.659
10711SOL    HW133032   4.040   0.061   1.660
10711SOL    HW233033   3.905   0.035   1.749
10712SOL     OW33034   4.952   6.650   2.980
10712SOL    HW133035   4.862   6.612   2.956
10712SOL    HW233036   4.943   6.707   3.061
10713SOL     OW33037   1.315   4.077   1.373
10713SOL    HW133038   1.291   4.171   1.351
10713SOL    HW233039   1.380   4.042   1.306
10714SOL     OW33040   3.597   3.662   4.237
10714SOL    HW133041   3.660   3.602   4.186
10714SOL    HW233042   3.610   3.648   4.335
10715SOL     OW33043   6.068   0.954   2.588
10715SOL    HW133044   6.045   1.051   2.574
10715SOL    HW233045   6.091   0.939   2.684
10716SOL     OW33046   5.974   2.316   3.580
10716SOL    HW133047   5.973   2.217   3.593
10716SOL    HW233048   6.069   2.346   3.568
10717SOL     OW33049   1.388   2.682   6.923
10717SOL    HW133050   1.293   2.664   6.899
10717SOL    HW233051   1.443   2.601   6.903
10718SOL     OW33052   1.231   5.026   5.489
10718SOL    HW133053   1.190   4.993   5.404
10718SOL    HW233054   1.313   4.972   5.509
10719SOL     OW33055   6.401   5.660   4.745
10719SOL    HW133056   6.331   5.725   4.714
10719SOL    HW233057   6.491   5.690   4.713
10720SOL     OW33058   6.138   5.677   4.025
10720SOL    HW133059   6.060   5.614   4.026
10720SOL    HW233060   6.203   5.651   4.096
10721SOL     OW33061   5.165   3.743   5.207
10721SOL    HW133062   5.172   3.798   5.124
10721SOL    HW233063   5.171   3.646   5.184
10722SOL     OW33064   0.066   4.144   5.972
10722SOL    HW133065   0.143   4.088   5.942
10722SOL    HW233066   0.076   4.165   6.070
10723SOL     OW33067   6.650   0.220   0.327
10723SOL    HW133068   6.558   0.240   0.360
10723SOL    HW233069   6.653   0.128   0.288
10724SOL     OW33070   6.384   6.649   0.751
10724SOL    HW133071   6.329   6.721   0.796
10724SOL    HW233072   6.341   6.623   0.665
10725SOL     OW33073   2.422   5.710   5.549
10725SOL    HW133074   2.488   5.730   5.476
10725SOL    HW233075   2.426   5.613   5.573
10726SOL     OW33076   4.459   0.473   4.135
10726SOL    HW133077   4.380   0.483   4.195
10726SOL    HW233078   4.430   0.435   4.047
10727SOL     OW33079   1.356   5.853   5.678
10727SOL    HW133080   1.374   5.847   5.776
10727SOL    HW233081   1.375   5.765   5.634
10728SOL     OW33082   6.392   5.240   0.843
10728SOL    HW133083   6.454   5.240   0.921
10728SOL    HW233084   6.335   5.322   0.845
10729SOL     OW33085   6.852   2.397   1.345
10729SOL    HW133086   6.948   2.402   1.370
10729SOL    HW233087   6.822   2.302   1.343
10730SOL     OW33088   4.292   6.919   1.727
10730SOL    HW133089   4.368   6.888   1.669
10730SOL    HW233090   4.256   7.005   1.691
10731SOL     OW33091   4.012   1.364   0.898
10731SOL    HW133092   4.057   1.453   0.909
10731SOL    HW233093   4.078   1.291   0.914
10732SOL     OW33094   0.693   5.387   5.111
10732SOL    HW133095   0.755   5.395   5.189
10732SOL    HW233096   0.628   5.313   5.128
10733SOL     OW33097   5.891   2.398   6.749
10733SOL    HW133098   5.831   2.320   6.767
10733SOL    HW233099   5.881   2.427   6.654
10734SOL     OW33100   0.700   2.132   1.487
10734SOL    HW133101   0.682   2.200   1.415
10734SOL    HW233102   0.618   2.122   1.544
10735SOL     OW33103   0.262   3.739   2.232
10735SOL    HW133104   0.205   3.664   2.199
10735SOL    HW233105   0.347   3.702   2.270
10736SOL     OW33106   3.298   6.799   3.724
10736SOL    HW133107   3.254   6.850   3.799
10736SOL    HW233108   3.348   6.863   3.666
10737SOL     OW33109   0.108   2.685   1.466
10737SOL    HW133110   0.099   2.672   1.564
10737SOL    HW233111   0.033   2.741   1.432
10738SOL     OW33112   4.488   0.792   2.872
10738SOL    HW133113   4.391   0.769   2.869
10738SOL    HW233114   4.499   0.888   2.897
10739SOL     OW33115   2.255   2.416   1.843
10739SOL    HW133116   2.211   2.327   1.837
10739SOL    HW233117   2.310   2.420   1.927
10740SOL     OW33118   4.957   4.481   4.187
10740SOL    HW133119   5.010   4.525   4.114
10740SOL    HW233120   4.974   4.383   4.187
10741SOL     OW33121   3.705   0.823   2.318
10741SOL    HW133122   3.798   0.805   2.286
10741SOL    HW233123   3.657   0.736   2.331
10742SOL     OW33124   5.560   5.293   0.893
10742SOL    HW133125   5.559   5.198   0.922
10742SOL    HW233126   5.485   5.309   0.828
10743SOL     OW33127   2.470   2.037   3.772
10743SOL    HW133128   2.566   2.016   3.791
10743SOL    HW233129   2.421   2.049   3.859
10744SOL     OW33130   3.673   2.641   0.975
10744SOL    HW133131   3.701   2.718   1.032
10744SOL    HW233132   3.591   2.598   1.014
10745SOL     OW33133   6.761   5.857   6.094
10745SOL    HW133134   6.680   5.874   6.038
10745SOL    HW233135   6.805   5.944   6.116
10746SOL     OW33136   0.426   4.224   5.110
10746SOL    HW133137   0.449   4.136   5.151
10746SOL    HW233138   0.363   4.273   5.171
10747SOL     OW33139   3.020   0.721   4.843
10747SOL    HW133140   3.087   0.748   4.773
10747SOL    HW233141   2.928   0.742   4.810
10748SOL     OW33142   5.000   0.892   2.368
10748SOL    HW133143   5.091   0.908   2.330
10748SOL    HW233144   5.009   0.863   2.463
10749SOL     OW33145   2.074   6.451   4.511
10749SOL    HW133146   2.019   6.392   4.571
10749SOL    HW233147   2.129   6.513   4.566
10750SOL     OW33148   3.901   0.695   5.258
10750SOL    HW133149   3.831   0.626   5.275
10750SOL    HW233150   3.882   0.741   5.172
10751SOL     OW33151   2.202   4.727   4.478
10751SOL    HW133152   2.123   4.769   4.523
10751SOL    HW233153   2.286   4.755   4.525
10752SOL     OW33154   5.339   4.763   4.677
10752SOL    HW133155   5.398   4.682   4.670
10752SOL    HW233156   5.270   4.759   4.605
10753SOL     OW33157   0.563   3.370   3.927
10753SOL    HW133158   0.565   3.411   4.018
10753SOL    HW233159   0.559   3.270   3.936
10754SOL     OW33160   1.499   0.615   3.251
10754SOL    HW133161   1.543   0.530   3.222
10754SOL    HW233162   1.406   0.595   3.283
10755SOL     OW33163   6.367   6.333   1.764
10755SOL    HW133164   6.434   6.403   1.787
10755SOL    HW233165   6.332   6.349   1.672
10756SOL     OW33166   6.611   6.896   5.173
10756SOL    HW133167   6.519   6.859   5.158
10756SOL    HW233168   6.609   6.960   5.250
10757SOL     OW33169   2.122   3.141   0.644
10757SOL    HW133170   2.185   3.085   0.698
10757SOL    HW233171   2.069   3.083   0.583
10758SOL     OW33172   0.740   5.926   3.538
10758SOL    HW133173   0.653   5.973   3.528
10758SOL    HW233174   0.775   5.940   3.631
10759SOL     OW33175   0.749   2.638   0.410
10759SOL    HW133176   0.719   2.714   0.352
10759SOL    HW233177   0.828   2.593   0.367
10760SOL     OW33178   6.026   1.401   3.460
10760SOL    HW133179   6.069   1.329   3.405
10760SOL    HW233180   5.932   1.374   3.481
10761SOL     OW33181   2.378   4.838   5.450
10761SOL    HW133182   2.293   4.890   5.451
10761SOL    HW233183   2.396   4.804   5.358
10762SOL     OW33184   3.084   0.526   4.584
10762SOL    HW133185   3.014   0.494   4.520
10762SOL    HW233186   3.086   0.466   4.664
10763SOL     OW33187   3.872   0.782   3.007
10763SOL    HW133188   3.819   0.707   2.966
10763SOL    HW233189   3.814   0.831   3.072
10764SOL     OW33190   5.254   0.901   4.158
10764SOL    HW133191   5.204   0.830   4.109
10764SOL    HW233192   5.223   0.906   4.253
10765SOL     OW33193   4.806   3.370   1.380
10765SOL    HW133194   4.810   3.369   1.480
10765SOL    HW233195   4.897   3.390   1.343
10766SOL     OW33196   3.102   3.209   1.195
10766SOL    HW133197   3.009   3.186   1.163
10766SOL    HW233198   3.160   3.127   1.189
10767SOL     OW33199   2.134   0.579   1.694
10767SOL    HW133200   2.132   0.529   1.781
10767SOL    HW233201   2.041   0.587   1.658
10768SOL     OW33202   6.535   4.661   0.854
10768SOL    HW133203   6.446   4.641   0.896
10768SOL    HW233204   6.556   4.758   0.864
10769SOL     OW33205   2.264   3.348   6.229
10769SOL    HW133206   2.180   3.304   6.261
10769SOL    HW233207   2.270   3.439   6.269
10770SOL     OW33208   4.649   6.031   3.489
10770SOL    HW133209   4.693   6.005   3.402
10770SOL    HW233210   4.704   5.997   3.565
10771SOL     OW33211   2.918   6.881   3.742
10771SOL    HW133212   3.003   6.850   3.784
10771SOL    HW233213   2.869   6.802   3.705
10772SOL     OW33214   6.000   5.724   3.737
10772SOL    HW133215   6.066   5.677   3.678
10772SOL    HW233216   5.955   5.658   3.797
10773SOL     OW33217   5.555   4.887   4.052
10773SOL    HW133218   5.509   4.965   4.094
10773SOL    HW233219   5.522   4.876   3.959
10774SOL     OW33220   1.482   1.223   4.070
10774SOL    HW133221   1.448   1.214   3.977
10774SOL    HW233222   1.572   1.180   4.077
10775SOL     OW33223   0.189   4.266   2.107
10775SOL    HW133224   0.277   4.285   2.064
10775SOL    HW233225   0.204   4.216   2.193
10776SOL     OW33226   1.989   0.280   6.969
10776SOL    HW133227   1.976   0.206   6.903
10776SOL    HW233228   2.045   0.352   6.928
10777SOL     OW33229   3.400   6.149   1.465
10777SOL    HW133230   3.480   6.099   1.432
10777SOL    HW233231   3.408   6.245   1.440
10778SOL     OW33232   5.811   6.277   3.538
10778SOL    HW133233   5.796   6.210   3.611
10778SOL    HW233234   5.779   6.367   3.568
10779SOL     OW33235   5.488   2.682   3.487
10779SOL    HW133236   5.438   2.766   3.468
10779SOL    HW233237   5.456   2.610   3.426
10780SOL     OW33238   1.054   1.105   3.262
10780SOL    HW133239   1.129   1.165   3.290
10780SOL    HW233240   1.023   1.132   3.170
10781SOL     OW33241   3.292   0.071   4.241
10781SOL    HW133242   3.276   7.002   4.212
10781SOL    HW233243   3.377   0.076   4.293
10782SOL     OW33244   6.168   6.240   4.478
10782SOL    HW133245   6.200   6.335   4.473
10782SOL    HW233246   6.199   6.190   4.398
10783SOL     OW33247   6.371   2.047   2.492
10783SOL    HW133248   6.342   2.030   2.398
10783SOL    HW233249   6.390   2.144   2.504
10784SOL     OW33250   2.757   1.410   3.812
10784SOL    HW133251   2.716   1.464   3.886
10784SOL    HW233252   2.799   1.328   3.850
10785SOL     OW33253   0.449   3.904   6.834
10785SOL    HW133254   0.473   3.989   6.881
10785SOL    HW233255   0.372   3.920   6.772
10786SOL     OW33256   6.841   5.674   2.940
10786SOL    HW133257   6.870   5.674   2.844
10786SOL    HW233258   6.744   5.697   2.945
10787SOL     OW33259   1.641   1.731   5.355
10787SOL    HW133260   1.602   1.713   5.445
10787SOL    HW233261   1.577   1.786   5.302
10788SOL     OW33262   6.368   3.999   6.319
10788SOL    HW133263   6.422   3.918   6.340
10788SOL    HW233264   6.277   3.971   6.288
10789SOL     OW33265   0.102   2.372   0.104
10789SOL    HW133266   0.048   2.376   0.188
10789SOL    HW233267   0.105   2.277   0.071
10790SOL     OW33268   0.181   0.079   2.182
10790SOL    HW133269   0.097   0.051   2.229
10790SOL    HW233270   0.158   0.121   2.094
10791SOL     OW33271   6.308   6.429   2.317
10791SOL    HW133272   6.363   6.464   2.241
10791SOL    HW233273   6.356   6.447   2.404
10792SOL     OW33274   4.068   3.811   5.023
10792SOL    HW133275   4.057   3.907   5.048
10792SOL    HW233276   4.097   3.805   4.928
10793SOL     OW33277   5.593   3.143   5.044
10793SOL    HW133278   5.660   3.203   5.089
10793SOL    HW233279   5.608   3.145   4.945
10794SOL     OW33280   3.270   3.554   3.570
10794SOL    HW133281   3.322   3.518   3.648
10794SOL    HW233282   3.176   3.576   3.599
10795SOL     OW33283   0.876   4.347   2.854
10795SOL    HW133284   0.849   4.340   2.758
10795SOL    HW233285   0.963   4.299   2.868
10796SOL     OW33286   1.039   5.938   5.083
10796SOL    HW133287   1.099   6.017   5.083
10796SOL    HW233288   1.045   5.891   4.995
10797SOL     OW33289   3.653   3.190   0.680
10797SOL    HW133290   3.628   3.195   0.584
10797SOL    HW233291   3.730   3.127   0.692
10798SOL     OW33292   1.108   1.327   1.100
10798SOL    HW133293   1.150   1.400   1.045
10798SOL    HW233294   1.018   1.357   1.131
10799SOL     OW33295   4.022   1.483   2.275
10799SOL    HW133296   4.043   1.396   2.231
10799SOL    HW233297   4.027   1.472   2.374
10800SOL     OW33298   0.808   6.542   0.215
10800SOL    HW133299   0.818   6.445   0.193
10800SOL    HW233300   0.879   6.568   0.281
10801SOL     OW33301   1.803   0.916   1.063
10801SOL    HW133302   1.722   0.863   1.090
10801SOL    HW233303   1.885   0.867   1.092
10802SOL     OW33304   6.238   0.051   3.512
10802SOL    HW133305   6.242   0.140   3.466
10802SOL    HW233306   6.261   7.004   3.447
10803SOL     OW33307   1.913   5.353   6.430
10803SOL    HW133308   2.001   5.378   6.471
10803SOL    HW233309   1.918   5.260   6.394
10804SOL     OW33310   0.145   3.175   3.768
10804SOL    HW133311   0.189   3.261   3.792
10804SOL    HW233312   0.048   3.180   3.791
10805SOL     OW33313   6.062   0.723   5.843
10805SOL    HW133314   6.009   0.804   5.820
10805SOL    HW233315   6.016   0.642   5.805
10806SOL     OW33316   1.587   4.832   6.922
10806SOL    HW133317   1.656   4.761   6.907
10806SOL    HW233318   1.513   4.794   6.977
10807SOL     OW33319   2.216   6.080   3.988
10807SOL    HW133320   2.231   6.149   4.058
10807SOL    HW233321   2.299   6.070   3.933
10808SOL     OW33322   0.486   2.117   6.278
10808SOL    HW133323   0.406   2.061   6.257
10808SOL    HW233324   0.553   2.063   6.328
10809SOL     OW33325   2.406   5.530   4.859
10809SOL    HW133326   2.486   5.588   4.874
10809SOL    HW233327   2.372   5.496   4.946
10810SOL     OW33328   0.104   7.025   4.691
10810SOL    HW133329   0.120   0.064   4.767
10810SOL    HW233330   0.156   6.941   4.706
10811SOL     OW33331   4.683   5.433   5.208
10811SOL    HW133332   4.774   5.448   5.248
10811SOL    HW233333   4.692   5.371   5.129
10812SOL     OW33334   6.952   2.792   6.610
10812SOL    HW133335   6.963   2.838   6.522
10812SOL    HW233336   6.904   2.852   6.674
10813SOL     OW33337   0.243   3.943   6.046
10813SOL    HW133338   0.205   3.934   6.139
10813SOL    HW233339   0.327   3.996   6.050
10814SOL     OW33340   2.278   0.622   0.947
10814SOL    HW133341   2.286   0.672   1.034
10814SOL    HW233342   2.182   0.620   0.919
10815SOL     OW33343   4.747   1.260   4.431
10815SOL    HW133344   4.747   1.263   4.331
10815SOL    HW233345   4.784   1.172   4.461
10816SOL     OW33346   3.665   3.164   3.110
10816SOL    HW133347   3.711   3.097   3.052
10816SOL    HW233348   3.683   3.256   3.076
10817SOL     OW33349   2.416   6.972   3.408
10817SOL    HW133350   2.480   6.897   3.392
10817SOL    HW233351   2.349   6.944   3.477
10818SOL     OW33352   4.488   5.157   5.880
10818SOL    HW133353   4.560   5.209   5.836
10818SOL    HW233354   4.529   5.087   5.940
10819SOL     OW33355   6.697   5.559   6.320
10819SOL    HW133356   6.637   5.537   6.243
10819SOL    HW233357   6.791   5.570   6.286
10820SOL     OW33358   2.194   4.537   5.945
10820SOL    HW133359   2.264   4.576   6.005
10820SOL    HW233360   2.232   4.458   5.897
10821SOL     OW33361   4.639   4.903   3.378
10821SOL    HW133362   4.642   5.001   3.360
10821SOL    HW233363   4.635   4.888   3.477
10822SOL     OW33364   5.741   2.817   1.213
10822SOL    HW133365   5.738   2.833   1.114
10822SOL    HW233366   5.666   2.756   1.239
10823SOL     OW33367   6.556   6.514   2.994
10823SOL    HW133368   6.474   6.477   2.951
10823SOL    HW233369   6.534   6.547   3.086
10824SOL     OW33370   1.094   1.969   4.135
10824SOL    HW133371   1.016   1.909   4.151
10824SOL    HW233372   1.079   2.056   4.182
10825SOL     OW33373   1.544   1.603   0.490
10825SOL    HW133374   1.474   1.630   0.556
10825SOL    HW233375   1.504   1.600   0.398
10826SOL     OW33376   1.132   2.415   2.745
10826SOL    HW133377   1.076   2.424   2.662
10826SOL    HW233378   1.228   2.424   2.721
10827SOL     OW33379   6.870   3.189   4.669
10827SOL    HW133380   6.903   3.098   4.697
10827SOL    HW233381   6.866   3.194   4.569
10828SOL     OW33382   6.204   4.696   5.675
10828SOL    HW133383   6.243   4.788   5.670
10828SOL    HW233384   6.160   4.683   5.764
10829SOL     OW33385   3.954   3.525   5.574
10829SOL    HW133386   4.027   3.459   5.558
10829SOL    HW233387   3.866   3.477   5.575
10830SOL     OW33388   4.672   1.053   3.684
10830SOL    HW133389   4.606   0.980   3.666
10830SOL    HW233390   4.734   1.024   3.758
10831SOL     OW33391   4.073   0.990   2.817
10831SOL    HW133392   3.990   0.940   2.789
10831SOL    HW233393   4.105   1.045   2.740
10832SOL     OW33394   0.070   3.347   6.809
10832SOL    HW133395   0.103   3.313   6.897
10832SOL    HW233396   0.078   3.447   6.807
10833SOL     OW33397   1.003   1.137   0.711
10833SOL    HW133398   0.958   1.135   0.801
10833SOL    HW233399   1.099   1.111   0.721
10834SOL     OW33400   6.767   6.381   0.447
10834SOL    HW133401   6.860   6.368   0.414
10834SOL    HW233402   6.705   6.324   0.393
10835SOL     OW33403   0.015   2.424   6.001
10835SOL    HW133404   0.000   2.376   5.915
10835SOL    HW233405   0.099   2.389   6.044
10836SOL     OW33406   0.040   1.615   3.660
10836SOL    HW133407   0.043   1.691   3.725
10836SOL    HW233408   0.119   1.620   3.599
10837SOL     OW33409   7.019   3.936   2.774
10837SOL    HW133410   0.086   3.968   2.796
10837SOL    HW233411   6.971   4.007   2.721
10838SOL     OW33412   6.246   5.676   3.594
10838SOL    HW133413   6.206   5.655   3.505
10838SOL    HW233414   6.253   5.776   3.605
10839SOL     OW33415   4.353   2.966   0.626
10839SOL    HW133416   4.285   3.005   0.564
10839SOL    HW233417   4.314   2.888   0.674
10840SOL     OW33418   3.119   0.569   1.049
10840SOL    HW133419   3.032   0.591   1.005
10840SOL    HW233420   3.176   0.515   0.987
10841SOL     OW33421   1.533   5.413   4.881
10841SOL    HW133422   1.585   5.421   4.797
10841SOL    HW233423   1.587   5.366   4.950
10842SOL     OW33424   5.352   4.293   0.389
10842SOL    HW133425   5.358   4.347   0.305
10842SOL    HW233426   5.350   4.356   0.468
10843SOL     OW33427   2.143   2.319   1.460
10843SOL    HW133428   2.135   2.396   1.523
10843SOL    HW233429   2.166   2.236   1.511
10844SOL     OW33430   1.248   5.331   4.879
10844SOL    HW133431   1.227   5.243   4.920
10844SOL    HW233432   1.344   5.355   4.897
10845SOL     OW33433   4.275   6.450   4.923
10845SOL    HW133434   4.220   6.375   4.886
10845SOL    HW233435   4.274   6.445   5.023
10846SOL     OW33436   4.934   0.357   0.512
10846SOL    HW133437   4.893   0.367   0.603
10846SOL    HW233438   5.030   0.331   0.522
10847SOL     OW33439   1.963   1.260   6.781
10847SOL    HW133440   2.030   1.260   6.706
10847SOL    HW233441   1.954   1.352   6.818
10848SOL     OW33442   1.563   4.364   1.678
10848SOL    HW133443   1.472   4.386   1.641
10848SOL    HW233444   1.630   4.427   1.640
10849SOL     OW33445   2.292   5.984   3.663
10849SOL    HW133446   2.258   6.078   3.671
10849SOL    HW233447   2.341   5.959   3.747
10850SOL     OW33448   3.285   6.023   0.556
10850SOL    HW133449   3.325   6.067   0.476
10850SOL    HW233450   3.286   5.923   0.544
10851SOL     OW33451   2.298   5.069   1.381
10851SOL    HW133452   2.206   5.030   1.368
10851SOL    HW233453   2.350   5.060   1.296
10852SOL     OW33454   1.989   1.606   1.164
10852SOL    HW133455   2.076   1.656   1.164
10852SOL    HW233456   2.002   1.514   1.128
10853SOL     OW33457   2.691   1.841   6.226
10853SOL    HW133458   2.774   1.841   6.170
10853SOL    HW233459   2.645   1.753   6.217
10854SOL     OW33460   4.116   6.106   5.819
10854SOL    HW133461   4.080   6.134   5.908
10854SOL    HW233462   4.199   6.051   5.832
10855SOL     OW33463   3.550   1.361   0.149
10855SOL    HW133464   3.627   1.339   0.209
10855SOL    HW233465   3.487   1.422   0.197
10856SOL     OW33466   0.614   0.935   0.097
10856SOL    HW133467   0.636   1.011   0.158
10856SOL    HW233468   0.515   0.926   0.089
10857SOL     OW33469   6.191   2.349   2.719
10857SOL    HW133470   6.148   2.429   2.677
10857SOL    HW233471   6.258   2.310   2.656
10858SOL     OW33472   2.868   6.068   1.791
10858SOL    HW133473   2.909   6.153   1.822
10858SOL    HW233474   2.803   6.035   1.860
10859SOL     OW33475   1.494   5.667   3.381
10859SOL    HW133476   1.453   5.647   3.470
10859SOL    HW233477   1.587   5.629   3.379
10860SOL     OW33478   6.989   2.044   3.113
10860SOL    HW133479   6.964   2.108   3.186
10860SOL    HW233480   6.907   2.019   3.061
10861SOL     OW33481   4.009   3.132   4.192
10861SOL    HW133482   4.024   3.113   4.095
10861SOL    HW233483   3.935   3.074   4.226
10862SOL     OW33484   1.259   0.449   4.682
10862SOL    HW133485   1.164   0.419   4.677
10862SOL    HW233486   1.286   0.488   4.594
10863SOL     OW33487   3.032   5.591   4.526
10863SOL    HW133488   2.997   5.571   4.617
10863SOL    HW233489   3.101   5.524   4.501
10864SOL     OW33490   3.217   6.151   2.736
10864SOL    HW133491   3.213   6.093   2.655
10864SOL    HW233492   3.310   6.150   2.773
10865SOL     OW33493   6.402   2.123   6.212
10865SOL    HW133494   6.389   2.185   6.134
10865SOL    HW233495   6.313   2.094   6.247
10866SOL     OW33496   5.550   4.603   0.439
10866SOL    HW133497   5.582   4.512   0.464
10866SOL    HW233498   5.454   4.600   0.414
10867SOL     OW33499   3.452   2.846   0.407
10867SOL    HW133500   3.534   2.898   0.382
10867SOL    HW233501   3.429   2.863   0.502
10868SOL     OW33502   3.221   1.837   2.852
10868SOL    HW133503   3.127   1.818   2.883
10868SOL    HW233504   3.226   1.931   2.819
10869NA      NA33505   6.662   2.202   5.660
10870NA      NA33506   4.225   4.626   5.239
10871NA      NA33507   2.185   3.591   1.452
10872NA      NA33508   4.850   3.721   5.229
10873NA      NA33509   4.121   2.411   5.362
10874NA      NA33510   3.757   4.611   1.633
10875NA      NA33511   6.642   5.696   5.738
10876NA      NA33512   4.006   3.590   5.093
10877NA      NA33513   4.523   6.879   6.937
10878NA      NA33514   3.615   6.955   5.209
10879NA      NA33515   6.478   4.823   2.640
10880NA      NA33516   2.397   0.799   3.177
10881NA      NA33517   3.420   4.522   0.851
10882NA      NA33518   3.578   3.716   2.774
   7.02477   7.02477   7.02477
