Generated by trjconv : CNT in water t= 183.00000
33518
    1C        C    1   2.843   2.765   4.745
    1C        C    2   2.896   2.716   4.866
    1C        C    3   2.840   2.767   4.984
    1C        C    4   2.843   2.765   4.260
    1C        C    5   2.898   2.718   4.382
    1C        C    6   2.844   2.768   4.503
    1C        C    7   3.010   2.632   4.622
    1C        C    8   2.898   2.718   4.623
    1C        C    9   3.071   2.595   4.744
    1C        C   10   3.006   2.628   4.865
    1C        C   11   3.182   2.491   4.975
    1C        C   12   3.063   2.565   4.976
    1C        C   13   2.850   2.766   3.771
    1C        C   14   2.897   2.714   3.893
    1C        C   15   2.849   2.767   4.015
    1C        C   16   3.013   2.638   4.138
    1C        C   17   2.896   2.718   4.139
    1C        C   18   3.079   2.606   4.259
    1C        C   19   3.015   2.639   4.381
    1C        C   20   3.206   2.545   4.504
    1C        C   21   3.074   2.596   4.501
    1C        C   22   3.276   2.527   4.625
    1C        C   23   3.203   2.543   4.745
    1C        C   24   3.412   2.476   4.865
    1C        C   25   3.270   2.500   4.863
    1C        C   26   3.488   2.478   4.982
    1C        C   27   2.852   2.765   3.280
    1C        C   28   2.907   2.721   3.403
    1C        C   29   2.858   2.769   3.526
    1C        C   30   3.016   2.633   3.649
    1C        C   31   2.902   2.716   3.649
    1C        C   32   3.075   2.597   3.773
    1C        C   33   3.011   2.630   3.894
    1C        C   34   3.204   2.545   4.016
    1C        C   35   3.073   2.597   4.017
    1C        C   36   3.275   2.528   4.137
    1C        C   37   3.209   2.552   4.260
    1C        C   38   3.415   2.503   4.379
    1C        C   39   3.276   2.527   4.382
    1C        C   40   3.487   2.504   4.501
    1C        C   41   3.416   2.505   4.623
    1C        C   42   3.627   2.481   4.747
    1C        C   43   3.485   2.481   4.743
    1C        C   44   3.704   2.484   4.866
    1C        C   45   3.627   2.476   4.982
    1C        C   46   2.834   2.749   2.792
    1C        C   47   2.892   2.706   2.914
    1C        C   48   2.846   2.762   3.035
    1C        C   49   3.013   2.631   3.161
    1C        C   50   2.901   2.716   3.157
    1C        C   51   3.077   2.597   3.282
    1C        C   52   3.022   2.638   3.406
    1C        C   53   3.209   2.542   3.527
    1C        C   54   3.080   2.598   3.528
    1C        C   55   3.276   2.521   3.651
    1C        C   56   3.207   2.547   3.771
    1C        C   57   3.413   2.505   3.894
    1C        C   58   3.274   2.529   3.894
    1C        C   59   3.485   2.499   4.015
    1C        C   60   3.413   2.502   4.137
    1C        C   61   3.628   2.504   4.259
    1C        C   62   3.487   2.500   4.258
    1C        C   63   3.698   2.510   4.382
    1C        C   64   3.628   2.507   4.505
    1C        C   65   3.833   2.548   4.622
    1C        C   66   3.699   2.502   4.627
    1C        C   67   3.901   2.567   4.744
    1C        C   68   3.838   2.527   4.864
    1C        C   69   4.050   2.586   4.978
    1C        C   70   3.923   2.526   4.975
    1C        C   71   2.822   2.730   2.311
    1C        C   72   2.883   2.686   2.431
    1C        C   73   2.833   2.742   2.550
    1C        C   74   3.006   2.621   2.673
    1C        C   75   2.886   2.695   2.672
    1C        C   76   3.070   2.590   2.795
    1C        C   77   3.008   2.625   2.916
    1C        C   78   3.206   2.547   3.037
    1C        C   79   3.074   2.598   3.038
    1C        C   80   3.277   2.532   3.158
    1C        C   81   3.209   2.546   3.281
    1C        C   82   3.414   2.496   3.404
    1C        C   83   3.275   2.523   3.404
    1C        C   84   3.485   2.486   3.526
    1C        C   85   3.414   2.493   3.648
    1C        C   86   3.624   2.497   3.768
    1C        C   87   3.483   2.491   3.772
    1C        C   88   3.695   2.511   3.889
    1C        C   89   3.626   2.506   4.012
    1C        C   90   3.832   2.552   4.133
    1C        C   91   3.695   2.518   4.135
    1C        C   92   3.898   2.573   4.256
    1C        C   93   3.834   2.548   4.379
    1C        C   94   4.027   2.638   4.496
    1C        C   95   3.901   2.574   4.501
    1C        C   96   4.087   2.674   4.619
    1C        C   97   4.031   2.625   4.739
    1C        C   98   4.190   2.764   4.860
    1C        C   99   4.094   2.657   4.862
    1C        C  100   4.219   2.837   4.976
    1C        C  101   2.820   2.729   2.072
    1C        C  102   2.986   2.588   2.192
    1C        C  103   2.873   2.675   2.190
    1C        C  104   3.061   2.566   2.311
    1C        C  105   2.998   2.605   2.432
    1C        C  106   3.199   2.529   2.552
    1C        C  107   3.066   2.577   2.552
    1C        C  108   3.269   2.514   2.673
    1C        C  109   3.201   2.536   2.796
    1C        C  110   3.412   2.491   2.913
    1C        C  111   3.273   2.518   2.916
    1C        C  112   3.482   2.486   3.035
    1C        C  113   3.413   2.497   3.158
    1C        C  114   3.624   2.499   3.276
    1C        C  115   3.483   2.492   3.281
    1C        C  116   3.694   2.508   3.399
    1C        C  117   3.626   2.495   3.523
    1C        C  118   3.829   2.550   3.644
    1C        C  119   3.694   2.507   3.646
    1C        C  120   3.895   2.573   3.767
    1C        C  121   3.832   2.547   3.891
    1C        C  122   4.022   2.645   4.011
    1C        C  123   3.899   2.576   4.012
    1C        C  124   4.081   2.684   4.133
    1C        C  125   4.024   2.637   4.254
    1C        C  126   4.194   2.768   4.374
    1C        C  127   4.087   2.676   4.374
    1C        C  128   4.244   2.817   4.497
    1C        C  129   4.195   2.764   4.619
    1C        C  130   4.328   2.933   4.739
    1C        C  131   4.241   2.820   4.740
    1C        C  132   4.359   2.998   4.860
    1C        C  133   4.285   2.959   4.973
    1C        C  134   3.173   2.470   2.080
    1C        C  135   3.038   2.507   2.085
    1C        C  136   3.259   2.480   2.190
    1C        C  137   3.193   2.514   2.310
    1C        C  138   3.405   2.476   2.427
    1C        C  139   3.267   2.505   2.430
    1C        C  140   3.480   2.473   2.547
    1C        C  141   3.407   2.489   2.667
    1C        C  142   3.620   2.497   2.788
    1C        C  143   3.479   2.483   2.789
    1C        C  144   3.693   2.501   2.908
    1C        C  145   3.623   2.496   3.031
    1C        C  146   3.829   2.543   3.153
    1C        C  147   3.693   2.505   3.153
    1C        C  148   3.895   2.571   3.275
    1C        C  149   3.830   2.545   3.398
    1C        C  150   4.022   2.632   3.523
    1C        C  151   3.894   2.571   3.521
    1C        C  152   4.078   2.675   3.645
    1C        C  153   4.019   2.639   3.769
    1C        C  154   4.195   2.766   3.885
    1C        C  155   4.084   2.680   3.888
    1C        C  156   4.245   2.815   4.008
    1C        C  157   4.194   2.768   4.131
    1C        C  158   4.342   2.922   4.255
    1C        C  159   4.249   2.816   4.253
    1C        C  160   4.376   2.984   4.377
    1C        C  161   4.328   2.930   4.499
    1C        C  162   4.445   3.112   4.615
    1C        C  163   4.372   2.991   4.618
    1C        C  164   4.470   3.181   4.736
    1C        C  165   4.439   3.114   4.856
    1C        C  166   4.512   3.319   4.973
    1C        C  167   4.478   3.183   4.972
    1C        C  168   3.475   2.438   2.071
    1C        C  169   3.398   2.455   2.187
    1C        C  170   3.617   2.462   2.306
    1C        C  171   3.475   2.458   2.305
    1C        C  172   3.692   2.486   2.424
    1C        C  173   3.621   2.482   2.546
    1C        C  174   3.828   2.537   2.665
    1C        C  175   3.693   2.495   2.667
    1C        C  176   3.894   2.560   2.787
    1C        C  177   3.830   2.533   2.910
    1C        C  178   4.019   2.635   3.031
    1C        C  179   3.898   2.561   3.031
    1C        C  180   4.078   2.672   3.154
    1C        C  181   4.020   2.636   3.278
    1C        C  182   4.192   2.757   3.397
    1C        C  183   4.082   2.668   3.401
    1C        C  184   4.242   2.810   3.518
    1C        C  185   4.190   2.761   3.640
    1C        C  186   4.336   2.919   3.764
    1C        C  187   4.244   2.812   3.761
    1C        C  188   4.376   2.978   3.886
    1C        C  189   4.336   2.923   4.010
    1C        C  190   4.447   3.103   4.129
    1C        C  191   4.384   2.977   4.132
    1C        C  192   4.476   3.169   4.251
    1C        C  193   4.446   3.107   4.374
    1C        C  194   4.502   3.316   4.493
    1C        C  195   4.473   3.178   4.493
    1C        C  196   4.520   3.386   4.614
    1C        C  197   4.511   3.317   4.737
    1C        C  198   4.549   3.535   4.854
    1C        C  199   4.534   3.392   4.856
    1C        C  200   4.579   3.620   4.965
    1C        C  201   3.613   2.414   2.073
    1C        C  202   3.826   2.506   2.181
    1C        C  203   3.692   2.456   2.185
    1C        C  204   3.897   2.539   2.299
    1C        C  205   3.829   2.518   2.421
    1C        C  206   4.018   2.623   2.543
    1C        C  207   3.892   2.558   2.541
    1C        C  208   4.077   2.665   2.664
    1C        C  209   4.019   2.627   2.787
    1C        C  210   4.191   2.755   2.909
    1C        C  211   4.077   2.671   2.908
    1C        C  212   4.244   2.802   3.031
    1C        C  213   4.193   2.754   3.154
    1C        C  214   4.335   2.913   3.271
    1C        C  215   4.247   2.802   3.275
    1C        C  216   4.372   2.973   3.394
    1C        C  217   4.332   2.919   3.518
    1C        C  218   4.440   3.100   3.639
    1C        C  219   4.376   2.974   3.641
    1C        C  220   4.465   3.168   3.760
    1C        C  221   4.442   3.103   3.883
    1C        C  222   4.506   3.304   4.001
    1C        C  223   4.471   3.168   4.006
    1C        C  224   4.518   3.375   4.123
    1C        C  225   4.508   3.307   4.246
    1C        C  226   4.519   3.521   4.368
    1C        C  227   4.514   3.380   4.367
    1C        C  228   4.522   3.595   4.488
    1C        C  229   4.532   3.527   4.612
    1C        C  230   4.502   3.742   4.726
    1C        C  231   4.535   3.603   4.730
    1C        C  232   4.493   3.816   4.846
    1C        C  233   4.545   3.756   4.961
    1C        C  234   4.018   2.604   2.063
    1C        C  235   3.896   2.538   2.064
    1C        C  236   4.080   2.652   2.179
    1C        C  237   4.019   2.613   2.300
    1C        C  238   4.195   2.739   2.421
    1C        C  239   4.081   2.653   2.420
    1C        C  240   4.247   2.790   2.541
    1C        C  241   4.192   2.747   2.664
    1C        C  242   4.337   2.903   2.782
    1C        C  243   4.245   2.796   2.785
    1C        C  244   4.381   2.960   2.904
    1C        C  245   4.337   2.908   3.027
    1C        C  246   4.445   3.093   3.148
    1C        C  247   4.375   2.970   3.148
    1C        C  248   4.468   3.160   3.271
    1C        C  249   4.436   3.099   3.394
    1C        C  250   4.496   3.302   3.513
    1C        C  251   4.465   3.164   3.516
    1C        C  252   4.508   3.373   3.634
    1C        C  253   4.501   3.305   3.758
    1C        C  254   4.529   3.515   3.877
    1C        C  255   4.522   3.374   3.879
    1C        C  256   4.518   3.585   3.999
    1C        C  257   4.520   3.516   4.123
    1C        C  258   4.493   3.728   4.240
    1C        C  259   4.516   3.589   4.244
    1C        C  260   4.471   3.799   4.361
    1C        C  261   4.496   3.733   4.484
    1C        C  262   4.423   3.936   4.604
    1C        C  263   4.479   3.807   4.603
    1C        C  264   4.398   4.005   4.724
    1C        C  265   4.433   3.944   4.846
    1C        C  266   4.318   4.131   4.957
    1C        C  267   4.390   4.011   4.961
    1C        C  268   4.254   2.782   2.061
    1C        C  269   4.190   2.741   2.178
    1C        C  270   4.346   2.888   2.301
    1C        C  271   4.251   2.782   2.299
    1C        C  272   4.387   2.953   2.419
    1C        C  273   4.341   2.895   2.540
    1C        C  274   4.442   3.087   2.660
    1C        C  275   4.376   2.962   2.660
    1C        C  276   4.473   3.154   2.780
    1C        C  277   4.445   3.086   2.901
    1C        C  278   4.504   3.290   3.022
    1C        C  279   4.470   3.153   3.023
    1C        C  280   4.510   3.364   3.143
    1C        C  281   4.500   3.298   3.267
    1C        C  282   4.519   3.509   3.390
    1C        C  283   4.510   3.368   3.389
    1C        C  284   4.521   3.583   3.510
    1C        C  285   4.521   3.514   3.633
    1C        C  286   4.493   3.725   3.752
    1C        C  287   4.520   3.586   3.755
    1C        C  288   4.471   3.791   3.875
    1C        C  289   4.493   3.724   3.997
    1C        C  290   4.425   3.927   4.116
    1C        C  291   4.477   3.796   4.117
    1C        C  292   4.399   3.995   4.237
    1C        C  293   4.425   3.932   4.361
    1C        C  294   4.325   4.123   4.479
    1C        C  295   4.391   3.999   4.481
    1C        C  296   4.289   4.189   4.599
    1C        C  297   4.330   4.130   4.721
    1C        C  298   4.198   4.312   4.838
    1C        C  299   4.278   4.193   4.838
    1C        C  300   4.163   4.396   4.948
    1C        C  301   4.347   2.885   2.063
    1C        C  302   4.469   3.066   2.174
    1C        C  303   4.401   2.940   2.180
    1C        C  304   4.480   3.141   2.294
    1C        C  305   4.451   3.078   2.417
    1C        C  306   4.512   3.286   2.534
    1C        C  307   4.474   3.150   2.537
    1C        C  308   4.522   3.357   2.655
    1C        C  309   4.506   3.291   2.780
    1C        C  310   4.524   3.503   2.900
    1C        C  311   4.514   3.363   2.901
    1C        C  312   4.517   3.575   3.021
    1C        C  313   4.514   3.505   3.144
    1C        C  314   4.491   3.716   3.264
    1C        C  315   4.514   3.576   3.266
    1C        C  316   4.473   3.786   3.386
    1C        C  317   4.492   3.722   3.510
    1C        C  318   4.426   3.926   3.627
    1C        C  319   4.478   3.795   3.630
    1C        C  320   4.392   3.988   3.749
    1C        C  321   4.422   3.924   3.872
    1C        C  322   4.320   4.110   3.991
    1C        C  323   4.389   3.987   3.993
    1C        C  324   4.279   4.169   4.113
    1C        C  325   4.325   4.116   4.235
    1C        C  326   4.180   4.274   4.353
    1C        C  327   4.283   4.177   4.355
    1C        C  328   4.135   4.335   4.472
    1C        C  329   4.195   4.294   4.593
    1C        C  330   4.027   4.430   4.714
    1C        C  331   4.144   4.350   4.713
    1C        C  332   3.971   4.493   4.828
    1C        C  333   4.050   4.479   4.942
    1C        C  334   4.544   3.266   2.058
    1C        C  335   4.525   3.127   2.057
    1C        C  336   4.531   3.350   2.169
    1C        C  337   4.513   3.279   2.290
    1C        C  338   4.524   3.495   2.408
    1C        C  339   4.522   3.354   2.410
    1C        C  340   4.523   3.568   2.529
    1C        C  341   4.530   3.498   2.652
    1C        C  342   4.494   3.707   2.772
    1C        C  343   4.521   3.568   2.774
    1C        C  344   4.475   3.778   2.893
    1C        C  345   4.495   3.715   3.017
    1C        C  346   4.422   3.913   3.138
    1C        C  347   4.473   3.781   3.140
    1C        C  348   4.394   3.980   3.259
    1C        C  349   4.425   3.919   3.383
    1C        C  350   4.321   4.107   3.501
    1C        C  351   4.398   3.988   3.503
    1C        C  352   4.276   4.165   3.622
    1C        C  353   4.319   4.109   3.745
    1C        C  354   4.174   4.261   3.866
    1C        C  355   4.277   4.165   3.867
    1C        C  356   4.120   4.310   3.987
    1C        C  357   4.176   4.265   4.109
    1C        C  358   4.010   4.397   4.232
    1C        C  359   4.125   4.316   4.230
    1C        C  360   3.952   4.444   4.352
    1C        C  361   4.018   4.414   4.473
    1C        C  362   3.828   4.513   4.593
    1C        C  363   3.955   4.452   4.594
    1C        C  364   3.762   4.549   4.712
    1C        C  365   3.838   4.541   4.831
    1C        C  366   3.629   4.587   4.951
    1C        C  367   3.768   4.576   4.946
    1C        C  368   4.506   3.561   2.048
    1C        C  369   4.524   3.491   2.167
    1C        C  370   4.502   3.706   2.285
    1C        C  371   4.520   3.566   2.286
    1C        C  372   4.484   3.777   2.406
    1C        C  373   4.499   3.707   2.528
    1C        C  374   4.420   3.904   2.648
    1C        C  375   4.474   3.774   2.650
    1C        C  376   4.391   3.970   2.770
    1C        C  377   4.422   3.909   2.893
    1C        C  378   4.312   4.092   3.013
    1C        C  379   4.389   3.974   3.015
    1C        C  380   4.265   4.150   3.133
    1C        C  381   4.312   4.095   3.255
    1C        C  382   4.176   4.257   3.378
    1C        C  383   4.274   4.155   3.377
    1C        C  384   4.122   4.307   3.498
    1C        C  385   4.177   4.266   3.621
    1C        C  386   4.006   4.390   3.740
    1C        C  387   4.123   4.311   3.744
    1C        C  388   3.948   4.429   3.863
    1C        C  389   4.010   4.399   3.987
    1C        C  390   3.820   4.490   4.108
    1C        C  391   3.950   4.435   4.109
    1C        C  392   3.752   4.517   4.229
    1C        C  393   3.823   4.502   4.350
    1C        C  394   3.618   4.553   4.473
    1C        C  395   3.756   4.526   4.472
    1C        C  396   3.547   4.562   4.595
    1C        C  397   3.621   4.564   4.715
    1C        C  398   3.411   4.545   4.838
    1C        C  399   3.550   4.572   4.836
    1C        C  400   3.341   4.514   4.955
    1C        C  401   4.500   3.700   2.047
    1C        C  402   4.447   3.912   2.164
    1C        C  403   4.490   3.778   2.163
    1C        C  404   4.410   3.976   2.285
    1C        C  405   4.436   3.910   2.407
    1C        C  406   4.319   4.091   2.528
    1C        C  407   4.395   3.972   2.527
    1C        C  408   4.276   4.151   2.648
    1C        C  409   4.311   4.086   2.769
    1C        C  410   4.170   4.246   2.889
    1C        C  411   4.271   4.147   2.890
    1C        C  412   4.124   4.303   3.010
    1C        C  413   4.177   4.260   3.134
    1C        C  414   4.002   4.378   3.252
    1C        C  415   4.124   4.306   3.256
    1C        C  416   3.939   4.411   3.374
    1C        C  417   4.002   4.382   3.497
    1C        C  418   3.813   4.481   3.620
    1C        C  419   3.942   4.422   3.618
    1C        C  420   3.747   4.506   3.742
    1C        C  421   3.816   4.480   3.863
    1C        C  422   3.612   4.532   3.984
    1C        C  423   3.750   4.502   3.986
    1C        C  424   3.544   4.537   4.108
    1C        C  425   3.612   4.536   4.231
    1C        C  426   3.401   4.542   4.356
    1C        C  427   3.542   4.551   4.353
    1C        C  428   3.332   4.540   4.479
    1C        C  429   3.406   4.551   4.598
    1C        C  430   3.194   4.517   4.722
    1C        C  431   3.334   4.541   4.720
    1C        C  432   3.125   4.490   4.843
    1C        C  433   3.204   4.490   4.959
    1C        C  434   4.384   4.123   2.053
    1C        C  435   4.439   3.995   2.051
    1C        C  436   4.304   4.164   2.164
    1C        C  437   4.331   4.094   2.285
    1C        C  438   4.178   4.246   2.401
    1C        C  439   4.279   4.148   2.405
    1C        C  440   4.121   4.294   2.522
    1C        C  441   4.177   4.252   2.644
    1C        C  442   4.003   4.375   2.764
    1C        C  443   4.117   4.292   2.766
    1C        C  444   3.943   4.411   2.887
    1C        C  445   4.007   4.382   3.010
    1C        C  446   3.813   4.474   3.130
    1C        C  447   3.941   4.416   3.130
    1C        C  448   3.747   4.496   3.252
    1C        C  449   3.810   4.470   3.376
    1C        C  450   3.607   4.528   3.494
    1C        C  451   3.745   4.498   3.498
    1C        C  452   3.539   4.543   3.618
    1C        C  453   3.610   4.538   3.740
    1C        C  454   3.400   4.541   3.863
    1C        C  455   3.541   4.546   3.863
    1C        C  456   3.333   4.524   3.986
    1C        C  457   3.402   4.532   4.109
    1C        C  458   3.196   4.494   4.235
    1C        C  459   3.334   4.526   4.233
    1C        C  460   3.129   4.481   4.358
    1C        C  461   3.194   4.512   4.480
    1C        C  462   2.995   4.437   4.598
    1C        C  463   3.124   4.496   4.602
    1C        C  464   2.934   4.400   4.720
    1C        C  465   2.989   4.446   4.843
    1C        C  466   2.800   4.341   4.955
    1C        C  467   2.907   4.432   4.960
    1C        C  468   4.120   4.282   2.045
    1C        C  469   4.189   4.249   2.162
    1C        C  470   4.008   4.376   2.275
    1C        C  471   4.128   4.300   2.280
    1C        C  472   3.946   4.410   2.397
    1C        C  473   4.008   4.379   2.519
    1C        C  474   3.813   4.465   2.641
    1C        C  475   3.942   4.408   2.641
    1C        C  476   3.746   4.490   2.763
    1C        C  477   3.814   4.467   2.885
    1C        C  478   3.608   4.520   3.007
    1C        C  479   3.747   4.493   3.006
    1C        C  480   3.536   4.528   3.128
    1C        C  481   3.607   4.520   3.250
    1C        C  482   3.395   4.528   3.377
    1C        C  483   3.536   4.529   3.372
    1C        C  484   3.326   4.527   3.500
    1C        C  485   3.398   4.538   3.621
    1C        C  486   3.189   4.497   3.744
    1C        C  487   3.326   4.531   3.743
    1C        C  488   3.125   4.473   3.868
    1C        C  489   3.196   4.492   3.989
    1C        C  490   3.001   4.414   4.112
    1C        C  491   3.129   4.473   4.112
    1C        C  492   2.943   4.378   4.236
    1C        C  493   3.002   4.420   4.357
    1C        C  494   2.826   4.303   4.482
    1C        C  495   2.935   4.391   4.479
    1C        C  496   2.768   4.260   4.604
    1C        C  497   2.819   4.316   4.723
    1C        C  498   2.658   4.171   4.841
    1C        C  499   2.752   4.276   4.841
    1C        C  500   2.594   4.119   4.954
    1C        C  501   4.004   4.359   2.038
    1C        C  502   3.816   4.469   2.155
    1C        C  503   3.945   4.411   2.154
    1C        C  504   3.745   4.484   2.276
    1C        C  505   3.815   4.463   2.397
    1C        C  506   3.607   4.513   2.519
    1C        C  507   3.744   4.481   2.518
    1C        C  508   3.534   4.518   2.640
    1C        C  509   3.606   4.512   2.761
    1C        C  510   3.396   4.521   2.885
    1C        C  511   3.538   4.522   2.884
    1C        C  512   3.325   4.524   3.007
    1C        C  513   3.395   4.526   3.130
    1C        C  514   3.188   4.492   3.256
    1C        C  515   3.326   4.520   3.254
    1C        C  516   3.119   4.472   3.378
    1C        C  517   3.189   4.493   3.499
    1C        C  518   2.996   4.411   3.623
    1C        C  519   3.123   4.473   3.622
    1C        C  520   2.937   4.373   3.746
    1C        C  521   3.002   4.404   3.867
    1C        C  522   2.829   4.287   3.996
    1C        C  523   2.943   4.371   3.991
    1C        C  524   2.779   4.241   4.119
    1C        C  525   2.830   4.293   4.240
    1C        C  526   2.692   4.133   4.364
    1C        C  527   2.777   4.245   4.362
    1C        C  528   2.648   4.079   4.487
    1C        C  529   2.680   4.150   4.605
    1C        C  530   2.579   3.962   4.727
    1C        C  531   2.637   4.092   4.726
    1C        C  532   2.540   3.903   4.850
    1C        C  533   2.528   3.995   4.959
    1C        C  534   3.616   4.562   2.037
    1C        C  535   3.748   4.516   2.042
    1C        C  536   3.537   4.533   2.153
    1C        C  537   3.606   4.510   2.276
    1C        C  538   3.394   4.509   2.400
    1C        C  539   3.535   4.520   2.398
    1C        C  540   3.321   4.502   2.521
    1C        C  541   3.393   4.511   2.642
    1C        C  542   3.184   4.483   2.768
    1C        C  543   3.323   4.506   2.765
    1C        C  544   3.117   4.467   2.891
    1C        C  545   3.188   4.492   3.011
    1C        C  546   2.997   4.400   3.135
    1C        C  547   3.122   4.466   3.134
    1C        C  548   2.933   4.369   3.257
    1C        C  549   2.994   4.407   3.379
    1C        C  550   2.826   4.281   3.504
    1C        C  551   2.935   4.371   3.502
    1C        C  552   2.780   4.231   3.628
    1C        C  553   2.829   4.282   3.751
    1C        C  554   2.694   4.122   3.875
    1C        C  555   2.778   4.236   3.874
    1C        C  556   2.655   4.066   3.999
    1C        C  557   2.691   4.130   4.120
    1C        C  558   2.588   3.946   4.245
    1C        C  559   2.654   4.071   4.243
    1C        C  560   2.559   3.880   4.367
    1C        C  561   2.586   3.952   4.486
    1C        C  562   2.529   3.750   4.612
    1C        C  563   2.557   3.888   4.609
    1C        C  564   2.514   3.683   4.735
    1C        C  565   2.520   3.761   4.854
    1C        C  566   2.532   3.546   4.970
    1C        C  567   2.527   3.685   4.972
    1C        C  568   3.329   4.473   2.040
    1C        C  569   3.396   4.513   2.156
    1C        C  570   3.186   4.472   2.279
    1C        C  571   3.323   4.508   2.278
    1C        C  572   3.118   4.450   2.401
    1C        C  573   3.183   4.474   2.524
    1C        C  574   2.988   4.399   2.647
    1C        C  575   3.114   4.461   2.647
    1C        C  576   2.930   4.363   2.770
    1C        C  577   2.993   4.399   2.891
    1C        C  578   2.824   4.274   3.013
    1C        C  579   2.937   4.359   3.014
    1C        C  580   2.776   4.225   3.137
    1C        C  581   2.826   4.277   3.258
    1C        C  582   2.692   4.117   3.384
    1C        C  583   2.778   4.229   3.382
    1C        C  584   2.658   4.059   3.508
    1C        C  585   2.697   4.116   3.631
    1C        C  586   2.590   3.935   3.751
    1C        C  587   2.657   4.060   3.754
    1C        C  588   2.565   3.874   3.876
    1C        C  589   2.591   3.941   3.998
    1C        C  590   2.538   3.741   4.125
    1C        C  591   2.564   3.880   4.123
    1C        C  592   2.526   3.672   4.248
    1C        C  593   2.528   3.743   4.371
    1C        C  594   2.516   3.532   4.495
    1C        C  595   2.518   3.673   4.494
    1C        C  596   2.515   3.464   4.619
    1C        C  597   2.518   3.541   4.737
    1C        C  598   2.531   3.324   4.856
    1C        C  599   2.528   3.465   4.856
    1C        C  600   2.534   3.254   4.977
    1C        C  601   3.196   4.437   2.043
    1C        C  602   2.982   4.395   2.160
    1C        C  603   3.117   4.442   2.159
    1C        C  604   2.925   4.355   2.285
    1C        C  605   2.988   4.395   2.405
    1C        C  606   2.817   4.268   2.529
    1C        C  607   2.925   4.360   2.526
    1C        C  608   2.765   4.223   2.652
    1C        C  609   2.818   4.276   2.771
    1C        C  610   2.679   4.115   2.895
    1C        C  611   2.769   4.223   2.893
    1C        C  612   2.648   4.053   3.019
    1C        C  613   2.688   4.114   3.140
    1C        C  614   2.587   3.931   3.263
    1C        C  615   2.648   4.059   3.263
    1C        C  616   2.563   3.867   3.386
    1C        C  617   2.589   3.935   3.507
    1C        C  618   2.530   3.732   3.636
    1C        C  619   2.565   3.868   3.630
    1C        C  620   2.517   3.665   3.760
    1C        C  621   2.534   3.736   3.881
    1C        C  622   2.513   3.528   4.009
    1C        C  623   2.522   3.669   4.005
    1C        C  624   2.512   3.457   4.130
    1C        C  625   2.519   3.531   4.250
    1C        C  626   2.544   3.322   4.375
    1C        C  627   2.523   3.462   4.373
    1C        C  628   2.560   3.252   4.496
    1C        C  629   2.536   3.324   4.615
    1C        C  630   2.600   3.119   4.742
    1C        C  631   2.547   3.251   4.736
    1C        C  632   2.617   3.048   4.863
    1C        C  633   2.567   3.118   4.977
    1C        C  634   2.786   4.298   2.053
    1C        C  635   2.887   4.395   2.053
    1C        C  636   2.746   4.226   2.167
    1C        C  637   2.811   4.270   2.284
    1C        C  638   2.674   4.111   2.411
    1C        C  639   2.761   4.222   2.407
    1C        C  640   2.635   4.049   2.532
    1C        C  641   2.682   4.108   2.651
    1C        C  642   2.580   3.924   2.777
    1C        C  643   2.644   4.050   2.774
    1C        C  644   2.557   3.858   2.900
    1C        C  645   2.586   3.926   3.020
    1C        C  646   2.527   3.724   3.146
    1C        C  647   2.564   3.861   3.143
    1C        C  648   2.518   3.656   3.270
    1C        C  649   2.529   3.730   3.390
    1C        C  650   2.516   3.521   3.518
    1C        C  651   2.522   3.662   3.514
    1C        C  652   2.524   3.452   3.641
    1C        C  653   2.518   3.524   3.763
    1C        C  654   2.541   3.317   3.889
    1C        C  655   2.519   3.456   3.887
    1C        C  656   2.556   3.247   4.011
    1C        C  657   2.535   3.317   4.132
    1C        C  658   2.612   3.120   4.256
    1C        C  659   2.559   3.251   4.254
    1C        C  660   2.645   3.056   4.378
    1C        C  661   2.604   3.117   4.498
    1C        C  662   2.711   2.936   4.626
    1C        C  663   2.633   3.054   4.621
    1C        C  664   2.749   2.871   4.746
    1C        C  665   2.695   2.928   4.865
    1C        C  666   2.742   2.866   4.981
    1C        C  667   2.669   4.022   2.051
    1C        C  668   2.681   4.101   2.166
    1C        C  669   2.593   3.911   2.291
    1C        C  670   2.648   4.042   2.291
    1C        C  671   2.558   3.848   2.413
    1C        C  672   2.578   3.920   2.533
    1C        C  673   2.514   3.720   2.659
    1C        C  674   2.551   3.857   2.656
    1C        C  675   2.508   3.650   2.781
    1C        C  676   2.524   3.721   2.902
    1C        C  677   2.504   3.511   3.027
    1C        C  678   2.510   3.653   3.025
    1C        C  679   2.512   3.446   3.152
    1C        C  680   2.512   3.515   3.275
    1C        C  681   2.538   3.307   3.403
    1C        C  682   2.514   3.446   3.398
    1C        C  683   2.561   3.239   3.525
    1C        C  684   2.545   3.312   3.645
    1C        C  685   2.611   3.114   3.770
    1C        C  686   2.556   3.244   3.768
    1C        C  687   2.643   3.052   3.893
    1C        C  688   2.607   3.116   4.014
    1C        C  689   2.714   2.931   4.136
    1C        C  690   2.642   3.052   4.136
    1C        C  691   2.752   2.874   4.259
    1C        C  692   2.714   2.933   4.382
    1C        C  693   2.752   2.875   4.505
    1C        C  694   2.626   3.888   2.054
    1C        C  695   2.526   3.703   2.174
    1C        C  696   2.577   3.835   2.174
    1C        C  697   2.503   3.638   2.297
    1C        C  698   2.521   3.712   2.416
    1C        C  699   2.493   3.505   2.541
    1C        C  700   2.498   3.647   2.539
    1C        C  701   2.504   3.436   2.663
    1C        C  702   2.500   3.509   2.784
    1C        C  703   2.526   3.299   2.910
    1C        C  704   2.505   3.438   2.906
    1C        C  705   2.546   3.234   3.034
    1C        C  706   2.537   3.307   3.155
    1C        C  707   2.604   3.109   3.278
    1C        C  708   2.554   3.241   3.279
    1C        C  709   2.635   3.045   3.400
    1C        C  710   2.606   3.105   3.524
    1C        C  711   2.717   2.930   3.646
    1C        C  712   2.639   3.048   3.649
    1C        C  713   2.760   2.875   3.769
    1C        C  714   2.716   2.931   3.891
    1C        C  715   2.754   2.872   4.014
    1C        C  716   2.450   3.497   2.061
    1C        C  717   2.485   3.633   2.060
    1C        C  718   2.465   3.422   2.182
    1C        C  719   2.480   3.497   2.302
    1C        C  720   2.512   3.288   2.425
    1C        C  721   2.487   3.427   2.424
    1C        C  722   2.535   3.221   2.547
    1C        C  723   2.525   3.296   2.666
    1C        C  724   2.598   3.098   2.788
    1C        C  725   2.541   3.227   2.789
    1C        C  726   2.631   3.039   2.912
    1C        C  727   2.600   3.104   3.034
    1C        C  728   2.708   2.923   3.160
    1C        C  729   2.631   3.041   3.157
    1C        C  730   2.754   2.867   3.282
    1C        C  731   2.715   2.928   3.403
    1C        C  732   2.763   2.874   3.525
    1C        C  733   2.490   3.197   2.074
    1C        C  734   2.483   3.280   2.186
    1C        C  735   2.576   3.082   2.308
    1C        C  736   2.516   3.211   2.306
    1C        C  737   2.603   3.013   2.428
    1C        C  738   2.579   3.087   2.546
    1C        C  739   2.699   2.910   2.671
    1C        C  740   2.627   3.032   2.667
    1C        C  741   2.742   2.856   2.794
    1C        C  742   2.703   2.917   2.915
    1C        C  743   2.750   2.865   3.038
    1C        C  744   2.547   3.069   2.074
    1C        C  745   2.691   2.901   2.188
    1C        C  746   2.605   3.013   2.188
    1C        C  747   2.731   2.840   2.309
    1C        C  748   2.687   2.900   2.429
    1C        C  749   2.741   2.850   2.550
    1C        C  750   2.741   2.843   2.071
    1C        C  751   3.650   2.301   1.985
    1C        O  752   3.749   2.223   1.999
    1C        O  753   3.615   2.295   1.850
    1C        C  754   4.613   3.054   1.963
    1C        O  755   4.606   3.074   1.838
    1C        O  756   4.744   3.025   2.001
    1C        C  757   4.457   4.215   1.962
    1C        O  758   4.560   4.279   1.995
    1C        O  759   4.457   4.199   1.823
    1C        C  760   3.594   4.682   1.953
    1C        O  761   3.646   4.782   2.009
    1C        O  762   3.614   4.677   1.815
    1C        C  763   2.879   4.501   1.949
    1C        O  764   2.858   4.468   1.830
    1C        O  765   2.841   4.632   1.977
    1C        C  766   2.337   3.472   1.969
    1C        O  767   2.360   3.411   1.861
    1C        O  768   2.204   3.467   2.013
    1C        C  769   4.682   3.582   5.064
    1C        O  770   4.641   3.542   5.177
    1C        O  771   4.799   3.657   5.082
    1C        C  772   4.271   4.455   5.030
    1C        O  773   4.269   4.483   5.153
    1C        O  774   4.369   4.533   4.968
    1C        C  775   4.142   2.506   5.063
    1C        O  776   4.208   2.407   5.020
    1C        O  777   4.118   2.486   5.199
    1C        C  778   2.883   4.547   5.049
    1C        O  779   2.844   4.656   4.999
    1C        O  780   2.887   4.536   5.189
    1C        C  781   2.505   3.041   5.088
    1C        O  782   2.387   2.997   5.081
    1C        O  783   2.540   3.072   5.219
    1C        C  784   2.401   3.996   5.036
    1C        O  785   2.304   4.066   4.994
    1C        O  786   2.397   3.993   5.176
    1C        C  787   2.960   2.399   2.021
    1C        O  788   2.945   2.383   1.897
    1C        O  789   2.906   2.303   2.105
    1C        C  790   3.186   2.367   5.056
    1C        O  791   3.115   2.269   5.020
    1C        O  792   3.216   2.371   5.193
    1C        H  793   4.246   3.038   5.033
    1C        H  794   4.199   2.794   5.072
    1C        H  795   4.503   3.123   5.056
    1C        H  796   4.522   3.362   5.070
    1C        H  797   4.553   3.817   5.049
    1C        H  798   4.465   4.015   5.037
    1C        H  799   4.333   4.191   5.044
    1C        H  800   4.023   4.527   5.035
    1C        H  801   3.823   4.625   5.023
    1C        H  802   3.590   4.665   5.013
    1C        H  803   3.382   4.532   5.052
    1C        H  804   3.160   4.480   5.056
    1C        H  805   3.908   2.450   5.049
    1C        H  806   3.669   2.505   5.076
    1C        H  807   2.996   2.546   5.057
    1C        H  808   3.433   2.446   5.069
    1C        H  809   2.827   2.700   5.066
    1C        H  810   2.741   2.919   5.074
    1C        H  811   2.471   3.288   5.057
    1C        H  812   2.522   3.500   5.066
    1C        H  813   2.504   3.729   5.067
    1C        H  814   2.621   4.161   5.049
    1C        H  815   2.779   4.298   5.051
    1C        H  816   2.709   2.876   1.974
    1C        H  817   2.810   2.660   1.990
    1C        H  818   3.199   2.405   1.999
    1C        H  819   3.439   2.489   1.984
    1C        H  820   3.848   2.512   1.972
    1C        H  821   4.034   2.652   1.968
    1C        H  822   4.277   2.700   1.997
    1C        H  823   4.337   2.954   1.981
    1C        H  824   4.588   3.307   1.969
    1C        H  825   4.485   3.509   1.957
    1C        H  826   4.536   3.749   1.959
    1C        H  827   3.787   4.481   1.949
    1C        H  828   3.941   4.343   1.953
    1C        H  829   4.147   4.231   1.955
    1C        H  830   4.489   3.964   1.962
    1C        H  831   2.680   3.829   1.983
    1C        H  832   2.731   4.049   1.969
    1C        H  833   2.718   4.289   1.971
    1C        H  834   3.388   4.408   1.979
    1C        H  835   3.164   4.379   1.959
    1C        H  836   2.487   2.995   2.025
    1C        H  837   2.416   3.210   1.998
    1C        H  838   2.444   3.695   1.983
    2V3OU   H29  839   2.797   3.545   1.970
    2V3OU   C27  840   2.786   3.500   2.073
    2V3OU   H27  841   2.724   3.568   2.137
    2V3OU   H28  842   2.730   3.403   2.074
    2V3OU   O11  843   2.908   3.476   2.143
    2V3OU   C15  844   2.928   3.392   2.251
    2V3OU   C13  845   3.052   3.373   2.315
    2V3OU   C14  846   3.078   3.269   2.405
    2V3OU   C16  847   2.974   3.188   2.447
    2V3OU    H6  848   2.992   3.097   2.506
    2V3OU   C12  849   3.216   3.222   2.434
    2V3OU    O2  850   3.235   3.117   2.499
    2V3OU   C10  851   3.330   3.306   2.395
    2V3OU    C8  852   3.461   3.272   2.426
    2V3OU   O10  853   3.493   3.153   2.485
    2V3OU   H26  854   3.409   3.115   2.514
    2V3OU    C6  855   3.570   3.353   2.381
    2V3OU    C5  856   3.536   3.471   2.315
    2V3OU    C4  857   3.707   3.296   2.384
    2V3OU    H4  858   3.722   3.226   2.471
    2V3OU    H5  859   3.712   3.227   2.295
    2V3OU    C2  860   3.820   3.399   2.383
    2V3OU    O6  861   3.805   3.469   2.506
    2V3OU   H21  862   3.769   3.556   2.480
    2V3OU    C3  863   3.784   3.497   2.270
    2V3OU    H2  864   3.863   3.576   2.265
    2V3OU    H3  865   3.783   3.434   2.177
    2V3OU   C25  866   3.954   3.327   2.365
    2V3OU    O7  867   3.991   3.285   2.256
    2V3OU   C26  868   4.035   3.288   2.488
    2V3OU   H22  869   4.062   3.379   2.548
    2V3OU   H23  870   4.119   3.221   2.459
    2V3OU    O8  871   3.967   3.207   2.581
    2V3OU   H24  872   3.919   3.269   2.639
    2V3OU    C1  873   3.649   3.565   2.286
    2V3OU    H1  874   3.626   3.621   2.191
    2V3OU    O3  875   3.660   3.649   2.401
    2V3OU   C19  876   3.616   3.785   2.398
    2V3OU    H9  877   3.524   3.798   2.333
    2V3OU    O4  878   3.713   3.843   2.314
    2V3OU   C20  879   3.842   3.872   2.371
    2V3OU   H10  880   3.896   3.773   2.385
    2V3OU   C24  881   3.610   3.851   2.536
    2V3OU   H16  882   3.534   3.794   2.595
    2V3OU   H17  883   3.569   3.953   2.514
    2V3OU   C23  884   3.748   3.875   2.598
    2V3OU   H15  885   3.790   3.771   2.620
    2V3OU    N1  886   3.735   3.957   2.717
    2V3OU   H19  887   3.810   3.930   2.777
    2V3OU   H20  888   3.648   3.931   2.758
    2V3OU   C21  889   3.847   3.950   2.503
    2V3OU   H11  890   3.950   3.933   2.546
    2V3OU    O5  891   3.828   4.088   2.477
    2V3OU   H18  892   3.783   4.117   2.557
    2V3OU   C22  893   3.910   3.948   2.259
    2V3OU   H12  894   3.865   4.049   2.246
    2V3OU   H13  895   3.913   3.884   2.167
    2V3OU   H14  896   4.018   3.964   2.286
    2V3OU   C11  897   3.160   3.470   2.292
    2V3OU    O1  898   3.136   3.582   2.241
    2V3OU    C9  899   3.297   3.425   2.325
    2V3OU    C7  900   3.401   3.508   2.286
    2V3OU    O9  901   3.389   3.609   2.193
    2V3OU   H25  902   3.293   3.624   2.201
    2V3OU   C17  903   2.821   3.311   2.294
    2V3OU    H7  904   2.721   3.345   2.266
    2V3OU   C18  905   2.850   3.213   2.389
    2V3OU    H8  906   2.767   3.166   2.444
    3SOL     OW  907   3.136   4.514   0.392
    3SOL    HW1  908   3.077   4.557   0.323
    3SOL    HW2  909   3.177   4.585   0.449
    4SOL     OW  910   6.421   5.983   1.816
    4SOL    HW1  911   6.500   5.923   1.831
    4SOL    HW2  912   6.441   6.046   1.741
    5SOL     OW  913   3.838   1.767   2.972
    5SOL    HW1  914   3.781   1.725   2.902
    5SOL    HW2  915   3.845   1.705   3.051
    6SOL     OW  916   4.529   1.251   1.580
    6SOL    HW1  917   4.435   1.260   1.546
    6SOL    HW2  918   4.546   1.317   1.652
    7SOL     OW  919   6.473   3.419   2.302
    7SOL    HW1  920   6.376   3.398   2.319
    7SOL    HW2  921   6.517   3.446   2.388
    8SOL     OW  922   3.189   0.076   6.139
    8SOL    HW1  923   3.098   0.081   6.098
    8SOL    HW2  924   3.252   0.132   6.086
    9SOL     OW  925   6.648   5.672   5.738
    9SOL    HW1  926   6.565   5.702   5.691
    9SOL    HW2  927   6.657   5.573   5.730
   10SOL     OW  928   0.701   4.641   6.057
   10SOL    HW1  929   0.628   4.685   6.005
   10SOL    HW2  930   0.737   4.706   6.124
   11SOL     OW  931   2.981   0.178   0.212
   11SOL    HW1  932   2.922   0.145   0.287
   11SOL    HW2  933   2.932   0.169   0.125
   12SOL     OW  934   4.021   6.291   4.349
   12SOL    HW1  935   3.971   6.206   4.332
   12SOL    HW2  936   3.984   6.335   4.431
   13SOL     OW  937   3.270   5.316   3.779
   13SOL    HW1  938   3.253   5.349   3.872
   13SOL    HW2  939   3.305   5.223   3.783
   14SOL     OW  940   5.508   5.678   6.450
   14SOL    HW1  941   5.417   5.646   6.476
   14SOL    HW2  942   5.547   5.617   6.382
   15SOL     OW  943   0.650   5.376   0.770
   15SOL    HW1  944   0.583   5.338   0.705
   15SOL    HW2  945   0.725   5.418   0.719
   16SOL     OW  946   5.561   3.170   5.679
   16SOL    HW1  947   5.633   3.239   5.684
   16SOL    HW2  948   5.567   3.121   5.592
   17SOL     OW  949   5.489   6.358   5.699
   17SOL    HW1  950   5.406   6.400   5.663
   17SOL    HW2  951   5.545   6.323   5.624
   18SOL     OW  952   3.180   0.909   6.043
   18SOL    HW1  953   3.224   0.937   5.957
   18SOL    HW2  954   3.251   0.884   6.110
   19SOL     OW  955   0.416   6.951   3.328
   19SOL    HW1  956   0.342   6.884   3.325
   19SOL    HW2  957   0.437   6.973   3.423
   20SOL     OW  958   4.860   2.240   4.478
   20SOL    HW1  959   4.787   2.198   4.425
   20SOL    HW2  960   4.938   2.177   4.484
   21SOL     OW  961   3.174   2.156   2.454
   21SOL    HW1  962   3.100   2.208   2.497
   21SOL    HW2  963   3.151   2.136   2.359
   22SOL     OW  964   2.140   0.079   0.486
   22SOL    HW1  965   2.078   0.152   0.457
   22SOL    HW2  966   2.198   0.112   0.560
   23SOL     OW  967   4.874   6.604   3.613
   23SOL    HW1  968   4.779   6.629   3.594
   23SOL    HW2  969   4.879   6.507   3.636
   24SOL     OW  970   5.231   1.235   2.980
   24SOL    HW1  971   5.309   1.242   2.916
   24SOL    HW2  972   5.201   1.327   3.005
   25SOL     OW  973   3.419   6.684   5.354
   25SOL    HW1  974   3.380   6.774   5.375
   25SOL    HW2  975   3.354   6.613   5.381
   26SOL     OW  976   6.352   1.472   0.617
   26SOL    HW1  977   6.401   1.546   0.572
   26SOL    HW2  978   6.256   1.496   0.627
   27SOL     OW  979   0.326   1.543   1.469
   27SOL    HW1  980   0.314   1.642   1.470
   27SOL    HW2  981   0.238   1.499   1.453
   28SOL     OW  982   3.556   1.344   0.293
   28SOL    HW1  983   3.496   1.399   0.352
   28SOL    HW2  984   3.513   1.255   0.277
   29SOL     OW  985   5.290   3.490   1.928
   29SOL    HW1  986   5.306   3.406   1.877
   29SOL    HW2  987   5.214   3.540   1.886
   30SOL     OW  988   3.798   0.594   4.704
   30SOL    HW1  989   3.779   0.614   4.608
   30SOL    HW2  990   3.798   0.494   4.718
   31SOL     OW  991   0.625   1.854   5.947
   31SOL    HW1  992   0.586   1.833   5.857
   31SOL    HW2  993   0.718   1.888   5.936
   32SOL     OW  994   6.976   1.634   2.997
   32SOL    HW1  995   6.923   1.598   2.921
   32SOL    HW2  996   0.025   1.695   2.962
   33SOL     OW  997   2.547   3.804   7.004
   33SOL    HW1  998   2.585   3.879   6.951
   33SOL    HW2  999   2.447   3.804   6.998
   34SOL     OW 1000   2.307   1.664   3.115
   34SOL    HW1 1001   2.217   1.638   3.149
   34SOL    HW2 1002   2.304   1.757   3.078
   35SOL     OW 1003   3.386   2.757   6.899
   35SOL    HW1 1004   3.394   2.666   6.857
   35SOL    HW2 1005   3.405   2.826   6.829
   36SOL     OW 1006   6.915   0.542   5.985
   36SOL    HW1 1007   7.000   0.547   5.933
   36SOL    HW2 1008   6.913   0.616   6.052
   37SOL     OW 1009   1.383   6.848   0.632
   37SOL    HW1 1010   1.286   6.828   0.620
   37SOL    HW2 1011   1.413   6.911   0.560
   38SOL     OW 1012   0.011   4.434   2.625
   38SOL    HW1 1013   0.084   4.419   2.558
   38SOL    HW2 1014   6.991   4.524   2.609
   39SOL     OW 1015   6.571   4.915   6.401
   39SOL    HW1 1016   6.576   4.947   6.496
   39SOL    HW2 1017   6.492   4.855   6.390
   40SOL     OW 1018   5.468   2.578   1.209
   40SOL    HW1 1019   5.423   2.516   1.274
   40SOL    HW2 1020   5.510   2.653   1.260
   41SOL     OW 1021   0.017   6.943   4.133
   41SOL    HW1 1022   0.111   6.943   4.099
   41SOL    HW2 1023   7.000   6.851   4.125
   42SOL     OW 1024   2.470   5.793   5.246
   42SOL    HW1 1025   2.563   5.786   5.283
   42SOL    HW2 1026   2.448   5.710   5.195
   43SOL     OW 1027   5.484   6.579   5.008
   43SOL    HW1 1028   5.564   6.632   4.979
   43SOL    HW2 1029   5.497   6.483   4.981
   44SOL     OW 1030   5.817   1.971   6.214
   44SOL    HW1 1031   5.752   2.045   6.229
   44SOL    HW2 1032   5.835   1.961   6.116
   45SOL     OW 1033   3.585   6.495   3.116
   45SOL    HW1 1034   3.565   6.399   3.137
   45SOL    HW2 1035   3.632   6.536   3.194
   46SOL     OW 1036   1.091   3.553   3.469
   46SOL    HW1 1037   1.010   3.607   3.493
   46SOL    HW2 1038   1.104   3.481   3.537
   47SOL     OW 1039   4.711   4.527   1.480
   47SOL    HW1 1040   4.754   4.483   1.401
   47SOL    HW2 1041   4.723   4.470   1.561
   48SOL     OW 1042   6.915   2.904   6.109
   48SOL    HW1 1043   6.936   2.863   6.198
   48SOL    HW2 1044   6.836   2.964   6.117
   49SOL     OW 1045   4.662   4.072   1.702
   49SOL    HW1 1046   4.596   4.132   1.747
   49SOL    HW2 1047   4.614   4.013   1.637
   50SOL     OW 1048   6.873   2.578   5.543
   50SOL    HW1 1049   6.864   2.513   5.618
   50SOL    HW2 1050   6.821   2.661   5.564
   51SOL     OW 1051   3.103   6.274   2.311
   51SOL    HW1 1052   3.069   6.180   2.304
   51SOL    HW2 1053   3.140   6.302   2.223
   52SOL     OW 1054   5.332   2.744   3.416
   52SOL    HW1 1055   5.328   2.710   3.322
   52SOL    HW2 1056   5.251   2.800   3.434
   53SOL     OW 1057   4.143   0.072   4.736
   53SOL    HW1 1058   4.208   7.018   4.751
   53SOL    HW2 1059   4.110   0.067   4.641
   54SOL     OW 1060   4.084   4.617   0.638
   54SOL    HW1 1061   4.057   4.665   0.554
   54SOL    HW2 1062   4.006   4.565   0.673
   55SOL     OW 1063   3.200   1.524   6.474
   55SOL    HW1 1064   3.240   1.433   6.467
   55SOL    HW2 1065   3.169   1.553   6.383
   56SOL     OW 1066   0.178   0.192   1.017
   56SOL    HW1 1067   0.234   0.110   1.026
   56SOL    HW2 1068   0.091   0.178   1.065
   57SOL     OW 1069   5.257   0.760   0.676
   57SOL    HW1 1070   5.198   0.679   0.682
   57SOL    HW2 1071   5.209   0.831   0.624
   58SOL     OW 1072   6.201   0.064   5.507
   58SOL    HW1 1073   6.184   7.007   5.566
   58SOL    HW2 1074   6.219   0.145   5.563
   59SOL     OW 1075   1.559   1.112   5.970
   59SOL    HW1 1076   1.617   1.186   5.937
   59SOL    HW2 1077   1.508   1.073   5.894
   60SOL     OW 1078   5.495   1.021   5.902
   60SOL    HW1 1079   5.429   1.049   5.970
   60SOL    HW2 1080   5.567   1.090   5.893
   61SOL     OW 1081   5.051   1.708   5.021
   61SOL    HW1 1082   5.064   1.709   5.120
   61SOL    HW2 1083   5.116   1.644   4.980
   62SOL     OW 1084   0.094   0.969   3.183
   62SOL    HW1 1085   0.154   0.891   3.162
   62SOL    HW2 1086   0.037   0.989   3.104
   63SOL     OW 1087   5.735   1.584   3.865
   63SOL    HW1 1088   5.815   1.644   3.854
   63SOL    HW2 1089   5.749   1.501   3.811
   64SOL     OW 1090   0.604   3.680   5.997
   64SOL    HW1 1091   0.561   3.613   6.057
   64SOL    HW2 1092   0.703   3.678   6.010
   65SOL     OW 1093   6.751   4.837   5.130
   65SOL    HW1 1094   6.759   4.905   5.203
   65SOL    HW2 1095   6.664   4.789   5.139
   66SOL     OW 1096   3.757   0.915   6.231
   66SOL    HW1 1097   3.705   0.961   6.160
   66SOL    HW2 1098   3.825   0.854   6.190
   67SOL     OW 1099   5.415   4.477   5.612
   67SOL    HW1 1100   5.330   4.501   5.566
   67SOL    HW2 1101   5.408   4.499   5.710
   68SOL     OW 1102   5.451   0.956   6.804
   68SOL    HW1 1103   5.366   0.933   6.852
   68SOL    HW2 1104   5.431   0.973   6.708
   69SOL     OW 1105   1.044   3.546   6.630
   69SOL    HW1 1106   1.058   3.583   6.538
   69SOL    HW2 1107   1.103   3.594   6.694
   70SOL     OW 1108   5.587   4.767   3.848
   70SOL    HW1 1109   5.540   4.796   3.932
   70SOL    HW2 1110   5.685   4.764   3.864
   71SOL     OW 1111   4.270   1.446   2.858
   71SOL    HW1 1112   4.233   1.372   2.802
   71SOL    HW2 1113   4.336   1.499   2.804
   72SOL     OW 1114   2.647   6.014   5.008
   72SOL    HW1 1115   2.709   5.950   4.963
   72SOL    HW2 1116   2.556   5.973   5.015
   73SOL     OW 1117   3.757   0.787   0.805
   73SOL    HW1 1118   3.853   0.811   0.821
   73SOL    HW2 1119   3.709   0.780   0.892
   74SOL     OW 1120   5.152   6.476   6.130
   74SOL    HW1 1121   5.229   6.539   6.143
   74SOL    HW2 1122   5.066   6.524   6.150
   75SOL     OW 1123   4.065   0.227   6.727
   75SOL    HW1 1124   4.015   0.284   6.662
   75SOL    HW2 1125   4.009   0.149   6.754
   76SOL     OW 1126   2.562   2.657   1.011
   76SOL    HW1 1127   2.528   2.645   0.918
   76SOL    HW2 1128   2.492   2.624   1.076
   77SOL     OW 1129   6.323   6.368   3.873
   77SOL    HW1 1130   6.266   6.417   3.940
   77SOL    HW2 1131   6.420   6.384   3.894
   78SOL     OW 1132   5.815   0.768   5.891
   78SOL    HW1 1133   5.852   0.805   5.805
   78SOL    HW2 1134   5.754   0.692   5.870
   79SOL     OW 1135   2.777   6.840   0.207
   79SOL    HW1 1136   2.714   6.904   0.164
   79SOL    HW2 1137   2.859   6.831   0.150
   80SOL     OW 1138   5.204   2.054   4.280
   80SOL    HW1 1139   5.269   2.128   4.260
   80SOL    HW2 1140   5.249   1.966   4.267
   81SOL     OW 1141   1.884   0.486   3.224
   81SOL    HW1 1142   1.879   0.532   3.136
   81SOL    HW2 1143   1.833   0.400   3.220
   82SOL     OW 1144   6.622   4.678   0.756
   82SOL    HW1 1145   6.694   4.669   0.826
   82SOL    HW2 1146   6.533   4.659   0.798
   83SOL     OW 1147   0.635   0.638   0.511
   83SOL    HW1 1148   0.699   0.685   0.450
   83SOL    HW2 1149   0.543   0.674   0.496
   84SOL     OW 1150   5.270   3.183   3.701
   84SOL    HW1 1151   5.284   3.133   3.786
   84SOL    HW2 1152   5.306   3.130   3.624
   85SOL     OW 1153   2.020   1.552   4.781
   85SOL    HW1 1154   2.001   1.521   4.874
   85SOL    HW2 1155   2.038   1.473   4.722
   86SOL     OW 1156   0.163   0.448   5.103
   86SOL    HW1 1157   0.115   0.434   5.189
   86SOL    HW2 1158   0.236   0.380   5.093
   87SOL     OW 1159   5.122   3.619   0.608
   87SOL    HW1 1160   5.046   3.654   0.662
   87SOL    HW2 1161   5.112   3.520   0.596
   88SOL     OW 1162   3.624   1.556   6.591
   88SOL    HW1 1163   3.547   1.617   6.574
   88SOL    HW2 1164   3.685   1.556   6.512
   89SOL     OW 1165   0.960   2.447   5.579
   89SOL    HW1 1166   0.958   2.457   5.679
   89SOL    HW2 1167   1.033   2.503   5.541
   90SOL     OW 1168   4.190   6.411   2.813
   90SOL    HW1 1169   4.184   6.375   2.720
   90SOL    HW2 1170   4.178   6.510   2.812
   91SOL     OW 1171   4.692   4.486   5.006
   91SOL    HW1 1172   4.664   4.416   5.072
   91SOL    HW2 1173   4.638   4.477   4.923
   92SOL     OW 1174   3.301   3.801   0.409
   92SOL    HW1 1175   3.362   3.879   0.396
   92SOL    HW2 1176   3.348   3.730   0.461
   93SOL     OW 1177   2.715   3.694   6.489
   93SOL    HW1 1178   2.635   3.698   6.549
   93SOL    HW2 1179   2.686   3.704   6.394
   94SOL     OW 1180   2.672   5.964   5.902
   94SOL    HW1 1181   2.583   5.970   5.947
   94SOL    HW2 1182   2.723   6.049   5.919
   95SOL     OW 1183   1.368   0.709   3.000
   95SOL    HW1 1184   1.436   0.654   2.952
   95SOL    HW2 1185   1.294   0.650   3.031
   96SOL     OW 1186   3.446   0.288   4.766
   96SOL    HW1 1187   3.507   0.348   4.818
   96SOL    HW2 1188   3.351   0.313   4.783
   97SOL     OW 1189   1.878   3.489   5.937
   97SOL    HW1 1190   1.949   3.440   5.987
   97SOL    HW2 1191   1.791   3.441   5.947
   98SOL     OW 1192   6.402   3.905   0.568
   98SOL    HW1 1193   6.356   3.922   0.481
   98SOL    HW2 1194   6.374   3.816   0.603
   99SOL     OW 1195   4.762   3.465   1.145
   99SOL    HW1 1196   4.688   3.445   1.210
   99SOL    HW2 1197   4.741   3.549   1.095
  100SOL     OW 1198   6.987   0.280   4.924
  100SOL    HW1 1199   7.015   0.315   4.835
  100SOL    HW2 1200   7.018   0.185   4.934
  101SOL     OW 1201   1.530   5.505   2.117
  101SOL    HW1 1202   1.612   5.453   2.139
  101SOL    HW2 1203   1.486   5.534   2.202
  102SOL     OW 1204   4.396   6.865   2.469
  102SOL    HW1 1205   4.387   6.867   2.569
  102SOL    HW2 1206   4.407   6.770   2.439
  103SOL     OW 1207   3.325   1.011   2.059
  103SOL    HW1 1208   3.257   1.049   2.122
  103SOL    HW2 1209   3.281   0.985   1.973
  104SOL     OW 1210   0.289   5.192   2.428
  104SOL    HW1 1211   0.294   5.144   2.515
  104SOL    HW2 1212   0.240   5.279   2.441
  105SOL     OW 1213   6.972   2.537   6.678
  105SOL    HW1 1214   0.006   2.498   6.605
  105SOL    HW2 1215   0.008   2.596   6.735
  106SOL     OW 1216   4.238   5.746   4.641
  106SOL    HW1 1217   4.209   5.673   4.702
  106SOL    HW2 1218   4.306   5.711   4.577
  107SOL     OW 1219   2.081   1.382   2.120
  107SOL    HW1 1220   2.181   1.382   2.113
  107SOL    HW2 1221   2.041   1.346   2.036
  108SOL     OW 1222   3.922   5.200   5.846
  108SOL    HW1 1223   3.884   5.109   5.829
  108SOL    HW2 1224   3.858   5.254   5.900
  109SOL     OW 1225   6.916   0.561   1.259
  109SOL    HW1 1226   6.935   0.505   1.340
  109SOL    HW2 1227   6.831   0.530   1.217
  110SOL     OW 1228   3.512   6.111   5.534
  110SOL    HW1 1229   3.541   6.119   5.438
  110SOL    HW2 1230   3.413   6.101   5.539
  111SOL     OW 1231   3.180   1.285   4.119
  111SOL    HW1 1232   3.113   1.297   4.193
  111SOL    HW2 1233   3.175   1.191   4.084
  112SOL     OW 1234   4.885   6.631   5.782
  112SOL    HW1 1235   4.937   6.560   5.734
  112SOL    HW2 1236   4.874   6.711   5.723
  113SOL     OW 1237   6.250   5.285   3.061
  113SOL    HW1 1238   6.310   5.263   3.139
  113SOL    HW2 1239   6.298   5.263   2.976
  114SOL     OW 1240   0.613   0.803   0.929
  114SOL    HW1 1241   0.638   0.741   0.855
  114SOL    HW2 1242   0.681   0.797   1.002
  115SOL     OW 1243   4.044   1.398   3.329
  115SOL    HW1 1244   4.038   1.493   3.359
  115SOL    HW2 1245   4.092   1.394   3.241
  116SOL     OW 1246   5.637   5.003   1.528
  116SOL    HW1 1247   5.722   5.055   1.529
  116SOL    HW2 1248   5.657   4.905   1.539
  117SOL     OW 1249   1.495   1.344   0.537
  117SOL    HW1 1250   1.438   1.348   0.455
  117SOL    HW2 1251   1.456   1.403   0.608
  118SOL     OW 1252   1.799   1.297   3.006
  118SOL    HW1 1253   1.878   1.313   3.065
  118SOL    HW2 1254   1.733   1.240   3.055
  119SOL     OW 1255   0.870   1.321   6.771
  119SOL    HW1 1256   0.966   1.337   6.749
  119SOL    HW2 1257   0.825   1.274   6.694
  120SOL     OW 1258   6.303   6.752   0.324
  120SOL    HW1 1259   6.389   6.792   0.293
  120SOL    HW2 1260   6.234   6.761   0.253
  121SOL     OW 1261   2.478   3.539   6.391
  121SOL    HW1 1262   2.509   3.480   6.465
  121SOL    HW2 1263   2.521   3.510   6.305
  122SOL     OW 1264   1.778   4.729   6.543
  122SOL    HW1 1265   1.830   4.656   6.587
  122SOL    HW2 1266   1.827   4.815   6.552
  123SOL     OW 1267   0.085   1.398   1.458
  123SOL    HW1 1268   7.006   1.404   1.465
  123SOL    HW2 1269   0.116   1.313   1.500
  124SOL     OW 1270   4.923   3.120   0.649
  124SOL    HW1 1271   4.902   3.025   0.674
  124SOL    HW2 1272   4.841   3.163   0.611
  125SOL     OW 1273   3.189   1.857   1.804
  125SOL    HW1 1274   3.125   1.870   1.880
  125SOL    HW2 1275   3.266   1.920   1.814
  126SOL     OW 1276   2.737   3.721   1.029
  126SOL    HW1 1277   2.696   3.635   1.057
  126SOL    HW2 1278   2.670   3.795   1.037
  127SOL     OW 1279   0.133   5.053   6.477
  127SOL    HW1 1280   0.055   5.117   6.472
  127SOL    HW2 1281   0.211   5.099   6.518
  128SOL     OW 1282   4.855   2.879   1.198
  128SOL    HW1 1283   4.792   2.954   1.178
  128SOL    HW2 1284   4.920   2.869   1.123
  129SOL     OW 1285   2.412   2.961   6.207
  129SOL    HW1 1286   2.395   2.965   6.108
  129SOL    HW2 1287   2.493   3.015   6.229
  130SOL     OW 1288   0.715   1.331   4.002
  130SOL    HW1 1289   0.732   1.290   3.913
  130SOL    HW2 1290   0.789   1.395   4.024
  131SOL     OW 1291   5.111   2.046   3.572
  131SOL    HW1 1292   5.180   2.092   3.628
  131SOL    HW2 1293   5.039   2.111   3.548
  132SOL     OW 1294   2.299   2.309   1.102
  132SOL    HW1 1295   2.315   2.260   1.016
  132SOL    HW2 1296   2.222   2.371   1.091
  133SOL     OW 1297   5.078   6.342   4.347
  133SOL    HW1 1298   5.044   6.388   4.429
  133SOL    HW2 1299   5.009   6.278   4.313
  134SOL     OW 1300   6.564   1.697   2.547
  134SOL    HW1 1301   6.635   1.694   2.477
  134SOL    HW2 1302   6.474   1.703   2.503
  135SOL     OW 1303   5.716   3.788   3.239
  135SOL    HW1 1304   5.695   3.851   3.164
  135SOL    HW2 1305   5.803   3.743   3.221
  136SOL     OW 1306   3.350   3.704   6.360
  136SOL    HW1 1307   3.421   3.640   6.389
  136SOL    HW2 1308   3.359   3.722   6.262
  137SOL     OW 1309   5.580   1.661   4.549
  137SOL    HW1 1310   5.570   1.710   4.462
  137SOL    HW2 1311   5.545   1.568   4.539
  138SOL     OW 1312   0.917   4.694   3.197
  138SOL    HW1 1313   0.874   4.782   3.176
  138SOL    HW2 1314   0.908   4.633   3.118
  139SOL     OW 1315   2.161   6.696   4.837
  139SOL    HW1 1316   2.104   6.664   4.913
  139SOL    HW2 1317   2.257   6.688   4.863
  140SOL     OW 1318   0.522   5.859   3.130
  140SOL    HW1 1319   0.599   5.808   3.091
  140SOL    HW2 1320   0.481   5.805   3.204
  141SOL     OW 1321   6.181   3.544   4.913
  141SOL    HW1 1322   6.138   3.492   4.839
  141SOL    HW2 1323   6.255   3.600   4.876
  142SOL     OW 1324   1.933   3.963   0.534
  142SOL    HW1 1325   1.904   4.058   0.527
  142SOL    HW2 1326   2.029   3.960   0.564
  143SOL     OW 1327   5.878   4.682   0.927
  143SOL    HW1 1328   5.950   4.738   0.969
  143SOL    HW2 1329   5.806   4.742   0.891
  144SOL     OW 1330   0.854   6.036   5.765
  144SOL    HW1 1331   0.863   5.982   5.849
  144SOL    HW2 1332   0.790   5.990   5.703
  145SOL     OW 1333   6.836   5.809   0.379
  145SOL    HW1 1334   6.821   5.850   0.469
  145SOL    HW2 1335   6.752   5.812   0.326
  146SOL     OW 1336   5.029   0.698   6.163
  146SOL    HW1 1337   5.103   0.649   6.118
  146SOL    HW2 1338   4.960   0.633   6.196
  147SOL     OW 1339   6.114   3.876   6.502
  147SOL    HW1 1340   6.051   3.872   6.580
  147SOL    HW2 1341   6.207   3.892   6.534
  148SOL     OW 1342   0.224   5.484   6.562
  148SOL    HW1 1343   0.257   5.424   6.635
  148SOL    HW2 1344   0.128   5.506   6.577
  149SOL     OW 1345   2.773   1.532   4.360
  149SOL    HW1 1346   2.771   1.515   4.459
  149SOL    HW2 1347   2.763   1.445   4.311
  150SOL     OW 1348   5.853   6.067   6.597
  150SOL    HW1 1349   5.886   5.973   6.587
  150SOL    HW2 1350   5.833   6.086   6.693
  151SOL     OW 1351   3.127   2.332   1.110
  151SOL    HW1 1352   3.133   2.307   1.207
  151SOL    HW2 1353   3.048   2.287   1.069
  152SOL     OW 1354   1.023   0.918   2.747
  152SOL    HW1 1355   0.964   0.997   2.769
  152SOL    HW2 1356   1.087   0.903   2.822
  153SOL     OW 1357   3.222   0.193   1.964
  153SOL    HW1 1358   3.179   0.122   1.908
  153SOL    HW2 1359   3.155   0.263   1.986
  154SOL     OW 1360   0.635   2.070   2.954
  154SOL    HW1 1361   0.639   2.165   2.922
  154SOL    HW2 1362   0.543   2.050   2.986
  155SOL     OW 1363   6.500   1.760   3.275
  155SOL    HW1 1364   6.435   1.754   3.351
  155SOL    HW2 1365   6.460   1.816   3.203
  156SOL     OW 1366   0.560   1.791   0.769
  156SOL    HW1 1367   0.465   1.797   0.739
  156SOL    HW2 1368   0.567   1.819   0.865
  157SOL     OW 1369   5.702   3.173   0.963
  157SOL    HW1 1370   5.767   3.105   0.927
  157SOL    HW2 1371   5.613   3.129   0.977
  158SOL     OW 1372   1.913   5.814   2.540
  158SOL    HW1 1373   1.882   5.906   2.566
  158SOL    HW2 1374   1.986   5.821   2.472
  159SOL     OW 1375   4.372   4.645   1.912
  159SOL    HW1 1376   4.397   4.571   1.850
  159SOL    HW2 1377   4.437   4.649   1.987
  160SOL     OW 1378   6.322   5.594   0.346
  160SOL    HW1 1379   6.262   5.556   0.416
  160SOL    HW2 1380   6.290   5.685   0.319
  161SOL     OW 1381   1.982   5.649   4.520
  161SOL    HW1 1382   1.911   5.611   4.461
  161SOL    HW2 1383   2.036   5.575   4.560
  162SOL     OW 1384   3.781   6.659   6.799
  162SOL    HW1 1385   3.856   6.710   6.758
  162SOL    HW2 1386   3.810   6.564   6.814
  163SOL     OW 1387   5.374   5.994   0.821
  163SOL    HW1 1388   5.332   5.915   0.866
  163SOL    HW2 1389   5.444   5.963   0.757
  164SOL     OW 1390   6.328   4.322   0.036
  164SOL    HW1 1391   6.334   4.264   6.975
  164SOL    HW2 1392   6.288   4.269   0.111
  165SOL     OW 1393   5.372   3.264   1.797
  165SOL    HW1 1394   5.436   3.199   1.837
  165SOL    HW2 1395   5.393   3.278   1.700
  166SOL     OW 1396   0.209   4.767   3.359
  166SOL    HW1 1397   0.192   4.713   3.442
  166SOL    HW2 1398   0.288   4.728   3.310
  167SOL     OW 1399   5.776   2.800   0.272
  167SOL    HW1 1400   5.708   2.817   0.343
  167SOL    HW2 1401   5.784   2.702   0.255
  168SOL     OW 1402   2.346   2.927   1.308
  168SOL    HW1 1403   2.253   2.934   1.271
  168SOL    HW2 1404   2.409   2.898   1.236
  169SOL     OW 1405   4.619   0.787   1.951
  169SOL    HW1 1406   4.710   0.787   1.992
  169SOL    HW2 1407   4.580   0.879   1.956
  170SOL     OW 1408   1.057   0.932   3.609
  170SOL    HW1 1409   1.074   0.932   3.707
  170SOL    HW2 1410   0.962   0.905   3.591
  171SOL     OW 1411   3.718   4.210   0.217
  171SOL    HW1 1412   3.620   4.226   0.222
  171SOL    HW2 1413   3.752   4.237   0.127
  172SOL     OW 1414   5.943   1.841   4.036
  172SOL    HW1 1415   5.938   1.862   4.134
  172SOL    HW2 1416   5.858   1.869   3.992
  173SOL     OW 1417   6.936   2.178   4.517
  173SOL    HW1 1418   6.846   2.220   4.531
  173SOL    HW2 1419   7.006   2.249   4.516
  174SOL     OW 1420   3.384   5.199   4.330
  174SOL    HW1 1421   3.290   5.180   4.301
  174SOL    HW2 1422   3.417   5.124   4.387
  175SOL     OW 1423   2.466   0.144   1.858
  175SOL    HW1 1424   2.528   0.203   1.909
  175SOL    HW2 1425   2.438   0.189   1.774
  176SOL     OW 1426   1.155   4.233   1.014
  176SOL    HW1 1427   1.156   4.323   0.971
  176SOL    HW2 1428   1.185   4.240   1.109
  177SOL     OW 1429   5.905   3.360   2.273
  177SOL    HW1 1430   5.823   3.337   2.222
  177SOL    HW2 1431   5.935   3.280   2.326
  178SOL     OW 1432   2.531   2.426   6.577
  178SOL    HW1 1433   2.439   2.460   6.556
  178SOL    HW2 1434   2.557   2.457   6.669
  179SOL     OW 1435   2.551   1.370   6.257
  179SOL    HW1 1436   2.579   1.371   6.161
  179SOL    HW2 1437   2.481   1.300   6.271
  180SOL     OW 1438   1.427   6.651   6.790
  180SOL    HW1 1439   1.484   6.572   6.813
  180SOL    HW2 1440   1.429   6.665   6.691
  181SOL     OW 1441   3.039   2.464   6.232
  181SOL    HW1 1442   3.073   2.471   6.326
  181SOL    HW2 1443   3.115   2.479   6.168
  182SOL     OW 1444   3.438   1.339   3.874
  182SOL    HW1 1445   3.533   1.368   3.862
  182SOL    HW2 1446   3.390   1.407   3.930
  183SOL     OW 1447   3.449   2.146   3.460
  183SOL    HW1 1448   3.496   2.099   3.534
  183SOL    HW2 1449   3.494   2.125   3.373
  184SOL     OW 1450   2.012   6.241   4.247
  184SOL    HW1 1451   2.108   6.215   4.239
  184SOL    HW2 1452   1.973   6.252   4.156
  185SOL     OW 1453   0.025   1.529   6.387
  185SOL    HW1 1454   0.033   1.486   6.297
  185SOL    HW2 1455   6.991   1.471   6.446
  186SOL     OW 1456   5.672   1.135   4.027
  186SOL    HW1 1457   5.604   1.154   4.099
  186SOL    HW2 1458   5.743   1.205   4.030
  187SOL     OW 1459   4.559   0.290   3.214
  187SOL    HW1 1460   4.639   0.243   3.251
  187SOL    HW2 1461   4.530   0.245   3.130
  188SOL     OW 1462   0.030   2.052   2.789
  188SOL    HW1 1463   7.015   1.993   2.717
  188SOL    HW2 1464   0.074   1.995   2.859
  189SOL     OW 1465   2.386   5.413   1.480
  189SOL    HW1 1466   2.426   5.485   1.424
  189SOL    HW2 1467   2.433   5.409   1.568
  190SOL     OW 1468   4.518   1.682   4.679
  190SOL    HW1 1469   4.553   1.762   4.630
  190SOL    HW2 1470   4.591   1.641   4.732
  191SOL     OW 1471   5.877   6.347   6.809
  191SOL    HW1 1472   5.976   6.355   6.806
  191SOL    HW2 1473   5.839   6.356   6.717
  192SOL     OW 1474   0.530   5.529   1.872
  192SOL    HW1 1475   0.592   5.581   1.930
  192SOL    HW2 1476   0.487   5.456   1.925
  193SOL     OW 1477   4.565   3.112   5.276
  193SOL    HW1 1478   4.466   3.103   5.291
  193SOL    HW2 1479   4.613   3.102   5.363
  194SOL     OW 1480   4.155   0.512   2.872
  194SOL    HW1 1481   4.067   0.500   2.919
  194SOL    HW2 1482   4.146   0.480   2.777
  195SOL     OW 1483   1.876   0.034   4.732
  195SOL    HW1 1484   1.893   0.052   4.828
  195SOL    HW2 1485   1.936   6.983   4.699
  196SOL     OW 1486   2.538   0.401   0.546
  196SOL    HW1 1487   2.544   0.498   0.522
  196SOL    HW2 1488   2.537   0.392   0.645
  197SOL     OW 1489   2.774   0.462   1.012
  197SOL    HW1 1490   2.796   0.365   1.022
  197SOL    HW2 1491   2.677   0.477   1.030
  198SOL     OW 1492   4.756   0.718   2.688
  198SOL    HW1 1493   4.840   0.689   2.643
  198SOL    HW2 1494   4.762   0.700   2.786
  199SOL     OW 1495   0.486   2.511   3.926
  199SOL    HW1 1496   0.408   2.512   3.863
  199SOL    HW2 1497   0.551   2.440   3.898
  200SOL     OW 1498   1.455   3.362   0.624
  200SOL    HW1 1499   1.396   3.440   0.645
  200SOL    HW2 1500   1.441   3.291   0.693
  201SOL     OW 1501   0.340   0.072   6.058
  201SOL    HW1 1502   0.288   7.008   6.065
  201SOL    HW2 1503   0.409   0.062   5.986
  202SOL     OW 1504   3.658   1.320   6.979
  202SOL    HW1 1505   3.644   1.334   6.881
  202SOL    HW2 1506   3.608   1.390   0.009
  203SOL     OW 1507   6.268   2.560   5.872
  203SOL    HW1 1508   6.345   2.557   5.935
  203SOL    HW2 1509   6.216   2.475   5.877
  204SOL     OW 1510   1.010   7.014   4.438
  204SOL    HW1 1511   1.006   0.065   4.369
  204SOL    HW2 1512   1.094   0.002   4.491
  205SOL     OW 1513   1.005   2.661   2.827
  205SOL    HW1 1514   1.081   2.598   2.813
  205SOL    HW2 1515   0.998   2.724   2.749
  206SOL     OW 1516   0.401   4.178   1.073
  206SOL    HW1 1517   0.409   4.110   1.000
  206SOL    HW2 1518   0.344   4.254   1.042
  207SOL     OW 1519   6.293   1.393   3.807
  207SOL    HW1 1520   6.288   1.492   3.823
  207SOL    HW2 1521   6.375   1.373   3.753
  208SOL     OW 1522   6.684   4.342   5.372
  208SOL    HW1 1523   6.600   4.396   5.383
  208SOL    HW2 1524   6.689   4.307   5.279
  209SOL     OW 1525   0.379   5.448   3.810
  209SOL    HW1 1526   0.410   5.375   3.871
  209SOL    HW2 1527   0.300   5.494   3.851
  210SOL     OW 1528   4.645   1.508   0.315
  210SOL    HW1 1529   4.572   1.541   0.255
  210SOL    HW2 1530   4.712   1.581   0.330
  211SOL     OW 1531   1.419   6.433   1.839
  211SOL    HW1 1532   1.420   6.363   1.768
  211SOL    HW2 1533   1.511   6.443   1.877
  212SOL     OW 1534   1.173   3.587   1.656
  212SOL    HW1 1535   1.213   3.678   1.658
  212SOL    HW2 1536   1.209   3.533   1.733
  213SOL     OW 1537   2.916   6.831   0.603
  213SOL    HW1 1538   2.972   6.843   0.520
  213SOL    HW2 1539   2.968   6.779   0.670
  214SOL     OW 1540   3.682   5.537   2.944
  214SOL    HW1 1541   3.603   5.583   2.902
  214SOL    HW2 1542   3.764   5.559   2.891
  215SOL     OW 1543   3.059   3.694   0.513
  215SOL    HW1 1544   3.133   3.759   0.492
  215SOL    HW2 1545   3.093   3.601   0.503
  216SOL     OW 1546   0.838   5.594   3.257
  216SOL    HW1 1547   0.915   5.657   3.269
  216SOL    HW2 1548   0.841   5.524   3.328
  217SOL     OW 1549   1.395   2.862   4.277
  217SOL    HW1 1550   1.392   2.954   4.237
  217SOL    HW2 1551   1.338   2.800   4.222
  218SOL     OW 1552   1.056   2.975   4.352
  218SOL    HW1 1553   0.961   2.947   4.347
  218SOL    HW2 1554   1.064   3.073   4.332
  219SOL     OW 1555   4.201   0.222   0.290
  219SOL    HW1 1556   4.219   0.192   0.196
  219SOL    HW2 1557   4.182   0.320   0.290
  220SOL     OW 1558   2.554   6.914   1.327
  220SOL    HW1 1559   2.645   6.896   1.288
  220SOL    HW2 1560   2.559   6.994   1.387
  221SOL     OW 1561   5.792   4.427   0.909
  221SOL    HW1 1562   5.840   4.514   0.896
  221SOL    HW2 1563   5.844   4.370   0.973
  222SOL     OW 1564   1.171   4.753   5.645
  222SOL    HW1 1565   1.111   4.823   5.608
  222SOL    HW2 1566   1.207   4.784   5.733
  223SOL     OW 1567   6.982   3.224   6.044
  223SOL    HW1 1568   6.891   3.260   6.023
  223SOL    HW2 1569   6.987   3.204   6.142
  224SOL     OW 1570   2.748   1.831   5.832
  224SOL    HW1 1571   2.756   1.900   5.760
  224SOL    HW2 1572   2.786   1.868   5.917
  225SOL     OW 1573   5.031   3.976   6.532
  225SOL    HW1 1574   5.015   4.070   6.561
  225SOL    HW2 1575   4.947   3.922   6.544
  226SOL     OW 1576   0.756   1.050   5.616
  226SOL    HW1 1577   0.770   1.051   5.517
  226SOL    HW2 1578   0.767   1.142   5.652
  227SOL     OW 1579   0.573   4.115   2.124
  227SOL    HW1 1580   0.576   4.016   2.105
  227SOL    HW2 1581   0.665   4.153   2.121
  228SOL     OW 1582   2.293   0.191   3.130
  228SOL    HW1 1583   2.207   0.201   3.081
  228SOL    HW2 1584   2.354   0.267   3.107
  229SOL     OW 1585   6.098   5.817   6.005
  229SOL    HW1 1586   6.107   5.914   5.984
  229SOL    HW2 1587   6.189   5.775   6.007
  230SOL     OW 1588   3.666   5.364   3.687
  230SOL    HW1 1589   3.702   5.417   3.610
  230SOL    HW2 1590   3.727   5.373   3.766
  231SOL     OW 1591   5.869   1.536   0.116
  231SOL    HW1 1592   5.948   1.562   0.172
  231SOL    HW2 1593   5.881   1.443   0.082
  232SOL     OW 1594   0.203   3.215   6.625
  232SOL    HW1 1595   0.227   3.171   6.538
  232SOL    HW2 1596   0.156   3.301   6.606
  233SOL     OW 1597   3.261   1.283   3.072
  233SOL    HW1 1598   3.279   1.270   3.170
  233SOL    HW2 1599   3.345   1.266   3.020
  234SOL     OW 1600   5.126   0.998   6.257
  234SOL    HW1 1601   5.043   0.944   6.268
  234SOL    HW2 1602   5.154   1.034   6.346
  235SOL     OW 1603   4.912   2.824   2.004
  235SOL    HW1 1604   4.848   2.898   1.979
  235SOL    HW2 1605   4.986   2.862   2.059
  236SOL     OW 1606   5.671   2.692   6.828
  236SOL    HW1 1607   5.758   2.709   6.876
  236SOL    HW2 1608   5.673   2.737   6.739
  237SOL     OW 1609   0.090   4.451   2.065
  237SOL    HW1 1610   0.098   4.352   2.077
  237SOL    HW2 1611   0.129   4.477   1.977
  238SOL     OW 1612   5.721   1.265   0.727
  238SOL    HW1 1613   5.698   1.336   0.661
  238SOL    HW2 1614   5.781   1.197   0.683
  239SOL     OW 1615   0.881   4.520   6.655
  239SOL    HW1 1616   0.848   4.474   6.738
  239SOL    HW2 1617   0.865   4.462   6.576
  240SOL     OW 1618   0.068   2.815   3.465
  240SOL    HW1 1619   0.158   2.793   3.503
  240SOL    HW2 1620   7.018   2.779   3.525
  241SOL     OW 1621   2.848   2.249   4.956
  241SOL    HW1 1622   2.815   2.303   5.034
  241SOL    HW2 1623   2.948   2.252   4.953
  242SOL     OW 1624   3.109   4.064   4.543
  242SOL    HW1 1625   3.126   4.123   4.463
  242SOL    HW2 1626   3.132   4.114   4.626
  243SOL     OW 1627   4.472   0.972   6.564
  243SOL    HW1 1628   4.452   1.070   6.568
  243SOL    HW2 1629   4.390   0.920   6.587
  244SOL     OW 1630   6.597   3.687   5.465
  244SOL    HW1 1631   6.662   3.710   5.538
  244SOL    HW2 1632   6.567   3.593   5.476
  245SOL     OW 1633   5.250   2.504   4.201
  245SOL    HW1 1634   5.298   2.583   4.239
  245SOL    HW2 1635   5.153   2.511   4.223
  246SOL     OW 1636   5.157   2.355   3.430
  246SOL    HW1 1637   5.075   2.300   3.443
  246SOL    HW2 1638   5.145   2.415   3.351
  247SOL     OW 1639   2.591   1.630   0.438
  247SOL    HW1 1640   2.521   1.633   0.509
  247SOL    HW2 1641   2.550   1.650   0.350
  248SOL     OW 1642   3.775   1.185   2.863
  248SOL    HW1 1643   3.861   1.168   2.911
  248SOL    HW2 1644   3.794   1.208   2.768
  249SOL     OW 1645   4.902   0.409   5.003
  249SOL    HW1 1646   4.852   0.466   5.068
  249SOL    HW2 1647   4.988   0.379   5.044
  250SOL     OW 1648   5.069   3.357   0.317
  250SOL    HW1 1649   5.036   3.342   0.411
  250SOL    HW2 1650   5.167   3.342   0.314
  251SOL     OW 1651   4.812   3.680   5.424
  251SOL    HW1 1652   4.783   3.602   5.368
  251SOL    HW2 1653   4.838   3.756   5.365
  252SOL     OW 1654   6.751   6.194   5.352
  252SOL    HW1 1655   6.710   6.282   5.377
  252SOL    HW2 1656   6.798   6.203   5.264
  253SOL     OW 1657   2.589   5.205   6.066
  253SOL    HW1 1658   2.651   5.284   6.067
  253SOL    HW2 1659   2.614   5.145   5.990
  254SOL     OW 1660   6.133   2.466   3.907
  254SOL    HW1 1661   6.044   2.510   3.910
  254SOL    HW2 1662   6.139   2.409   3.825
  255SOL     OW 1663   1.727   4.753   5.236
  255SOL    HW1 1664   1.681   4.834   5.272
  255SOL    HW2 1665   1.726   4.680   5.304
  256SOL     OW 1666   6.283   4.007   6.164
  256SOL    HW1 1667   6.352   3.961   6.220
  256SOL    HW2 1668   6.229   4.069   6.222
  257SOL     OW 1669   5.141   0.400   3.826
  257SOL    HW1 1670   5.081   0.385   3.904
  257SOL    HW2 1671   5.211   0.467   3.850
  258SOL     OW 1672   2.183   5.104   4.982
  258SOL    HW1 1673   2.147   5.171   5.047
  258SOL    HW2 1674   2.263   5.058   5.021
  259SOL     OW 1675   6.655   2.105   2.924
  259SOL    HW1 1676   6.601   2.166   2.866
  259SOL    HW2 1677   6.623   2.011   2.913
  260SOL     OW 1678   4.081   6.744   1.847
  260SOL    HW1 1679   4.140   6.739   1.928
  260SOL    HW2 1680   4.032   6.658   1.837
  261SOL     OW 1681   6.340   3.099   0.422
  261SOL    HW1 1682   6.398   3.057   0.492
  261SOL    HW2 1683   6.256   3.046   0.413
  262SOL     OW 1684   0.685   3.565   0.057
  262SOL    HW1 1685   0.740   3.547   6.997
  262SOL    HW2 1686   0.591   3.587   0.031
  263SOL     OW 1687   2.544   0.616   4.776
  263SOL    HW1 1688   2.611   0.689   4.761
  263SOL    HW2 1689   2.590   0.537   4.816
  264SOL     OW 1690   5.710   3.019   6.818
  264SOL    HW1 1691   5.756   3.086   6.876
  264SOL    HW2 1692   5.742   3.029   6.723
  265SOL     OW 1693   5.560   6.904   2.594
  265SOL    HW1 1694   5.470   6.940   2.570
  265SOL    HW2 1695   5.549   6.824   2.654
  266SOL     OW 1696   3.573   2.469   5.980
  266SOL    HW1 1697   3.534   2.547   5.932
  266SOL    HW2 1698   3.565   2.483   6.078
  267SOL     OW 1699   0.860   1.370   6.370
  267SOL    HW1 1700   0.803   1.451   6.352
  267SOL    HW2 1701   0.948   1.381   6.323
  268SOL     OW 1702   3.251   1.278   6.404
  268SOL    HW1 1703   3.179   1.212   6.425
  268SOL    HW2 1704   3.290   1.257   6.314
  269SOL     OW 1705   1.472   3.535   1.438
  269SOL    HW1 1706   1.548   3.564   1.497
  269SOL    HW2 1707   1.461   3.436   1.445
  270SOL     OW 1708   1.375   6.048   0.602
  270SOL    HW1 1709   1.359   6.045   0.701
  270SOL    HW2 1710   1.439   6.121   0.580
  271SOL     OW 1711   0.016   2.082   6.974
  271SOL    HW1 1712   6.942   2.051   6.964
  271SOL    HW2 1713   0.076   2.017   6.928
  272SOL     OW 1714   3.505   5.298   3.914
  272SOL    HW1 1715   3.474   5.220   3.860
  272SOL    HW2 1716   3.590   5.334   3.874
  273SOL     OW 1717   2.382   4.457   4.069
  273SOL    HW1 1718   2.381   4.476   4.167
  273SOL    HW2 1719   2.310   4.391   4.047
  274SOL     OW 1720   4.271   1.747   3.335
  274SOL    HW1 1721   4.279   1.831   3.280
  274SOL    HW2 1722   4.177   1.715   3.333
  275SOL     OW 1723   6.648   5.041   3.556
  275SOL    HW1 1724   6.623   5.070   3.649
  275SOL    HW2 1725   6.579   5.072   3.491
  276SOL     OW 1726   6.552   6.541   2.416
  276SOL    HW1 1727   6.650   6.555   2.407
  276SOL    HW2 1728   6.528   6.524   2.511
  277SOL     OW 1729   1.857   4.233   0.540
  277SOL    HW1 1730   1.887   4.316   0.493
  277SOL    HW2 1731   1.758   4.226   0.537
  278SOL     OW 1732   0.102   4.809   2.123
  278SOL    HW1 1733   0.060   4.741   2.062
  278SOL    HW2 1734   0.178   4.768   2.172
  279SOL     OW 1735   5.621   3.286   4.510
  279SOL    HW1 1736   5.714   3.254   4.491
  279SOL    HW2 1737   5.589   3.246   4.596
  280SOL     OW 1738   3.007   6.693   3.367
  280SOL    HW1 1739   3.080   6.646   3.318
  280SOL    HW2 1740   3.046   6.746   3.442
  281SOL     OW 1741   2.522   4.348   1.294
  281SOL    HW1 1742   2.575   4.289   1.355
  281SOL    HW2 1743   2.544   4.444   1.313
  282SOL     OW 1744   3.113   1.055   6.438
  282SOL    HW1 1745   3.058   1.075   6.356
  282SOL    HW2 1746   3.148   0.961   6.432
  283SOL     OW 1747   5.985   1.738   6.363
  283SOL    HW1 1748   6.011   1.792   6.443
  283SOL    HW2 1749   5.952   1.799   6.291
  284SOL     OW 1750   1.063   3.807   4.014
  284SOL    HW1 1751   0.989   3.755   4.056
  284SOL    HW2 1752   1.095   3.876   4.078
  285SOL     OW 1753   5.850   4.976   4.401
  285SOL    HW1 1754   5.824   5.051   4.341
  285SOL    HW2 1755   5.768   4.928   4.433
  286SOL     OW 1756   3.494   5.161   6.392
  286SOL    HW1 1757   3.493   5.116   6.482
  286SOL    HW2 1758   3.417   5.129   6.337
  287SOL     OW 1759   0.966   3.691   1.243
  287SOL    HW1 1760   1.036   3.622   1.263
  287SOL    HW2 1761   0.904   3.658   1.172
  288SOL     OW 1762   3.121   1.376   0.007
  288SOL    HW1 1763   3.037   1.395   6.976
  288SOL    HW2 1764   3.186   1.451   7.015
  289SOL     OW 1765   1.360   4.468   5.331
  289SOL    HW1 1766   1.317   4.411   5.401
  289SOL    HW2 1767   1.317   4.449   5.243
  290SOL     OW 1768   6.345   2.325   4.697
  290SOL    HW1 1769   6.246   2.310   4.693
  290SOL    HW2 1770   6.389   2.241   4.729
  291SOL     OW 1771   1.468   2.502   4.338
  291SOL    HW1 1772   1.496   2.428   4.276
  291SOL    HW2 1773   1.391   2.552   4.298
  292SOL     OW 1774   1.829   2.434   3.294
  292SOL    HW1 1775   1.819   2.335   3.291
  292SOL    HW2 1776   1.804   2.467   3.385
  293SOL     OW 1777   4.158   6.303   2.555
  293SOL    HW1 1778   4.074   6.330   2.509
  293SOL    HW2 1779   4.225   6.274   2.487
  294SOL     OW 1780   0.702   6.173   6.656
  294SOL    HW1 1781   0.792   6.182   6.614
  294SOL    HW2 1782   0.654   6.096   6.615
  295SOL     OW 1783   3.536   1.578   3.547
  295SOL    HW1 1784   3.496   1.606   3.634
  295SOL    HW2 1785   3.635   1.592   3.550
  296SOL     OW 1786   3.587   2.057   3.248
  296SOL    HW1 1787   3.609   2.062   3.150
  296SOL    HW2 1788   3.604   1.964   3.281
  297SOL     OW 1789   2.902   4.929   3.415
  297SOL    HW1 1790   2.946   4.885   3.337
  297SOL    HW2 1791   2.851   5.009   3.384
  298SOL     OW 1792   3.218   5.609   1.631
  298SOL    HW1 1793   3.180   5.654   1.711
  298SOL    HW2 1794   3.280   5.673   1.584
  299SOL     OW 1795   5.189   3.489   5.862
  299SOL    HW1 1796   5.092   3.477   5.838
  299SOL    HW2 1797   5.241   3.409   5.833
  300SOL     OW 1798   6.511   0.719   2.741
  300SOL    HW1 1799   6.460   0.805   2.747
  300SOL    HW2 1800   6.485   0.671   2.657
  301SOL     OW 1801   4.909   3.281   1.279
  301SOL    HW1 1802   4.848   3.345   1.232
  301SOL    HW2 1803   4.997   3.276   1.231
  302SOL     OW 1804   1.220   0.408   3.320
  302SOL    HW1 1805   1.142   0.436   3.375
  302SOL    HW2 1806   1.191   0.339   3.253
  303SOL     OW 1807   5.830   0.821   2.214
  303SOL    HW1 1808   5.735   0.825   2.245
  303SOL    HW2 1809   5.841   0.747   2.148
  304SOL     OW 1810   2.452   0.275   3.500
  304SOL    HW1 1811   2.424   0.261   3.595
  304SOL    HW2 1812   2.518   0.350   3.495
  305SOL     OW 1813   0.277   3.409   0.342
  305SOL    HW1 1814   0.366   3.388   0.382
  305SOL    HW2 1815   0.254   3.340   0.273
  306SOL     OW 1816   1.757   0.717   3.585
  306SOL    HW1 1817   1.796   0.807   3.608
  306SOL    HW2 1818   1.825   0.664   3.534
  307SOL     OW 1819   4.443   6.931   1.030
  307SOL    HW1 1820   4.410   6.836   1.031
  307SOL    HW2 1821   4.520   6.941   1.092
  308SOL     OW 1822   6.295   4.086   4.873
  308SOL    HW1 1823   6.214   4.040   4.837
  308SOL    HW2 1824   6.298   4.075   4.973
  309SOL     OW 1825   4.156   4.036   5.958
  309SOL    HW1 1826   4.218   4.061   5.883
  309SOL    HW2 1827   4.084   4.105   5.965
  310SOL     OW 1828   6.986   6.506   5.664
  310SOL    HW1 1829   0.012   6.428   5.624
  310SOL    HW2 1830   7.002   6.587   5.609
  311SOL     OW 1831   6.369   5.623   1.533
  311SOL    HW1 1832   6.373   5.669   1.444
  311SOL    HW2 1833   6.452   5.570   1.546
  312SOL     OW 1834   4.511   1.956   5.808
  312SOL    HW1 1835   4.454   1.876   5.791
  312SOL    HW2 1836   4.538   1.959   5.905
  313SOL     OW 1837   3.112   4.314   1.725
  313SOL    HW1 1838   3.048   4.387   1.748
  313SOL    HW2 1839   3.186   4.352   1.668
  314SOL     OW 1840   3.177   5.296   6.966
  314SOL    HW1 1841   3.161   5.315   6.869
  314SOL    HW2 1842   3.112   5.347   7.021
  315SOL     OW 1843   0.997   2.926   3.349
  315SOL    HW1 1844   0.906   2.887   3.335
  315SOL    HW2 1845   0.995   3.024   3.326
  316SOL     OW 1846   2.304   2.328   4.083
  316SOL    HW1 1847   2.322   2.400   4.016
  316SOL    HW2 1848   2.380   2.263   4.085
  317SOL     OW 1849   0.862   0.300   1.599
  317SOL    HW1 1850   0.768   0.269   1.588
  317SOL    HW2 1851   0.898   0.267   1.687
  318SOL     OW 1852   0.793   6.041   0.259
  318SOL    HW1 1853   0.703   6.040   0.216
  318SOL    HW2 1854   0.797   5.971   0.330
  319SOL     OW 1855   0.370   0.586   2.864
  319SOL    HW1 1856   0.270   0.581   2.864
  319SOL    HW2 1857   0.399   0.676   2.895
  320SOL     OW 1858   5.255   2.448   6.800
  320SOL    HW1 1859   5.180   2.427   6.862
  320SOL    HW2 1860   5.308   2.524   6.837
  321SOL     OW 1861   3.103   1.467   1.868
  321SOL    HW1 1862   3.066   1.512   1.949
  321SOL    HW2 1863   3.203   1.463   1.874
  322SOL     OW 1864   3.319   3.382   4.610
  322SOL    HW1 1865   3.251   3.359   4.680
  322SOL    HW2 1866   3.389   3.310   4.607
  323SOL     OW 1867   0.447   3.622   7.001
  323SOL    HW1 1868   0.401   3.533   7.009
  323SOL    HW2 1869   0.430   3.659   6.910
  324SOL     OW 1870   2.293   2.852   4.011
  324SOL    HW1 1871   2.196   2.873   4.012
  324SOL    HW2 1872   2.311   2.781   3.942
  325SOL     OW 1873   2.074   3.013   1.700
  325SOL    HW1 1874   2.148   2.955   1.666
  325SOL    HW2 1875   2.111   3.099   1.733
  326SOL     OW 1876   1.838   5.318   6.543
  326SOL    HW1 1877   1.816   5.247   6.476
  326SOL    HW2 1878   1.819   5.408   6.503
  327SOL     OW 1879   1.318   5.300   3.830
  327SOL    HW1 1880   1.315   5.210   3.785
  327SOL    HW2 1881   1.271   5.295   3.918
  328SOL     OW 1882   3.349   5.145   2.465
  328SOL    HW1 1883   3.304   5.119   2.379
  328SOL    HW2 1884   3.430   5.199   2.444
  329SOL     OW 1885   3.284   3.750   4.016
  329SOL    HW1 1886   3.243   3.667   3.979
  329SOL    HW2 1887   3.226   3.786   4.089
  330SOL     OW 1888   3.441   6.194   2.074
  330SOL    HW1 1889   3.395   6.248   2.004
  330SOL    HW2 1890   3.519   6.146   2.034
  331SOL     OW 1891   4.703   4.993   6.514
  331SOL    HW1 1892   4.666   4.920   6.456
  331SOL    HW2 1893   4.673   5.082   6.480
  332SOL     OW 1894   4.018   2.186   4.479
  332SOL    HW1 1895   4.089   2.204   4.547
  332SOL    HW2 1896   4.052   2.210   4.388
  333SOL     OW 1897   3.224   7.007   6.727
  333SOL    HW1 1898   3.294   0.058   6.727
  333SOL    HW2 1899   3.253   6.933   6.787
  334SOL     OW 1900   2.697   0.038   1.085
  334SOL    HW1 1901   2.641   7.019   1.012
  334SOL    HW2 1902   2.760   6.991   1.120
  335SOL     OW 1903   3.342   6.593   4.245
  335SOL    HW1 1904   3.292   6.642   4.316
  335SOL    HW2 1905   3.318   6.632   4.155
  336SOL     OW 1906   2.196   0.865   3.919
  336SOL    HW1 1907   2.140   0.838   3.841
  336SOL    HW2 1908   2.245   0.949   3.898
  337SOL     OW 1909   0.196   3.671   0.635
  337SOL    HW1 1910   0.290   3.636   0.639
  337SOL    HW2 1911   0.132   3.594   0.635
  338SOL     OW 1912   2.933   2.503   0.860
  338SOL    HW1 1913   2.999   2.480   0.788
  338SOL    HW2 1914   2.856   2.439   0.857
  339SOL     OW 1915   3.672   6.543   3.997
  339SOL    HW1 1916   3.769   6.529   3.981
  339SOL    HW2 1917   3.629   6.578   3.914
  340SOL     OW 1918   5.081   4.080   4.522
  340SOL    HW1 1919   5.131   3.994   4.527
  340SOL    HW2 1920   5.095   4.122   4.432
  341SOL     OW 1921   6.432   6.958   3.986
  341SOL    HW1 1922   6.531   6.942   3.990
  341SOL    HW2 1923   6.414   0.030   3.954
  342SOL     OW 1924   5.551   4.061   0.029
  342SOL    HW1 1925   5.518   4.018   6.966
  342SOL    HW2 1926   5.589   3.991   0.089
  343SOL     OW 1927   2.065   6.035   0.829
  343SOL    HW1 1928   2.094   6.130   0.836
  343SOL    HW2 1929   2.017   6.008   0.913
  344SOL     OW 1930   2.023   5.675   1.631
  344SOL    HW1 1931   2.048   5.689   1.727
  344SOL    HW2 1932   2.025   5.577   1.611
  345SOL     OW 1933   6.828   1.048   5.922
  345SOL    HW1 1934   6.862   0.968   5.971
  345SOL    HW2 1935   6.828   1.029   5.823
  346SOL     OW 1936   2.291   0.218   1.624
  346SOL    HW1 1937   2.208   0.189   1.577
  346SOL    HW2 1938   2.317   0.310   1.593
  347SOL     OW 1939   4.820   6.785   6.632
  347SOL    HW1 1940   4.781   6.831   6.553
  347SOL    HW2 1941   4.779   6.821   6.716
  348SOL     OW 1942   4.879   5.177   1.400
  348SOL    HW1 1943   4.817   5.098   1.407
  348SOL    HW2 1944   4.854   5.245   1.469
  349SOL     OW 1945   6.974   4.598   2.336
  349SOL    HW1 1946   6.965   4.662   2.412
  349SOL    HW2 1947   6.984   4.648   2.251
  350SOL     OW 1948   3.372   3.446   1.800
  350SOL    HW1 1949   3.355   3.423   1.704
  350SOL    HW2 1950   3.289   3.486   1.840
  351SOL     OW 1951   2.470   2.570   0.496
  351SOL    HW1 1952   2.409   2.615   0.431
  351SOL    HW2 1953   2.484   2.475   0.467
  352SOL     OW 1954   3.886   6.826   4.648
  352SOL    HW1 1955   3.983   6.848   4.663
  352SOL    HW2 1956   3.829   6.901   4.678
  353SOL     OW 1957   2.995   0.068   0.945
  353SOL    HW1 1958   2.928   0.016   0.891
  353SOL    HW2 1959   3.075   0.087   0.889
  354SOL     OW 1960   4.218   2.373   0.136
  354SOL    HW1 1961   4.210   2.414   0.046
  354SOL    HW2 1962   4.226   2.444   0.206
  355SOL     OW 1963   6.749   2.643   2.944
  355SOL    HW1 1964   6.804   2.561   2.927
  355SOL    HW2 1965   6.688   2.627   3.021
  356SOL     OW 1966   4.447   5.664   4.465
  356SOL    HW1 1967   4.425   5.590   4.402
  356SOL    HW2 1968   4.531   5.642   4.515
  357SOL     OW 1969   6.912   6.763   5.253
  357SOL    HW1 1970   6.910   6.837   5.320
  357SOL    HW2 1971   6.856   6.788   5.174
  358SOL     OW 1972   5.863   0.368   1.647
  358SOL    HW1 1973   5.915   0.398   1.727
  358SOL    HW2 1974   5.836   0.448   1.593
  359SOL     OW 1975   2.118   2.184   2.300
  359SOL    HW1 1976   2.143   2.213   2.392
  359SOL    HW2 1977   2.150   2.251   2.234
  360SOL     OW 1978   2.497   6.286   6.188
  360SOL    HW1 1979   2.553   6.267   6.269
  360SOL    HW2 1980   2.540   6.359   6.135
  361SOL     OW 1981   5.516   5.410   2.747
  361SOL    HW1 1982   5.421   5.405   2.777
  361SOL    HW2 1983   5.521   5.395   2.648
  362SOL     OW 1984   3.665   3.717   0.702
  362SOL    HW1 1985   3.620   3.797   0.742
  362SOL    HW2 1986   3.597   3.647   0.680
  363SOL     OW 1987   3.871   5.104   3.652
  363SOL    HW1 1988   3.799   5.121   3.720
  363SOL    HW2 1989   3.863   5.011   3.616
  364SOL     OW 1990   0.405   5.657   5.340
  364SOL    HW1 1991   0.330   5.662   5.274
  364SOL    HW2 1992   0.382   5.711   5.421
  365SOL     OW 1993   4.780   6.046   2.292
  365SOL    HW1 1994   4.777   6.020   2.195
  365SOL    HW2 1995   4.689   6.037   2.332
  366SOL     OW 1996   5.619   1.123   0.347
  366SOL    HW1 1997   5.604   1.025   0.361
  366SOL    HW2 1998   5.570   1.175   0.418
  367SOL     OW 1999   5.024   2.586   0.883
  367SOL    HW1 2000   5.087   2.553   0.954
  367SOL    HW2 2001   5.053   2.551   0.794
  368SOL     OW 2002   0.626   4.222   5.169
  368SOL    HW1 2003   0.646   4.302   5.113
  368SOL    HW2 2004   0.689   4.148   5.145
  369SOL     OW 2005   6.594   4.496   1.682
  369SOL    HW1 2006   6.506   4.495   1.636
  369SOL    HW2 2007   6.582   4.519   1.779
  370SOL     OW 2008   2.885   1.813   5.453
  370SOL    HW1 2009   2.798   1.783   5.492
  370SOL    HW2 2010   2.938   1.861   5.523
  371SOL     OW 2011   2.283   3.693   6.512
  371SOL    HW1 2012   2.265   3.774   6.456
  371SOL    HW2 2013   2.330   3.624   6.458
  372SOL     OW 2014   6.848   0.838   5.071
  372SOL    HW1 2015   6.860   0.754   5.018
  372SOL    HW2 2016   6.866   0.819   5.168
  373SOL     OW 2017   6.731   6.395   5.625
  373SOL    HW1 2018   6.827   6.421   5.619
  373SOL    HW2 2019   6.724   6.302   5.662
  374SOL     OW 2020   4.664   6.811   2.331
  374SOL    HW1 2021   4.595   6.745   2.362
  374SOL    HW2 2022   4.653   6.897   2.381
  375SOL     OW 2023   6.920   4.839   3.774
  375SOL    HW1 2024   6.942   4.744   3.753
  375SOL    HW2 2025   6.885   4.884   3.692
  376SOL     OW 2026   1.709   3.665   3.665
  376SOL    HW1 2027   1.685   3.606   3.588
  376SOL    HW2 2028   1.773   3.736   3.633
  377SOL     OW 2029   6.259   2.940   2.151
  377SOL    HW1 2030   6.316   2.916   2.073
  377SOL    HW2 2031   6.183   2.998   2.120
  378SOL     OW 2032   3.865   2.396   5.695
  378SOL    HW1 2033   3.858   2.477   5.637
  378SOL    HW2 2034   3.774   2.356   5.708
  379SOL     OW 2035   5.938   4.153   1.424
  379SOL    HW1 2036   5.951   4.244   1.464
  379SOL    HW2 2037   5.841   4.137   1.407
  380SOL     OW 2038   2.461   1.519   1.881
  380SOL    HW1 2039   2.371   1.529   1.837
  380SOL    HW2 2040   2.525   1.583   1.840
  381SOL     OW 2041   1.807   4.742   1.351
  381SOL    HW1 2042   1.717   4.745   1.394
  381SOL    HW2 2043   1.846   4.651   1.363
  382SOL     OW 2044   4.309   5.381   6.787
  382SOL    HW1 2045   4.387   5.441   6.771
  382SOL    HW2 2046   4.341   5.289   6.808
  383SOL     OW 2047   6.165   2.992   5.979
  383SOL    HW1 2048   6.210   3.011   5.892
  383SOL    HW2 2049   6.214   3.037   6.053
  384SOL     OW 2050   0.980   3.851   5.043
  384SOL    HW1 2051   0.984   3.762   5.089
  384SOL    HW2 2052   1.073   3.886   5.030
  385SOL     OW 2053   5.018   6.274   0.046
  385SOL    HW1 2054   4.968   6.261   6.981
  385SOL    HW2 2055   5.055   6.366   0.049
  386SOL     OW 2056   3.911   6.901   5.140
  386SOL    HW1 2057   3.996   6.930   5.096
  386SOL    HW2 2058   3.931   6.867   5.232
  387SOL     OW 2059   0.399   6.385   3.950
  387SOL    HW1 2060   0.475   6.327   3.922
  387SOL    HW2 2061   0.313   6.336   3.936
  388SOL     OW 2062   0.604   2.150   4.983
  388SOL    HW1 2063   0.528   2.175   4.923
  388SOL    HW2 2064   0.655   2.074   4.942
  389SOL     OW 2065   4.313   4.064   1.644
  389SOL    HW1 2066   4.328   3.967   1.667
  389SOL    HW2 2067   4.353   4.121   1.716
  390SOL     OW 2068   3.507   1.078   0.530
  390SOL    HW1 2069   3.468   1.170   0.536
  390SOL    HW2 2070   3.492   1.042   0.438
  391SOL     OW 2071   2.474   4.193   5.414
  391SOL    HW1 2072   2.402   4.261   5.428
  391SOL    HW2 2073   2.457   4.144   5.328
  392SOL     OW 2074   1.337   3.244   2.622
  392SOL    HW1 2075   1.343   3.313   2.550
  392SOL    HW2 2076   1.372   3.282   2.708
  393SOL     OW 2077   1.322   4.628   0.669
  393SOL    HW1 2078   1.261   4.690   0.718
  393SOL    HW2 2079   1.398   4.602   0.728
  394SOL     OW 2080   0.512   3.025   6.953
  394SOL    HW1 2081   0.434   3.085   6.936
  394SOL    HW2 2082   0.588   3.049   6.893
  395SOL     OW 2083   5.427   4.145   1.961
  395SOL    HW1 2084   5.333   4.143   1.927
  395SOL    HW2 2085   5.487   4.181   1.890
  396SOL     OW 2086   2.462   2.219   2.410
  396SOL    HW1 2087   2.474   2.317   2.425
  396SOL    HW2 2088   2.551   2.177   2.391
  397SOL     OW 2089   5.049   1.286   5.342
  397SOL    HW1 2090   4.974   1.220   5.352
  397SOL    HW2 2091   5.078   1.289   5.246
  398SOL     OW 2092   1.145   6.356   4.556
  398SOL    HW1 2093   1.175   6.402   4.472
  398SOL    HW2 2094   1.066   6.298   4.535
  399SOL     OW 2095   6.292   6.226   4.316
  399SOL    HW1 2096   6.352   6.163   4.265
  399SOL    HW2 2097   6.226   6.266   4.254
  400SOL     OW 2098   6.829   6.905   5.045
  400SOL    HW1 2099   6.843   6.863   4.956
  400SOL    HW2 2100   6.730   6.911   5.063
  401SOL     OW 2101   6.417   0.641   6.210
  401SOL    HW1 2102   6.432   0.573   6.282
  401SOL    HW2 2103   6.505   0.672   6.175
  402SOL     OW 2104   6.150   0.508   2.215
  402SOL    HW1 2105   6.136   0.600   2.251
  402SOL    HW2 2106   6.233   0.506   2.158
  403SOL     OW 2107   3.093   0.071   6.492
  403SOL    HW1 2108   3.101   0.000   6.422
  403SOL    HW2 2109   3.127   0.036   6.579
  404SOL     OW 2110   3.685   6.399   5.366
  404SOL    HW1 2111   3.646   6.462   5.298
  404SOL    HW2 2112   3.725   6.452   5.441
  405SOL     OW 2113   2.280   4.214   3.473
  405SOL    HW1 2114   2.258   4.177   3.383
  405SOL    HW2 2115   2.365   4.267   3.468
  406SOL     OW 2116   0.840   4.729   5.265
  406SOL    HW1 2117   0.896   4.680   5.333
  406SOL    HW2 2118   0.889   4.809   5.233
  407SOL     OW 2119   1.856   3.035   3.716
  407SOL    HW1 2120   1.758   3.029   3.737
  407SOL    HW2 2121   1.873   3.120   3.666
  408SOL     OW 2122   3.835   2.110   2.706
  408SOL    HW1 2123   3.866   2.134   2.614
  408SOL    HW2 2124   3.913   2.076   2.759
  409SOL     OW 2125   0.015   3.766   1.801
  409SOL    HW1 2126   6.947   3.734   1.771
  409SOL    HW2 2127   0.023   3.864   1.783
  410SOL     OW 2128   1.172   2.530   1.195
  410SOL    HW1 2129   1.140   2.586   1.272
  410SOL    HW2 2130   1.132   2.564   1.110
  411SOL     OW 2131   0.145   1.775   1.859
  411SOL    HW1 2132   0.188   1.687   1.835
  411SOL    HW2 2133   0.066   1.791   1.801
  412SOL     OW 2134   2.847   5.095   2.673
  412SOL    HW1 2135   2.875   5.035   2.748
  412SOL    HW2 2136   2.926   5.118   2.617
  413SOL     OW 2137   3.813   4.889   2.229
  413SOL    HW1 2138   3.755   4.838   2.165
  413SOL    HW2 2139   3.760   4.964   2.269
  414SOL     OW 2140   3.521   0.211   4.030
  414SOL    HW1 2141   3.544   0.182   3.937
  414SOL    HW2 2142   3.457   0.288   4.025
  415SOL     OW 2143   6.997   1.841   0.480
  415SOL    HW1 2144   0.053   1.899   0.453
  415SOL    HW2 2145   6.992   1.762   0.419
  416SOL     OW 2146   5.349   3.893   4.719
  416SOL    HW1 2147   5.337   3.992   4.726
  416SOL    HW2 2148   5.435   3.867   4.763
  417SOL     OW 2149   2.148   1.237   6.505
  417SOL    HW1 2150   2.058   1.195   6.498
  417SOL    HW2 2151   2.217   1.164   6.515
  418SOL     OW 2152   3.037   6.866   4.634
  418SOL    HW1 2153   3.081   6.776   4.635
  418SOL    HW2 2154   3.106   6.937   4.629
  419SOL     OW 2155   6.923   0.083   2.173
  419SOL    HW1 2156   6.923   0.000   2.230
  419SOL    HW2 2157   6.991   0.073   2.101
  420SOL     OW 2158   5.387   0.869   6.546
  420SOL    HW1 2159   5.427   0.803   6.610
  420SOL    HW2 2160   5.314   0.824   6.495
  421SOL     OW 2161   5.500   4.334   4.893
  421SOL    HW1 2162   5.534   4.419   4.853
  421SOL    HW2 2163   5.422   4.355   4.953
  422SOL     OW 2164   4.870   2.052   0.819
  422SOL    HW1 2165   4.883   1.961   0.858
  422SOL    HW2 2166   4.783   2.090   0.850
  423SOL     OW 2167   2.600   0.457   6.668
  423SOL    HW1 2168   2.578   0.484   6.762
  423SOL    HW2 2169   2.698   0.469   6.652
  424SOL     OW 2170   1.647   5.343   2.919
  424SOL    HW1 2171   1.724   5.402   2.942
  424SOL    HW2 2172   1.679   5.265   2.866
  425SOL     OW 2173   4.551   0.953   4.753
  425SOL    HW1 2174   4.587   1.022   4.691
  425SOL    HW2 2175   4.483   0.995   4.814
  426SOL     OW 2176   2.470   2.591   4.864
  426SOL    HW1 2177   2.521   2.617   4.783
  426SOL    HW2 2178   2.411   2.667   4.892
  427SOL     OW 2179   4.772   1.608   3.933
  427SOL    HW1 2180   4.798   1.526   3.983
  427SOL    HW2 2181   4.682   1.595   3.892
  428SOL     OW 2182   2.646   0.894   4.796
  428SOL    HW1 2183   2.612   0.966   4.736
  428SOL    HW2 2184   2.725   0.927   4.848
  429SOL     OW 2185   0.956   5.971   3.808
  429SOL    HW1 2186   0.895   5.984   3.885
  429SOL    HW2 2187   0.921   6.021   3.729
  430SOL     OW 2188   1.614   6.924   3.781
  430SOL    HW1 2189   1.633   6.826   3.794
  430SOL    HW2 2190   1.699   6.975   3.780
  431SOL     OW 2191   3.023   2.031   1.282
  431SOL    HW1 2192   3.051   2.013   1.188
  431SOL    HW2 2193   2.923   2.021   1.289
  432SOL     OW 2194   5.310   2.255   1.120
  432SOL    HW1 2195   5.256   2.241   1.037
  432SOL    HW2 2196   5.406   2.234   1.101
  433SOL     OW 2197   3.523   6.503   6.194
  433SOL    HW1 2198   3.492   6.477   6.286
  433SOL    HW2 2199   3.623   6.502   6.190
  434SOL     OW 2200   3.893   6.072   3.622
  434SOL    HW1 2201   3.801   6.084   3.658
  434SOL    HW2 2202   3.894   5.999   3.555
  435SOL     OW 2203   3.414   1.552   5.703
  435SOL    HW1 2204   3.469   1.470   5.719
  435SOL    HW2 2205   3.319   1.526   5.683
  436SOL     OW 2206   3.408   5.991   3.449
  436SOL    HW1 2207   3.319   5.956   3.423
  436SOL    HW2 2208   3.399   6.084   3.483
  437SOL     OW 2209   6.996   1.254   4.376
  437SOL    HW1 2210   0.058   1.309   4.363
  437SOL    HW2 2211   7.020   1.168   4.421
  438SOL     OW 2212   0.722   5.233   3.535
  438SOL    HW1 2213   0.701   5.264   3.442
  438SOL    HW2 2214   0.802   5.173   3.534
  439SOL     OW 2215   6.064   0.592   2.566
  439SOL    HW1 2216   6.018   0.528   2.627
  439SOL    HW2 2217   6.016   0.595   2.478
  440SOL     OW 2218   3.740   0.844   6.945
  440SOL    HW1 2219   3.717   0.751   6.917
  440SOL    HW2 2220   3.732   0.852   0.023
  441SOL     OW 2221   6.559   4.258   3.271
  441SOL    HW1 2222   6.584   4.344   3.228
  441SOL    HW2 2223   6.496   4.208   3.212
  442SOL     OW 2224   4.998   4.338   5.883
  442SOL    HW1 2225   4.969   4.246   5.911
  442SOL    HW2 2226   5.098   4.343   5.882
  443SOL     OW 2227   4.686   4.268   3.131
  443SOL    HW1 2228   4.689   4.366   3.111
  443SOL    HW2 2229   4.712   4.216   3.049
  444SOL     OW 2230   3.747   1.355   0.498
  444SOL    HW1 2231   3.721   1.341   0.403
  444SOL    HW2 2232   3.813   1.285   0.525
  445SOL     OW 2233   2.777   6.176   2.974
  445SOL    HW1 2234   2.752   6.082   2.998
  445SOL    HW2 2235   2.711   6.212   2.908
  446SOL     OW 2236   5.269   5.750   3.037
  446SOL    HW1 2237   5.354   5.698   3.037
  446SOL    HW2 2238   5.202   5.704   3.095
  447SOL     OW 2239   6.344   3.939   5.908
  447SOL    HW1 2240   6.321   3.984   5.994
  447SOL    HW2 2241   6.298   3.987   5.832
  448SOL     OW 2242   3.036   1.280   2.595
  448SOL    HW1 2243   3.066   1.375   2.591
  448SOL    HW2 2244   3.065   1.239   2.681
  449SOL     OW 2245   1.987   2.821   3.870
  449SOL    HW1 2246   1.974   2.878   3.789
  449SOL    HW2 2247   2.002   2.726   3.842
  450SOL     OW 2248   0.474   4.923   3.343
  450SOL    HW1 2249   0.398   4.914   3.407
  450SOL    HW2 2250   0.484   5.019   3.317
  451SOL     OW 2251   0.247   2.493   3.779
  451SOL    HW1 2252   0.175   2.424   3.788
  451SOL    HW2 2253   0.278   2.497   3.684
  452SOL     OW 2254   3.743   6.254   2.871
  452SOL    HW1 2255   3.779   6.165   2.900
  452SOL    HW2 2256   3.644   6.249   2.861
  453SOL     OW 2257   4.141   0.372   6.953
  453SOL    HW1 2258   4.240   0.363   6.959
  453SOL    HW2 2259   4.107   0.317   6.876
  454SOL     OW 2260   6.584   4.286   5.818
  454SOL    HW1 2261   6.490   4.308   5.792
  454SOL    HW2 2262   6.584   4.216   5.889
  455SOL     OW 2263   0.234   3.994   5.798
  455SOL    HW1 2264   0.210   4.091   5.806
  455SOL    HW2 2265   0.303   3.971   5.867
  456SOL     OW 2266   1.945   0.798   3.308
  456SOL    HW1 2267   2.008   0.814   3.232
  456SOL    HW2 2268   1.975   0.719   3.361
  457SOL     OW 2269   1.461   5.791   6.013
  457SOL    HW1 2270   1.556   5.814   5.989
  457SOL    HW2 2271   1.412   5.761   5.931
  458SOL     OW 2272   2.679   1.727   3.413
  458SOL    HW1 2273   2.721   1.672   3.485
  458SOL    HW2 2274   2.615   1.670   3.361
  459SOL     OW 2275   2.138   0.235   5.075
  459SOL    HW1 2276   2.225   0.268   5.113
  459SOL    HW2 2277   2.114   0.289   4.995
  460SOL     OW 2278   1.241   1.487   5.172
  460SOL    HW1 2279   1.275   1.548   5.101
  460SOL    HW2 2280   1.311   1.421   5.196
  461SOL     OW 2281   6.896   4.494   5.432
  461SOL    HW1 2282   6.808   4.449   5.413
  461SOL    HW2 2283   6.881   4.593   5.441
  462SOL     OW 2284   3.418   3.588   4.212
  462SOL    HW1 2285   3.383   3.646   4.138
  462SOL    HW2 2286   3.341   3.545   4.259
  463SOL     OW 2287   6.101   6.976   2.508
  463SOL    HW1 2288   6.085   0.007   2.424
  463SOL    HW2 2289   6.017   6.972   2.561
  464SOL     OW 2290   3.546   6.495   5.849
  464SOL    HW1 2291   3.636   6.485   5.891
  464SOL    HW2 2292   3.487   6.419   5.879
  465SOL     OW 2293   1.297   1.718   0.646
  465SOL    HW1 2294   1.226   1.688   0.583
  465SOL    HW2 2295   1.349   1.639   0.678
  466SOL     OW 2296   3.406   6.266   5.032
  466SOL    HW1 2297   3.332   6.332   5.042
  466SOL    HW2 2298   3.492   6.315   5.017
  467SOL     OW 2299   0.373   1.872   2.690
  467SOL    HW1 2300   0.298   1.919   2.645
  467SOL    HW2 2301   0.458   1.921   2.674
  468SOL     OW 2302   4.773   0.291   6.345
  468SOL    HW1 2303   4.780   0.193   6.362
  468SOL    HW2 2304   4.756   0.339   6.432
  469SOL     OW 2305   2.814   4.410   5.637
  469SOL    HW1 2306   2.860   4.485   5.686
  469SOL    HW2 2307   2.771   4.446   5.554
  470SOL     OW 2308   2.620   5.520   3.213
  470SOL    HW1 2309   2.582   5.428   3.208
  470SOL    HW2 2310   2.610   5.565   3.125
  471SOL     OW 2311   2.606   2.341   3.804
  471SOL    HW1 2312   2.525   2.334   3.745
  471SOL    HW2 2313   2.686   2.308   3.754
  472SOL     OW 2314   6.048   4.399   6.290
  472SOL    HW1 2315   6.045   4.355   6.380
  472SOL    HW2 2316   5.991   4.349   6.226
  473SOL     OW 2317   6.894   2.528   2.647
  473SOL    HW1 2318   6.919   2.521   2.744
  473SOL    HW2 2319   6.873   2.438   2.611
  474SOL     OW 2320   6.363   6.090   4.551
  474SOL    HW1 2321   6.392   6.034   4.473
  474SOL    HW2 2322   6.314   6.170   4.517
  475SOL     OW 2323   5.878   2.341   0.398
  475SOL    HW1 2324   5.952   2.275   0.382
  475SOL    HW2 2325   5.887   2.418   0.334
  476SOL     OW 2326   0.842   4.211   2.094
  476SOL    HW1 2327   0.873   4.124   2.132
  476SOL    HW2 2328   0.890   4.287   2.138
  477SOL     OW 2329   2.715   6.036   3.848
  477SOL    HW1 2330   2.638   6.088   3.884
  477SOL    HW2 2331   2.710   5.942   3.881
  478SOL     OW 2332   4.546   5.993   2.375
  478SOL    HW1 2333   4.532   5.895   2.390
  478SOL    HW2 2334   4.462   6.032   2.337
  479SOL     OW 2335   3.956   3.655   4.227
  479SOL    HW1 2336   3.998   3.593   4.162
  479SOL    HW2 2337   3.858   3.664   4.206
  480SOL     OW 2338   1.362   6.712   2.733
  480SOL    HW1 2339   1.357   6.801   2.778
  480SOL    HW2 2340   1.398   6.644   2.796
  481SOL     OW 2341   0.859   6.152   0.982
  481SOL    HW1 2342   0.881   6.099   0.901
  481SOL    HW2 2343   0.937   6.209   1.007
  482SOL     OW 2344   5.464   4.136   2.411
  482SOL    HW1 2345   5.422   4.187   2.336
  482SOL    HW2 2346   5.563   4.150   2.409
  483SOL     OW 2347   5.943   1.892   2.995
  483SOL    HW1 2348   5.899   1.895   2.906
  483SOL    HW2 2349   5.979   1.983   3.018
  484SOL     OW 2350   2.201   4.482   4.587
  484SOL    HW1 2351   2.234   4.398   4.629
  484SOL    HW2 2352   2.179   4.548   4.659
  485SOL     OW 2353   5.638   3.446   2.926
  485SOL    HW1 2354   5.653   3.409   2.834
  485SOL    HW2 2355   5.726   3.451   2.973
  486SOL     OW 2356   6.058   6.779   6.282
  486SOL    HW1 2357   6.153   6.761   6.308
  486SOL    HW2 2358   6.019   6.847   6.344
  487SOL     OW 2359   0.134   6.692   3.807
  487SOL    HW1 2360   0.192   6.657   3.734
  487SOL    HW2 2361   0.038   6.670   3.787
  488SOL     OW 2362   2.092   6.530   3.406
  488SOL    HW1 2363   1.995   6.541   3.382
  488SOL    HW2 2364   2.105   6.444   3.455
  489SOL     OW 2365   6.802   6.116   4.586
  489SOL    HW1 2366   6.767   6.023   4.597
  489SOL    HW2 2367   6.898   6.119   4.610
  490SOL     OW 2368   1.390   5.372   6.093
  490SOL    HW1 2369   1.383   5.273   6.104
  490SOL    HW2 2370   1.347   5.399   6.007
  491SOL     OW 2371   0.056   2.870   0.328
  491SOL    HW1 2372   0.026   2.852   0.422
  491SOL    HW2 2373   7.003   2.851   0.264
  492SOL     OW 2374   1.165   1.573   5.883
  492SOL    HW1 2375   1.134   1.484   5.850
  492SOL    HW2 2376   1.262   1.569   5.904
  493SOL     OW 2377   2.568   6.551   5.198
  493SOL    HW1 2378   2.626   6.478   5.235
  493SOL    HW2 2379   2.589   6.564   5.101
  494SOL     OW 2380   2.316   0.512   5.578
  494SOL    HW1 2381   2.365   0.428   5.602
  494SOL    HW2 2382   2.323   0.577   5.653
  495SOL     OW 2383   4.430   6.378   5.498
  495SOL    HW1 2384   4.427   6.280   5.517
  495SOL    HW2 2385   4.509   6.419   5.544
  496SOL     OW 2386   6.112   2.230   2.744
  496SOL    HW1 2387   6.133   2.282   2.826
  496SOL    HW2 2388   6.173   2.151   2.738
  497SOL     OW 2389   3.448   0.721   6.430
  497SOL    HW1 2390   3.384   0.648   6.409
  497SOL    HW2 2391   3.531   0.682   6.472
  498SOL     OW 2392   0.418   5.370   2.139
  498SOL    HW1 2393   0.346   5.333   2.080
  498SOL    HW2 2394   0.390   5.459   2.174
  499SOL     OW 2395   3.458   4.620   6.410
  499SOL    HW1 2396   3.512   4.535   6.405
  499SOL    HW2 2397   3.371   4.606   6.363
  500SOL     OW 2398   6.040   2.489   6.540
  500SOL    HW1 2399   6.009   2.539   6.620
  500SOL    HW2 2400   6.029   2.391   6.555
  501SOL     OW 2401   1.651   6.980   2.843
  501SOL    HW1 2402   1.663   6.901   2.783
  501SOL    HW2 2403   1.711   0.033   2.812
  502SOL     OW 2404   2.004   4.563   6.056
  502SOL    HW1 2405   2.067   4.488   6.073
  502SOL    HW2 2406   1.988   4.614   6.141
  503SOL     OW 2407   3.662   4.730   6.597
  503SOL    HW1 2408   3.603   4.710   6.520
  503SOL    HW2 2409   3.710   4.647   6.626
  504SOL     OW 2410   6.504   6.130   2.065
  504SOL    HW1 2411   6.457   6.081   1.992
  504SOL    HW2 2412   6.436   6.176   2.123
  505SOL     OW 2413   4.800   6.803   5.058
  505SOL    HW1 2414   4.702   6.816   5.042
  505SOL    HW2 2415   4.850   6.821   4.974
  506SOL     OW 2416   3.024   5.637   3.005
  506SOL    HW1 2417   3.068   5.588   3.081
  506SOL    HW2 2418   3.088   5.704   2.967
  507SOL     OW 2419   3.979   1.055   2.012
  507SOL    HW1 2420   4.066   1.035   2.058
  507SOL    HW2 2421   3.943   1.142   2.044
  508SOL     OW 2422   0.017   4.276   4.127
  508SOL    HW1 2423   6.944   4.308   4.122
  508SOL    HW2 2424   0.018   4.176   4.129
  509SOL     OW 2425   4.863   0.480   6.804
  509SOL    HW1 2426   4.831   0.495   6.898
  509SOL    HW2 2427   4.865   0.568   6.756
  510SOL     OW 2428   6.291   4.411   6.133
  510SOL    HW1 2429   6.301   4.352   6.053
  510SOL    HW2 2430   6.196   4.413   6.162
  511SOL     OW 2431   1.766   1.462   6.977
  511SOL    HW1 2432   1.776   1.499   0.048
  511SOL    HW2 2433   1.761   1.362   6.982
  512SOL     OW 2434   5.530   2.590   0.182
  512SOL    HW1 2435   5.492   2.612   0.092
  512SOL    HW2 2436   5.470   2.623   0.254
  513SOL     OW 2437   5.471   0.318   2.554
  513SOL    HW1 2438   5.462   0.417   2.561
  513SOL    HW2 2439   5.447   0.289   2.461
  514SOL     OW 2440   0.011   0.009   4.417
  514SOL    HW1 2441   0.022   0.091   4.361
  514SOL    HW2 2442   0.046   6.951   4.368
  515SOL     OW 2443   2.838   0.533   6.459
  515SOL    HW1 2444   2.880   0.446   6.486
  515SOL    HW2 2445   2.827   0.536   6.360
  516SOL     OW 2446   2.958   4.397   1.190
  516SOL    HW1 2447   2.866   4.367   1.216
  516SOL    HW2 2448   2.997   4.331   1.126
  517SOL     OW 2449   3.081   5.151   2.521
  517SOL    HW1 2450   3.026   5.121   2.442
  517SOL    HW2 2451   3.177   5.128   2.506
  518SOL     OW 2452   2.169   3.385   3.606
  518SOL    HW1 2453   2.136   3.471   3.645
  518SOL    HW2 2454   2.214   3.403   3.519
  519SOL     OW 2455   6.549   6.307   3.695
  519SOL    HW1 2456   6.468   6.366   3.695
  519SOL    HW2 2457   6.546   6.248   3.776
  520SOL     OW 2458   1.288   3.434   0.025
  520SOL    HW1 2459   1.373   3.479   0.053
  520SOL    HW2 2460   1.310   3.351   6.995
  521SOL     OW 2461   4.902   5.018   4.279
  521SOL    HW1 2462   4.868   4.924   4.280
  521SOL    HW2 2463   4.867   5.065   4.198
  522SOL     OW 2464   4.512   3.753   1.254
  522SOL    HW1 2465   4.426   3.788   1.292
  522SOL    HW2 2466   4.493   3.704   1.169
  523SOL     OW 2467   0.241   6.240   1.564
  523SOL    HW1 2468   0.321   6.183   1.547
  523SOL    HW2 2469   0.168   6.214   1.501
  524SOL     OW 2470   0.410   2.769   2.235
  524SOL    HW1 2471   0.385   2.790   2.141
  524SOL    HW2 2472   0.384   2.845   2.295
  525SOL     OW 2473   1.110   3.113   6.795
  525SOL    HW1 2474   1.160   3.030   6.818
  525SOL    HW2 2475   1.069   3.152   6.877
  526SOL     OW 2476   3.661   6.734   4.475
  526SOL    HW1 2477   3.733   6.758   4.542
  526SOL    HW2 2478   3.586   6.799   4.483
  527SOL     OW 2479   1.434   1.935   0.053
  527SOL    HW1 2480   1.408   1.998   7.001
  527SOL    HW2 2481   1.353   1.883   0.082
  528SOL     OW 2482   0.157   4.003   3.910
  528SOL    HW1 2483   0.246   3.960   3.925
  528SOL    HW2 2484   0.169   4.097   3.879
  529SOL     OW 2485   2.674   0.159   5.771
  529SOL    HW1 2486   2.627   0.238   5.732
  529SOL    HW2 2487   2.659   0.079   5.712
  530SOL     OW 2488   3.595   3.326   1.901
  530SOL    HW1 2489   3.517   3.376   1.863
  530SOL    HW2 2490   3.564   3.270   1.978
  531SOL     OW 2491   2.687   1.093   2.606
  531SOL    HW1 2492   2.727   1.091   2.515
  531SOL    HW2 2493   2.746   1.144   2.668
  532SOL     OW 2494   2.300   3.256   6.971
  532SOL    HW1 2495   2.262   3.348   6.983
  532SOL    HW2 2496   2.398   3.257   6.992
  533SOL     OW 2497   4.859   6.994   3.480
  533SOL    HW1 2498   4.841   0.026   3.562
  533SOL    HW2 2499   4.886   6.901   3.505
  534SOL     OW 2500   0.859   5.466   1.126
  534SOL    HW1 2501   0.818   5.554   1.151
  534SOL    HW2 2502   0.873   5.411   1.209
  535SOL     OW 2503   6.220   4.149   2.982
  535SOL    HW1 2504   6.285   4.120   3.053
  535SOL    HW2 2505   6.205   4.075   2.917
  536SOL     OW 2506   6.745   5.987   3.036
  536SOL    HW1 2507   6.834   5.956   3.068
  536SOL    HW2 2508   6.673   5.946   3.092
  537SOL     OW 2509   3.714   6.774   4.191
  537SOL    HW1 2510   3.678   6.745   4.280
  537SOL    HW2 2511   3.717   6.695   4.130
  538SOL     OW 2512   2.218   4.940   5.503
  538SOL    HW1 2513   2.188   5.028   5.541
  538SOL    HW2 2514   2.150   4.906   5.439
  539SOL     OW 2515   1.270   5.476   1.170
  539SOL    HW1 2516   1.324   5.451   1.089
  539SOL    HW2 2517   1.331   5.497   1.246
  540SOL     OW 2518   1.993   0.959   4.213
  540SOL    HW1 2519   2.031   1.019   4.284
  540SOL    HW2 2520   1.984   0.866   4.248
  541SOL     OW 2521   4.398   6.119   4.172
  541SOL    HW1 2522   4.394   6.033   4.224
  541SOL    HW2 2523   4.365   6.194   4.229
  542SOL     OW 2524   3.643   5.639   6.560
  542SOL    HW1 2525   3.566   5.696   6.588
  542SOL    HW2 2526   3.615   5.543   6.557
  543SOL     OW 2527   5.642   3.746   4.132
  543SOL    HW1 2528   5.688   3.732   4.044
  543SOL    HW2 2529   5.645   3.662   4.186
  544SOL     OW 2530   0.525   4.604   6.908
  544SOL    HW1 2531   0.535   4.532   6.839
  544SOL    HW2 2532   0.435   4.597   6.950
  545SOL     OW 2533   5.597   1.719   1.417
  545SOL    HW1 2534   5.660   1.761   1.352
  545SOL    HW2 2535   5.527   1.785   1.444
  546SOL     OW 2536   0.152   4.391   2.374
  546SOL    HW1 2537   0.078   4.450   2.342
  546SOL    HW2 2538   0.192   4.343   2.296
  547SOL     OW 2539   3.360   1.923   0.663
  547SOL    HW1 2540   3.298   1.844   0.658
  547SOL    HW2 2541   3.437   1.909   0.601
  548SOL     OW 2542   3.442   3.124   0.773
  548SOL    HW1 2543   3.355   3.077   0.757
  548SOL    HW2 2544   3.436   3.176   0.858
  549SOL     OW 2545   5.453   2.692   0.639
  549SOL    HW1 2546   5.382   2.761   0.626
  549SOL    HW2 2547   5.442   2.649   0.729
  550SOL     OW 2548   6.946   4.240   3.151
  550SOL    HW1 2549   6.951   4.309   3.078
  550SOL    HW2 2550   6.957   4.286   3.239
  551SOL     OW 2551   6.904   0.774   0.884
  551SOL    HW1 2552   6.921   0.754   0.981
  551SOL    HW2 2553   6.854   0.697   0.844
  552SOL     OW 2554   5.435   5.361   4.907
  552SOL    HW1 2555   5.523   5.361   4.953
  552SOL    HW2 2556   5.368   5.410   4.962
  553SOL     OW 2557   3.536   0.443   4.436
  553SOL    HW1 2558   3.514   0.532   4.476
  553SOL    HW2 2559   3.452   0.402   4.400
  554SOL     OW 2560   5.795   5.762   0.240
  554SOL    HW1 2561   5.758   5.722   0.323
  554SOL    HW2 2562   5.748   5.722   0.160
  555SOL     OW 2563   3.548   5.840   5.552
  555SOL    HW1 2564   3.557   5.934   5.586
  555SOL    HW2 2565   3.508   5.842   5.461
  556SOL     OW 2566   5.306   1.812   4.221
  556SOL    HW1 2567   5.336   1.777   4.133
  556SOL    HW2 2568   5.352   1.762   4.295
  557SOL     OW 2569   6.809   4.415   6.010
  557SOL    HW1 2570   6.898   4.426   5.966
  557SOL    HW2 2571   6.737   4.425   5.941
  558SOL     OW 2572   4.126   3.569   3.372
  558SOL    HW1 2573   4.158   3.559   3.277
  558SOL    HW2 2574   4.078   3.656   3.382
  559SOL     OW 2575   6.564   5.554   5.310
  559SOL    HW1 2576   6.565   5.478   5.375
  559SOL    HW2 2577   6.481   5.550   5.255
  560SOL     OW 2578   6.599   2.963   4.183
  560SOL    HW1 2579   6.552   2.900   4.121
  560SOL    HW2 2580   6.594   2.929   4.276
  561SOL     OW 2581   6.968   3.190   6.308
  561SOL    HW1 2582   6.988   3.098   6.342
  561SOL    HW2 2583   6.889   3.226   6.357
  562SOL     OW 2584   5.167   6.700   5.479
  562SOL    HW1 2585   5.103   6.757   5.531
  562SOL    HW2 2586   5.211   6.755   5.408
  563SOL     OW 2587   1.655   1.632   4.349
  563SOL    HW1 2588   1.728   1.628   4.281
  563SOL    HW2 2589   1.618   1.725   4.352
  564SOL     OW 2590   0.184   1.617   6.675
  564SOL    HW1 2591   0.189   1.570   6.586
  564SOL    HW2 2592   0.118   1.571   6.733
  565SOL     OW 2593   3.403   2.889   4.014
  565SOL    HW1 2594   3.312   2.926   4.030
  565SOL    HW2 2595   3.398   2.817   3.945
  566SOL     OW 2596   2.472   4.991   2.850
  566SOL    HW1 2597   2.493   4.898   2.820
  566SOL    HW2 2598   2.480   4.996   2.950
  567SOL     OW 2599   2.802   2.525   0.454
  567SOL    HW1 2600   2.888   2.515   0.504
  567SOL    HW2 2601   2.742   2.587   0.505
  568SOL     OW 2602   5.540   6.802   0.480
  568SOL    HW1 2603   5.506   6.879   0.426
  568SOL    HW2 2604   5.638   6.814   0.497
  569SOL     OW 2605   0.887   2.524   0.272
  569SOL    HW1 2606   0.966   2.546   0.330
  569SOL    HW2 2607   0.848   2.609   0.236
  570SOL     OW 2608   2.606   0.100   6.099
  570SOL    HW1 2609   2.680   0.099   6.167
  570SOL    HW2 2610   2.616   0.179   6.039
  571SOL     OW 2611   2.546   4.919   3.672
  571SOL    HW1 2612   2.588   4.985   3.609
  571SOL    HW2 2613   2.617   4.862   3.712
  572SOL     OW 2614   1.931   5.593   4.906
  572SOL    HW1 2615   1.937   5.680   4.857
  572SOL    HW2 2616   1.896   5.609   4.998
  573SOL     OW 2617   6.544   1.678   5.175
  573SOL    HW1 2618   6.580   1.629   5.254
  573SOL    HW2 2619   6.448   1.701   5.190
  574SOL     OW 2620   3.326   0.920   4.814
  574SOL    HW1 2621   3.373   0.932   4.727
  574SOL    HW2 2622   3.391   0.884   4.882
  575SOL     OW 2623   4.117   2.784   1.100
  575SOL    HW1 2624   4.091   2.689   1.115
  575SOL    HW2 2625   4.127   2.830   1.188
  576SOL     OW 2626   2.018   2.944   2.845
  576SOL    HW1 2627   2.073   2.969   2.765
  576SOL    HW2 2628   2.009   3.023   2.905
  577SOL     OW 2629   0.765   0.451   2.441
  577SOL    HW1 2630   0.865   0.452   2.449
  577SOL    HW2 2631   0.737   0.505   2.362
  578SOL     OW 2632   1.240   5.610   0.350
  578SOL    HW1 2633   1.338   5.616   0.331
  578SOL    HW2 2634   1.189   5.618   0.264
  579SOL     OW 2635   2.152   4.774   2.478
  579SOL    HW1 2636   2.126   4.687   2.521
  579SOL    HW2 2637   2.251   4.784   2.481
  580SOL     OW 2638   4.568   5.059   5.134
  580SOL    HW1 2639   4.472   5.049   5.160
  580SOL    HW2 2640   4.611   4.969   5.129
  581SOL     OW 2641   0.876   3.518   3.801
  581SOL    HW1 2642   0.951   3.458   3.775
  581SOL    HW2 2643   0.889   3.548   3.895
  582SOL     OW 2644   4.700   5.568   3.558
  582SOL    HW1 2645   4.771   5.628   3.597
  582SOL    HW2 2646   4.621   5.568   3.619
  583SOL     OW 2647   3.134   5.560   5.437
  583SOL    HW1 2648   3.109   5.496   5.510
  583SOL    HW2 2649   3.111   5.520   5.349
  584SOL     OW 2650   3.168   6.878   6.325
  584SOL    HW1 2651   3.172   6.947   6.252
  584SOL    HW2 2652   3.220   6.797   6.297
  585SOL     OW 2653   4.214   0.205   1.363
  585SOL    HW1 2654   4.211   0.172   1.457
  585SOL    HW2 2655   4.220   0.128   1.300
  586SOL     OW 2656   3.647   0.187   1.191
  586SOL    HW1 2657   3.560   0.197   1.141
  586SOL    HW2 2658   3.715   0.145   1.130
  587SOL     OW 2659   5.701   2.291   2.045
  587SOL    HW1 2660   5.613   2.287   2.091
  587SOL    HW2 2661   5.700   2.363   1.976
  588SOL     OW 2662   1.668   5.090   0.953
  588SOL    HW1 2663   1.664   5.017   0.885
  588SOL    HW2 2664   1.647   5.052   1.043
  589SOL     OW 2665   3.021   5.579   1.324
  589SOL    HW1 2666   3.074   5.632   1.390
  589SOL    HW2 2667   2.979   5.501   1.370
  590SOL     OW 2668   5.471   1.481   0.759
  590SOL    HW1 2669   5.465   1.386   0.727
  590SOL    HW2 2670   5.522   1.535   0.692
  591SOL     OW 2671   4.445   5.633   3.731
  591SOL    HW1 2672   4.398   5.564   3.675
  591SOL    HW2 2673   4.482   5.705   3.672
  592SOL     OW 2674   5.025   1.028   3.631
  592SOL    HW1 2675   4.995   1.123   3.636
  592SOL    HW2 2676   4.982   0.984   3.552
  593SOL     OW 2677   4.020   2.134   4.862
  593SOL    HW1 2678   4.029   2.157   4.959
  593SOL    HW2 2679   4.050   2.211   4.806
  594SOL     OW 2680   6.032   1.872   0.868
  594SOL    HW1 2681   6.076   1.906   0.951
  594SOL    HW2 2682   5.937   1.846   0.889
  595SOL     OW 2683   5.205   6.204   3.307
  595SOL    HW1 2684   5.188   6.274   3.376
  595SOL    HW2 2685   5.299   6.170   3.316
  596SOL     OW 2686   0.101   4.590   3.565
  596SOL    HW1 2687   0.018   4.545   3.597
  596SOL    HW2 2688   0.144   4.639   3.641
  597SOL     OW 2689   3.444   0.205   5.982
  597SOL    HW1 2690   3.499   0.129   6.015
  597SOL    HW2 2691   3.469   0.288   6.031
  598SOL     OW 2692   3.051   3.956   4.926
  598SOL    HW1 2693   3.000   4.018   4.986
  598SOL    HW2 2694   3.063   3.868   4.971
  599SOL     OW 2695   1.992   6.748   1.767
  599SOL    HW1 2696   2.044   6.789   1.692
  599SOL    HW2 2697   2.054   6.710   1.834
  600SOL     OW 2698   0.346   3.598   5.767
  600SOL    HW1 2699   0.394   3.682   5.740
  600SOL    HW2 2700   0.248   3.614   5.765
  601SOL     OW 2701   1.865   0.831   5.404
  601SOL    HW1 2702   1.833   0.898   5.336
  601SOL    HW2 2703   1.941   0.869   5.456
  602SOL     OW 2704   3.213   0.270   5.841
  602SOL    HW1 2705   3.279   0.233   5.907
  602SOL    HW2 2706   3.261   0.306   5.762
  603SOL     OW 2707   1.958   1.371   5.572
  603SOL    HW1 2708   1.898   1.313   5.517
  603SOL    HW2 2709   1.933   1.361   5.669
  604SOL     OW 2710   0.330   2.468   1.847
  604SOL    HW1 2711   0.383   2.553   1.850
  604SOL    HW2 2712   0.369   2.406   1.780
  605SOL     OW 2713   6.932   4.820   2.502
  605SOL    HW1 2714   6.954   4.898   2.443
  605SOL    HW2 2715   6.838   4.829   2.535
  606SOL     OW 2716   4.475   6.856   5.065
  606SOL    HW1 2717   4.457   6.758   5.063
  606SOL    HW2 2718   4.447   6.894   5.153
  607SOL     OW 2719   0.735   4.943   5.622
  607SOL    HW1 2720   0.710   4.848   5.602
  607SOL    HW2 2721   0.658   5.003   5.600
  608SOL     OW 2722   3.822   0.084   6.773
  608SOL    HW1 2723   3.887   0.028   6.824
  608SOL    HW2 2724   3.735   0.089   6.822
  609SOL     OW 2725   3.745   2.489   1.700
  609SOL    HW1 2726   3.696   2.564   1.743
  609SOL    HW2 2727   3.707   2.402   1.732
  610SOL     OW 2728   4.242   1.842   0.152
  610SOL    HW1 2729   4.226   1.895   0.236
  610SOL    HW2 2730   4.205   1.891   0.074
  611SOL     OW 2731   4.259   6.943   2.813
  611SOL    HW1 2732   4.351   6.982   2.804
  611SOL    HW2 2733   4.193   7.004   2.770
  612SOL     OW 2734   2.893   5.063   5.094
  612SOL    HW1 2735   2.929   5.028   5.008
  612SOL    HW2 2736   2.871   4.987   5.154
  613SOL     OW 2737   5.381   4.660   4.782
  613SOL    HW1 2738   5.371   4.759   4.782
  613SOL    HW2 2739   5.292   4.617   4.791
  614SOL     OW 2740   5.016   4.829   5.117
  614SOL    HW1 2741   5.007   4.822   5.018
  614SOL    HW2 2742   5.022   4.926   5.143
  615SOL     OW 2743   6.931   3.788   0.567
  615SOL    HW1 2744   7.021   3.786   0.611
  615SOL    HW2 2745   6.872   3.852   0.615
  616SOL     OW 2746   6.427   2.914   2.933
  616SOL    HW1 2747   6.413   3.011   2.911
  616SOL    HW2 2748   6.524   2.892   2.928
  617SOL     OW 2749   1.381   5.118   6.878
  617SOL    HW1 2750   1.399   5.063   6.796
  617SOL    HW2 2751   1.454   5.184   6.890
  618SOL     OW 2752   1.857   2.401   1.558
  618SOL    HW1 2753   1.776   2.411   1.499
  618SOL    HW2 2754   1.841   2.447   1.645
  619SOL     OW 2755   1.657   1.935   0.899
  619SOL    HW1 2756   1.746   1.970   0.872
  619SOL    HW2 2757   1.614   1.998   0.963
  620SOL     OW 2758   4.331   1.715   0.746
  620SOL    HW1 2759   4.317   1.783   0.674
  620SOL    HW2 2760   4.244   1.670   0.766
  621SOL     OW 2761   5.931   5.021   6.376
  621SOL    HW1 2762   5.914   4.933   6.331
  621SOL    HW2 2763   6.001   5.071   6.325
  622SOL     OW 2764   1.993   1.268   0.275
  622SOL    HW1 2765   2.065   1.260   0.345
  622SOL    HW2 2766   1.910   1.305   0.318
  623SOL     OW 2767   0.563   6.240   5.431
  623SOL    HW1 2768   0.626   6.172   5.469
  623SOL    HW2 2769   0.612   6.325   5.412
  624SOL     OW 2770   0.330   2.939   2.410
  624SOL    HW1 2771   0.376   3.021   2.443
  624SOL    HW2 2772   0.243   2.964   2.367
  625SOL     OW 2773   3.118   2.057   1.567
  625SOL    HW1 2774   3.191   2.045   1.634
  625SOL    HW2 2775   3.068   2.141   1.586
  626SOL     OW 2776   2.016   5.788   3.558
  626SOL    HW1 2777   2.044   5.790   3.462
  626SOL    HW2 2778   2.076   5.726   3.609
  627SOL     OW 2779   5.326   0.364   0.531
  627SOL    HW1 2780   5.419   0.386   0.559
  627SOL    HW2 2781   5.262   0.392   0.603
  628SOL     OW 2782   4.760   4.866   4.856
  628SOL    HW1 2783   4.764   4.961   4.887
  628SOL    HW2 2784   4.853   4.830   4.848
  629SOL     OW 2785   0.417   0.197   1.345
  629SOL    HW1 2786   0.343   0.250   1.387
  629SOL    HW2 2787   0.389   0.102   1.334
  630SOL     OW 2788   5.227   2.736   2.179
  630SOL    HW1 2789   5.210   2.833   2.195
  630SOL    HW2 2790   5.151   2.682   2.213
  631SOL     OW 2791   3.237   0.538   5.095
  631SOL    HW1 2792   3.168   0.467   5.109
  631SOL    HW2 2793   3.319   0.497   5.055
  632SOL     OW 2794   2.325   1.138   0.555
  632SOL    HW1 2795   2.415   1.096   0.561
  632SOL    HW2 2796   2.267   1.085   0.493
  633SOL     OW 2797   3.106   5.338   0.278
  633SOL    HW1 2798   3.072   5.316   0.369
  633SOL    HW2 2799   3.189   5.394   0.286
  634SOL     OW 2800   4.316   4.787   1.666
  634SOL    HW1 2801   4.303   4.886   1.675
  634SOL    HW2 2802   4.316   4.745   1.756
  635SOL     OW 2803   4.699   6.461   3.336
  635SOL    HW1 2804   4.667   6.521   3.409
  635SOL    HW2 2805   4.738   6.378   3.376
  636SOL     OW 2806   5.415   5.465   6.748
  636SOL    HW1 2807   5.466   5.445   6.665
  636SOL    HW2 2808   5.366   5.383   6.777
  637SOL     OW 2809   5.428   5.021   1.990
  637SOL    HW1 2810   5.440   5.118   2.013
  637SOL    HW2 2811   5.451   5.006   1.894
  638SOL     OW 2812   5.012   1.146   2.318
  638SOL    HW1 2813   5.012   1.153   2.418
  638SOL    HW2 2814   4.951   1.216   2.280
  639SOL     OW 2815   4.861   5.027   2.391
  639SOL    HW1 2816   4.791   5.091   2.359
  639SOL    HW2 2817   4.887   4.966   2.316
  640SOL     OW 2818   2.665   4.259   5.954
  640SOL    HW1 2819   2.638   4.169   5.919
  640SOL    HW2 2820   2.744   4.293   5.903
  641SOL     OW 2821   0.895   5.317   4.244
  641SOL    HW1 2822   0.943   5.242   4.289
  641SOL    HW2 2823   0.882   5.392   4.309
  642SOL     OW 2824   0.569   4.053   4.210
  642SOL    HW1 2825   0.593   4.148   4.189
  642SOL    HW2 2826   0.493   4.051   4.275
  643SOL     OW 2827   6.020   5.743   4.485
  643SOL    HW1 2828   5.930   5.780   4.463
  643SOL    HW2 2829   6.084   5.766   4.411
  644SOL     OW 2830   0.711   6.163   2.837
  644SOL    HW1 2831   0.775   6.109   2.783
  644SOL    HW2 2832   0.659   6.224   2.777
  645SOL     OW 2833   4.753   2.749   4.536
  645SOL    HW1 2834   4.774   2.819   4.604
  645SOL    HW2 2835   4.676   2.693   4.567
  646SOL     OW 2836   1.939   1.971   3.403
  646SOL    HW1 2837   1.858   1.917   3.421
  646SOL    HW2 2838   1.953   1.980   3.304
  647SOL     OW 2839   6.006   2.717   6.787
  647SOL    HW1 2840   5.975   2.769   6.707
  647SOL    HW2 2841   6.048   2.779   6.853
  648SOL     OW 2842   6.103   3.544   2.826
  648SOL    HW1 2843   6.065   3.456   2.855
  648SOL    HW2 2844   6.048   3.580   2.751
  649SOL     OW 2845   4.347   4.255   0.536
  649SOL    HW1 2846   4.389   4.344   0.519
  649SOL    HW2 2847   4.280   4.264   0.610
  650SOL     OW 2848   4.909   4.608   0.513
  650SOL    HW1 2849   4.940   4.620   0.607
  650SOL    HW2 2850   4.878   4.513   0.500
  651SOL     OW 2851   0.560   6.199   1.024
  651SOL    HW1 2852   0.500   6.133   1.068
  651SOL    HW2 2853   0.652   6.161   1.016
  652SOL     OW 2854   5.030   6.778   3.491
  652SOL    HW1 2855   4.974   6.700   3.521
  652SOL    HW2 2856   5.089   6.750   3.415
  653SOL     OW 2857   3.441   5.429   5.223
  653SOL    HW1 2858   3.439   5.378   5.309
  653SOL    HW2 2859   3.459   5.367   5.148
  654SOL     OW 2860   6.928   4.958   6.009
  654SOL    HW1 2861   6.892   4.947   6.101
  654SOL    HW2 2862   7.001   5.026   6.009
  655SOL     OW 2863   0.936   6.821   1.864
  655SOL    HW1 2864   0.895   6.881   1.932
  655SOL    HW2 2865   1.036   6.829   1.868
  656SOL     OW 2866   2.303   6.199   1.783
  656SOL    HW1 2867   2.257   6.281   1.750
  656SOL    HW2 2868   2.401   6.207   1.765
  657SOL     OW 2869   2.005   1.998   1.578
  657SOL    HW1 2870   2.100   2.019   1.557
  657SOL    HW2 2871   1.968   2.067   1.640
  658SOL     OW 2872   3.494   3.136   0.012
  658SOL    HW1 2873   3.546   3.218   0.037
  658SOL    HW2 2874   3.414   3.129   0.072
  659SOL     OW 2875   3.065   6.383   6.259
  659SOL    HW1 2876   3.118   6.410   6.179
  659SOL    HW2 2877   3.065   6.284   6.268
  660SOL     OW 2878   3.941   5.777   1.746
  660SOL    HW1 2879   3.901   5.851   1.693
  660SOL    HW2 2880   3.883   5.696   1.740
  661SOL     OW 2881   4.537   6.086   3.719
  661SOL    HW1 2882   4.521   6.006   3.661
  661SOL    HW2 2883   4.451   6.135   3.733
  662SOL     OW 2884   3.484   0.610   4.968
  662SOL    HW1 2885   3.490   0.707   4.992
  662SOL    HW2 2886   3.555   0.560   5.018
  663SOL     OW 2887   2.027   3.989   5.345
  663SOL    HW1 2888   2.086   3.911   5.325
  663SOL    HW2 2889   1.938   3.975   5.302
  664SOL     OW 2890   6.750   6.441   6.176
  664SOL    HW1 2891   6.820   6.426   6.106
  664SOL    HW2 2892   6.778   6.517   6.235
  665SOL     OW 2893   3.602   5.155   3.354
  665SOL    HW1 2894   3.630   5.245   3.320
  665SOL    HW2 2895   3.559   5.103   3.280
  666SOL     OW 2896   4.372   0.689   2.041
  666SOL    HW1 2897   4.371   0.606   2.097
  666SOL    HW2 2898   4.467   0.715   2.022
  667SOL     OW 2899   0.594   5.175   1.695
  667SOL    HW1 2900   0.598   5.119   1.778
  667SOL    HW2 2901   0.506   5.162   1.650
  668SOL     OW 2902   5.541   5.931   5.756
  668SOL    HW1 2903   5.639   5.936   5.778
  668SOL    HW2 2904   5.490   5.916   5.841
  669SOL     OW 2905   5.832   0.729   2.984
  669SOL    HW1 2906   5.783   0.768   3.062
  669SOL    HW2 2907   5.851   0.801   2.917
  670SOL     OW 2908   2.593   1.650   2.397
  670SOL    HW1 2909   2.498   1.680   2.384
  670SOL    HW2 2910   2.648   1.727   2.429
  671SOL     OW 2911   3.675   5.928   1.343
  671SOL    HW1 2912   3.634   6.017   1.321
  671SOL    HW2 2913   3.749   5.910   1.278
  672SOL     OW 2914   6.723   5.196   1.872
  672SOL    HW1 2915   6.667   5.226   1.949
  672SOL    HW2 2916   6.787   5.125   1.904
  673SOL     OW 2917   5.638   0.352   1.084
  673SOL    HW1 2918   5.697   0.277   1.053
  673SOL    HW2 2919   5.633   0.350   1.184
  674SOL     OW 2920   0.716   1.873   4.910
  674SOL    HW1 2921   0.771   1.807   4.961
  674SOL    HW2 2922   0.766   1.902   4.828
  675SOL     OW 2923   5.966   2.506   2.340
  675SOL    HW1 2924   6.044   2.565   2.321
  675SOL    HW2 2925   5.963   2.433   2.272
  676SOL     OW 2926   2.207   4.803   4.591
  676SOL    HW1 2927   2.150   4.748   4.652
  676SOL    HW2 2928   2.209   4.760   4.500
  677SOL     OW 2929   5.197   1.176   1.675
  677SOL    HW1 2930   5.271   1.197   1.611
  677SOL    HW2 2931   5.131   1.114   1.632
  678SOL     OW 2932   2.424   4.770   4.781
  678SOL    HW1 2933   2.367   4.777   4.700
  678SOL    HW2 2934   2.520   4.763   4.753
  679SOL     OW 2935   5.232   1.485   4.953
  679SOL    HW1 2936   5.257   1.446   4.864
  679SOL    HW2 2937   5.305   1.467   5.019
  680SOL     OW 2938   4.838   6.173   4.429
  680SOL    HW1 2939   4.752   6.193   4.383
  680SOL    HW2 2940   4.850   6.235   4.506
  681SOL     OW 2941   4.361   5.936   2.105
  681SOL    HW1 2942   4.287   5.935   2.038
  681SOL    HW2 2943   4.355   5.855   2.163
  682SOL     OW 2944   6.543   1.331   1.608
  682SOL    HW1 2945   6.635   1.296   1.590
  682SOL    HW2 2946   6.546   1.430   1.621
  683SOL     OW 2947   4.689   2.901   0.877
  683SOL    HW1 2948   4.597   2.912   0.838
  683SOL    HW2 2949   4.706   2.975   0.942
  684SOL     OW 2950   5.969   0.945   6.989
  684SOL    HW1 2951   6.020   0.860   7.001
  684SOL    HW2 2952   5.914   0.939   6.905
  685SOL     OW 2953   2.834   2.227   3.728
  685SOL    HW1 2954   2.912   2.228   3.791
  685SOL    HW2 2955   2.856   2.172   3.648
  686SOL     OW 2956   4.470   1.465   4.478
  686SOL    HW1 2957   4.386   1.411   4.491
  686SOL    HW2 2958   4.472   1.540   4.543
  687SOL     OW 2959   0.783   1.968   4.534
  687SOL    HW1 2960   0.769   1.873   4.562
  687SOL    HW2 2961   0.826   2.019   4.608
  688SOL     OW 2962   0.206   1.196   5.861
  688SOL    HW1 2963   0.256   1.281   5.878
  688SOL    HW2 2964   0.214   1.172   5.764
  689SOL     OW 2965   2.306   4.630   6.172
  689SOL    HW1 2966   2.312   4.605   6.076
  689SOL    HW2 2967   2.212   4.622   6.203
  690SOL     OW 2968   6.932   4.027   3.479
  690SOL    HW1 2969   6.936   3.936   3.520
  690SOL    HW2 2970   6.851   4.034   3.421
  691SOL     OW 2971   3.300   1.589   1.079
  691SOL    HW1 2972   3.252   1.508   1.111
  691SOL    HW2 2973   3.329   1.576   0.984
  692SOL     OW 2974   3.890   1.627   5.300
  692SOL    HW1 2975   3.961   1.676   5.351
  692SOL    HW2 2976   3.924   1.603   5.209
  693SOL     OW 2977   5.072   6.639   4.114
  693SOL    HW1 2978   4.999   6.641   4.183
  693SOL    HW2 2979   5.039   6.678   4.028
  694SOL     OW 2980   4.287   5.808   4.112
  694SOL    HW1 2981   4.334   5.844   4.193
  694SOL    HW2 2982   4.193   5.783   4.137
  695SOL     OW 2983   3.394   5.730   4.636
  695SOL    HW1 2984   3.297   5.709   4.622
  695SOL    HW2 2985   3.429   5.779   4.556
  696SOL     OW 2986   5.058   4.200   3.564
  696SOL    HW1 2987   5.011   4.237   3.644
  696SOL    HW2 2988   5.049   4.100   3.565
  697SOL     OW 2989   1.376   2.964   2.591
  697SOL    HW1 2990   1.350   3.060   2.598
  697SOL    HW2 2991   1.370   2.921   2.681
  698SOL     OW 2992   4.928   6.204   0.969
  698SOL    HW1 2993   4.937   6.203   0.869
  698SOL    HW2 2994   5.011   6.243   1.010
  699SOL     OW 2995   2.208   3.063   6.604
  699SOL    HW1 2996   2.188   3.159   6.583
  699SOL    HW2 2997   2.131   3.022   6.652
  700SOL     OW 2998   3.470   0.085   2.013
  700SOL    HW1 2999   3.453   0.086   2.111
  700SOL    HW2 3000   3.404   0.144   1.967
  701SOL     OW 3001   6.856   4.539   0.658
  701SOL    HW1 3002   6.766   4.573   0.632
  701SOL    HW2 3003   6.847   4.482   0.740
  702SOL     OW 3004   2.085   0.190   4.042
  702SOL    HW1 3005   2.027   0.254   3.991
  702SOL    HW2 3006   2.181   0.213   4.028
  703SOL     OW 3007   3.306   3.515   5.545
  703SOL    HW1 3008   3.329   3.511   5.448
  703SOL    HW2 3009   3.209   3.538   5.556
  704SOL     OW 3010   2.277   2.292   6.139
  704SOL    HW1 3011   2.305   2.383   6.110
  704SOL    HW2 3012   2.284   2.284   6.238
  705SOL     OW 3013   6.536   5.894   3.209
  705SOL    HW1 3014   6.483   5.969   3.171
  705SOL    HW2 3015   6.487   5.855   3.288
  706SOL     OW 3016   4.250   1.575   5.447
  706SOL    HW1 3017   4.293   1.539   5.529
  706SOL    HW2 3018   4.261   1.509   5.372
  707SOL     OW 3019   3.909   5.382   3.253
  707SOL    HW1 3020   3.819   5.402   3.213
  707SOL    HW2 3021   3.972   5.354   3.181
  708SOL     OW 3022   2.434   1.878   3.718
  708SOL    HW1 3023   2.505   1.812   3.744
  708SOL    HW2 3024   2.354   1.866   3.778
  709SOL     OW 3025   1.162   6.609   1.128
  709SOL    HW1 3026   1.239   6.651   1.080
  709SOL    HW2 3027   1.096   6.575   1.061
  710SOL     OW 3028   5.076   2.701   1.823
  710SOL    HW1 3029   5.045   2.607   1.809
  710SOL    HW2 3030   5.007   2.752   1.875
  711SOL     OW 3031   6.931   2.713   6.324
  711SOL    HW1 3032   6.974   2.622   6.321
  711SOL    HW2 3033   6.865   2.716   6.399
  712SOL     OW 3034   5.128   2.199   0.930
  712SOL    HW1 3035   5.126   2.280   0.870
  712SOL    HW2 3036   5.095   2.120   0.879
  713SOL     OW 3037   4.208   2.697   5.325
  713SOL    HW1 3038   4.145   2.775   5.322
  713SOL    HW2 3039   4.168   2.619   5.277
  714SOL     OW 3040   5.450   5.427   4.033
  714SOL    HW1 3041   5.457   5.329   4.052
  714SOL    HW2 3042   5.424   5.476   4.116
  715SOL     OW 3043   6.544   5.357   5.500
  715SOL    HW1 3044   6.553   5.260   5.481
  715SOL    HW2 3045   6.575   5.376   5.594
  716SOL     OW 3046   1.874   1.063   3.315
  716SOL    HW1 3047   1.803   1.073   3.245
  716SOL    HW2 3048   1.892   0.966   3.330
  717SOL     OW 3049   6.245   4.611   3.904
  717SOL    HW1 3050   6.332   4.573   3.872
  717SOL    HW2 3051   6.263   4.679   3.975
  718SOL     OW 3052   4.815   3.097   5.155
  718SOL    HW1 3053   4.837   3.013   5.205
  718SOL    HW2 3054   4.748   3.150   5.206
  719SOL     OW 3055   5.661   0.312   2.114
  719SOL    HW1 3056   5.760   0.311   2.125
  719SOL    HW2 3057   5.638   0.353   2.025
  720SOL     OW 3058   2.628   0.369   6.040
  720SOL    HW1 3059   2.561   0.426   6.087
  720SOL    HW2 3060   2.720   0.395   6.071
  721SOL     OW 3061   1.247   1.588   2.051
  721SOL    HW1 3062   1.295   1.650   1.989
  721SOL    HW2 3063   1.231   1.634   2.138
  722SOL     OW 3064   3.092   0.791   6.419
  722SOL    HW1 3065   2.993   0.774   6.425
  722SOL    HW2 3066   3.139   0.706   6.397
  723SOL     OW 3067   1.775   6.165   3.544
  723SOL    HW1 3068   1.714   6.113   3.485
  723SOL    HW2 3069   1.768   6.262   3.522
  724SOL     OW 3070   0.432   1.184   3.994
  724SOL    HW1 3071   0.376   1.253   3.949
  724SOL    HW2 3072   0.515   1.168   3.940
  725SOL     OW 3073   2.078   4.408   2.411
  725SOL    HW1 3074   2.028   4.411   2.498
  725SOL    HW2 3075   2.174   4.430   2.428
  726SOL     OW 3076   2.466   4.889   0.877
  726SOL    HW1 3077   2.478   4.827   0.800
  726SOL    HW2 3078   2.434   4.838   0.957
  727SOL     OW 3079   4.909   5.344   6.201
  727SOL    HW1 3080   4.944   5.282   6.271
  727SOL    HW2 3081   4.981   5.408   6.174
  728SOL     OW 3082   6.659   3.186   4.486
  728SOL    HW1 3083   6.661   3.174   4.585
  728SOL    HW2 3084   6.564   3.176   4.453
  729SOL     OW 3085   0.310   2.785   1.436
  729SOL    HW1 3086   0.399   2.815   1.469
  729SOL    HW2 3087   0.240   2.803   1.505
  730SOL     OW 3088   5.710   0.859   3.200
  730SOL    HW1 3089   5.786   0.914   3.235
  730SOL    HW2 3090   5.633   0.919   3.178
  731SOL     OW 3091   4.820   4.731   6.650
  731SOL    HW1 3092   4.897   4.749   6.589
  731SOL    HW2 3093   4.831   4.785   6.734
  732SOL     OW 3094   5.693   2.445   2.328
  732SOL    HW1 3095   5.771   2.474   2.384
  732SOL    HW2 3096   5.673   2.515   2.260
  733SOL     OW 3097   5.841   0.571   4.398
  733SOL    HW1 3098   5.777   0.564   4.322
  733SOL    HW2 3099   5.884   0.662   4.398
  734SOL     OW 3100   6.229   4.636   2.779
  734SOL    HW1 3101   6.238   4.632   2.879
  734SOL    HW2 3102   6.194   4.549   2.746
  735SOL     OW 3103   4.621   1.000   1.517
  735SOL    HW1 3104   4.706   0.956   1.545
  735SOL    HW2 3105   4.618   1.094   1.552
  736SOL     OW 3106   1.151   1.877   3.743
  736SOL    HW1 3107   1.058   1.911   3.757
  736SOL    HW2 3108   1.151   1.810   3.669
  737SOL     OW 3109   5.902   1.627   6.002
  737SOL    HW1 3110   5.969   1.701   6.009
  737SOL    HW2 3111   5.860   1.611   6.091
  738SOL     OW 3112   2.667   4.175   1.455
  738SOL    HW1 3113   2.693   4.212   1.545
  738SOL    HW2 3114   2.706   4.084   1.445
  739SOL     OW 3115   3.639   0.355   5.039
  739SOL    HW1 3116   3.684   0.274   5.004
  739SOL    HW2 3117   3.707   0.426   5.058
  740SOL     OW 3118   6.139   1.789   2.792
  740SOL    HW1 3119   6.118   1.781   2.695
  740SOL    HW2 3120   6.066   1.744   2.845
  741SOL     OW 3121   1.768   0.841   4.710
  741SOL    HW1 3122   1.867   0.832   4.693
  741SOL    HW2 3123   1.745   0.937   4.723
  742SOL     OW 3124   2.236   5.933   1.432
  742SOL    HW1 3125   2.153   5.940   1.489
  742SOL    HW2 3126   2.221   5.867   1.359
  743SOL     OW 3127   0.267   6.250   2.965
  743SOL    HW1 3128   0.261   6.312   3.044
  743SOL    HW2 3129   0.341   6.185   2.979
  744SOL     OW 3130   6.263   0.919   0.449
  744SOL    HW1 3131   6.322   0.965   0.382
  744SOL    HW2 3132   6.320   0.870   0.514
  745SOL     OW 3133   2.203   6.013   5.221
  745SOL    HW1 3134   2.201   6.099   5.169
  745SOL    HW2 3135   2.163   5.940   5.166
  746SOL     OW 3136   6.045   4.695   5.503
  746SOL    HW1 3137   6.134   4.720   5.541
  746SOL    HW2 3138   6.050   4.697   5.403
  747SOL     OW 3139   5.384   6.043   4.157
  747SOL    HW1 3140   5.302   6.085   4.118
  747SOL    HW2 3141   5.454   6.114   4.169
  748SOL     OW 3142   5.015   5.168   2.556
  748SOL    HW1 3143   4.942   5.123   2.506
  748SOL    HW2 3144   5.100   5.116   2.546
  749SOL     OW 3145   5.487   3.683   3.765
  749SOL    HW1 3146   5.571   3.688   3.819
  749SOL    HW2 3147   5.504   3.721   3.674
  750SOL     OW 3148   3.385   0.648   1.200
  750SOL    HW1 3149   3.389   0.549   1.212
  750SOL    HW2 3150   3.298   0.672   1.157
  751SOL     OW 3151   5.083   1.837   1.435
  751SOL    HW1 3152   5.145   1.824   1.358
  751SOL    HW2 3153   5.087   1.932   1.465
  752SOL     OW 3154   3.383   2.544   6.462
  752SOL    HW1 3155   3.436   2.501   6.535
  752SOL    HW2 3156   3.288   2.513   6.468
  753SOL     OW 3157   3.029   3.557   5.575
  753SOL    HW1 3158   3.008   3.479   5.516
  753SOL    HW2 3159   3.001   3.536   5.669
  754SOL     OW 3160   4.545   1.133   0.290
  754SOL    HW1 3161   4.533   1.041   0.251
  754SOL    HW2 3162   4.485   1.143   0.370
  755SOL     OW 3163   2.743   4.578   5.419
  755SOL    HW1 3164   2.669   4.640   5.394
  755SOL    HW2 3165   2.802   4.562   5.339
  756SOL     OW 3166   3.010   4.634   0.180
  756SOL    HW1 3167   3.063   4.582   0.114
  756SOL    HW2 3168   3.012   4.731   0.156
  757SOL     OW 3169   2.290   6.798   2.472
  757SOL    HW1 3170   2.368   6.849   2.435
  757SOL    HW2 3171   2.219   6.791   2.401
  758SOL     OW 3172   3.518   1.144   4.085
  758SOL    HW1 3173   3.479   1.215   4.027
  758SOL    HW2 3174   3.612   1.168   4.110
  759SOL     OW 3175   0.101   2.457   3.084
  759SOL    HW1 3176   0.110   2.557   3.087
  759SOL    HW2 3177   0.190   2.416   3.061
  760SOL     OW 3178   6.180   6.812   3.980
  760SOL    HW1 3179   6.173   6.748   4.057
  760SOL    HW2 3180   6.261   6.868   3.991
  761SOL     OW 3181   5.891   4.715   5.728
  761SOL    HW1 3182   5.946   4.706   5.646
  761SOL    HW2 3183   5.951   4.722   5.808
  762SOL     OW 3184   2.309   6.854   5.828
  762SOL    HW1 3185   2.304   6.932   5.890
  762SOL    HW2 3186   2.217   6.834   5.792
  763SOL     OW 3187   5.058   0.287   6.242
  763SOL    HW1 3188   4.981   0.345   6.214
  763SOL    HW2 3189   5.043   0.252   6.334
  764SOL     OW 3190   6.133   1.269   5.150
  764SOL    HW1 3191   6.146   1.296   5.055
  764SOL    HW2 3192   6.203   1.313   5.207
  765SOL     OW 3193   1.366   6.372   0.348
  765SOL    HW1 3194   1.397   6.422   0.429
  765SOL    HW2 3195   1.405   6.413   0.266
  766SOL     OW 3196   2.739   1.998   5.062
  766SOL    HW1 3197   2.737   2.034   5.155
  766SOL    HW2 3198   2.717   2.071   4.997
  767SOL     OW 3199   6.460   6.590   3.732
  767SOL    HW1 3200   6.360   6.599   3.734
  767SOL    HW2 3201   6.494   6.581   3.826
  768SOL     OW 3202   2.218   6.745   3.291
  768SOL    HW1 3203   2.168   6.670   3.334
  768SOL    HW2 3204   2.204   6.829   3.344
  769SOL     OW 3205   3.614   1.548   4.970
  769SOL    HW1 3206   3.644   1.587   5.057
  769SOL    HW2 3207   3.526   1.588   4.944
  770SOL     OW 3208   2.144   4.693   4.342
  770SOL    HW1 3209   2.095   4.713   4.258
  770SOL    HW2 3210   2.207   4.618   4.327
  771SOL     OW 3211   1.493   5.522   3.295
  771SOL    HW1 3212   1.407   5.546   3.340
  771SOL    HW2 3213   1.543   5.458   3.353
  772SOL     OW 3214   5.621   4.995   6.145
  772SOL    HW1 3215   5.684   4.936   6.196
  772SOL    HW2 3216   5.673   5.048   6.078
  773SOL     OW 3217   1.337   3.960   2.744
  773SOL    HW1 3218   1.402   3.951   2.820
  773SOL    HW2 3219   1.341   4.053   2.708
  774SOL     OW 3220   2.657   1.420   3.125
  774SOL    HW1 3221   2.684   1.493   3.062
  774SOL    HW2 3222   2.735   1.396   3.183
  775SOL     OW 3223   1.886   2.568   4.256
  775SOL    HW1 3224   1.829   2.575   4.337
  775SOL    HW2 3225   1.956   2.639   4.258
  776SOL     OW 3226   6.793   0.236   6.577
  776SOL    HW1 3227   6.738   0.174   6.632
  776SOL    HW2 3228   6.831   0.186   6.499
  777SOL     OW 3229   1.525   3.273   0.952
  777SOL    HW1 3230   1.475   3.206   1.006
  777SOL    HW2 3231   1.592   3.320   1.010
  778SOL     OW 3232   2.589   0.147   1.481
  778SOL    HW1 3233   2.495   0.145   1.514
  778SOL    HW2 3234   2.644   0.208   1.538
  779SOL     OW 3235   0.096   2.578   1.801
  779SOL    HW1 3236   0.126   2.663   1.758
  779SOL    HW2 3237   0.177   2.526   1.829
  780SOL     OW 3238   1.216   2.777   4.512
  780SOL    HW1 3239   1.184   2.854   4.457
  780SOL    HW2 3240   1.307   2.750   4.481
  781SOL     OW 3241   6.532   5.103   6.613
  781SOL    HW1 3242   6.464   5.071   6.678
  781SOL    HW2 3243   6.547   5.201   6.627
  782SOL     OW 3244   2.127   4.168   5.635
  782SOL    HW1 3245   2.208   4.204   5.681
  782SOL    HW2 3246   2.154   4.118   5.553
  783SOL     OW 3247   5.490   5.458   0.460
  783SOL    HW1 3248   5.410   5.517   0.453
  783SOL    HW2 3249   5.524   5.459   0.554
  784SOL     OW 3250   2.793   5.681   2.193
  784SOL    HW1 3251   2.715   5.670   2.131
  784SOL    HW2 3252   2.770   5.747   2.264
  785SOL     OW 3253   0.334   1.229   3.687
  785SOL    HW1 3254   0.268   1.257   3.756
  785SOL    HW2 3255   0.426   1.253   3.717
  786SOL     OW 3256   6.574   1.142   2.884
  786SOL    HW1 3257   6.613   1.166   2.795
  786SOL    HW2 3258   6.609   1.204   2.954
  787SOL     OW 3259   2.296   0.212   0.205
  787SOL    HW1 3260   2.314   0.276   0.279
  787SOL    HW2 3261   2.359   0.135   0.211
  788SOL     OW 3262   3.993   2.649   1.687
  788SOL    HW1 3263   4.034   2.558   1.674
  788SOL    HW2 3264   3.902   2.638   1.728
  789SOL     OW 3265   4.301   5.706   2.244
  789SOL    HW1 3266   4.257   5.684   2.158
  789SOL    HW2 3267   4.246   5.672   2.320
  790SOL     OW 3268   1.820   1.517   1.933
  790SOL    HW1 3269   1.861   1.434   1.896
  790SOL    HW2 3270   1.891   1.573   1.977
  791SOL     OW 3271   2.620   6.470   5.532
  791SOL    HW1 3272   2.644   6.404   5.604
  791SOL    HW2 3273   2.539   6.439   5.483
  792SOL     OW 3274   0.789   1.045   1.051
  792SOL    HW1 3275   0.717   1.040   0.982
  792SOL    HW2 3276   0.753   1.017   1.140
  793SOL     OW 3277   4.719   5.841   5.019
  793SOL    HW1 3278   4.668   5.877   4.941
  793SOL    HW2 3279   4.671   5.761   5.056
  794SOL     OW 3280   3.497   3.393   5.112
  794SOL    HW1 3281   3.590   3.367   5.138
  794SOL    HW2 3282   3.451   3.314   5.072
  795SOL     OW 3283   4.008   0.538   5.865
  795SOL    HW1 3284   4.062   0.521   5.783
  795SOL    HW2 3285   3.910   0.528   5.844
  796SOL     OW 3286   2.082   2.813   6.781
  796SOL    HW1 3287   2.066   2.748   6.855
  796SOL    HW2 3288   2.148   2.882   6.812
  797SOL     OW 3289   3.923   0.010   0.671
  797SOL    HW1 3290   4.012   0.054   0.660
  797SOL    HW2 3291   3.859   0.048   0.604
  798SOL     OW 3292   3.124   6.103   1.416
  798SOL    HW1 3293   3.202   6.162   1.437
  798SOL    HW2 3294   3.050   6.158   1.376
  799SOL     OW 3295   0.045   1.710   6.121
  799SOL    HW1 3296   7.017   1.790   6.152
  799SOL    HW2 3297   0.119   1.689   6.185
  800SOL     OW 3298   0.092   1.653   2.267
  800SOL    HW1 3299   0.080   1.741   2.220
  800SOL    HW2 3300   0.050   1.581   2.212
  801SOL     OW 3301   2.020   4.864   5.299
  801SOL    HW1 3302   2.079   4.793   5.261
  801SOL    HW2 3303   1.926   4.831   5.300
  802SOL     OW 3304   4.101   2.147   6.350
  802SOL    HW1 3305   4.172   2.201   6.306
  802SOL    HW2 3306   4.104   2.053   6.315
  803SOL     OW 3307   2.375   0.314   5.845
  803SOL    HW1 3308   2.455   0.343   5.791
  803SOL    HW2 3309   2.405   0.288   5.936
  804SOL     OW 3310   6.350   6.476   1.630
  804SOL    HW1 3311   6.418   6.514   1.692
  804SOL    HW2 3312   6.326   6.383   1.660
  805SOL     OW 3313   1.842   0.032   3.779
  805SOL    HW1 3314   1.907   0.040   3.703
  805SOL    HW2 3315   1.885   7.002   3.854
  806SOL     OW 3316   0.253   0.460   5.561
  806SOL    HW1 3317   0.277   0.366   5.586
  806SOL    HW2 3318   0.336   0.513   5.543
  807SOL     OW 3319   0.737   6.908   4.396
  807SOL    HW1 3320   0.684   6.835   4.439
  807SOL    HW2 3321   0.833   6.879   4.389
  808SOL     OW 3322   5.768   3.208   0.215
  808SOL    HW1 3323   5.825   3.127   0.229
  808SOL    HW2 3324   5.675   3.179   0.191
  809SOL     OW 3325   0.574   5.316   6.997
  809SOL    HW1 3326   0.661   5.365   6.991
  809SOL    HW2 3327   0.575   5.239   6.933
  810SOL     OW 3328   2.857   3.432   0.566
  810SOL    HW1 3329   2.880   3.497   0.639
  810SOL    HW2 3330   2.940   3.391   0.530
  811SOL     OW 3331   5.585   5.171   4.512
  811SOL    HW1 3332   5.629   5.246   4.463
  811SOL    HW2 3333   5.519   5.208   4.577
  812SOL     OW 3334   0.363   2.466   2.740
  812SOL    HW1 3335   0.335   2.547   2.791
  812SOL    HW2 3336   0.285   2.406   2.728
  813SOL     OW 3337   2.663   0.359   4.014
  813SOL    HW1 3338   2.629   0.407   4.095
  813SOL    HW2 3339   2.606   0.279   3.996
  814SOL     OW 3340   6.624   5.941   2.264
  814SOL    HW1 3341   6.693   5.875   2.236
  814SOL    HW2 3342   6.617   6.013   2.195
  815SOL     OW 3343   5.058   2.971   3.792
  815SOL    HW1 3344   5.054   2.872   3.797
  815SOL    HW2 3345   5.148   3.003   3.823
  816SOL     OW 3346   4.800   4.353   0.445
  816SOL    HW1 3347   4.737   4.400   0.507
  816SOL    HW2 3348   4.759   4.345   0.355
  817SOL     OW 3349   1.193   5.131   1.407
  817SOL    HW1 3350   1.099   5.124   1.374
  817SOL    HW2 3351   1.248   5.181   1.341
  818SOL     OW 3352   5.503   2.781   3.909
  818SOL    HW1 3353   5.578   2.774   3.842
  818SOL    HW2 3354   5.463   2.691   3.924
  819SOL     OW 3355   5.364   2.898   1.546
  819SOL    HW1 3356   5.316   2.814   1.522
  819SOL    HW2 3357   5.321   2.976   1.500
  820SOL     OW 3358   3.239   2.081   4.376
  820SOL    HW1 3359   3.146   2.072   4.342
  820SOL    HW2 3360   3.237   2.113   4.471
  821SOL     OW 3361   5.608   5.000   4.880
  821SOL    HW1 3362   5.674   4.931   4.852
  821SOL    HW2 3363   5.516   4.972   4.852
  822SOL     OW 3364   0.429   4.471   3.302
  822SOL    HW1 3365   0.491   4.543   3.271
  822SOL    HW2 3366   0.361   4.453   3.231
  823SOL     OW 3367   7.011   3.931   5.729
  823SOL    HW1 3368   0.086   3.952   5.743
  823SOL    HW2 3369   6.968   4.005   5.676
  824SOL     OW 3370   5.843   1.315   5.111
  824SOL    HW1 3371   5.936   1.321   5.146
  824SOL    HW2 3372   5.840   1.345   5.016
  825SOL     OW 3373   6.377   5.663   1.103
  825SOL    HW1 3374   6.284   5.688   1.075
  825SOL    HW2 3375   6.375   5.574   1.148
  826SOL     OW 3376   3.841   2.341   6.183
  826SOL    HW1 3377   3.868   2.286   6.105
  826SOL    HW2 3378   3.764   2.297   6.230
  827SOL     OW 3379   2.980   4.339   5.353
  827SOL    HW1 3380   2.894   4.317   5.400
  827SOL    HW2 3381   2.960   4.391   5.270
  828SOL     OW 3382   6.346   5.540   5.145
  828SOL    HW1 3383   6.292   5.595   5.081
  828SOL    HW2 3384   6.415   5.488   5.094
  829SOL     OW 3385   3.424   2.849   2.251
  829SOL    HW1 3386   3.375   2.838   2.337
  829SOL    HW2 3387   3.521   2.863   2.269
  830SOL     OW 3388   6.071   4.829   6.566
  830SOL    HW1 3389   6.052   4.909   6.509
  830SOL    HW2 3390   6.082   4.749   6.507
  831SOL     OW 3391   5.730   6.852   0.977
  831SOL    HW1 3392   5.649   6.885   1.025
  831SOL    HW2 3393   5.775   6.929   0.932
  832SOL     OW 3394   4.367   1.012   4.190
  832SOL    HW1 3395   4.312   0.968   4.119
  832SOL    HW2 3396   4.342   1.109   4.195
  833SOL     OW 3397   1.378   4.024   6.699
  833SOL    HW1 3398   1.283   3.999   6.680
  833SOL    HW2 3399   1.402   3.993   6.791
  834SOL     OW 3400   4.985   3.532   6.797
  834SOL    HW1 3401   5.064   3.509   6.854
  834SOL    HW2 3402   4.902   3.530   6.853
  835SOL     OW 3403   1.890   0.569   5.430
  835SOL    HW1 3404   1.878   0.527   5.341
  835SOL    HW2 3405   1.859   0.664   5.426
  836SOL     OW 3406   3.109   1.367   5.621
  836SOL    HW1 3407   3.146   1.399   5.534
  836SOL    HW2 3408   3.021   1.322   5.606
  837SOL     OW 3409   1.154   0.018   1.709
  837SOL    HW1 3410   1.156   6.957   1.652
  837SOL    HW2 3411   1.145   0.099   1.652
  838SOL     OW 3412   2.229   6.085   4.508
  838SOL    HW1 3413   2.220   5.986   4.503
  838SOL    HW2 3414   2.246   6.122   4.416
  839SOL     OW 3415   2.490   1.597   1.522
  839SOL    HW1 3416   2.503   1.612   1.620
  839SOL    HW2 3417   2.565   1.639   1.471
  840SOL     OW 3418   5.988   5.873   0.073
  840SOL    HW1 3419   5.971   5.963   0.032
  840SOL    HW2 3420   5.903   5.840   0.115
  841SOL     OW 3421   3.832   5.873   6.280
  841SOL    HW1 3422   3.779   5.845   6.200
  841SOL    HW2 3423   3.860   5.792   6.332
  842SOL     OW 3424   3.010   6.308   0.036
  842SOL    HW1 3425   3.019   6.237   0.105
  842SOL    HW2 3426   3.064   6.283   6.977
  843SOL     OW 3427   2.701   2.010   2.163
  843SOL    HW1 3428   2.765   2.010   2.086
  843SOL    HW2 3429   2.671   2.104   2.182
  844SOL     OW 3430   0.016   6.768   0.991
  844SOL    HW1 3431   0.110   6.794   1.017
  844SOL    HW2 3432   0.012   6.669   0.976
  845SOL     OW 3433   4.901   2.484   3.335
  845SOL    HW1 3434   4.805   2.507   3.318
  845SOL    HW2 3435   4.954   2.505   3.253
  846SOL     OW 3436   2.707   0.791   6.519
  846SOL    HW1 3437   2.766   0.714   6.493
  846SOL    HW2 3438   2.697   0.852   6.440
  847SOL     OW 3439   2.148   3.279   1.799
  847SOL    HW1 3440   2.230   3.322   1.835
  847SOL    HW2 3441   2.075   3.283   1.868
  848SOL     OW 3442   6.804   6.766   5.868
  848SOL    HW1 3443   6.727   6.718   5.828
  848SOL    HW2 3444   6.835   6.838   5.806
  849SOL     OW 3445   5.923   3.775   0.071
  849SOL    HW1 3446   5.828   3.794   0.093
  849SOL    HW2 3447   5.970   3.861   0.049
  850SOL     OW 3448   0.381   0.417   4.746
  850SOL    HW1 3449   0.366   0.342   4.809
  850SOL    HW2 3450   0.477   0.419   4.717
  851SOL     OW 3451   6.727   3.071   7.017
  851SOL    HW1 3452   6.734   2.988   6.963
  851SOL    HW2 3453   6.779   3.061   0.081
  852SOL     OW 3454   0.238   4.863   0.455
  852SOL    HW1 3455   0.144   4.863   0.490
  852SOL    HW2 3456   0.291   4.933   0.501
  853SOL     OW 3457   2.326   4.289   6.317
  853SOL    HW1 3458   2.348   4.320   6.410
  853SOL    HW2 3459   2.362   4.197   6.303
  854SOL     OW 3460   5.456   6.838   0.032
  854SOL    HW1 3461   5.506   6.752   0.045
  854SOL    HW2 3462   5.457   6.890   0.117
  855SOL     OW 3463   6.226   0.640   0.255
  855SOL    HW1 3464   6.310   0.586   0.253
  855SOL    HW2 3465   6.241   0.722   0.312
  856SOL     OW 3466   1.058   6.440   5.664
  856SOL    HW1 3467   0.993   6.382   5.713
  856SOL    HW2 3468   1.146   6.394   5.657
  857SOL     OW 3469   0.037   5.024   2.887
  857SOL    HW1 3470   0.088   5.002   2.970
  857SOL    HW2 3471   6.972   5.069   2.912
  858SOL     OW 3472   3.001   3.452   1.228
  858SOL    HW1 3473   3.089   3.485   1.193
  858SOL    HW2 3474   2.965   3.519   1.294
  859SOL     OW 3475   5.127   6.167   5.537
  859SOL    HW1 3476   5.192   6.135   5.606
  859SOL    HW2 3477   5.072   6.241   5.575
  860SOL     OW 3478   5.591   2.811   6.577
  860SOL    HW1 3479   5.517   2.873   6.553
  860SOL    HW2 3480   5.585   2.729   6.521
  861SOL     OW 3481   2.057   5.749   3.294
  861SOL    HW1 3482   2.156   5.756   3.283
  861SOL    HW2 3483   2.012   5.800   3.220
  862SOL     OW 3484   2.041   5.108   3.803
  862SOL    HW1 3485   2.101   5.028   3.809
  862SOL    HW2 3486   2.018   5.124   3.707
  863SOL     OW 3487   5.976   1.145   5.986
  863SOL    HW1 3488   6.066   1.123   5.948
  863SOL    HW2 3489   5.931   1.060   6.013
  864SOL     OW 3490   4.973   0.091   5.014
  864SOL    HW1 3491   4.906   0.164   5.030
  864SOL    HW2 3492   4.925   0.008   4.988
  865SOL     OW 3493   1.618   6.913   5.580
  865SOL    HW1 3494   1.685   6.865   5.637
  865SOL    HW2 3495   1.624   7.011   5.598
  866SOL     OW 3496   3.924   6.700   0.965
  866SOL    HW1 3497   3.898   6.610   0.930
  866SOL    HW2 3498   4.016   6.722   0.935
  867SOL     OW 3499   5.489   3.180   0.326
  867SOL    HW1 3500   5.483   3.183   0.426
  867SOL    HW2 3501   5.530   3.264   0.292
  868SOL     OW 3502   0.125   2.308   2.734
  868SOL    HW1 3503   0.115   2.215   2.770
  868SOL    HW2 3504   0.040   2.359   2.750
  869SOL     OW 3505   6.706   3.691   3.676
  869SOL    HW1 3506   6.782   3.656   3.621
  869SOL    HW2 3507   6.640   3.737   3.618
  870SOL     OW 3508   4.170   4.360   1.083
  870SOL    HW1 3509   4.266   4.368   1.056
  870SOL    HW2 3510   4.153   4.269   1.119
  871SOL     OW 3511   5.371   2.255   4.251
  871SOL    HW1 3512   5.419   2.231   4.167
  871SOL    HW2 3513   5.327   2.344   4.240
  872SOL     OW 3514   0.282   2.442   4.782
  872SOL    HW1 3515   0.204   2.438   4.844
  872SOL    HW2 3516   0.321   2.534   4.783
  873SOL     OW 3517   4.352   6.154   5.714
  873SOL    HW1 3518   4.410   6.086   5.760
  873SOL    HW2 3519   4.370   6.244   5.753
  874SOL     OW 3520   5.981   4.315   0.110
  874SOL    HW1 3521   6.008   4.410   0.097
  874SOL    HW2 3522   5.996   4.289   0.206
  875SOL     OW 3523   4.934   5.793   0.429
  875SOL    HW1 3524   4.984   5.707   0.428
  875SOL    HW2 3525   4.999   5.870   0.428
  876SOL     OW 3526   0.627   5.208   2.064
  876SOL    HW1 3527   0.552   5.258   2.109
  876SOL    HW2 3528   0.670   5.147   2.130
  877SOL     OW 3529   3.421   4.061   6.103
  877SOL    HW1 3530   3.344   4.001   6.127
  877SOL    HW2 3531   3.449   4.114   6.183
  878SOL     OW 3532   5.015   6.970   4.233
  878SOL    HW1 3533   5.088   6.979   4.165
  878SOL    HW2 3534   5.036   0.004   4.313
  879SOL     OW 3535   3.808   0.510   1.576
  879SOL    HW1 3536   3.824   0.579   1.505
  879SOL    HW2 3537   3.710   0.495   1.587
  880SOL     OW 3538   3.798   4.003   4.369
  880SOL    HW1 3539   3.759   3.927   4.421
  880SOL    HW2 3540   3.739   4.083   4.379
  881SOL     OW 3541   4.835   3.157   4.890
  881SOL    HW1 3542   4.772   3.234   4.881
  881SOL    HW2 3543   4.846   3.134   4.987
  882SOL     OW 3544   1.035   3.150   3.902
  882SOL    HW1 3545   1.088   3.122   3.822
  882SOL    HW2 3546   0.943   3.176   3.873
  883SOL     OW 3547   3.491   0.782   1.409
  883SOL    HW1 3548   3.435   0.786   1.492
  883SOL    HW2 3549   3.448   0.720   1.343
  884SOL     OW 3550   5.324   3.681   5.997
  884SOL    HW1 3551   5.249   3.628   5.959
  884SOL    HW2 3552   5.307   3.779   5.982
  885SOL     OW 3553   3.352   1.346   4.899
  885SOL    HW1 3554   3.435   1.297   4.927
  885SOL    HW2 3555   3.374   1.442   4.881
  886SOL     OW 3556   3.770   0.084   0.159
  886SOL    HW1 3557   3.782   0.062   0.256
  886SOL    HW2 3558   3.828   0.162   0.135
  887SOL     OW 3559   3.961   6.519   3.505
  887SOL    HW1 3560   3.990   6.450   3.571
  887SOL    HW2 3561   3.884   6.570   3.542
  888SOL     OW 3562   6.736   6.195   3.271
  888SOL    HW1 3563   6.811   6.130   3.284
  888SOL    HW2 3564   6.747   6.243   3.184
  889SOL     OW 3565   6.733   3.566   0.704
  889SOL    HW1 3566   6.820   3.516   0.711
  889SOL    HW2 3567   6.719   3.595   0.609
  890SOL     OW 3568   1.192   5.569   2.859
  890SOL    HW1 3569   1.267   5.572   2.924
  890SOL    HW2 3570   1.227   5.577   2.766
  891SOL     OW 3571   5.817   4.928   0.526
  891SOL    HW1 3572   5.853   4.883   0.608
  891SOL    HW2 3573   5.719   4.945   0.537
  892SOL     OW 3574   2.564   3.991   5.578
  892SOL    HW1 3575   2.509   4.073   5.562
  892SOL    HW2 3576   2.581   3.946   5.491
  893SOL     OW 3577   2.208   6.498   3.007
  893SOL    HW1 3578   2.242   6.459   3.092
  893SOL    HW2 3579   2.272   6.476   2.933
  894SOL     OW 3580   0.928   2.614   2.168
  894SOL    HW1 3581   0.888   2.533   2.211
  894SOL    HW2 3582   0.982   2.586   2.088
  895SOL     OW 3583   0.550   4.737   3.774
  895SOL    HW1 3584   0.464   4.762   3.729
  895SOL    HW2 3585   0.590   4.818   3.817
  896SOL     OW 3586   5.479   5.094   0.906
  896SOL    HW1 3587   5.485   5.014   0.965
  896SOL    HW2 3588   5.484   5.177   0.962
  897SOL     OW 3589   3.904   1.311   6.807
  897SOL    HW1 3590   3.824   1.296   6.749
  897SOL    HW2 3591   3.905   1.243   6.881
  898SOL     OW 3592   3.051   6.431   3.007
  898SOL    HW1 3593   3.117   6.441   2.932
  898SOL    HW2 3594   3.097   6.395   3.088
  899SOL     OW 3595   0.130   6.574   0.079
  899SOL    HW1 3596   0.073   6.546   0.156
  899SOL    HW2 3597   0.103   6.666   0.050
  900SOL     OW 3598   5.811   6.865   0.603
  900SOL    HW1 3599   5.773   6.809   0.677
  900SOL    HW2 3600   5.910   6.873   0.615
  901SOL     OW 3601   2.423   6.726   2.955
  901SOL    HW1 3602   2.495   6.793   2.968
  901SOL    HW2 3603   2.396   6.689   3.045
  902SOL     OW 3604   0.378   2.289   0.539
  902SOL    HW1 3605   0.296   2.233   0.532
  902SOL    HW2 3606   0.353   2.382   0.566
  903SOL     OW 3607   0.062   2.334   7.016
  903SOL    HW1 3608   0.048   2.237   7.000
  903SOL    HW2 3609   0.078   2.350   0.092
  904SOL     OW 3610   2.521   2.259   2.922
  904SOL    HW1 3611   2.505   2.161   2.909
  904SOL    HW2 3612   2.613   2.273   2.958
  905SOL     OW 3613   5.051   1.777   6.880
  905SOL    HW1 3614   4.966   1.797   6.832
  905SOL    HW2 3615   5.030   1.722   6.961
  906SOL     OW 3616   6.937   1.929   6.216
  906SOL    HW1 3617   6.974   2.018   6.191
  906SOL    HW2 3618   6.843   1.921   6.182
  907SOL     OW 3619   5.069   3.355   0.611
  907SOL    HW1 3620   5.125   3.361   0.693
  907SOL    HW2 3621   5.022   3.267   0.608
  908SOL     OW 3622   2.339   4.447   2.499
  908SOL    HW1 3623   2.394   4.467   2.418
  908SOL    HW2 3624   2.388   4.477   2.581
  909SOL     OW 3625   4.464   5.719   1.090
  909SOL    HW1 3626   4.538   5.772   1.049
  909SOL    HW2 3627   4.376   5.760   1.065
  910SOL     OW 3628   3.021   1.936   0.967
  910SOL    HW1 3629   2.957   1.898   0.901
  910SOL    HW2 3630   3.104   1.965   0.920
  911SOL     OW 3631   0.417   6.313   6.548
  911SOL    HW1 3632   0.460   6.251   6.613
  911SOL    HW2 3633   0.418   6.271   6.457
  912SOL     OW 3634   6.278   2.126   3.018
  912SOL    HW1 3635   6.184   2.104   3.045
  912SOL    HW2 3636   6.340   2.055   3.051
  913SOL     OW 3637   4.472   6.772   3.027
  913SOL    HW1 3638   4.533   6.711   3.077
  913SOL    HW2 3639   4.400   6.805   3.089
  914SOL     OW 3640   2.495   6.799   6.158
  914SOL    HW1 3641   2.398   6.805   6.179
  914SOL    HW2 3642   2.513   6.847   6.072
  915SOL     OW 3643   6.060   4.405   6.690
  915SOL    HW1 3644   6.053   4.353   6.606
  915SOL    HW2 3645   5.969   4.436   6.718
  916SOL     OW 3646   1.763   2.524   1.769
  916SOL    HW1 3647   1.773   2.600   1.832
  916SOL    HW2 3648   1.666   2.506   1.753
  917SOL     OW 3649   0.636   6.675   0.728
  917SOL    HW1 3650   0.605   6.581   0.715
  917SOL    HW2 3651   0.631   6.699   0.825
  918SOL     OW 3652   3.200   0.526   0.666
  918SOL    HW1 3653   3.263   0.516   0.589
  918SOL    HW2 3654   3.107   0.535   0.632
  919SOL     OW 3655   5.662   1.653   2.726
  919SOL    HW1 3656   5.575   1.703   2.725
  919SOL    HW2 3657   5.647   1.562   2.764
  920SOL     OW 3658   2.538   3.776   1.702
  920SOL    HW1 3659   2.470   3.709   1.672
  920SOL    HW2 3660   2.496   3.866   1.707
  921SOL     OW 3661   5.018   5.908   4.073
  921SOL    HW1 3662   4.980   5.910   4.165
  921SOL    HW2 3663   5.036   5.813   4.046
  922SOL     OW 3664   3.923   3.769   4.794
  922SOL    HW1 3665   3.865   3.763   4.874
  922SOL    HW2 3666   3.933   3.864   4.766
  923SOL     OW 3667   2.550   3.307   7.004
  923SOL    HW1 3668   2.619   3.304   6.931
  923SOL    HW2 3669   2.596   3.315   0.071
  924SOL     OW 3670   6.169   4.164   1.693
  924SOL    HW1 3671   6.239   4.225   1.655
  924SOL    HW2 3672   6.140   4.099   1.622
  925SOL     OW 3673   0.084   2.639   0.070
  925SOL    HW1 3674   0.162   2.632   0.133
  925SOL    HW2 3675   0.119   2.655   6.998
  926SOL     OW 3676   6.862   0.826   1.294
  926SOL    HW1 3677   6.893   0.736   1.262
  926SOL    HW2 3678   6.764   0.836   1.277
  927SOL     OW 3679   5.272   3.592   3.991
  927SOL    HW1 3680   5.317   3.559   3.908
  927SOL    HW2 3681   5.289   3.690   4.001
  928SOL     OW 3682   2.359   5.786   0.378
  928SOL    HW1 3683   2.458   5.790   0.388
  928SOL    HW2 3684   2.316   5.774   0.467
  929SOL     OW 3685   7.005   1.021   6.880
  929SOL    HW1 3686   7.007   1.117   6.909
  929SOL    HW2 3687   6.970   1.015   6.786
  930SOL     OW 3688   5.157   5.932   6.474
  930SOL    HW1 3689   5.176   5.870   6.398
  930SOL    HW2 3690   5.080   5.896   6.528
  931SOL     OW 3691   6.969   1.658   4.836
  931SOL    HW1 3692   6.926   1.584   4.888
  931SOL    HW2 3693   6.942   1.650   4.739
  932SOL     OW 3694   2.484   1.765   2.780
  932SOL    HW1 3695   2.453   1.835   2.716
  932SOL    HW2 3696   2.503   1.807   2.869
  933SOL     OW 3697   1.419   5.592   3.035
  933SOL    HW1 3698   1.498   5.632   2.989
  933SOL    HW2 3699   1.447   5.553   3.123
  934SOL     OW 3700   2.768   5.660   5.928
  934SOL    HW1 3701   2.716   5.729   5.877
  934SOL    HW2 3702   2.716   5.574   5.931
  935SOL     OW 3703   5.028   4.391   4.063
  935SOL    HW1 3704   4.957   4.351   4.005
  935SOL    HW2 3705   5.111   4.404   4.011
  936SOL     OW 3706   1.046   6.427   6.042
  936SOL    HW1 3707   1.035   6.497   5.971
  936SOL    HW2 3708   1.132   6.442   6.091
  937SOL     OW 3709   5.692   1.690   5.548
  937SOL    HW1 3710   5.720   1.710   5.642
  937SOL    HW2 3711   5.595   1.667   5.547
  938SOL     OW 3712   6.334   5.505   4.484
  938SOL    HW1 3713   6.250   5.523   4.535
  938SOL    HW2 3714   6.330   5.413   4.444
  939SOL     OW 3715   0.291   0.027   4.026
  939SOL    HW1 3716   0.349   7.008   3.955
  939SOL    HW2 3717   0.280   0.125   4.008
  940SOL     OW 3718   0.566   3.873   0.684
  940SOL    HW1 3719   0.523   3.963   0.676
  940SOL    HW2 3720   0.659   3.877   0.647
  941SOL     OW 3721   5.188   0.717   6.414
  941SOL    HW1 3722   5.243   0.636   6.394
  941SOL    HW2 3723   5.128   0.737   6.336
  942SOL     OW 3724   6.120   6.690   1.332
  942SOL    HW1 3725   6.021   6.681   1.344
  942SOL    HW2 3726   6.155   6.612   1.281
  943SOL     OW 3727   1.801   4.796   2.615
  943SOL    HW1 3728   1.743   4.715   2.622
  943SOL    HW2 3729   1.822   4.815   2.519
  944SOL     OW 3730   0.705   5.432   4.881
  944SOL    HW1 3731   0.775   5.361   4.872
  944SOL    HW2 3732   0.620   5.399   4.840
  945SOL     OW 3733   0.090   4.645   5.312
  945SOL    HW1 3734   0.035   4.581   5.366
  945SOL    HW2 3735   0.162   4.594   5.264
  946SOL     OW 3736   4.609   4.880   4.372
  946SOL    HW1 3737   4.547   4.945   4.328
  946SOL    HW2 3738   4.659   4.927   4.445
  947SOL     OW 3739   3.735   3.164   3.879
  947SOL    HW1 3740   3.702   3.258   3.871
  947SOL    HW2 3741   3.831   3.161   3.852
  948SOL     OW 3742   4.721   1.315   2.653
  948SOL    HW1 3743   4.667   1.242   2.696
  948SOL    HW2 3744   4.764   1.371   2.724
  949SOL     OW 3745   3.168   5.887   0.435
  949SOL    HW1 3746   3.256   5.855   0.470
  949SOL    HW2 3747   3.129   5.816   0.376
  950SOL     OW 3748   5.783   5.555   2.538
  950SOL    HW1 3749   5.773   5.587   2.632
  950SOL    HW2 3750   5.694   5.528   2.502
  951SOL     OW 3751   1.170   0.333   3.692
  951SOL    HW1 3752   1.116   0.279   3.756
  951SOL    HW2 3753   1.193   0.421   3.732
  952SOL     OW 3754   4.137   2.281   2.873
  952SOL    HW1 3755   4.180   2.267   2.784
  952SOL    HW2 3756   4.091   2.196   2.901
  953SOL     OW 3757   5.848   5.768   4.947
  953SOL    HW1 3758   5.879   5.693   4.889
  953SOL    HW2 3759   5.833   5.735   5.040
  954SOL     OW 3760   3.644   6.058   2.406
  954SOL    HW1 3761   3.646   6.153   2.438
  954SOL    HW2 3762   3.658   6.057   2.307
  955SOL     OW 3763   1.818   4.469   0.103
  955SOL    HW1 3764   1.776   4.494   0.016
  955SOL    HW2 3765   1.779   4.383   0.136
  956SOL     OW 3766   6.606   0.660   1.544
  956SOL    HW1 3767   6.534   0.728   1.529
  956SOL    HW2 3768   6.694   0.706   1.555
  957SOL     OW 3769   6.265   1.733   1.644
  957SOL    HW1 3770   6.197   1.672   1.683
  957SOL    HW2 3771   6.287   1.704   1.551
  958SOL     OW 3772   4.404   6.227   2.089
  958SOL    HW1 3773   4.358   6.139   2.085
  958SOL    HW2 3774   4.357   6.292   2.029
  959SOL     OW 3775   3.438   6.394   4.641
  959SOL    HW1 3776   3.446   6.481   4.592
  959SOL    HW2 3777   3.394   6.326   4.582
  960SOL     OW 3778   1.583   0.278   1.070
  960SOL    HW1 3779   1.516   0.284   0.996
  960SOL    HW2 3780   1.664   0.228   1.039
  961SOL     OW 3781   4.098   6.670   3.333
  961SOL    HW1 3782   4.088   6.622   3.246
  961SOL    HW2 3783   4.054   6.617   3.405
  962SOL     OW 3784   6.546   1.289   3.965
  962SOL    HW1 3785   6.628   1.292   4.022
  962SOL    HW2 3786   6.573   1.275   3.869
  963SOL     OW 3787   4.696   1.330   0.500
  963SOL    HW1 3788   4.609   1.291   0.531
  963SOL    HW2 3789   4.679   1.398   0.429
  964SOL     OW 3790   4.521   5.120   5.466
  964SOL    HW1 3791   4.519   5.026   5.499
  964SOL    HW2 3792   4.616   5.148   5.450
  965SOL     OW 3793   6.123   1.665   2.011
  965SOL    HW1 3794   6.025   1.682   2.000
  965SOL    HW2 3795   6.137   1.570   2.040
  966SOL     OW 3796   5.067   2.833   3.538
  966SOL    HW1 3797   5.039   2.745   3.576
  966SOL    HW2 3798   5.051   2.905   3.606
  967SOL     OW 3799   2.993   5.080   6.986
  967SOL    HW1 3800   3.069   5.143   6.970
  967SOL    HW2 3801   2.922   5.096   6.917
  968SOL     OW 3802   3.897   6.446   1.529
  968SOL    HW1 3803   3.921   6.520   1.466
  968SOL    HW2 3804   3.822   6.476   1.588
  969SOL     OW 3805   2.477   5.184   5.372
  969SOL    HW1 3806   2.422   5.264   5.396
  969SOL    HW2 3807   2.523   5.199   5.285
  970SOL     OW 3808   5.487   0.631   6.055
  970SOL    HW1 3809   5.560   0.608   6.120
  970SOL    HW2 3810   5.411   0.672   6.105
  971SOL     OW 3811   0.147   3.347   2.698
  971SOL    HW1 3812   0.180   3.298   2.617
  971SOL    HW2 3813   0.222   3.357   2.763
  972SOL     OW 3814   6.872   2.711   2.028
  972SOL    HW1 3815   6.891   2.619   1.992
  972SOL    HW2 3816   6.787   2.709   2.080
  973SOL     OW 3817   0.414   4.816   6.557
  973SOL    HW1 3818   0.513   4.803   6.547
  973SOL    HW2 3819   0.368   4.777   6.477
  974SOL     OW 3820   0.755   5.308   2.330
  974SOL    HW1 3821   0.747   5.211   2.309
  974SOL    HW2 3822   0.665   5.346   2.348
  975SOL     OW 3823   2.580   6.784   0.391
  975SOL    HW1 3824   2.634   6.771   0.475
  975SOL    HW2 3825   2.642   6.796   0.313
  976SOL     OW 3826   6.989   4.002   1.272
  976SOL    HW1 3827   6.969   4.093   1.309
  976SOL    HW2 3828   6.996   3.937   1.347
  977SOL     OW 3829   0.531   0.947   2.135
  977SOL    HW1 3830   0.614   0.968   2.187
  977SOL    HW2 3831   0.452   0.989   2.180
  978SOL     OW 3832   5.506   1.650   0.977
  978SOL    HW1 3833   5.478   1.614   1.066
  978SOL    HW2 3834   5.494   1.578   0.908
  979SOL     OW 3835   0.669   2.856   6.476
  979SOL    HW1 3836   0.595   2.829   6.537
  979SOL    HW2 3837   0.712   2.940   6.511
  980SOL     OW 3838   4.275   1.334   4.615
  980SOL    HW1 3839   4.219   1.402   4.662
  980SOL    HW2 3840   4.245   1.242   4.642
  981SOL     OW 3841   0.824   0.072   5.010
  981SOL    HW1 3842   0.843   0.170   5.003
  981SOL    HW2 3843   0.909   0.020   4.996
  982SOL     OW 3844   0.753   1.519   5.568
  982SOL    HW1 3845   0.820   1.548   5.636
  982SOL    HW2 3846   0.776   1.561   5.480
  983SOL     OW 3847   7.020   3.407   2.953
  983SOL    HW1 3848   7.000   3.445   2.862
  983SOL    HW2 3849   0.087   3.361   2.951
  984SOL     OW 3850   1.411   2.080   2.716
  984SOL    HW1 3851   1.400   2.177   2.692
  984SOL    HW2 3852   1.335   2.051   2.774
  985SOL     OW 3853   6.607   4.189   4.450
  985SOL    HW1 3854   6.516   4.188   4.407
  985SOL    HW2 3855   6.642   4.096   4.458
  986SOL     OW 3856   4.540   5.204   1.104
  986SOL    HW1 3857   4.639   5.192   1.113
  986SOL    HW2 3858   4.498   5.207   1.195
  987SOL     OW 3859   5.488   6.595   2.512
  987SOL    HW1 3860   5.419   6.523   2.504
  987SOL    HW2 3861   5.491   6.628   2.606
  988SOL     OW 3862   3.278   3.829   2.356
  988SOL    HW1 3863   3.284   3.929   2.353
  988SOL    HW2 3864   3.200   3.799   2.301
  989SOL     OW 3865   6.543   2.127   0.116
  989SOL    HW1 3866   6.505   2.107   0.207
  989SOL    HW2 3867   6.502   2.065   0.049
  990SOL     OW 3868   3.823   0.057   2.812
  990SOL    HW1 3869   3.830   6.990   2.859
  990SOL    HW2 3870   3.767   0.119   2.866
  991SOL     OW 3871   6.795   4.470   3.430
  991SOL    HW1 3872   6.885   4.444   3.395
  991SOL    HW2 3873   6.742   4.513   3.357
  992SOL     OW 3874   1.069   3.255   1.472
  992SOL    HW1 3875   0.998   3.212   1.416
  992SOL    HW2 3876   1.070   3.353   1.455
  993SOL     OW 3877   0.595   4.000   0.933
  993SOL    HW1 3878   0.656   4.076   0.912
  993SOL    HW2 3879   0.589   3.940   0.853
  994SOL     OW 3880   3.561   5.411   1.115
  994SOL    HW1 3881   3.566   5.399   1.016
  994SOL    HW2 3882   3.466   5.425   1.143
  995SOL     OW 3883   4.178   3.083   5.664
  995SOL    HW1 3884   4.254   3.042   5.613
  995SOL    HW2 3885   4.138   3.157   5.610
  996SOL     OW 3886   3.719   5.479   5.279
  996SOL    HW1 3887   3.625   5.453   5.262
  996SOL    HW2 3888   3.763   5.507   5.193
  997SOL     OW 3889   1.249   0.108   3.577
  997SOL    HW1 3890   1.329   0.119   3.518
  997SOL    HW2 3891   1.216   0.197   3.607
  998SOL     OW 3892   6.642   0.128   6.308
  998SOL    HW1 3893   6.679   0.207   6.259
  998SOL    HW2 3894   6.577   0.080   6.249
  999SOL     OW 3895   4.992   3.959   1.547
  999SOL    HW1 3896   4.967   3.873   1.591
  999SOL    HW2 3897   5.091   3.972   1.552
 1000SOL     OW 3898   4.160   1.235   1.602
 1000SOL    HW1 3899   4.087   1.276   1.656
 1000SOL    HW2 3900   4.176   1.141   1.633
 1001SOL     OW 3901   3.391   5.912   2.140
 1001SOL    HW1 3902   3.366   5.860   2.059
 1001SOL    HW2 3903   3.397   6.009   2.117
 1002SOL     OW 3904   5.539   2.186   1.323
 1002SOL    HW1 3905   5.455   2.237   1.343
 1002SOL    HW2 3906   5.560   2.193   1.226
 1003SOL     OW 3907   1.677   5.660   2.545
 1003SOL    HW1 3908   1.775   5.680   2.542
 1003SOL    HW2 3909   1.627   5.734   2.501
 1004SOL     OW 3910   6.791   1.064   2.440
 1004SOL    HW1 3911   6.803   0.966   2.456
 1004SOL    HW2 3912   6.707   1.079   2.388
 1005SOL     OW 3913   1.521   4.419   4.020
 1005SOL    HW1 3914   1.448   4.352   4.028
 1005SOL    HW2 3915   1.544   4.434   3.924
 1006SOL     OW 3916   2.116   3.888   0.248
 1006SOL    HW1 3917   2.201   3.837   0.258
 1006SOL    HW2 3918   2.097   3.904   0.151
 1007SOL     OW 3919   4.112   1.570   6.265
 1007SOL    HW1 3920   4.190   1.630   6.286
 1007SOL    HW2 3921   4.081   1.525   6.348
 1008SOL     OW 3922   0.114   3.693   5.038
 1008SOL    HW1 3923   0.049   3.663   5.108
 1008SOL    HW2 3924   0.206   3.692   5.075
 1009SOL     OW 3925   6.303   4.786   5.634
 1009SOL    HW1 3926   6.274   4.764   5.727
 1009SOL    HW2 3927   6.382   4.730   5.609
 1010SOL     OW 3928   2.853   2.392   1.448
 1010SOL    HW1 3929   2.792   2.471   1.451
 1010SOL    HW2 3930   2.800   2.309   1.431
 1011SOL     OW 3931   0.225   5.878   3.469
 1011SOL    HW1 3932   0.323   5.877   3.450
 1011SOL    HW2 3933   0.201   5.801   3.528
 1012SOL     OW 3934   6.878   6.875   2.314
 1012SOL    HW1 3935   6.881   6.872   2.414
 1012SOL    HW2 3936   6.968   6.850   2.278
 1013SOL     OW 3937   6.843   1.306   6.047
 1013SOL    HW1 3938   6.753   1.346   6.031
 1013SOL    HW2 3939   6.850   1.218   6.000
 1014SOL     OW 3940   0.920   3.807   4.781
 1014SOL    HW1 3941   0.949   3.822   4.875
 1014SOL    HW2 3942   0.942   3.887   4.725
 1015SOL     OW 3943   2.517   0.604   6.441
 1015SOL    HW1 3944   2.531   0.530   6.507
 1015SOL    HW2 3945   2.573   0.682   6.467
 1016SOL     OW 3946   4.347   4.785   1.198
 1016SOL    HW1 3947   4.273   4.787   1.266
 1016SOL    HW2 3948   4.397   4.699   1.206
 1017SOL     OW 3949   2.704   1.729   1.404
 1017SOL    HW1 3950   2.777   1.755   1.467
 1017SOL    HW2 3951   2.734   1.651   1.348
 1018SOL     OW 3952   0.049   4.407   3.357
 1018SOL    HW1 3953   0.088   4.319   3.385
 1018SOL    HW2 3954   0.077   4.477   3.422
 1019SOL     OW 3955   6.572   5.004   0.366
 1019SOL    HW1 3956   6.501   5.026   0.300
 1019SOL    HW2 3957   6.650   4.961   0.319
 1020SOL     OW 3958   6.089   1.004   1.375
 1020SOL    HW1 3959   6.120   1.094   1.407
 1020SOL    HW2 3960   5.993   1.010   1.348
 1021SOL     OW 3961   6.364   6.341   2.344
 1021SOL    HW1 3962   6.434   6.273   2.365
 1021SOL    HW2 3963   6.399   6.432   2.365
 1022SOL     OW 3964   2.508   5.712   5.822
 1022SOL    HW1 3965   2.509   5.809   5.796
 1022SOL    HW2 3966   2.498   5.705   5.921
 1023SOL     OW 3967   0.197   0.335   2.631
 1023SOL    HW1 3968   0.264   0.367   2.564
 1023SOL    HW2 3969   0.241   0.321   2.719
 1024SOL     OW 3970   0.653   1.695   4.327
 1024SOL    HW1 3971   0.685   1.751   4.403
 1024SOL    HW2 3972   0.554   1.687   4.331
 1025SOL     OW 3973   4.788   2.816   0.374
 1025SOL    HW1 3974   4.690   2.834   0.377
 1025SOL    HW2 3975   4.829   2.835   0.463
 1026SOL     OW 3976   2.918   2.681   1.564
 1026SOL    HW1 3977   2.949   2.721   1.650
 1026SOL    HW2 3978   2.995   2.674   1.501
 1027SOL     OW 3979   1.928   0.074   1.668
 1027SOL    HW1 3980   1.998   0.007   1.641
 1027SOL    HW2 3981   1.951   0.110   1.759
 1028SOL     OW 3982   1.427   6.761   3.126
 1028SOL    HW1 3983   1.507   6.811   3.160
 1028SOL    HW2 3984   1.372   6.730   3.204
 1029SOL     OW 3985   1.238   2.439   6.075
 1029SOL    HW1 3986   1.208   2.349   6.044
 1029SOL    HW2 3987   1.332   2.432   6.109
 1030SOL     OW 3988   3.538   3.054   1.562
 1030SOL    HW1 3989   3.615   2.990   1.557
 1030SOL    HW2 3990   3.482   3.032   1.642
 1031SOL     OW 3991   4.479   3.178   1.473
 1031SOL    HW1 3992   4.577   3.191   1.490
 1031SOL    HW2 3993   4.445   3.101   1.526
 1032SOL     OW 3994   2.406   1.244   5.211
 1032SOL    HW1 3995   2.376   1.336   5.186
 1032SOL    HW2 3996   2.373   1.223   5.303
 1033SOL     OW 3997   1.890   6.021   2.227
 1033SOL    HW1 3998   1.874   5.948   2.161
 1033SOL    HW2 3999   1.985   6.052   2.220
 1034SOL     OW 4000   1.647   6.481   4.312
 1034SOL    HW1 4001   1.705   6.548   4.358
 1034SOL    HW2 4002   1.630   6.404   4.374
 1035SOL     OW 4003   0.312   2.135   6.203
 1035SOL    HW1 4004   0.373   2.200   6.158
 1035SOL    HW2 4005   0.307   2.051   6.148
 1036SOL     OW 4006   4.105   1.117   1.377
 1036SOL    HW1 4007   4.156   1.159   1.452
 1036SOL    HW2 4008   4.007   1.122   1.395
 1037SOL     OW 4009   1.292   1.646   3.112
 1037SOL    HW1 4010   1.232   1.708   3.063
 1037SOL    HW2 4011   1.346   1.592   3.047
 1038SOL     OW 4012   1.557   0.931   6.172
 1038SOL    HW1 4013   1.575   0.983   6.088
 1038SOL    HW2 4014   1.498   0.985   6.232
 1039SOL     OW 4015   2.993   3.277   3.942
 1039SOL    HW1 4016   3.013   3.264   3.845
 1039SOL    HW2 4017   3.033   3.201   3.995
 1040SOL     OW 4018   5.160   0.890   2.596
 1040SOL    HW1 4019   5.155   0.935   2.685
 1040SOL    HW2 4020   5.242   0.920   2.548
 1041SOL     OW 4021   0.203   6.913   3.588
 1041SOL    HW1 4022   0.242   6.845   3.650
 1041SOL    HW2 4023   0.194   7.001   3.636
 1042SOL     OW 4024   4.653   5.136   3.007
 1042SOL    HW1 4025   4.719   5.194   3.054
 1042SOL    HW2 4026   4.572   5.191   2.984
 1043SOL     OW 4027   4.234   2.090   3.416
 1043SOL    HW1 4028   4.293   2.165   3.388
 1043SOL    HW2 4029   4.187   2.053   3.336
 1044SOL     OW 4030   6.211   5.680   1.736
 1044SOL    HW1 4031   6.269   5.636   1.669
 1044SOL    HW2 4032   6.256   5.679   1.825
 1045SOL     OW 4033   3.468   0.450   2.954
 1045SOL    HW1 4034   3.395   0.488   3.011
 1045SOL    HW2 4035   3.481   0.507   2.873
 1046SOL     OW 4036   2.144   1.427   0.892
 1046SOL    HW1 4037   2.232   1.415   0.937
 1046SOL    HW2 4038   2.085   1.483   0.949
 1047SOL     OW 4039   3.174   0.422   4.073
 1047SOL    HW1 4040   3.074   0.420   4.070
 1047SOL    HW2 4041   3.209   0.456   3.986
 1048SOL     OW 4042   3.371   5.469   2.215
 1048SOL    HW1 4043   3.272   5.458   2.227
 1048SOL    HW2 4044   3.416   5.464   2.304
 1049SOL     OW 4045   5.066   6.969   3.717
 1049SOL    HW1 4046   5.038   6.931   3.629
 1049SOL    HW2 4047   5.165   6.986   3.715
 1050SOL     OW 4048   3.826   5.717   2.708
 1050SOL    HW1 4049   3.908   5.723   2.765
 1050SOL    HW2 4050   3.815   5.802   2.657
 1051SOL     OW 4051   0.323   5.947   0.621
 1051SOL    HW1 4052   0.351   5.898   0.703
 1051SOL    HW2 4053   0.321   5.883   0.543
 1052SOL     OW 4054   5.057   0.963   5.047
 1052SOL    HW1 4055   5.113   1.024   5.102
 1052SOL    HW2 4056   5.104   0.875   5.037
 1053SOL     OW 4057   5.714   4.002   2.731
 1053SOL    HW1 4058   5.669   3.943   2.664
 1053SOL    HW2 4059   5.758   3.945   2.801
 1054SOL     OW 4060   3.093   3.220   0.807
 1054SOL    HW1 4061   3.138   3.143   0.852
 1054SOL    HW2 4062   3.039   3.271   0.874
 1055SOL     OW 4063   4.593   6.440   6.437
 1055SOL    HW1 4064   4.575   6.456   6.534
 1055SOL    HW2 4065   4.671   6.378   6.428
 1056SOL     OW 4066   0.557   4.188   0.698
 1056SOL    HW1 4067   0.525   4.252   0.628
 1056SOL    HW2 4068   0.652   4.209   0.721
 1057SOL     OW 4069   3.920   2.229   1.619
 1057SOL    HW1 4070   3.834   2.281   1.616
 1057SOL    HW2 4071   3.943   2.206   1.713
 1058SOL     OW 4072   4.621   2.658   3.425
 1058SOL    HW1 4073   4.640   2.684   3.330
 1058SOL    HW2 4074   4.659   2.727   3.487
 1059SOL     OW 4075   2.278   6.957   1.934
 1059SOL    HW1 4076   2.348   0.001   1.905
 1059SOL    HW2 4077   2.191   7.004   1.945
 1060SOL     OW 4078   0.340   5.013   4.162
 1060SOL    HW1 4079   0.315   5.092   4.105
 1060SOL    HW2 4080   0.434   5.023   4.193
 1061SOL     OW 4081   6.584   3.521   6.752
 1061SOL    HW1 4082   6.681   3.543   6.749
 1061SOL    HW2 4083   6.563   3.471   6.836
 1062SOL     OW 4084   3.944   6.276   5.324
 1062SOL    HW1 4085   3.919   6.179   5.324
 1062SOL    HW2 4086   3.865   6.331   5.352
 1063SOL     OW 4087   0.187   6.944   0.042
 1063SOL    HW1 4088   0.211   0.020   0.037
 1063SOL    HW2 4089   0.271   6.890   0.049
 1064SOL     OW 4090   0.499   4.443   1.625
 1064SOL    HW1 4091   0.446   4.359   1.623
 1064SOL    HW2 4092   0.513   4.472   1.719
 1065SOL     OW 4093   3.301   0.530   3.847
 1065SOL    HW1 4094   3.249   0.516   3.763
 1065SOL    HW2 4095   3.331   0.626   3.852
 1066SOL     OW 4096   4.503   6.840   2.100
 1066SOL    HW1 4097   4.566   6.807   2.170
 1066SOL    HW2 4098   4.515   6.939   2.089
 1067SOL     OW 4099   2.176   0.657   6.991
 1067SOL    HW1 4100   2.230   0.587   0.016
 1067SOL    HW2 4101   2.199   0.658   6.894
 1068SOL     OW 4102   5.911   3.884   0.965
 1068SOL    HW1 4103   5.980   3.923   0.904
 1068SOL    HW2 4104   5.955   3.848   1.046
 1069SOL     OW 4105   5.379   5.382   0.963
 1069SOL    HW1 4106   5.433   5.350   1.041
 1069SOL    HW2 4107   5.285   5.401   0.994
 1070SOL     OW 4108   2.546   6.937   2.378
 1070SOL    HW1 4109   2.482   6.996   2.330
 1070SOL    HW2 4110   2.586   6.872   2.314
 1071SOL     OW 4111   1.119   1.873   4.601
 1071SOL    HW1 4112   1.166   1.961   4.594
 1071SOL    HW2 4113   1.056   1.862   4.525
 1072SOL     OW 4114   2.390   0.815   1.763
 1072SOL    HW1 4115   2.306   0.778   1.725
 1072SOL    HW2 4116   2.373   0.907   1.800
 1073SOL     OW 4117   5.607   2.259   3.151
 1073SOL    HW1 4118   5.621   2.216   3.241
 1073SOL    HW2 4119   5.595   2.188   3.082
 1074SOL     OW 4120   2.683   4.878   1.883
 1074SOL    HW1 4121   2.613   4.821   1.840
 1074SOL    HW2 4122   2.741   4.821   1.942
 1075SOL     OW 4123   6.240   1.810   4.139
 1075SOL    HW1 4124   6.202   1.848   4.223
 1075SOL    HW2 4125   6.320   1.863   4.111
 1076SOL     OW 4126   1.399   3.072   5.995
 1076SOL    HW1 4127   1.477   3.009   5.989
 1076SOL    HW2 4128   1.317   3.026   5.960
 1077SOL     OW 4129   0.014   6.831   0.228
 1077SOL    HW1 4130   0.062   6.792   0.306
 1077SOL    HW2 4131   0.080   6.864   0.161
 1078SOL     OW 4132   6.181   0.150   3.126
 1078SOL    HW1 4133   6.163   0.056   3.157
 1078SOL    HW2 4134   6.251   0.148   3.054
 1079SOL     OW 4135   1.450   5.239   1.954
 1079SOL    HW1 4136   1.519   5.282   1.897
 1079SOL    HW2 4137   1.360   5.250   1.912
 1080SOL     OW 4138   2.302   5.729   4.745
 1080SOL    HW1 4139   2.277   5.776   4.660
 1080SOL    HW2 4140   2.379   5.668   4.728
 1081SOL     OW 4141   6.905   5.492   4.717
 1081SOL    HW1 4142   6.895   5.591   4.711
 1081SOL    HW2 4143   6.922   5.454   4.627
 1082SOL     OW 4144   5.832   1.980   5.679
 1082SOL    HW1 4145   5.788   2.055   5.631
 1082SOL    HW2 4146   5.888   1.927   5.614
 1083SOL     OW 4147   4.809   3.113   0.045
 1083SOL    HW1 4148   4.774   3.099   6.974
 1083SOL    HW2 4149   4.791   3.206   0.074
 1084SOL     OW 4150   6.753   6.934   6.447
 1084SOL    HW1 4151   6.709   7.020   6.421
 1084SOL    HW2 4152   6.736   6.915   6.543
 1085SOL     OW 4153   2.076   3.646   3.734
 1085SOL    HW1 4154   1.982   3.615   3.716
 1085SOL    HW2 4155   2.092   3.733   3.687
 1086SOL     OW 4156   6.619   5.419   6.521
 1086SOL    HW1 4157   6.702   5.452   6.475
 1086SOL    HW2 4158   6.541   5.475   6.492
 1087SOL     OW 4159   1.033   1.259   5.249
 1087SOL    HW1 4160   1.120   1.266   5.297
 1087SOL    HW2 4161   1.036   1.316   5.167
 1088SOL     OW 4162   0.167   5.265   3.146
 1088SOL    HW1 4163   0.107   5.190   3.177
 1088SOL    HW2 4164   0.252   5.264   3.199
 1089SOL     OW 4165   0.783   5.439   5.145
 1089SOL    HW1 4166   0.879   5.414   5.158
 1089SOL    HW2 4167   0.761   5.437   5.047
 1090SOL     OW 4168   5.071   2.196   3.077
 1090SOL    HW1 4169   5.077   2.135   3.155
 1090SOL    HW2 4170   5.162   2.223   3.048
 1091SOL     OW 4171   1.907   3.640   3.431
 1091SOL    HW1 4172   1.826   3.630   3.373
 1091SOL    HW2 4173   1.903   3.728   3.478
 1092SOL     OW 4174   0.434   5.330   0.544
 1092SOL    HW1 4175   0.460   5.411   0.492
 1092SOL    HW2 4176   0.341   5.341   0.579
 1093SOL     OW 4177   2.756   6.881   1.570
 1093SOL    HW1 4178   2.690   6.861   1.498
 1093SOL    HW2 4179   2.837   6.823   1.559
 1094SOL     OW 4180   0.705   6.697   2.596
 1094SOL    HW1 4181   0.627   6.720   2.655
 1094SOL    HW2 4182   0.790   6.725   2.640
 1095SOL     OW 4183   0.472   2.202   6.676
 1095SOL    HW1 4184   0.457   2.139   6.599
 1095SOL    HW2 4185   0.384   2.240   6.705
 1096SOL     OW 4186   3.322   4.362   1.275
 1096SOL    HW1 4187   3.317   4.452   1.316
 1096SOL    HW2 4188   3.351   4.370   1.179
 1097SOL     OW 4189   2.028   5.645   2.937
 1097SOL    HW1 4190   1.972   5.720   2.972
 1097SOL    HW2 4191   2.013   5.636   2.838
 1098SOL     OW 4192   6.092   4.210   6.490
 1098SOL    HW1 4193   6.167   4.167   6.440
 1098SOL    HW2 4194   6.042   4.142   6.542
 1099SOL     OW 4195   4.449   1.240   6.595
 1099SOL    HW1 4196   4.384   1.290   6.652
 1099SOL    HW2 4197   4.538   1.284   6.598
 1100SOL     OW 4198   3.890   0.891   3.713
 1100SOL    HW1 4199   3.912   0.959   3.782
 1100SOL    HW2 4200   3.871   0.937   3.626
 1101SOL     OW 4201   5.203   4.141   4.961
 1101SOL    HW1 4202   5.243   4.226   4.995
 1101SOL    HW2 4203   5.212   4.137   4.862
 1102SOL     OW 4204   2.623   1.188   4.687
 1102SOL    HW1 4205   2.551   1.153   4.627
 1102SOL    HW2 4206   2.583   1.213   4.776
 1103SOL     OW 4207   2.290   1.325   0.108
 1103SOL    HW1 4208   2.249   1.338   0.198
 1103SOL    HW2 4209   2.280   1.408   0.054
 1104SOL     OW 4210   1.739   4.148   3.533
 1104SOL    HW1 4211   1.751   4.234   3.483
 1104SOL    HW2 4212   1.644   4.139   3.560
 1105SOL     OW 4213   4.837   2.913   4.767
 1105SOL    HW1 4214   4.782   2.859   4.831
 1105SOL    HW2 4215   4.827   3.010   4.788
 1106SOL     OW 4216   0.393   1.126   0.698
 1106SOL    HW1 4217   0.326   1.091   0.632
 1106SOL    HW2 4218   0.347   1.188   0.762
 1107SOL     OW 4219   0.894   0.744   0.095
 1107SOL    HW1 4220   0.955   0.809   0.050
 1107SOL    HW2 4221   0.946   0.694   0.164
 1108SOL     OW 4222   3.866   6.527   4.818
 1108SOL    HW1 4223   3.810   6.601   4.853
 1108SOL    HW2 4224   3.954   6.525   4.865
 1109SOL     OW 4225   5.883   1.809   4.340
 1109SOL    HW1 4226   5.902   1.785   4.435
 1109SOL    HW2 4227   5.785   1.799   4.321
 1110SOL     OW 4228   3.592   0.571   3.501
 1110SOL    HW1 4229   3.644   0.546   3.419
 1110SOL    HW2 4230   3.639   0.536   3.582
 1111SOL     OW 4231   5.595   4.046   6.263
 1111SOL    HW1 4232   5.678   4.069   6.315
 1111SOL    HW2 4233   5.615   3.971   6.200
 1112SOL     OW 4234   6.687   0.557   3.379
 1112SOL    HW1 4235   6.638   0.489   3.434
 1112SOL    HW2 4236   6.782   0.564   3.411
 1113SOL     OW 4237   6.391   4.249   1.474
 1113SOL    HW1 4238   6.442   4.318   1.423
 1113SOL    HW2 4239   6.450   4.171   1.494
 1114SOL     OW 4240   3.568   2.469   6.253
 1114SOL    HW1 4241   3.608   2.414   6.326
 1114SOL    HW2 4242   3.480   2.505   6.283
 1115SOL     OW 4243   4.133   4.121   5.380
 1115SOL    HW1 4244   4.150   4.092   5.474
 1115SOL    HW2 4245   4.218   4.154   5.339
 1116SOL     OW 4246   5.668   0.358   0.035
 1116SOL    HW1 4247   5.660   0.424   0.109
 1116SOL    HW2 4248   5.577   0.321   0.012
 1117SOL     OW 4249   0.912   1.988   1.614
 1117SOL    HW1 4250   0.895   1.979   1.712
 1117SOL    HW2 4251   1.006   2.019   1.599
 1118SOL     OW 4252   2.366   5.365   0.075
 1118SOL    HW1 4253   2.390   5.407   7.009
 1118SOL    HW2 4254   2.370   5.265   0.066
 1119SOL     OW 4255   4.395   4.444   1.745
 1119SOL    HW1 4256   4.311   4.440   1.691
 1119SOL    HW2 4257   4.414   4.354   1.783
 1120SOL     OW 4258   6.021   5.854   1.121
 1120SOL    HW1 4259   6.038   5.796   1.041
 1120SOL    HW2 4260   6.102   5.911   1.138
 1121SOL     OW 4261   0.326   4.502   5.256
 1121SOL    HW1 4262   0.426   4.507   5.259
 1121SOL    HW2 4263   0.298   4.406   5.246
 1122SOL     OW 4264   6.402   2.862   1.917
 1122SOL    HW1 4265   6.407   2.961   1.903
 1122SOL    HW2 4266   6.495   2.825   1.922
 1123SOL     OW 4267   4.657   2.439   3.844
 1123SOL    HW1 4268   4.641   2.515   3.907
 1123SOL    HW2 4269   4.575   2.383   3.837
 1124SOL     OW 4270   0.928   3.436   6.017
 1124SOL    HW1 4271   0.858   3.378   5.975
 1124SOL    HW2 4272   1.015   3.423   5.969
 1125SOL     OW 4273   1.719   3.089   4.419
 1125SOL    HW1 4274   1.800   3.095   4.479
 1125SOL    HW2 4275   1.749   3.086   4.324
 1126SOL     OW 4276   4.983   6.299   5.242
 1126SOL    HW1 4277   5.028   6.260   5.162
 1126SOL    HW2 4278   5.045   6.363   5.287
 1127SOL     OW 4279   5.433   6.697   4.642
 1127SOL    HW1 4280   5.429   6.696   4.742
 1127SOL    HW2 4281   5.480   6.615   4.609
 1128SOL     OW 4282   6.169   1.695   4.664
 1128SOL    HW1 4283   6.236   1.694   4.738
 1128SOL    HW2 4284   6.176   1.611   4.611
 1129SOL     OW 4285   1.852   6.704   0.522
 1129SOL    HW1 4286   1.786   6.761   0.474
 1129SOL    HW2 4287   1.937   6.755   0.536
 1130SOL     OW 4288   1.755   5.256   1.726
 1130SOL    HW1 4289   1.710   5.345   1.725
 1130SOL    HW2 4290   1.696   5.189   1.681
 1131SOL     OW 4291   1.647   0.596   4.759
 1131SOL    HW1 4292   1.702   0.672   4.726
 1131SOL    HW2 4293   1.610   0.545   4.681
 1132SOL     OW 4294   4.436   0.228   2.968
 1132SOL    HW1 4295   4.472   0.282   2.892
 1132SOL    HW2 4296   4.339   0.248   2.980
 1133SOL     OW 4297   0.783   0.831   0.323
 1133SOL    HW1 4298   0.712   0.902   0.320
 1133SOL    HW2 4299   0.803   0.801   0.230
 1134SOL     OW 4300   5.599   0.222   1.790
 1134SOL    HW1 4301   5.653   0.198   1.710
 1134SOL    HW2 4302   5.633   0.309   1.828
 1135SOL     OW 4303   2.472   6.910   3.826
 1135SOL    HW1 4304   2.514   6.831   3.781
 1135SOL    HW2 4305   2.530   6.990   3.814
 1136SOL     OW 4306   3.389   4.921   2.959
 1136SOL    HW1 4307   3.425   4.933   2.867
 1136SOL    HW2 4308   3.457   4.952   3.026
 1137SOL     OW 4309   0.462   6.024   6.683
 1137SOL    HW1 4310   0.461   5.932   6.722
 1137SOL    HW2 4311   0.532   6.079   6.729
 1138SOL     OW 4312   1.456   2.305   5.091
 1138SOL    HW1 4313   1.418   2.355   5.168
 1138SOL    HW2 4314   1.469   2.209   5.117
 1139SOL     OW 4315   2.520   4.675   4.002
 1139SOL    HW1 4316   2.447   4.610   4.024
 1139SOL    HW2 4317   2.480   4.763   3.976
 1140SOL     OW 4318   2.360   0.284   2.722
 1140SOL    HW1 4319   2.366   0.184   2.728
 1140SOL    HW2 4320   2.417   0.317   2.647
 1141SOL     OW 4321   6.408   5.637   6.469
 1141SOL    HW1 4322   6.352   5.678   6.396
 1141SOL    HW2 4323   6.367   5.658   6.558
 1142SOL     OW 4324   2.682   6.967   3.444
 1142SOL    HW1 4325   2.587   6.998   3.445
 1142SOL    HW2 4326   2.703   6.925   3.356
 1143SOL     OW 4327   1.372   2.692   2.480
 1143SOL    HW1 4328   1.390   2.789   2.495
 1143SOL    HW2 4329   1.432   2.637   2.538
 1144SOL     OW 4330   5.607   4.448   2.501
 1144SOL    HW1 4331   5.640   4.497   2.581
 1144SOL    HW2 4332   5.564   4.362   2.530
 1145SOL     OW 4333   1.141   2.544   0.526
 1145SOL    HW1 4334   1.069   2.608   0.554
 1145SOL    HW2 4335   1.229   2.590   0.529
 1146SOL     OW 4336   0.412   2.066   1.507
 1146SOL    HW1 4337   0.427   2.025   1.597
 1146SOL    HW2 4338   0.501   2.087   1.465
 1147SOL     OW 4339   2.858   5.455   0.688
 1147SOL    HW1 4340   2.878   5.548   0.656
 1147SOL    HW2 4341   2.878   5.390   0.615
 1148SOL     OW 4342   3.991   6.212   1.412
 1148SOL    HW1 4343   4.072   6.267   1.428
 1148SOL    HW2 4344   3.910   6.262   1.444
 1149SOL     OW 4345   5.628   3.058   1.253
 1149SOL    HW1 4346   5.665   3.069   1.346
 1149SOL    HW2 4347   5.687   2.997   1.201
 1150SOL     OW 4348   0.532   4.237   0.331
 1150SOL    HW1 4349   0.625   4.212   0.359
 1150SOL    HW2 4350   0.482   4.154   0.305
 1151SOL     OW 4351   6.012   4.923   4.613
 1151SOL    HW1 4352   6.105   4.899   4.585
 1151SOL    HW2 4353   5.959   4.949   4.532
 1152SOL     OW 4354   4.451   6.126   6.679
 1152SOL    HW1 4355   4.468   6.072   6.762
 1152SOL    HW2 4356   4.393   6.074   6.617
 1153SOL     OW 4357   6.761   6.586   1.446
 1153SOL    HW1 4358   6.763   6.566   1.544
 1153SOL    HW2 4359   6.668   6.605   1.417
 1154SOL     OW 4360   0.819   4.201   1.125
 1154SOL    HW1 4361   0.757   4.211   1.203
 1154SOL    HW2 4362   0.854   4.108   1.122
 1155SOL     OW 4363   2.110   6.041   5.468
 1155SOL    HW1 4364   2.148   6.125   5.508
 1155SOL    HW2 4365   2.124   6.042   5.369
 1156SOL     OW 4366   4.336   1.889   5.135
 1156SOL    HW1 4367   4.242   1.913   5.114
 1156SOL    HW2 4368   4.373   1.831   5.062
 1157SOL     OW 4369   5.314   1.035   5.686
 1157SOL    HW1 4370   5.374   1.054   5.764
 1157SOL    HW2 4371   5.219   1.037   5.715
 1158SOL     OW 4372   6.422   6.386   4.457
 1158SOL    HW1 4373   6.373   6.315   4.407
 1158SOL    HW2 4374   6.356   6.454   4.491
 1159SOL     OW 4375   5.860   6.824   3.096
 1159SOL    HW1 4376   5.797   6.893   3.131
 1159SOL    HW2 4377   5.941   6.819   3.155
 1160SOL     OW 4378   4.195   5.656   1.998
 1160SOL    HW1 4379   4.213   5.744   1.953
 1160SOL    HW2 4380   4.096   5.643   2.006
 1161SOL     OW 4381   6.957   5.254   6.455
 1161SOL    HW1 4382   6.860   5.231   6.452
 1161SOL    HW2 4383   6.969   5.340   6.503
 1162SOL     OW 4384   2.415   2.711   5.640
 1162SOL    HW1 4385   2.497   2.683   5.690
 1162SOL    HW2 4386   2.427   2.693   5.543
 1163SOL     OW 4387   5.949   4.634   1.730
 1163SOL    HW1 4388   5.994   4.719   1.756
 1163SOL    HW2 4389   5.861   4.627   1.778
 1164SOL     OW 4390   5.242   2.627   5.422
 1164SOL    HW1 4391   5.336   2.645   5.395
 1164SOL    HW2 4392   5.209   2.701   5.481
 1165SOL     OW 4393   4.216   5.886   2.917
 1165SOL    HW1 4394   4.239   5.940   2.998
 1165SOL    HW2 4395   4.293   5.887   2.853
 1166SOL     OW 4396   1.999   5.453   6.726
 1166SOL    HW1 4397   1.972   5.474   6.821
 1166SOL    HW2 4398   1.926   5.401   6.682
 1167SOL     OW 4399   5.131   4.747   1.330
 1167SOL    HW1 4400   5.154   4.650   1.324
 1167SOL    HW2 4401   5.168   4.795   1.251
 1168SOL     OW 4402   6.136   2.547   1.629
 1168SOL    HW1 4403   6.056   2.491   1.651
 1168SOL    HW2 4404   6.219   2.491   1.633
 1169SOL     OW 4405   5.403   1.830   5.303
 1169SOL    HW1 4406   5.313   1.796   5.328
 1169SOL    HW2 4407   5.447   1.766   5.240
 1170SOL     OW 4408   5.394   0.245   3.115
 1170SOL    HW1 4409   5.327   0.238   3.190
 1170SOL    HW2 4410   5.446   0.160   3.110
 1171SOL     OW 4411   2.570   0.011   0.132
 1171SOL    HW1 4412   2.506   0.009   0.209
 1171SOL    HW2 4413   2.527   0.057   0.054
 1172SOL     OW 4414   5.166   4.326   0.951
 1172SOL    HW1 4415   5.076   4.332   0.994
 1172SOL    HW2 4416   5.233   4.375   1.008
 1173SOL     OW 4417   2.645   1.360   1.489
 1173SOL    HW1 4418   2.563   1.392   1.535
 1173SOL    HW2 4419   2.660   1.415   1.406
 1174SOL     OW 4420   3.503   3.994   2.121
 1174SOL    HW1 4421   3.493   4.002   2.022
 1174SOL    HW2 4422   3.535   3.902   2.145
 1175SOL     OW 4423   4.759   3.621   6.217
 1175SOL    HW1 4424   4.710   3.538   6.243
 1175SOL    HW2 4425   4.724   3.698   6.270
 1176SOL     OW 4426   5.138   3.737   6.603
 1176SOL    HW1 4427   5.153   3.727   6.701
 1176SOL    HW2 4428   5.120   3.833   6.581
 1177SOL     OW 4429   6.934   3.914   4.962
 1177SOL    HW1 4430   6.984   3.827   4.959
 1177SOL    HW2 4431   6.863   3.915   4.891
 1178SOL     OW 4432   2.584   3.592   0.408
 1178SOL    HW1 4433   2.585   3.516   0.472
 1178SOL    HW2 4434   2.675   3.633   0.402
 1179SOL     OW 4435   2.715   5.568   0.275
 1179SOL    HW1 4436   2.685   5.544   0.183
 1179SOL    HW2 4437   2.668   5.650   0.306
 1180SOL     OW 4438   2.856   6.226   3.377
 1180SOL    HW1 4439   2.913   6.225   3.459
 1180SOL    HW2 4440   2.875   6.144   3.323
 1181SOL     OW 4441   0.069   5.380   6.228
 1181SOL    HW1 4442   0.047   5.469   6.268
 1181SOL    HW2 4443   0.003   5.312   6.261
 1182SOL     OW 4444   4.071   4.908   3.394
 1182SOL    HW1 4445   4.046   5.004   3.408
 1182SOL    HW2 4446   4.087   4.892   3.297
 1183SOL     OW 4447   2.318   3.956   6.927
 1183SOL    HW1 4448   2.362   4.007   6.853
 1183SOL    HW2 4449   2.241   4.009   6.962
 1184SOL     OW 4450   0.116   1.163   4.976
 1184SOL    HW1 4451   0.116   1.239   4.912
 1184SOL    HW2 4452   0.022   1.146   5.007
 1185SOL     OW 4453   0.402   1.445   0.542
 1185SOL    HW1 4454   0.403   1.470   0.639
 1185SOL    HW2 4455   0.340   1.368   0.529
 1186SOL     OW 4456   5.934   6.498   5.670
 1186SOL    HW1 4457   5.848   6.498   5.618
 1186SOL    HW2 4458   5.957   6.591   5.696
 1187SOL     OW 4459   6.005   6.657   6.860
 1187SOL    HW1 4460   6.008   6.635   6.763
 1187SOL    HW2 4461   6.063   6.594   6.911
 1188SOL     OW 4462   3.853   6.192   5.640
 1188SOL    HW1 4463   3.769   6.208   5.587
 1188SOL    HW2 4464   3.922   6.260   5.616
 1189SOL     OW 4465   6.301   2.466   2.082
 1189SOL    HW1 4466   6.220   2.446   2.028
 1189SOL    HW2 4467   6.368   2.515   2.025
 1190SOL     OW 4468   2.819   5.785   3.868
 1190SOL    HW1 4469   2.776   5.704   3.909
 1190SOL    HW2 4470   2.918   5.783   3.886
 1191SOL     OW 4471   4.802   5.100   4.015
 1191SOL    HW1 4472   4.898   5.131   4.012
 1191SOL    HW2 4473   4.775   5.067   3.924
 1192SOL     OW 4474   4.087   5.501   2.928
 1192SOL    HW1 4475   4.033   5.585   2.933
 1192SOL    HW2 4476   4.170   5.512   2.983
 1193SOL     OW 4477   6.330   3.199   5.295
 1193SOL    HW1 4478   6.337   3.273   5.228
 1193SOL    HW2 4479   6.417   3.190   5.344
 1194SOL     OW 4480   5.772   0.118   1.605
 1194SOL    HW1 4481   5.816   0.208   1.607
 1194SOL    HW2 4482   5.819   0.060   1.538
 1195SOL     OW 4483   6.688   4.218   0.562
 1195SOL    HW1 4484   6.641   4.238   0.476
 1195SOL    HW2 4485   6.656   4.282   0.633
 1196SOL     OW 4486   0.257   5.618   2.850
 1196SOL    HW1 4487   0.312   5.653   2.774
 1196SOL    HW2 4488   0.256   5.686   2.924
 1197SOL     OW 4489   4.660   0.867   5.158
 1197SOL    HW1 4490   4.596   0.925   5.106
 1197SOL    HW2 4491   4.687   0.915   5.242
 1198SOL     OW 4492   1.140   2.881   2.284
 1198SOL    HW1 4493   1.148   2.833   2.196
 1198SOL    HW2 4494   1.217   2.944   2.295
 1199SOL     OW 4495   3.889   4.435   1.366
 1199SOL    HW1 4496   3.862   4.339   1.365
 1199SOL    HW2 4497   3.809   4.493   1.381
 1200SOL     OW 4498   3.092   3.532   4.088
 1200SOL    HW1 4499   3.147   3.508   4.169
 1200SOL    HW2 4500   3.053   3.448   4.049
 1201SOL     OW 4501   0.928   0.930   4.224
 1201SOL    HW1 4502   0.997   0.890   4.163
 1201SOL    HW2 4503   0.895   1.016   4.185
 1202SOL     OW 4504   0.790   5.781   5.676
 1202SOL    HW1 4505   0.792   5.686   5.647
 1202SOL    HW2 4506   0.866   5.799   5.738
 1203SOL     OW 4507   6.095   6.273   0.424
 1203SOL    HW1 4508   6.005   6.300   0.457
 1203SOL    HW2 4509   6.134   6.204   0.486
 1204SOL     OW 4510   3.301   6.289   1.497
 1204SOL    HW1 4511   3.271   6.362   1.558
 1204SOL    HW2 4512   3.363   6.327   1.428
 1205SOL     OW 4513   4.952   3.681   1.311
 1205SOL    HW1 4514   4.906   3.596   1.286
 1205SOL    HW2 4515   5.034   3.661   1.364
 1206SOL     OW 4516   2.931   2.679   5.392
 1206SOL    HW1 4517   2.840   2.674   5.431
 1206SOL    HW2 4518   2.944   2.768   5.348
 1207SOL     OW 4519   1.992   6.204   1.459
 1207SOL    HW1 4520   2.024   6.140   1.528
 1207SOL    HW2 4521   1.948   6.154   1.385
 1208SOL     OW 4522   3.162   3.646   0.941
 1208SOL    HW1 4523   3.095   3.718   0.957
 1208SOL    HW2 4524   3.212   3.665   0.856
 1209SOL     OW 4525   4.850   1.239   4.672
 1209SOL    HW1 4526   4.918   1.190   4.727
 1209SOL    HW2 4527   4.829   1.326   4.715
 1210SOL     OW 4528   3.150   0.503   3.614
 1210SOL    HW1 4529   3.056   0.485   3.584
 1210SOL    HW2 4530   3.208   0.517   3.533
 1211SOL     OW 4531   0.788   3.665   2.040
 1211SOL    HW1 4532   0.828   3.674   1.948
 1211SOL    HW2 4533   0.768   3.568   2.057
 1212SOL     OW 4534   6.252   0.548   6.853
 1212SOL    HW1 4535   6.220   0.531   6.760
 1212SOL    HW2 4536   6.345   0.513   6.863
 1213SOL     OW 4537   6.623   2.053   0.628
 1213SOL    HW1 4538   6.675   1.993   0.566
 1213SOL    HW2 4539   6.668   2.142   0.634
 1214SOL     OW 4540   0.791   2.364   6.994
 1214SOL    HW1 4541   0.735   2.438   6.958
 1214SOL    HW2 4542   0.731   2.293   0.011
 1215SOL     OW 4543   1.053   4.339   3.675
 1215SOL    HW1 4544   1.114   4.418   3.679
 1215SOL    HW2 4545   1.062   4.286   3.759
 1216SOL     OW 4546   4.838   0.864   1.192
 1216SOL    HW1 4547   4.788   0.950   1.179
 1216SOL    HW2 4548   4.912   0.859   1.125
 1217SOL     OW 4549   1.937   4.510   0.514
 1217SOL    HW1 4550   1.837   4.507   0.524
 1217SOL    HW2 4551   1.960   4.552   0.426
 1218SOL     OW 4552   2.231   4.215   4.230
 1218SOL    HW1 4553   2.188   4.193   4.143
 1218SOL    HW2 4554   2.248   4.131   4.281
 1219SOL     OW 4555   5.783   6.133   1.539
 1219SOL    HW1 4556   5.815   6.057   1.482
 1219SOL    HW2 4557   5.699   6.105   1.587
 1220SOL     OW 4558   0.941   5.051   3.486
 1220SOL    HW1 4559   0.986   4.963   3.502
 1220SOL    HW2 4560   0.978   5.120   3.548
 1221SOL     OW 4561   5.743   3.548   6.051
 1221SOL    HW1 4562   5.696   3.495   5.980
 1221SOL    HW2 4563   5.680   3.615   6.090
 1222SOL     OW 4564   6.419   6.946   6.514
 1222SOL    HW1 4565   6.384   6.873   6.456
 1222SOL    HW2 4566   6.501   6.914   6.562
 1223SOL     OW 4567   3.925   0.491   0.960
 1223SOL    HW1 4568   3.885   0.562   1.018
 1223SOL    HW2 4569   3.862   0.469   0.886
 1224SOL     OW 4570   3.015   5.932   0.047
 1224SOL    HW1 4571   2.917   5.916   0.039
 1224SOL    HW2 4572   3.034   5.989   0.127
 1225SOL     OW 4573   3.693   3.541   6.669
 1225SOL    HW1 4574   3.690   3.639   6.685
 1225SOL    HW2 4575   3.779   3.517   6.624
 1226SOL     OW 4576   2.354   5.182   0.903
 1226SOL    HW1 4577   2.288   5.111   0.928
 1226SOL    HW2 4578   2.393   5.221   0.987
 1227SOL     OW 4579   6.010   4.045   7.006
 1227SOL    HW1 4580   5.962   4.049   6.918
 1227SOL    HW2 4581   6.018   4.138   0.022
 1228SOL     OW 4582   4.562   2.956   0.029
 1228SOL    HW1 4583   4.629   3.023   0.061
 1228SOL    HW2 4584   4.470   2.992   0.040
 1229SOL     OW 4585   3.768   5.270   6.284
 1229SOL    HW1 4586   3.775   5.367   6.311
 1229SOL    HW2 4587   3.694   5.227   6.335
 1230SOL     OW 4588   4.837   0.113   3.733
 1230SOL    HW1 4589   4.850   0.198   3.783
 1230SOL    HW2 4590   4.923   0.062   3.731
 1231SOL     OW 4591   1.430   3.738   4.499
 1231SOL    HW1 4592   1.412   3.832   4.470
 1231SOL    HW2 4593   1.389   3.722   4.589
 1232SOL     OW 4594   0.590   2.489   6.301
 1232SOL    HW1 4595   0.627   2.470   6.210
 1232SOL    HW2 4596   0.539   2.575   6.300
 1233SOL     OW 4597   1.063   3.203   4.185
 1233SOL    HW1 4598   1.048   3.196   4.087
 1233SOL    HW2 4599   1.123   3.281   4.204
 1234SOL     OW 4600   6.226   4.285   4.642
 1234SOL    HW1 4601   6.232   4.204   4.700
 1234SOL    HW2 4602   6.310   4.338   4.650
 1235SOL     OW 4603   0.176   5.448   2.469
 1235SOL    HW1 4604   0.131   5.482   2.552
 1235SOL    HW2 4605   0.109   5.402   2.411
 1236SOL     OW 4606   5.054   1.276   0.322
 1236SOL    HW1 4607   5.140   1.287   0.274
 1236SOL    HW2 4608   4.985   1.338   0.284
 1237SOL     OW 4609   2.480   4.860   5.821
 1237SOL    HW1 4610   2.450   4.872   5.916
 1237SOL    HW2 4611   2.538   4.778   5.816
 1238SOL     OW 4612   2.267   0.718   0.643
 1238SOL    HW1 4613   2.205   0.791   0.613
 1238SOL    HW2 4614   2.215   0.635   0.663
 1239SOL     OW 4615   0.240   6.762   6.328
 1239SOL    HW1 4616   0.284   6.811   6.404
 1239SOL    HW2 4617   0.153   6.805   6.306
 1240SOL     OW 4618   5.504   5.725   1.869
 1240SOL    HW1 4619   5.508   5.729   1.769
 1240SOL    HW2 4620   5.428   5.666   1.896
 1241SOL     OW 4621   6.305   3.795   3.721
 1241SOL    HW1 4622   6.279   3.847   3.803
 1241SOL    HW2 4623   6.223   3.750   3.684
 1242SOL     OW 4624   0.369   3.523   1.845
 1242SOL    HW1 4625   0.271   3.513   1.826
 1242SOL    HW2 4626   0.407   3.594   1.785
 1243SOL     OW 4627   0.601   6.661   5.003
 1243SOL    HW1 4628   0.566   6.593   4.939
 1243SOL    HW2 4629   0.670   6.620   5.062
 1244SOL     OW 4630   6.721   6.596   3.593
 1244SOL    HW1 4631   6.635   6.573   3.640
 1244SOL    HW2 4632   6.741   6.527   3.524
 1245SOL     OW 4633   4.961   4.209   6.623
 1245SOL    HW1 4634   4.894   4.225   6.695
 1245SOL    HW2 4635   4.952   4.279   6.553
 1246SOL     OW 4636   2.227   6.472   1.758
 1246SOL    HW1 4637   2.135   6.470   1.719
 1246SOL    HW2 4638   2.225   6.519   1.846
 1247SOL     OW 4639   2.910   0.154   6.688
 1247SOL    HW1 4640   2.887   0.062   6.717
 1247SOL    HW2 4641   2.953   0.151   6.597
 1248SOL     OW 4642   2.326   6.820   4.585
 1248SOL    HW1 4643   2.261   6.875   4.534
 1248SOL    HW2 4644   2.405   6.876   4.611
 1249SOL     OW 4645   5.957   2.320   2.155
 1249SOL    HW1 4646   6.018   2.241   2.163
 1249SOL    HW2 4647   5.865   2.288   2.133
 1250SOL     OW 4648   6.867   4.700   4.446
 1250SOL    HW1 4649   6.910   4.610   4.433
 1250SOL    HW2 4650   6.915   4.749   4.518
 1251SOL     OW 4651   3.208   6.649   4.568
 1251SOL    HW1 4652   3.186   6.570   4.511
 1251SOL    HW2 4653   3.239   6.618   4.658
 1252SOL     OW 4654   3.784   3.338   5.652
 1252SOL    HW1 4655   3.817   3.246   5.671
 1252SOL    HW2 4656   3.791   3.394   5.734
 1253SOL     OW 4657   3.274   5.089   1.507
 1253SOL    HW1 4658   3.212   5.065   1.581
 1253SOL    HW2 4659   3.362   5.117   1.545
 1254SOL     OW 4660   6.477   3.179   2.776
 1254SOL    HW1 4661   6.577   3.172   2.782
 1254SOL    HW2 4662   6.450   3.274   2.793
 1255SOL     OW 4663   6.835   1.562   4.615
 1255SOL    HW1 4664   6.927   1.536   4.584
 1255SOL    HW2 4665   6.774   1.565   4.536
 1256SOL     OW 4666   0.114   7.020   2.979
 1256SOL    HW1 4667   0.061   6.988   3.058
 1256SOL    HW2 4668   0.182   6.951   2.955
 1257SOL     OW 4669   6.525   0.061   3.657
 1257SOL    HW1 4670   6.483   6.993   3.643
 1257SOL    HW2 4671   6.606   0.069   3.599
 1258SOL     OW 4672   1.306   5.034   3.713
 1258SOL    HW1 4673   1.244   4.966   3.750
 1258SOL    HW2 4674   1.343   5.002   3.626
 1259SOL     OW 4675   3.753   2.138   4.409
 1259SOL    HW1 4676   3.848   2.161   4.431
 1259SOL    HW2 4677   3.721   2.066   4.471
 1260SOL     OW 4678   1.167   1.367   6.746
 1260SOL    HW1 4679   1.207   1.355   6.655
 1260SOL    HW2 4680   1.233   1.413   6.805
 1261SOL     OW 4681   0.042   5.697   6.411
 1261SOL    HW1 4682   7.015   5.683   6.497
 1261SOL    HW2 4683   0.128   5.746   6.429
 1262SOL     OW 4684   5.197   5.204   1.165
 1262SOL    HW1 4685   5.158   5.288   1.128
 1262SOL    HW2 4686   5.165   5.190   1.259
 1263SOL     OW 4687   0.447   0.727   2.591
 1263SOL    HW1 4688   0.487   0.685   2.672
 1263SOL    HW2 4689   0.348   0.715   2.591
 1264SOL     OW 4690   0.611   4.094   6.496
 1264SOL    HW1 4691   0.545   4.095   6.421
 1264SOL    HW2 4692   0.586   4.163   6.564
 1265SOL     OW 4693   6.274   5.190   4.503
 1265SOL    HW1 4694   6.314   5.232   4.584
 1265SOL    HW2 4695   6.192   5.241   4.476
 1266SOL     OW 4696   0.662   0.598   4.212
 1266SOL    HW1 4697   0.588   0.529   4.212
 1266SOL    HW2 4698   0.627   0.684   4.247
 1267SOL     OW 4699   4.831   0.867   1.633
 1267SOL    HW1 4700   4.791   0.775   1.635
 1267SOL    HW2 4701   4.817   0.912   1.721
 1268SOL     OW 4702   2.906   2.764   6.444
 1268SOL    HW1 4703   2.985   2.702   6.441
 1268SOL    HW2 4704   2.824   2.714   6.470
 1269SOL     OW 4705   5.602   3.074   3.887
 1269SOL    HW1 4706   5.591   2.978   3.912
 1269SOL    HW2 4707   5.540   3.096   3.812
 1270SOL     OW 4708   2.075   4.446   2.134
 1270SOL    HW1 4709   2.055   4.544   2.136
 1270SOL    HW2 4710   2.064   4.408   2.226
 1271SOL     OW 4711   3.176   0.653   1.955
 1271SOL    HW1 4712   3.077   0.661   1.944
 1271SOL    HW2 4713   3.213   0.737   1.994
 1272SOL     OW 4714   6.306   4.490   6.518
 1272SOL    HW1 4715   6.217   4.462   6.554
 1272SOL    HW2 4716   6.373   4.490   6.592
 1273SOL     OW 4717   1.611   3.627   5.381
 1273SOL    HW1 4718   1.519   3.655   5.353
 1273SOL    HW2 4719   1.657   3.583   5.304
 1274SOL     OW 4720   0.336   4.469   1.298
 1274SOL    HW1 4721   0.419   4.525   1.296
 1274SOL    HW2 4722   0.303   4.455   1.204
 1275SOL     OW 4723   3.024   0.187   3.355
 1275SOL    HW1 4724   3.032   0.284   3.330
 1275SOL    HW2 4725   2.945   0.147   3.308
 1276SOL     OW 4726   5.497   5.017   4.297
 1276SOL    HW1 4727   5.540   5.083   4.359
 1276SOL    HW2 4728   5.462   4.939   4.351
 1277SOL     OW 4729   1.323   5.308   0.200
 1277SOL    HW1 4730   1.412   5.318   0.155
 1277SOL    HW2 4731   1.336   5.269   0.291
 1278SOL     OW 4732   1.267   7.016   4.140
 1278SOL    HW1 4733   1.326   6.984   4.214
 1278SOL    HW2 4734   1.311   7.002   4.052
 1279SOL     OW 4735   2.365   4.009   6.174
 1279SOL    HW1 4736   2.463   4.026   6.162
 1279SOL    HW2 4737   2.316   4.039   6.092
 1280SOL     OW 4738   4.294   0.082   3.769
 1280SOL    HW1 4739   4.210   0.110   3.722
 1280SOL    HW2 4740   4.278   0.084   3.868
 1281SOL     OW 4741   2.858   5.479   3.647
 1281SOL    HW1 4742   2.851   5.457   3.745
 1281SOL    HW2 4743   2.953   5.495   3.623
 1282SOL     OW 4744   6.881   2.807   0.073
 1282SOL    HW1 4745   6.855   2.816   6.998
 1282SOL    HW2 4746   6.966   2.754   0.080
 1283SOL     OW 4747   6.382   4.121   5.506
 1283SOL    HW1 4748   6.349   4.040   5.457
 1283SOL    HW2 4749   6.476   4.105   5.536
 1284SOL     OW 4750   3.923   0.720   1.129
 1284SOL    HW1 4751   3.834   0.763   1.147
 1284SOL    HW2 4752   3.983   0.736   1.207
 1285SOL     OW 4753   4.063   1.398   5.719
 1285SOL    HW1 4754   4.143   1.351   5.681
 1285SOL    HW2 4755   3.984   1.385   5.659
 1286SOL     OW 4756   4.740   2.448   0.909
 1286SOL    HW1 4757   4.741   2.378   0.980
 1286SOL    HW2 4758   4.834   2.470   0.884
 1287SOL     OW 4759   5.523   4.728   5.428
 1287SOL    HW1 4760   5.574   4.685   5.353
 1287SOL    HW2 4761   5.489   4.657   5.489
 1288SOL     OW 4762   4.212   4.901   5.574
 1288SOL    HW1 4763   4.229   4.923   5.670
 1288SOL    HW2 4764   4.225   4.983   5.519
 1289SOL     OW 4765   6.963   0.693   1.997
 1289SOL    HW1 4766   6.907   0.619   1.960
 1289SOL    HW2 4767   6.907   0.751   2.055
 1290SOL     OW 4768   1.454   6.872   1.468
 1290SOL    HW1 4769   1.403   6.954   1.443
 1290SOL    HW2 4770   1.551   6.885   1.445
 1291SOL     OW 4771   6.485   4.928   4.230
 1291SOL    HW1 4772   6.483   4.931   4.130
 1291SOL    HW2 4773   6.396   4.900   4.265
 1292SOL     OW 4774   0.719   5.608   2.036
 1292SOL    HW1 4775   0.781   5.547   2.085
 1292SOL    HW2 4776   0.758   5.700   2.032
 1293SOL     OW 4777   2.493   2.275   0.436
 1293SOL    HW1 4778   2.484   2.175   0.427
 1293SOL    HW2 4779   2.485   2.317   0.346
 1294SOL     OW 4780   1.587   4.278   6.497
 1294SOL    HW1 4781   1.546   4.304   6.584
 1294SOL    HW2 4782   1.569   4.349   6.429
 1295SOL     OW 4783   0.271   3.607   1.194
 1295SOL    HW1 4784   0.248   3.524   1.143
 1295SOL    HW2 4785   0.359   3.594   1.240
 1296SOL     OW 4786   4.600   6.996   5.498
 1296SOL    HW1 4787   4.627   0.056   5.447
 1296SOL    HW2 4788   4.658   6.919   5.471
 1297SOL     OW 4789   1.048   6.284   1.536
 1297SOL    HW1 4790   1.064   6.337   1.620
 1297SOL    HW2 4791   1.070   6.341   1.457
 1298SOL     OW 4792   4.980   5.917   3.391
 1298SOL    HW1 4793   5.049   5.988   3.378
 1298SOL    HW2 4794   4.894   5.958   3.422
 1299SOL     OW 4795   2.028   3.108   3.943
 1299SOL    HW1 4796   1.995   3.201   3.956
 1299SOL    HW2 4797   1.984   3.067   3.863
 1300SOL     OW 4798   1.742   3.305   1.647
 1300SOL    HW1 4799   1.660   3.350   1.613
 1300SOL    HW2 4800   1.822   3.362   1.628
 1301SOL     OW 4801   0.703   6.701   2.012
 1301SOL    HW1 4802   0.777   6.669   1.952
 1301SOL    HW2 4803   0.727   6.791   2.048
 1302SOL     OW 4804   5.237   0.773   5.063
 1302SOL    HW1 4805   5.234   0.697   5.128
 1302SOL    HW2 4806   5.312   0.758   4.998
 1303SOL     OW 4807   4.098   0.636   1.670
 1303SOL    HW1 4808   4.026   0.694   1.633
 1303SOL    HW2 4809   4.112   0.659   1.767
 1304SOL     OW 4810   1.885   1.169   1.413
 1304SOL    HW1 4811   1.855   1.203   1.502
 1304SOL    HW2 4812   1.808   1.172   1.349
 1305SOL     OW 4813   6.032   4.566   5.943
 1305SOL    HW1 4814   5.996   4.517   5.864
 1305SOL    HW2 4815   6.005   4.520   6.027
 1306SOL     OW 4816   1.361   5.720   4.422
 1306SOL    HW1 4817   1.343   5.818   4.432
 1306SOL    HW2 4818   1.456   5.707   4.393
 1307SOL     OW 4819   2.193   3.825   3.982
 1307SOL    HW1 4820   2.190   3.729   4.007
 1307SOL    HW2 4821   2.282   3.863   4.004
 1308SOL     OW 4822   6.910   6.900   6.076
 1308SOL    HW1 4823   6.859   6.981   6.045
 1308SOL    HW2 4824   6.903   6.828   6.007
 1309SOL     OW 4825   5.473   4.684   5.925
 1309SOL    HW1 4826   5.475   4.767   5.869
 1309SOL    HW2 4827   5.378   4.656   5.938
 1310SOL     OW 4828   0.369   4.374   3.570
 1310SOL    HW1 4829   0.376   4.409   3.477
 1310SOL    HW2 4830   0.452   4.399   3.621
 1311SOL     OW 4831   6.512   5.893   6.499
 1311SOL    HW1 4832   6.504   5.796   6.475
 1311SOL    HW2 4833   6.524   5.902   6.598
 1312SOL     OW 4834   1.643   0.299   0.044
 1312SOL    HW1 4835   1.573   0.359   0.082
 1312SOL    HW2 4836   1.622   0.204   0.068
 1313SOL     OW 4837   6.808   5.279   2.844
 1313SOL    HW1 4838   6.853   5.251   2.759
 1313SOL    HW2 4839   6.763   5.367   2.831
 1314SOL     OW 4840   3.581   1.805   4.332
 1314SOL    HW1 4841   3.491   1.761   4.320
 1314SOL    HW2 4842   3.570   1.904   4.329
 1315SOL     OW 4843   6.899   0.856   3.707
 1315SOL    HW1 4844   6.951   0.773   3.728
 1315SOL    HW2 4845   6.917   0.883   3.613
 1316SOL     OW 4846   3.748   7.017   4.799
 1316SOL    HW1 4847   3.775   0.058   4.872
 1316SOL    HW2 4848   3.648   7.014   4.793
 1317SOL     OW 4849   1.644   4.329   5.018
 1317SOL    HW1 4850   1.614   4.286   5.103
 1317SOL    HW2 4851   1.703   4.407   5.039
 1318SOL     OW 4852   1.408   2.638   6.680
 1318SOL    HW1 4853   1.347   2.586   6.740
 1318SOL    HW2 4854   1.493   2.658   6.728
 1319SOL     OW 4855   0.180   5.756   6.785
 1319SOL    HW1 4856   0.274   5.790   6.791
 1319SOL    HW2 4857   0.181   5.656   6.778
 1320SOL     OW 4858   2.684   2.990   6.804
 1320SOL    HW1 4859   2.751   2.933   6.757
 1320SOL    HW2 4860   2.624   3.033   6.736
 1321SOL     OW 4861   4.697   2.428   6.299
 1321SOL    HW1 4862   4.621   2.370   6.268
 1321SOL    HW2 4863   4.673   2.472   6.385
 1322SOL     OW 4864   3.752   1.365   4.155
 1322SOL    HW1 4865   3.815   1.405   4.089
 1322SOL    HW2 4866   3.683   1.433   4.180
 1323SOL     OW 4867   3.424   6.091   0.593
 1323SOL    HW1 4868   3.461   6.017   0.650
 1323SOL    HW2 4869   3.447   6.073   0.497
 1324SOL     OW 4870   0.783   3.565   0.543
 1324SOL    HW1 4871   0.726   3.580   0.462
 1324SOL    HW2 4872   0.822   3.652   0.573
 1325SOL     OW 4873   4.301   6.386   5.223
 1325SOL    HW1 4874   4.218   6.330   5.223
 1325SOL    HW2 4875   4.303   6.443   5.305
 1326SOL     OW 4876   4.988   4.284   5.276
 1326SOL    HW1 4877   5.056   4.319   5.340
 1326SOL    HW2 4878   5.022   4.199   5.235
 1327SOL     OW 4879   0.320   6.564   1.357
 1327SOL    HW1 4880   0.298   6.593   1.264
 1327SOL    HW2 4881   0.323   6.645   1.416
 1328SOL     OW 4882   1.952   3.033   6.720
 1328SOL    HW1 4883   1.981   2.948   6.764
 1328SOL    HW2 4884   1.960   3.109   6.785
 1329SOL     OW 4885   6.806   2.063   3.299
 1329SOL    HW1 4886   6.859   2.133   3.250
 1329SOL    HW2 4887   6.827   1.973   3.261
 1330SOL     OW 4888   0.462   2.128   1.074
 1330SOL    HW1 4889   0.484   2.201   1.138
 1330SOL    HW2 4890   0.378   2.082   1.103
 1331SOL     OW 4891   4.660   2.684   2.777
 1331SOL    HW1 4892   4.650   2.632   2.861
 1331SOL    HW2 4893   4.604   2.767   2.782
 1332SOL     OW 4894   2.385   6.717   0.189
 1332SOL    HW1 4895   2.476   6.737   0.224
 1332SOL    HW2 4896   2.352   6.631   0.228
 1333SOL     OW 4897   3.000   3.778   3.113
 1333SOL    HW1 4898   2.980   3.727   3.029
 1333SOL    HW2 4899   3.034   3.716   3.183
 1334SOL     OW 4900   6.112   1.832   3.706
 1334SOL    HW1 4901   6.209   1.856   3.702
 1334SOL    HW2 4902   6.096   1.771   3.783
 1335SOL     OW 4903   1.983   1.985   1.930
 1335SOL    HW1 4904   1.946   1.896   1.901
 1335SOL    HW2 4905   1.951   2.056   1.867
 1336SOL     OW 4906   3.849   1.458   5.531
 1336SOL    HW1 4907   3.771   1.397   5.522
 1336SOL    HW2 4908   3.853   1.520   5.453
 1337SOL     OW 4909   6.802   1.762   3.212
 1337SOL    HW1 4910   6.850   1.700   3.150
 1337SOL    HW2 4911   6.704   1.741   3.211
 1338SOL     OW 4912   0.269   4.265   4.223
 1338SOL    HW1 4913   0.321   4.333   4.170
 1338SOL    HW2 4914   0.171   4.284   4.214
 1339SOL     OW 4915   6.850   0.942   0.400
 1339SOL    HW1 4916   6.880   1.027   0.445
 1339SOL    HW2 4917   6.750   0.942   0.394
 1340SOL     OW 4918   5.418   1.791   2.679
 1340SOL    HW1 4919   5.329   1.802   2.723
 1340SOL    HW2 4920   5.462   1.880   2.671
 1341SOL     OW 4921   4.000   6.204   0.094
 1341SOL    HW1 4922   3.905   6.217   0.122
 1341SOL    HW2 4923   4.026   6.275   0.028
 1342SOL     OW 4924   3.135   5.134   6.525
 1342SOL    HW1 4925   3.088   5.068   6.467
 1342SOL    HW2 4926   3.181   5.087   6.600
 1343SOL     OW 4927   5.625   5.163   2.762
 1343SOL    HW1 4928   5.594   5.257   2.778
 1343SOL    HW2 4929   5.557   5.099   2.797
 1344SOL     OW 4930   0.287   6.176   4.194
 1344SOL    HW1 4931   0.379   6.212   4.214
 1344SOL    HW2 4932   0.249   6.224   4.115
 1345SOL     OW 4933   0.617   4.723   2.393
 1345SOL    HW1 4934   0.541   4.743   2.454
 1345SOL    HW2 4935   0.683   4.663   2.439
 1346SOL     OW 4936   1.703   5.192   6.324
 1346SOL    HW1 4937   1.712   5.242   6.238
 1346SOL    HW2 4938   1.706   5.094   6.307
 1347SOL     OW 4939   1.167   6.613   6.884
 1347SOL    HW1 4940   1.262   6.639   6.867
 1347SOL    HW2 4941   1.110   6.645   6.809
 1348SOL     OW 4942   7.020   6.539   5.352
 1348SOL    HW1 4943   6.977   6.618   5.308
 1348SOL    HW2 4944   0.093   6.561   5.376
 1349SOL     OW 4945   5.364   2.720   4.328
 1349SOL    HW1 4946   5.458   2.745   4.351
 1349SOL    HW2 4947   5.311   2.708   4.413
 1350SOL     OW 4948   4.533   5.146   6.188
 1350SOL    HW1 4949   4.578   5.058   6.176
 1350SOL    HW2 4950   4.571   5.192   6.268
 1351SOL     OW 4951   6.029   2.752   4.183
 1351SOL    HW1 4952   6.076   2.829   4.141
 1351SOL    HW2 4953   5.973   2.784   4.260
 1352SOL     OW 4954   6.805   6.384   3.458
 1352SOL    HW1 4955   6.778   6.344   3.371
 1352SOL    HW2 4956   6.837   6.311   3.519
 1353SOL     OW 4957   1.432   1.855   0.454
 1353SOL    HW1 4958   1.340   1.890   0.436
 1353SOL    HW2 4959   1.432   1.800   0.537
 1354SOL     OW 4960   0.372   4.097   1.776
 1354SOL    HW1 4961   0.462   4.053   1.779
 1354SOL    HW2 4962   0.360   4.154   1.857
 1355SOL     OW 4963   6.133   3.633   4.037
 1355SOL    HW1 4964   6.204   3.580   4.084
 1355SOL    HW2 4965   6.085   3.690   4.104
 1356SOL     OW 4966   3.365   2.981   1.756
 1356SOL    HW1 4967   3.269   3.008   1.766
 1356SOL    HW2 4968   3.382   2.897   1.808
 1357SOL     OW 4969   6.871   4.245   6.224
 1357SOL    HW1 4970   6.841   4.318   6.162
 1357SOL    HW2 4971   6.872   4.279   6.318
 1358SOL     OW 4972   6.084   6.701   0.181
 1358SOL    HW1 4973   6.008   6.701   0.246
 1358SOL    HW2 4974   6.073   6.625   0.117
 1359SOL     OW 4975   6.491   4.880   2.161
 1359SOL    HW1 4976   6.408   4.921   2.200
 1359SOL    HW2 4977   6.465   4.805   2.100
 1360SOL     OW 4978   3.253   3.064   0.153
 1360SOL    HW1 4979   3.179   3.123   0.122
 1360SOL    HW2 4980   3.236   3.035   0.247
 1361SOL     OW 4981   6.954   4.414   4.490
 1361SOL    HW1 4982   0.032   4.411   4.483
 1361SOL    HW2 4983   6.927   4.413   4.586
 1362SOL     OW 4984   3.866   3.843   2.965
 1362SOL    HW1 4985   3.823   3.780   3.029
 1362SOL    HW2 4986   3.905   3.791   2.889
 1363SOL     OW 4987   0.486   5.385   4.252
 1363SOL    HW1 4988   0.402   5.377   4.305
 1363SOL    HW2 4989   0.482   5.466   4.194
 1364SOL     OW 4990   4.395   4.023   0.193
 1364SOL    HW1 4991   4.384   3.924   0.187
 1364SOL    HW2 4992   4.447   4.045   0.276
 1365SOL     OW 4993   0.538   4.270   6.691
 1365SOL    HW1 4994   0.483   4.240   6.769
 1365SOL    HW2 4995   0.621   4.314   6.725
 1366SOL     OW 4996   1.479   6.346   5.741
 1366SOL    HW1 4997   1.550   6.307   5.800
 1366SOL    HW2 4998   1.478   6.445   5.751
 1367SOL     OW 4999   2.028   0.539   2.355
 1367SOL    HW1 5000   2.028   0.617   2.293
 1367SOL    HW2 5001   1.945   0.542   2.412
 1368SOL     OW 5002   5.498   6.726   5.289
 1368SOL    HW1 5003   5.461   6.818   5.279
 1368SOL    HW2 5004   5.540   6.698   5.203
 1369SOL     OW 5005   1.905   6.169   2.949
 1369SOL    HW1 5006   1.876   6.247   3.006
 1369SOL    HW2 5007   1.900   6.196   2.852
 1370SOL     OW 5008   3.642   0.753   2.113
 1370SOL    HW1 5009   3.582   0.684   2.071
 1370SOL    HW2 5010   3.737   0.722   2.108
 1371SOL     OW 5011   4.621   1.152   4.566
 1371SOL    HW1 5012   4.584   1.218   4.501
 1371SOL    HW2 5013   4.699   1.193   4.613
 1372SOL     OW 5014   1.936   2.743   1.205
 1372SOL    HW1 5015   1.855   2.717   1.154
 1372SOL    HW2 5016   1.911   2.769   1.298
 1373SOL     OW 5017   6.492   4.618   0.364
 1373SOL    HW1 5018   6.401   4.632   0.404
 1373SOL    HW2 5019   6.493   4.653   0.270
 1374SOL     OW 5020   4.609   2.422   0.692
 1374SOL    HW1 5021   4.654   2.423   0.781
 1374SOL    HW2 5022   4.528   2.364   0.696
 1375SOL     OW 5023   6.603   5.398   5.802
 1375SOL    HW1 5024   6.657   5.332   5.855
 1375SOL    HW2 5025   6.535   5.441   5.861
 1376SOL     OW 5026   4.802   2.697   4.133
 1376SOL    HW1 5027   4.716   2.650   4.113
 1376SOL    HW2 5028   4.829   2.752   4.055
 1377SOL     OW 5029   0.445   4.339   6.196
 1377SOL    HW1 5030   0.481   4.371   6.284
 1377SOL    HW2 5031   0.346   4.336   6.200
 1378SOL     OW 5032   0.912   2.475   5.857
 1378SOL    HW1 5033   0.823   2.518   5.873
 1378SOL    HW2 5034   0.914   2.386   5.903
 1379SOL     OW 5035   3.532   5.985   2.951
 1379SOL    HW1 5036   3.496   6.078   2.953
 1379SOL    HW2 5037   3.519   5.946   2.860
 1380SOL     OW 5038   6.690   0.040   2.662
 1380SOL    HW1 5039   6.780   7.021   2.644
 1380SOL    HW2 5040   6.619   6.995   2.640
 1381SOL     OW 5041   5.645   2.984   0.072
 1381SOL    HW1 5042   5.673   2.992   6.997
 1381SOL    HW2 5043   5.701   2.915   0.117
 1382SOL     OW 5044   6.012   5.138   5.793
 1382SOL    HW1 5045   6.047   5.205   5.727
 1382SOL    HW2 5046   6.027   5.046   5.759
 1383SOL     OW 5047   0.897   1.206   0.240
 1383SOL    HW1 5048   0.995   1.207   0.261
 1383SOL    HW2 5049   0.852   1.133   0.292
 1384SOL     OW 5050   3.110   1.635   3.777
 1384SOL    HW1 5051   3.162   1.596   3.701
 1384SOL    HW2 5052   3.061   1.561   3.824
 1385SOL     OW 5053   6.583   2.635   3.160
 1385SOL    HW1 5054   6.494   2.666   3.127
 1385SOL    HW2 5055   6.577   2.541   3.193
 1386SOL     OW 5056   2.158   3.257   4.637
 1386SOL    HW1 5057   2.169   3.335   4.698
 1386SOL    HW2 5058   2.213   3.270   4.555
 1387SOL     OW 5059   3.818   0.179   4.484
 1387SOL    HW1 5060   3.874   0.260   4.500
 1387SOL    HW2 5061   3.728   0.206   4.450
 1388SOL     OW 5062   6.667   0.493   4.230
 1388SOL    HW1 5063   6.702   0.418   4.285
 1388SOL    HW2 5064   6.689   0.477   4.134
 1389SOL     OW 5065   6.679   0.078   4.270
 1389SOL    HW1 5066   6.666   0.096   4.367
 1389SOL    HW2 5067   6.619   0.138   4.217
 1390SOL     OW 5068   4.163   1.796   1.063
 1390SOL    HW1 5069   4.145   1.873   1.125
 1390SOL    HW2 5070   4.169   1.829   0.969
 1391SOL     OW 5071   5.855   0.963   5.665
 1391SOL    HW1 5072   5.918   1.038   5.687
 1391SOL    HW2 5073   5.908   0.880   5.650
 1392SOL     OW 5074   4.519   6.001   6.351
 1392SOL    HW1 5075   4.467   5.916   6.358
 1392SOL    HW2 5076   4.467   6.075   6.394
 1393SOL     OW 5077   6.381   1.693   6.492
 1393SOL    HW1 5078   6.394   1.599   6.460
 1393SOL    HW2 5079   6.305   1.696   6.557
 1394SOL     OW 5080   4.637   6.352   3.705
 1394SOL    HW1 5081   4.592   6.262   3.710
 1394SOL    HW2 5082   4.567   6.424   3.702
 1395SOL     OW 5083   0.879   4.990   3.222
 1395SOL    HW1 5084   0.839   5.066   3.171
 1395SOL    HW2 5085   0.903   5.021   3.314
 1396SOL     OW 5086   1.845   1.249   4.543
 1396SOL    HW1 5087   1.816   1.345   4.540
 1396SOL    HW2 5088   1.851   1.219   4.638
 1397SOL     OW 5089   0.389   4.941   4.882
 1397SOL    HW1 5090   0.336   4.981   4.807
 1397SOL    HW2 5091   0.462   4.885   4.846
 1398SOL     OW 5092   1.372   1.181   0.814
 1398SOL    HW1 5093   1.383   1.190   0.715
 1398SOL    HW2 5094   1.449   1.130   0.852
 1399SOL     OW 5095   3.833   6.937   0.394
 1399SOL    HW1 5096   3.834   6.913   0.491
 1399SOL    HW2 5097   3.819   6.855   0.339
 1400SOL     OW 5098   6.746   0.442   4.619
 1400SOL    HW1 5099   6.752   0.372   4.690
 1400SOL    HW2 5100   6.702   0.524   4.657
 1401SOL     OW 5101   5.652   0.885   3.993
 1401SOL    HW1 5102   5.565   0.875   3.945
 1401SOL    HW2 5103   5.680   0.981   3.995
 1402SOL     OW 5104   5.690   4.084   1.427
 1402SOL    HW1 5105   5.662   4.010   1.488
 1402SOL    HW2 5106   5.617   4.102   1.362
 1403SOL     OW 5107   3.824   3.521   0.057
 1403SOL    HW1 5108   3.854   3.557   0.146
 1403SOL    HW2 5109   3.814   3.597   7.014
 1404SOL     OW 5110   4.817   0.152   0.966
 1404SOL    HW1 5111   4.801   0.251   0.959
 1404SOL    HW2 5112   4.772   0.117   1.049
 1405SOL     OW 5113   2.119   3.468   0.878
 1405SOL    HW1 5114   2.147   3.496   0.970
 1405SOL    HW2 5115   2.169   3.523   0.810
 1406SOL     OW 5116   2.143   3.319   1.337
 1406SOL    HW1 5117   2.069   3.253   1.338
 1406SOL    HW2 5118   2.230   3.272   1.351
 1407SOL     OW 5119   0.805   2.864   1.832
 1407SOL    HW1 5120   0.761   2.780   1.801
 1407SOL    HW2 5121   0.749   2.906   1.903
 1408SOL     OW 5122   5.677   5.855   6.174
 1408SOL    HW1 5123   5.762   5.803   6.172
 1408SOL    HW2 5124   5.647   5.866   6.269
 1409SOL     OW 5125   6.973   0.822   6.149
 1409SOL    HW1 5126   6.894   0.811   6.210
 1409SOL    HW2 5127   0.036   0.818   6.203
 1410SOL     OW 5128   3.138   2.815   5.902
 1410SOL    HW1 5129   3.120   2.911   5.925
 1410SOL    HW2 5130   3.105   2.797   5.810
 1411SOL     OW 5131   3.820   5.706   0.129
 1411SOL    HW1 5132   3.877   5.680   0.207
 1411SOL    HW2 5133   3.773   5.792   0.149
 1412SOL     OW 5134   1.437   2.567   0.628
 1412SOL    HW1 5135   1.453   2.468   0.631
 1412SOL    HW2 5136   1.524   2.615   0.645
 1413SOL     OW 5137   1.991   1.375   5.043
 1413SOL    HW1 5138   2.073   1.319   5.028
 1413SOL    HW2 5139   1.994   1.416   5.134
 1414SOL     OW 5140   0.931   3.278   2.295
 1414SOL    HW1 5141   1.005   3.251   2.357
 1414SOL    HW2 5142   0.942   3.374   2.270
 1415SOL     OW 5143   2.512   1.969   4.425
 1415SOL    HW1 5144   2.441   1.898   4.431
 1415SOL    HW2 5145   2.583   1.951   4.494
 1416SOL     OW 5146   4.055   6.989   5.749
 1416SOL    HW1 5147   3.992   7.003   5.825
 1416SOL    HW2 5148   4.133   6.934   5.779
 1417SOL     OW 5149   3.042   2.988   6.258
 1417SOL    HW1 5150   3.102   2.911   6.278
 1417SOL    HW2 5151   2.947   2.958   6.260
 1418SOL     OW 5152   4.028   3.479   0.386
 1418SOL    HW1 5153   3.972   3.396   0.386
 1418SOL    HW2 5154   3.989   3.544   0.452
 1419SOL     OW 5155   1.917   4.838   3.578
 1419SOL    HW1 5156   1.888   4.934   3.573
 1419SOL    HW2 5157   1.845   4.784   3.622
 1420SOL     OW 5158   3.923   5.225   2.607
 1420SOL    HW1 5159   3.934   5.306   2.550
 1420SOL    HW2 5160   3.844   5.236   2.667
 1421SOL     OW 5161   1.075   4.980   5.498
 1421SOL    HW1 5162   1.012   5.052   5.468
 1421SOL    HW2 5163   1.169   5.007   5.479
 1422SOL     OW 5164   2.768   3.843   5.974
 1422SOL    HW1 5165   2.803   3.852   5.881
 1422SOL    HW2 5166   2.829   3.891   6.037
 1423SOL     OW 5167   4.106   0.943   4.856
 1423SOL    HW1 5168   4.157   0.878   4.799
 1423SOL    HW2 5169   4.011   0.947   4.825
 1424SOL     OW 5170   5.654   3.215   6.400
 1424SOL    HW1 5171   5.642   3.237   6.303
 1424SOL    HW2 5172   5.585   3.263   6.453
 1425SOL     OW 5173   3.721   6.258   4.449
 1425SOL    HW1 5174   3.654   6.316   4.402
 1425SOL    HW2 5175   3.697   6.250   4.546
 1426SOL     OW 5176   2.262   1.602   6.661
 1426SOL    HW1 5177   2.169   1.573   6.639
 1426SOL    HW2 5178   2.323   1.524   6.655
 1427SOL     OW 5179   1.387   1.109   3.179
 1427SOL    HW1 5180   1.336   1.100   3.265
 1427SOL    HW2 5181   1.329   1.078   3.103
 1428SOL     OW 5182   6.771   3.113   2.825
 1428SOL    HW1 5183   6.732   3.052   2.894
 1428SOL    HW2 5184   6.797   3.060   2.744
 1429SOL     OW 5185   6.195   1.460   0.960
 1429SOL    HW1 5186   6.154   1.470   0.869
 1429SOL    HW2 5187   6.146   1.518   1.025
 1430SOL     OW 5188   2.155   3.609   3.045
 1430SOL    HW1 5189   2.198   3.572   3.127
 1430SOL    HW2 5190   2.205   3.578   2.964
 1431SOL     OW 5191   2.775   1.330   6.464
 1431SOL    HW1 5192   2.780   1.253   6.528
 1431SOL    HW2 5193   2.680   1.348   6.441
 1432SOL     OW 5194   2.209   1.141   0.991
 1432SOL    HW1 5195   2.137   1.174   0.929
 1432SOL    HW2 5196   2.173   1.135   1.084
 1433SOL     OW 5197   3.059   0.328   4.433
 1433SOL    HW1 5198   2.993   0.399   4.458
 1433SOL    HW2 5199   3.011   0.250   4.393
 1434SOL     OW 5200   0.136   2.712   6.816
 1434SOL    HW1 5201   0.224   2.699   6.769
 1434SOL    HW2 5202   0.117   2.810   6.824
 1435SOL     OW 5203   0.760   0.029   4.163
 1435SOL    HW1 5204   0.856   0.055   4.174
 1435SOL    HW2 5205   0.732   6.995   4.241
 1436SOL     OW 5206   5.654   2.345   0.777
 1436SOL    HW1 5207   5.619   2.299   0.859
 1436SOL    HW2 5208   5.742   2.388   0.797
 1437SOL     OW 5209   4.211   1.846   6.154
 1437SOL    HW1 5210   4.147   1.858   6.229
 1437SOL    HW2 5211   4.210   1.927   6.095
 1438SOL     OW 5212   2.438   1.049   2.128
 1438SOL    HW1 5213   2.514   1.027   2.067
 1438SOL    HW2 5214   2.474   1.092   2.211
 1439SOL     OW 5215   6.581   5.308   6.808
 1439SOL    HW1 5216   6.508   5.360   6.853
 1439SOL    HW2 5217   6.614   5.359   6.729
 1440SOL     OW 5218   3.879   3.023   3.562
 1440SOL    HW1 5219   3.912   3.047   3.653
 1440SOL    HW2 5220   3.779   3.019   3.564
 1441SOL     OW 5221   0.208   3.195   4.634
 1441SOL    HW1 5222   0.234   3.185   4.730
 1441SOL    HW2 5223   0.168   3.110   4.601
 1442SOL     OW 5224   4.737   4.306   0.158
 1442SOL    HW1 5225   4.825   4.259   0.166
 1442SOL    HW2 5226   4.675   4.252   0.101
 1443SOL     OW 5227   0.699   1.074   3.431
 1443SOL    HW1 5228   0.699   1.010   3.508
 1443SOL    HW2 5229   0.762   1.149   3.450
 1444SOL     OW 5230   4.426   0.466   3.563
 1444SOL    HW1 5231   4.475   0.379   3.572
 1444SOL    HW2 5232   4.330   0.453   3.586
 1445SOL     OW 5233   0.019   2.254   1.593
 1445SOL    HW1 5234   0.050   2.219   1.681
 1445SOL    HW2 5235   6.992   2.340   1.606
 1446SOL     OW 5236   4.444   2.008   1.133
 1446SOL    HW1 5237   4.495   2.051   1.208
 1446SOL    HW2 5238   4.346   2.012   1.153
 1447SOL     OW 5239   6.535   1.417   5.064
 1447SOL    HW1 5240   6.563   1.407   4.968
 1447SOL    HW2 5241   6.525   1.514   5.086
 1448SOL     OW 5242   5.138   1.446   6.886
 1448SOL    HW1 5243   5.136   1.511   6.962
 1448SOL    HW2 5244   5.144   1.496   6.799
 1449SOL     OW 5245   4.737   6.474   0.567
 1449SOL    HW1 5246   4.735   6.389   0.513
 1449SOL    HW2 5247   4.746   6.552   0.505
 1450SOL     OW 5248   5.772   3.326   2.697
 1450SOL    HW1 5249   5.736   3.271   2.622
 1450SOL    HW2 5250   5.871   3.336   2.687
 1451SOL     OW 5251   1.937   6.839   2.857
 1451SOL    HW1 5252   1.856   6.837   2.797
 1451SOL    HW2 5253   2.015   6.799   2.809
 1452SOL     OW 5254   5.493   0.749   4.945
 1452SOL    HW1 5255   5.567   0.687   4.970
 1452SOL    HW2 5256   5.531   0.834   4.909
 1453SOL     OW 5257   4.902   4.169   4.763
 1453SOL    HW1 5258   4.958   4.131   4.690
 1453SOL    HW2 5259   4.959   4.219   4.828
 1454SOL     OW 5260   5.042   2.972   1.477
 1454SOL    HW1 5261   4.981   2.991   1.554
 1454SOL    HW2 5262   5.037   2.875   1.453
 1455SOL     OW 5263   0.898   0.767   1.877
 1455SOL    HW1 5264   0.981   0.759   1.821
 1455SOL    HW2 5265   0.859   0.858   1.865
 1456SOL     OW 5266   6.762   0.075   4.535
 1456SOL    HW1 5267   6.766   0.140   4.610
 1456SOL    HW2 5268   6.854   0.045   4.511
 1457SOL     OW 5269   1.983   0.688   4.052
 1457SOL    HW1 5270   1.884   0.681   4.058
 1457SOL    HW2 5271   2.008   0.781   4.024
 1458SOL     OW 5272   5.117   6.853   5.993
 1458SOL    HW1 5273   5.056   6.778   5.971
 1458SOL    HW2 5274   5.149   6.844   6.088
 1459SOL     OW 5275   2.700   5.968   6.680
 1459SOL    HW1 5276   2.704   5.870   6.662
 1459SOL    HW2 5277   2.732   5.987   6.772
 1460SOL     OW 5278   1.146   6.295   0.198
 1460SOL    HW1 5279   1.192   6.335   0.118
 1460SOL    HW2 5280   1.205   6.302   0.278
 1461SOL     OW 5281   5.831   4.388   3.090
 1461SOL    HW1 5282   5.807   4.485   3.094
 1461SOL    HW2 5283   5.748   4.333   3.079
 1462SOL     OW 5284   6.236   1.064   0.774
 1462SOL    HW1 5285   6.222   0.966   0.789
 1462SOL    HW2 5286   6.225   1.113   0.861
 1463SOL     OW 5287   1.128   0.529   4.795
 1463SOL    HW1 5288   1.117   0.616   4.844
 1463SOL    HW2 5289   1.038   0.497   4.765
 1464SOL     OW 5290   0.207   6.353   0.573
 1464SOL    HW1 5291   0.150   6.411   0.631
 1464SOL    HW2 5292   0.243   6.406   0.496
 1465SOL     OW 5293   0.035   0.264   4.327
 1465SOL    HW1 5294   0.095   0.344   4.319
 1465SOL    HW2 5295   6.998   0.257   4.246
 1466SOL     OW 5296   6.414   5.725   2.592
 1466SOL    HW1 5297   6.476   5.709   2.669
 1466SOL    HW2 5298   6.341   5.656   2.594
 1467SOL     OW 5299   1.273   1.018   3.455
 1467SOL    HW1 5300   1.188   0.992   3.500
 1467SOL    HW2 5301   1.335   0.940   3.453
 1468SOL     OW 5302   5.412   5.826   3.772
 1468SOL    HW1 5303   5.419   5.730   3.798
 1468SOL    HW2 5304   5.359   5.834   3.688
 1469SOL     OW 5305   0.484   6.987   2.639
 1469SOL    HW1 5306   0.510   0.026   2.715
 1469SOL    HW2 5307   0.399   7.019   2.598
 1470SOL     OW 5308   1.184   0.923   3.038
 1470SOL    HW1 5309   1.223   0.846   3.089
 1470SOL    HW2 5310   1.239   0.940   2.956
 1471SOL     OW 5311   0.046   0.461   0.395
 1471SOL    HW1 5312   6.978   0.441   0.434
 1471SOL    HW2 5313   0.038   0.529   0.323
 1472SOL     OW 5314   4.912   0.465   5.819
 1472SOL    HW1 5315   4.981   0.472   5.891
 1472SOL    HW2 5316   4.958   0.471   5.730
 1473SOL     OW 5317   6.155   5.673   2.734
 1473SOL    HW1 5318   6.231   5.677   2.798
 1473SOL    HW2 5319   6.083   5.614   2.771
 1474SOL     OW 5320   5.949   5.390   4.227
 1474SOL    HW1 5321   5.891   5.471   4.222
 1474SOL    HW2 5322   5.976   5.375   4.322
 1475SOL     OW 5323   6.808   0.820   2.743
 1475SOL    HW1 5324   6.748   0.748   2.778
 1475SOL    HW2 5325   6.784   0.907   2.786
 1476SOL     OW 5326   1.538   1.645   2.286
 1476SOL    HW1 5327   1.588   1.680   2.207
 1476SOL    HW2 5328   1.578   1.558   2.315
 1477SOL     OW 5329   3.239   0.098   5.129
 1477SOL    HW1 5330   3.290   0.178   5.162
 1477SOL    HW2 5331   3.304   0.029   5.095
 1478SOL     OW 5332   6.315   5.147   1.290
 1478SOL    HW1 5333   6.240   5.188   1.237
 1478SOL    HW2 5334   6.294   5.050   1.306
 1479SOL     OW 5335   2.056   4.456   0.743
 1479SOL    HW1 5336   2.023   4.455   0.648
 1479SOL    HW2 5337   2.150   4.421   0.746
 1480SOL     OW 5338   2.059   0.859   0.144
 1480SOL    HW1 5339   2.087   0.796   0.071
 1480SOL    HW2 5340   1.964   0.839   0.170
 1481SOL     OW 5341   6.066   1.822   5.967
 1481SOL    HW1 5342   6.023   1.904   5.929
 1481SOL    HW2 5343   6.143   1.848   6.025
 1482SOL     OW 5344   5.247   0.902   0.375
 1482SOL    HW1 5345   5.199   0.948   0.301
 1482SOL    HW2 5346   5.193   0.909   0.459
 1483SOL     OW 5347   6.565   2.776   0.426
 1483SOL    HW1 5348   6.628   2.843   0.466
 1483SOL    HW2 5349   6.584   2.767   0.328
 1484SOL     OW 5350   6.658   4.778   2.572
 1484SOL    HW1 5351   6.660   4.810   2.667
 1484SOL    HW2 5352   6.573   4.726   2.557
 1485SOL     OW 5353   5.466   2.958   3.612
 1485SOL    HW1 5354   5.488   2.861   3.599
 1485SOL    HW2 5355   5.518   3.013   3.546
 1486SOL     OW 5356   4.957   2.579   3.067
 1486SOL    HW1 5357   4.922   2.652   3.125
 1486SOL    HW2 5358   4.959   2.611   2.972
 1487SOL     OW 5359   5.792   1.380   5.419
 1487SOL    HW1 5360   5.748   1.470   5.423
 1487SOL    HW2 5361   5.746   1.324   5.350
 1488SOL     OW 5362   4.972   0.860   3.342
 1488SOL    HW1 5363   4.877   0.840   3.317
 1488SOL    HW2 5364   5.010   0.927   3.277
 1489SOL     OW 5365   3.935   4.949   4.695
 1489SOL    HW1 5366   3.909   5.046   4.691
 1489SOL    HW2 5367   4.030   4.939   4.664
 1490SOL     OW 5368   1.132   1.562   0.429
 1490SOL    HW1 5369   1.210   1.530   0.376
 1490SOL    HW2 5370   1.065   1.605   0.368
 1491SOL     OW 5371   0.332   3.630   3.769
 1491SOL    HW1 5372   0.279   3.707   3.733
 1491SOL    HW2 5373   0.374   3.580   3.693
 1492SOL     OW 5374   5.049   2.143   1.579
 1492SOL    HW1 5375   5.079   2.236   1.558
 1492SOL    HW2 5376   5.064   2.124   1.676
 1493SOL     OW 5377   4.683   0.176   5.252
 1493SOL    HW1 5378   4.672   0.171   5.153
 1493SOL    HW2 5379   4.613   0.238   5.289
 1494SOL     OW 5380   3.896   2.550   5.920
 1494SOL    HW1 5381   3.862   2.503   5.839
 1494SOL    HW2 5382   3.834   2.532   5.997
 1495SOL     OW 5383   0.692   3.240   3.109
 1495SOL    HW1 5384   0.723   3.150   3.079
 1495SOL    HW2 5385   0.771   3.295   3.137
 1496SOL     OW 5386   6.504   0.466   2.251
 1496SOL    HW1 5387   6.543   0.374   2.257
 1496SOL    HW2 5388   6.431   0.467   2.182
 1497SOL     OW 5389   6.676   5.374   4.136
 1497SOL    HW1 5390   6.577   5.363   4.151
 1497SOL    HW2 5391   6.721   5.285   4.146
 1498SOL     OW 5392   2.400   4.625   6.407
 1498SOL    HW1 5393   2.438   4.545   6.452
 1498SOL    HW2 5394   2.381   4.604   6.311
 1499SOL     OW 5395   1.114   3.533   5.178
 1499SOL    HW1 5396   1.094   3.481   5.095
 1499SOL    HW2 5397   1.094   3.477   5.258
 1500SOL     OW 5398   5.410   0.181   0.312
 1500SOL    HW1 5399   5.421   0.201   0.214
 1500SOL    HW2 5400   5.427   0.264   0.364
 1501SOL     OW 5401   4.307   0.105   6.719
 1501SOL    HW1 5402   4.214   0.137   6.703
 1501SOL    HW2 5403   4.312   0.063   6.810
 1502SOL     OW 5404   6.132   6.485   0.008
 1502SOL    HW1 5405   6.134   6.413   0.078
 1502SOL    HW2 5406   6.226   6.512   7.007
 1503SOL     OW 5407   2.466   2.863   6.922
 1503SOL    HW1 5408   2.528   2.800   6.968
 1503SOL    HW2 5409   2.516   2.945   6.893
 1504SOL     OW 5410   3.412   6.905   4.989
 1504SOL    HW1 5411   3.400   6.935   4.894
 1504SOL    HW2 5412   3.431   6.807   4.990
 1505SOL     OW 5413   5.780   6.831   5.387
 1505SOL    HW1 5414   5.827   6.793   5.308
 1505SOL    HW2 5415   5.715   6.764   5.423
 1506SOL     OW 5416   0.934   5.434   3.868
 1506SOL    HW1 5417   0.948   5.532   3.855
 1506SOL    HW2 5418   0.972   5.406   3.956
 1507SOL     OW 5419   1.957   1.648   5.511
 1507SOL    HW1 5420   1.933   1.552   5.523
 1507SOL    HW2 5421   2.001   1.683   5.594
 1508SOL     OW 5422   4.351   6.978   0.754
 1508SOL    HW1 5423   4.435   6.974   0.699
 1508SOL    HW2 5424   4.375   6.996   0.850
 1509SOL     OW 5425   4.545   3.109   6.462
 1509SOL    HW1 5426   4.587   3.030   6.506
 1509SOL    HW2 5427   4.513   3.084   6.371
 1510SOL     OW 5428   0.145   2.352   4.565
 1510SOL    HW1 5429   0.187   2.390   4.647
 1510SOL    HW2 5430   0.130   2.424   4.498
 1511SOL     OW 5431   2.458   1.561   6.938
 1511SOL    HW1 5432   2.524   1.547   6.864
 1511SOL    HW2 5433   2.504   1.552   0.005
 1512SOL     OW 5434   6.889   0.331   1.450
 1512SOL    HW1 5435   6.820   0.355   1.518
 1512SOL    HW2 5436   6.977   0.314   1.495
 1513SOL     OW 5437   3.420   6.946   4.075
 1513SOL    HW1 5438   3.501   6.888   4.084
 1513SOL    HW2 5439   3.443   0.018   4.102
 1514SOL     OW 5440   5.775   2.039   5.199
 1514SOL    HW1 5441   5.719   2.003   5.274
 1514SOL    HW2 5442   5.767   1.979   5.119
 1515SOL     OW 5443   0.266   4.424   5.566
 1515SOL    HW1 5444   0.233   4.409   5.473
 1515SOL    HW2 5445   0.366   4.425   5.566
 1516SOL     OW 5446   0.789   1.630   0.673
 1516SOL    HW1 5447   0.707   1.668   0.715
 1516SOL    HW2 5448   0.848   1.704   0.640
 1517SOL     OW 5449   4.230   6.098   3.406
 1517SOL    HW1 5450   4.271   6.135   3.490
 1517SOL    HW2 5451   4.172   6.020   3.429
 1518SOL     OW 5452   6.617   4.367   0.064
 1518SOL    HW1 5453   6.520   4.363   0.040
 1518SOL    HW2 5454   6.637   4.298   0.134
 1519SOL     OW 5455   6.400   4.472   1.049
 1519SOL    HW1 5456   6.467   4.404   1.020
 1519SOL    HW2 5457   6.436   4.522   1.128
 1520SOL     OW 5458   2.015   3.396   2.389
 1520SOL    HW1 5459   1.985   3.460   2.318
 1520SOL    HW2 5460   2.105   3.360   2.365
 1521SOL     OW 5461   1.571   3.534   0.056
 1521SOL    HW1 5462   1.634   3.532   6.999
 1521SOL    HW2 5463   1.612   3.587   0.130
 1522SOL     OW 5464   6.236   1.920   6.170
 1522SOL    HW1 5465   6.292   1.899   6.250
 1522SOL    HW2 5466   6.294   1.944   6.093
 1523SOL     OW 5467   6.210   2.678   1.211
 1523SOL    HW1 5468   6.247   2.592   1.176
 1523SOL    HW2 5469   6.241   2.754   1.154
 1524SOL     OW 5470   0.279   1.415   1.190
 1524SOL    HW1 5471   0.361   1.358   1.198
 1524SOL    HW2 5472   0.277   1.482   1.264
 1525SOL     OW 5473   3.630   1.609   5.907
 1525SOL    HW1 5474   3.714   1.616   5.853
 1525SOL    HW2 5475   3.553   1.644   5.854
 1526SOL     OW 5476   0.287   1.798   1.460
 1526SOL    HW1 5477   0.306   1.814   1.363
 1526SOL    HW2 5478   0.369   1.818   1.514
 1527SOL     OW 5479   3.373   1.647   4.848
 1527SOL    HW1 5480   3.360   1.625   4.751
 1527SOL    HW2 5481   3.296   1.701   4.881
 1528SOL     OW 5482   4.573   6.540   3.118
 1528SOL    HW1 5483   4.512   6.467   3.087
 1528SOL    HW2 5484   4.637   6.504   3.185
 1529SOL     OW 5485   3.920   0.714   6.172
 1529SOL    HW1 5486   3.856   0.639   6.187
 1529SOL    HW2 5487   4.005   0.679   6.134
 1530SOL     OW 5488   3.076   6.716   2.120
 1530SOL    HW1 5489   3.163   6.666   2.127
 1530SOL    HW2 5490   3.044   6.714   2.026
 1531SOL     OW 5491   6.948   0.226   3.846
 1531SOL    HW1 5492   6.926   0.241   3.943
 1531SOL    HW2 5493   0.001   0.286   3.819
 1532SOL     OW 5494   3.400   2.280   5.341
 1532SOL    HW1 5495   3.314   2.311   5.301
 1532SOL    HW2 5496   3.427   2.343   5.415
 1533SOL     OW 5497   6.367   3.561   0.076
 1533SOL    HW1 5498   6.366   3.461   0.084
 1533SOL    HW2 5499   6.299   3.590   0.010
 1534SOL     OW 5500   0.886   5.517   0.633
 1534SOL    HW1 5501   0.933   5.605   0.641
 1534SOL    HW2 5502   0.950   5.447   0.601
 1535SOL     OW 5503   5.461   4.565   4.444
 1535SOL    HW1 5504   5.514   4.501   4.499
 1535SOL    HW2 5505   5.477   4.547   4.347
 1536SOL     OW 5506   2.219   5.798   4.480
 1536SOL    HW1 5507   2.268   5.739   4.416
 1536SOL    HW2 5508   2.135   5.752   4.510
 1537SOL     OW 5509   2.367   5.768   3.980
 1537SOL    HW1 5510   2.354   5.858   3.940
 1537SOL    HW2 5511   2.379   5.700   3.908
 1538SOL     OW 5512   2.510   4.622   6.779
 1538SOL    HW1 5513   2.554   4.538   6.747
 1538SOL    HW2 5514   2.477   4.608   6.873
 1539SOL     OW 5515   3.426   4.531   1.686
 1539SOL    HW1 5516   3.455   4.438   1.709
 1539SOL    HW2 5517   3.495   4.596   1.715
 1540SOL     OW 5518   0.841   0.092   4.650
 1540SOL    HW1 5519   0.785   0.037   4.712
 1540SOL    HW2 5520   0.880   0.033   4.579
 1541SOL     OW 5521   4.184   2.818   1.379
 1541SOL    HW1 5522   4.181   2.720   1.396
 1541SOL    HW2 5523   4.273   2.843   1.341
 1542SOL     OW 5524   0.416   6.100   1.370
 1542SOL    HW1 5525   0.393   6.171   1.303
 1542SOL    HW2 5526   0.506   6.120   1.410
 1543SOL     OW 5527   3.162   3.566   3.765
 1543SOL    HW1 5528   3.065   3.542   3.778
 1543SOL    HW2 5529   3.169   3.651   3.713
 1544SOL     OW 5530   3.138   4.065   2.559
 1544SOL    HW1 5531   3.084   4.031   2.636
 1544SOL    HW2 5532   3.227   4.097   2.592
 1545SOL     OW 5533   6.363   1.060   5.051
 1545SOL    HW1 5534   6.399   0.968   5.063
 1545SOL    HW2 5535   6.272   1.055   5.011
 1546SOL     OW 5536   6.317   6.719   6.361
 1546SOL    HW1 5537   6.307   6.677   6.451
 1546SOL    HW2 5538   6.382   6.666   6.306
 1547SOL     OW 5539   2.886   4.885   2.836
 1547SOL    HW1 5540   2.979   4.880   2.798
 1547SOL    HW2 5541   2.883   4.832   2.921
 1548SOL     OW 5542   4.103   4.758   5.302
 1548SOL    HW1 5543   4.133   4.797   5.389
 1548SOL    HW2 5544   4.015   4.712   5.314
 1549SOL     OW 5545   6.896   2.473   1.611
 1549SOL    HW1 5546   6.813   2.449   1.661
 1549SOL    HW2 5547   6.931   2.561   1.643
 1550SOL     OW 5548   2.144   6.229   5.073
 1550SOL    HW1 5549   2.047   6.207   5.082
 1550SOL    HW2 5550   2.165   6.248   4.977
 1551SOL     OW 5551   1.592   2.927   1.280
 1551SOL    HW1 5552   1.667   2.863   1.292
 1551SOL    HW2 5553   1.563   2.962   1.369
 1552SOL     OW 5554   1.345   0.402   1.206
 1552SOL    HW1 5555   1.310   0.435   1.119
 1552SOL    HW2 5556   1.443   0.385   1.198
 1553SOL     OW 5557   6.022   2.015   6.941
 1553SOL    HW1 5558   6.075   2.022   0.004
 1553SOL    HW2 5559   5.980   1.924   6.936
 1554SOL     OW 5560   4.423   2.326   2.941
 1554SOL    HW1 5561   4.329   2.295   2.925
 1554SOL    HW2 5562   4.486   2.252   2.921
 1555SOL     OW 5563   4.728   1.410   4.864
 1555SOL    HW1 5564   4.773   1.419   4.953
 1555SOL    HW2 5565   4.644   1.358   4.874
 1556SOL     OW 5566   3.497   0.266   0.884
 1556SOL    HW1 5567   3.413   0.315   0.861
 1556SOL    HW2 5568   3.473   0.182   0.933
 1557SOL     OW 5569   1.746   2.122   1.126
 1557SOL    HW1 5570   1.829   2.147   1.076
 1557SOL    HW2 5571   1.770   2.071   1.209
 1558SOL     OW 5572   6.580   3.378   5.536
 1558SOL    HW1 5573   6.652   3.352   5.600
 1558SOL    HW2 5574   6.495   3.333   5.561
 1559SOL     OW 5575   1.187   4.163   2.296
 1559SOL    HW1 5576   1.194   4.063   2.294
 1559SOL    HW2 5577   1.242   4.202   2.223
 1560SOL     OW 5578   3.979   1.185   0.603
 1560SOL    HW1 5579   4.070   1.172   0.564
 1560SOL    HW2 5580   3.915   1.120   0.561
 1561SOL     OW 5581   5.397   6.242   2.171
 1561SOL    HW1 5582   5.474   6.296   2.206
 1561SOL    HW2 5583   5.342   6.300   2.111
 1562SOL     OW 5584   3.155   0.127   2.297
 1562SOL    HW1 5585   3.084   0.123   2.227
 1562SOL    HW2 5586   3.173   0.035   2.332
 1563SOL     OW 5587   3.307   2.125   4.654
 1563SOL    HW1 5588   3.390   2.092   4.700
 1563SOL    HW2 5589   3.307   2.225   4.652
 1564SOL     OW 5590   1.283   1.745   2.299
 1564SOL    HW1 5591   1.281   1.843   2.280
 1564SOL    HW2 5592   1.377   1.713   2.299
 1565SOL     OW 5593   3.603   6.300   4.147
 1565SOL    HW1 5594   3.626   6.373   4.083
 1565SOL    HW2 5595   3.599   6.337   4.240
 1566SOL     OW 5596   4.953   4.620   3.690
 1566SOL    HW1 5597   5.053   4.617   3.681
 1566SOL    HW2 5598   4.918   4.700   3.641
 1567SOL     OW 5599   5.927   5.700   5.843
 1567SOL    HW1 5600   5.993   5.735   5.910
 1567SOL    HW2 5601   5.952   5.607   5.817
 1568SOL     OW 5602   2.277   6.332   3.195
 1568SOL    HW1 5603   2.335   6.262   3.153
 1568SOL    HW2 5604   2.196   6.289   3.236
 1569SOL     OW 5605   3.003   0.290   2.964
 1569SOL    HW1 5606   3.040   0.309   2.874
 1569SOL    HW2 5607   3.070   0.240   3.018
 1570SOL     OW 5608   3.346   0.121   0.047
 1570SOL    HW1 5609   3.367   0.029   0.077
 1570SOL    HW2 5610   3.260   0.120   7.017
 1571SOL     OW 5611   1.264   2.844   3.604
 1571SOL    HW1 5612   1.287   2.814   3.697
 1571SOL    HW2 5613   1.236   2.765   3.550
 1572SOL     OW 5614   1.689   5.009   1.638
 1572SOL    HW1 5615   1.755   4.973   1.571
 1572SOL    HW2 5616   1.714   4.977   1.729
 1573SOL     OW 5617   4.476   5.177   1.383
 1573SOL    HW1 5618   4.409   5.207   1.452
 1573SOL    HW2 5619   4.515   5.089   1.411
 1574SOL     OW 5620   6.430   3.706   1.597
 1574SOL    HW1 5621   6.451   3.804   1.592
 1574SOL    HW2 5622   6.498   3.660   1.654
 1575SOL     OW 5623   1.324   1.215   1.361
 1575SOL    HW1 5624   1.334   1.211   1.461
 1575SOL    HW2 5625   1.234   1.251   1.337
 1576SOL     OW 5626   0.378   6.153   2.225
 1576SOL    HW1 5627   0.437   6.209   2.166
 1576SOL    HW2 5628   0.341   6.077   2.171
 1577SOL     OW 5629   3.035   0.268   6.316
 1577SOL    HW1 5630   3.112   0.314   6.271
 1577SOL    HW2 5631   3.070   0.209   6.389
 1578SOL     OW 5632   4.282   0.927   0.349
 1578SOL    HW1 5633   4.229   0.959   0.428
 1578SOL    HW2 5634   4.369   0.890   0.380
 1579SOL     OW 5635   1.415   2.512   1.799
 1579SOL    HW1 5636   1.405   2.458   1.882
 1579SOL    HW2 5637   1.407   2.609   1.821
 1580SOL     OW 5638   3.051   3.966   2.806
 1580SOL    HW1 5639   3.099   4.028   2.869
 1580SOL    HW2 5640   2.993   3.904   2.858
 1581SOL     OW 5641   0.444   4.068   6.288
 1581SOL    HW1 5642   0.427   3.986   6.233
 1581SOL    HW2 5643   0.463   4.145   6.228
 1582SOL     OW 5644   4.644   6.521   5.554
 1582SOL    HW1 5645   4.625   6.570   5.468
 1582SOL    HW2 5646   4.723   6.462   5.542
 1583SOL     OW 5647   0.861   5.730   4.693
 1583SOL    HW1 5648   0.918   5.657   4.732
 1583SOL    HW2 5649   0.891   5.818   4.728
 1584SOL     OW 5650   0.798   5.802   6.540
 1584SOL    HW1 5651   0.867   5.833   6.475
 1584SOL    HW2 5652   0.707   5.815   6.500
 1585SOL     OW 5653   3.989   0.612   3.311
 1585SOL    HW1 5654   4.030   0.605   3.402
 1585SOL    HW2 5655   4.059   0.597   3.242
 1586SOL     OW 5656   2.727   5.575   4.009
 1586SOL    HW1 5657   2.786   5.508   4.055
 1586SOL    HW2 5658   2.638   5.534   3.990
 1587SOL     OW 5659   1.494   5.982   5.741
 1587SOL    HW1 5660   1.549   6.007   5.662
 1587SOL    HW2 5661   1.553   5.969   5.821
 1588SOL     OW 5662   4.938   0.444   2.205
 1588SOL    HW1 5663   4.913   0.347   2.206
 1588SOL    HW2 5664   5.033   0.454   2.235
 1589SOL     OW 5665   6.662   3.980   2.543
 1589SOL    HW1 5666   6.698   4.060   2.496
 1589SOL    HW2 5667   6.621   4.008   2.630
 1590SOL     OW 5668   5.755   2.459   3.270
 1590SOL    HW1 5669   5.676   2.398   3.270
 1590SOL    HW2 5670   5.815   2.435   3.347
 1591SOL     OW 5671   0.145   5.879   1.671
 1591SOL    HW1 5672   0.133   5.869   1.573
 1591SOL    HW2 5673   0.056   5.890   1.715
 1592SOL     OW 5674   1.403   4.062   0.098
 1592SOL    HW1 5675   1.377   4.011   0.179
 1592SOL    HW2 5676   1.397   4.003   0.018
 1593SOL     OW 5677   1.120   7.018   6.491
 1593SOL    HW1 5678   1.138   0.056   6.570
 1593SOL    HW2 5679   1.022   6.998   6.485
 1594SOL     OW 5680   0.132   0.669   2.230
 1594SOL    HW1 5681   0.072   0.665   2.151
 1594SOL    HW2 5682   0.094   0.612   2.303
 1595SOL     OW 5683   1.645   4.267   6.950
 1595SOL    HW1 5684   1.594   4.298   0.008
 1595SOL    HW2 5685   1.657   4.168   6.955
 1596SOL     OW 5686   5.999   4.119   2.612
 1596SOL    HW1 5687   5.918   4.143   2.666
 1596SOL    HW2 5688   6.066   4.194   2.617
 1597SOL     OW 5689   2.970   5.325   1.464
 1597SOL    HW1 5690   2.953   5.226   1.473
 1597SOL    HW2 5691   3.065   5.340   1.438
 1598SOL     OW 5692   1.926   5.604   6.978
 1598SOL    HW1 5693   2.006   5.665   6.983
 1598SOL    HW2 5694   1.844   5.655   7.003
 1599SOL     OW 5695   3.805   5.318   3.929
 1599SOL    HW1 5696   3.873   5.377   3.973
 1599SOL    HW2 5697   3.800   5.231   3.976
 1600SOL     OW 5698   3.498   0.588   2.673
 1600SOL    HW1 5699   3.548   0.673   2.691
 1600SOL    HW2 5700   3.563   0.516   2.648
 1601SOL     OW 5701   6.173   6.634   4.206
 1601SOL    HW1 5702   6.266   6.626   4.243
 1601SOL    HW2 5703   6.119   6.695   4.265
 1602SOL     OW 5704   4.534   5.415   4.203
 1602SOL    HW1 5705   4.436   5.402   4.190
 1602SOL    HW2 5706   4.556   5.512   4.191
 1603SOL     OW 5707   2.904   5.753   4.648
 1603SOL    HW1 5708   2.995   5.760   4.607
 1603SOL    HW2 5709   2.876   5.656   4.651
 1604SOL     OW 5710   4.203   4.697   2.131
 1604SOL    HW1 5711   4.247   4.668   2.046
 1604SOL    HW2 5712   4.248   4.654   2.209
 1605SOL     OW 5713   5.608   5.369   1.771
 1605SOL    HW1 5714   5.694   5.419   1.780
 1605SOL    HW2 5715   5.532   5.433   1.764
 1606SOL     OW 5716   4.256   5.888   3.861
 1606SOL    HW1 5717   4.300   5.865   3.948
 1606SOL    HW2 5718   4.321   5.873   3.786
 1607SOL     OW 5719   4.003   6.930   2.311
 1607SOL    HW1 5720   4.095   6.967   2.299
 1607SOL    HW2 5721   4.007   6.845   2.362
 1608SOL     OW 5722   6.830   1.254   3.320
 1608SOL    HW1 5723   6.756   1.320   3.331
 1608SOL    HW2 5724   6.792   1.164   3.299
 1609SOL     OW 5725   3.167   6.202   0.612
 1609SOL    HW1 5726   3.255   6.157   0.598
 1609SOL    HW2 5727   3.100   6.135   0.643
 1610SOL     OW 5728   3.734   6.211   0.143
 1610SOL    HW1 5729   3.677   6.184   0.065
 1610SOL    HW2 5730   3.683   6.275   0.200
 1611SOL     OW 5731   1.431   4.099   1.164
 1611SOL    HW1 5732   1.475   4.159   1.098
 1611SOL    HW2 5733   1.498   4.036   1.202
 1612SOL     OW 5734   2.810   5.344   1.068
 1612SOL    HW1 5735   2.864   5.261   1.076
 1612SOL    HW2 5736   2.867   5.423   1.088
 1613SOL     OW 5737   0.790   5.925   2.695
 1613SOL    HW1 5738   0.889   5.940   2.694
 1613SOL    HW2 5739   0.751   5.956   2.608
 1614SOL     OW 5740   5.663   2.201   6.301
 1614SOL    HW1 5741   5.571   2.230   6.273
 1614SOL    HW2 5742   5.692   2.255   6.380
 1615SOL     OW 5743   0.278   5.265   6.712
 1615SOL    HW1 5744   0.239   5.217   6.791
 1615SOL    HW2 5745   0.326   5.200   6.654
 1616SOL     OW 5746   3.550   0.887   5.046
 1616SOL    HW1 5747   3.518   0.901   5.140
 1616SOL    HW2 5748   3.622   0.953   5.026
 1617SOL     OW 5749   4.957   6.723   3.874
 1617SOL    HW1 5750   5.011   6.800   3.839
 1617SOL    HW2 5751   4.927   6.666   3.797
 1618SOL     OW 5752   1.872   6.073   2.507
 1618SOL    HW1 5753   1.886   6.052   2.410
 1618SOL    HW2 5754   1.959   6.100   2.548
 1619SOL     OW 5755   0.956   5.227   6.993
 1619SOL    HW1 5756   0.926   5.170   0.047
 1619SOL    HW2 5757   0.934   5.184   6.906
 1620SOL     OW 5758   2.949   5.132   1.130
 1620SOL    HW1 5759   3.026   5.093   1.078
 1620SOL    HW2 5760   2.951   5.096   1.224
 1621SOL     OW 5761   5.729   6.366   1.209
 1621SOL    HW1 5762   5.701   6.291   1.269
 1621SOL    HW2 5763   5.741   6.331   1.116
 1622SOL     OW 5764   0.650   4.133   5.758
 1622SOL    HW1 5765   0.580   4.179   5.814
 1622SOL    HW2 5766   0.659   4.180   5.671
 1623SOL     OW 5767   1.073   2.344   4.934
 1623SOL    HW1 5768   0.983   2.371   4.967
 1623SOL    HW2 5769   1.085   2.377   4.840
 1624SOL     OW 5770   3.333   0.818   0.501
 1624SOL    HW1 5771   3.263   0.831   0.431
 1624SOL    HW2 5772   3.315   0.881   0.577
 1625SOL     OW 5773   2.294   5.183   0.344
 1625SOL    HW1 5774   2.365   5.151   0.282
 1625SOL    HW2 5775   2.289   5.283   0.340
 1626SOL     OW 5776   3.125   1.856   2.252
 1626SOL    HW1 5777   3.109   1.954   2.268
 1626SOL    HW2 5778   3.071   1.802   2.317
 1627SOL     OW 5779   5.190   2.679   4.537
 1627SOL    HW1 5780   5.157   2.709   4.627
 1627SOL    HW2 5781   5.137   2.600   4.507
 1628SOL     OW 5782   5.263   5.645   6.858
 1628SOL    HW1 5783   5.194   5.685   6.798
 1628SOL    HW2 5784   5.302   5.564   6.813
 1629SOL     OW 5785   3.011   2.160   3.477
 1629SOL    HW1 5786   2.916   2.169   3.448
 1629SOL    HW2 5787   3.028   2.066   3.506
 1630SOL     OW 5788   0.302   3.966   6.915
 1630SOL    HW1 5789   0.327   4.063   6.910
 1630SOL    HW2 5790   0.249   3.950   6.999
 1631SOL     OW 5791   6.924   3.567   1.118
 1631SOL    HW1 5792   6.858   3.613   1.058
 1631SOL    HW2 5793   6.921   3.608   1.209
 1632SOL     OW 5794   5.507   4.554   2.268
 1632SOL    HW1 5795   5.413   4.586   2.275
 1632SOL    HW2 5796   5.532   4.505   2.351
 1633SOL     OW 5797   4.912   3.763   3.955
 1633SOL    HW1 5798   4.845   3.695   3.986
 1633SOL    HW2 5799   5.004   3.724   3.962
 1634SOL     OW 5800   4.054   0.367   4.515
 1634SOL    HW1 5801   4.126   0.301   4.494
 1634SOL    HW2 5802   4.012   0.399   4.430
 1635SOL     OW 5803   3.680   4.951   5.851
 1635SOL    HW1 5804   3.620   4.933   5.773
 1635SOL    HW2 5805   3.644   4.905   5.932
 1636SOL     OW 5806   3.974   6.242   1.118
 1636SOL    HW1 5807   3.945   6.259   1.212
 1636SOL    HW2 5808   3.913   6.176   1.074
 1637SOL     OW 5809   6.954   6.941   3.157
 1637SOL    HW1 5810   6.966   6.856   3.106
 1637SOL    HW2 5811   6.963   6.923   3.255
 1638SOL     OW 5812   0.172   3.270   1.475
 1638SOL    HW1 5813   0.139   3.182   1.508
 1638SOL    HW2 5814   0.170   3.271   1.375
 1639SOL     OW 5815   6.622   4.115   1.548
 1639SOL    HW1 5816   6.672   4.177   1.608
 1639SOL    HW2 5817   6.626   4.022   1.585
 1640SOL     OW 5818   5.941   0.268   1.279
 1640SOL    HW1 5819   5.909   0.247   1.187
 1640SOL    HW2 5820   5.959   0.182   1.328
 1641SOL     OW 5821   6.903   2.380   3.943
 1641SOL    HW1 5822   6.804   2.381   3.953
 1641SOL    HW2 5823   6.945   2.403   4.031
 1642SOL     OW 5824   6.723   2.740   6.504
 1642SOL    HW1 5825   6.640   2.797   6.504
 1642SOL    HW2 5826   6.717   2.672   6.577
 1643SOL     OW 5827   3.365   4.893   3.531
 1643SOL    HW1 5828   3.334   4.982   3.497
 1643SOL    HW2 5829   3.306   4.864   3.606
 1644SOL     OW 5830   6.100   2.961   0.471
 1644SOL    HW1 5831   6.127   2.869   0.444
 1644SOL    HW2 5832   6.131   2.979   0.564
 1645SOL     OW 5833   2.987   0.501   5.894
 1645SOL    HW1 5834   2.896   0.462   5.880
 1645SOL    HW2 5835   3.056   0.435   5.863
 1646SOL     OW 5836   1.770   5.592   6.437
 1646SOL    HW1 5837   1.697   5.644   6.481
 1646SOL    HW2 5838   1.858   5.637   6.453
 1647SOL     OW 5839   5.990   3.287   4.053
 1647SOL    HW1 5840   5.941   3.226   4.115
 1647SOL    HW2 5841   6.004   3.242   3.965
 1648SOL     OW 5842   4.774   5.937   0.190
 1648SOL    HW1 5843   4.804   5.905   0.280
 1648SOL    HW2 5844   4.853   5.951   0.131
 1649SOL     OW 5845   3.073   0.165   3.774
 1649SOL    HW1 5846   2.979   0.166   3.741
 1649SOL    HW2 5847   3.075   0.139   3.871
 1650SOL     OW 5848   1.758   4.956   6.242
 1650SOL    HW1 5849   1.726   4.862   6.257
 1650SOL    HW2 5850   1.729   4.988   6.152
 1651SOL     OW 5851   0.710   2.654   3.573
 1651SOL    HW1 5852   0.806   2.646   3.601
 1651SOL    HW2 5853   0.658   2.701   3.644
 1652SOL     OW 5854   1.106   2.695   1.651
 1652SOL    HW1 5855   1.120   2.597   1.634
 1652SOL    HW2 5856   1.017   2.722   1.617
 1653SOL     OW 5857   0.469   5.423   2.425
 1653SOL    HW1 5858   0.471   5.338   2.477
 1653SOL    HW2 5859   0.375   5.455   2.414
 1654SOL     OW 5860   0.660   2.653   1.595
 1654SOL    HW1 5861   0.716   2.736   1.588
 1654SOL    HW2 5862   0.677   2.595   1.515
 1655SOL     OW 5863   0.190   1.417   4.334
 1655SOL    HW1 5864   0.171   1.458   4.245
 1655SOL    HW2 5865   0.245   1.334   4.321
 1656SOL     OW 5866   2.328   5.649   4.247
 1656SOL    HW1 5867   2.327   5.687   4.154
 1656SOL    HW2 5868   2.422   5.640   4.277
 1657SOL     OW 5869   6.913   1.091   5.134
 1657SOL    HW1 5870   6.913   0.999   5.095
 1657SOL    HW2 5871   6.831   1.140   5.104
 1658SOL     OW 5872   6.773   6.941   0.255
 1658SOL    HW1 5873   6.824   7.020   0.291
 1658SOL    HW2 5874   6.838   6.873   0.221
 1659SOL     OW 5875   4.011   6.949   6.885
 1659SOL    HW1 5876   4.102   6.955   6.927
 1659SOL    HW2 5877   4.006   6.869   6.826
 1660SOL     OW 5878   1.672   6.480   1.977
 1660SOL    HW1 5879   1.766   6.475   2.011
 1660SOL    HW2 5880   1.612   6.519   2.047
 1661SOL     OW 5881   2.474   4.567   2.319
 1661SOL    HW1 5882   2.558   4.566   2.374
 1661SOL    HW2 5883   2.492   4.613   2.232
 1662SOL     OW 5884   0.056   1.319   5.279
 1662SOL    HW1 5885   0.118   1.245   5.252
 1662SOL    HW2 5886   6.983   1.292   5.260
 1663SOL     OW 5887   5.053   4.929   2.081
 1663SOL    HW1 5888   4.986   4.896   2.148
 1663SOL    HW2 5889   5.140   4.882   2.096
 1664SOL     OW 5890   1.267   0.574   5.209
 1664SOL    HW1 5891   1.207   0.496   5.227
 1664SOL    HW2 5892   1.292   0.576   5.112
 1665SOL     OW 5893   1.458   3.282   1.494
 1665SOL    HW1 5894   1.400   3.286   1.575
 1665SOL    HW2 5895   1.511   3.197   1.494
 1666SOL     OW 5896   5.370   6.590   6.248
 1666SOL    HW1 5897   5.429   6.666   6.220
 1666SOL    HW2 5898   5.314   6.618   6.326
 1667SOL     OW 5899   6.944   6.956   1.194
 1667SOL    HW1 5900   0.009   6.946   1.144
 1667SOL    HW2 5901   6.955   6.916   1.285
 1668SOL     OW 5902   5.106   5.117   3.733
 1668SOL    HW1 5903   5.064   5.039   3.780
 1668SOL    HW2 5904   5.178   5.156   3.791
 1669SOL     OW 5905   6.981   4.200   5.605
 1669SOL    HW1 5906   6.997   4.237   5.514
 1669SOL    HW2 5907   0.036   4.225   5.665
 1670SOL     OW 5908   1.239   4.930   5.854
 1670SOL    HW1 5909   1.206   4.897   5.943
 1670SOL    HW2 5910   1.329   4.890   5.834
 1671SOL     OW 5911   4.919   1.999   2.741
 1671SOL    HW1 5912   4.909   2.083   2.686
 1671SOL    HW2 5913   4.830   1.976   2.782
 1672SOL     OW 5914   1.070   3.522   0.149
 1672SOL    HW1 5915   1.139   3.472   0.096
 1672SOL    HW2 5916   0.991   3.463   0.164
 1673SOL     OW 5917   1.898   1.974   4.501
 1673SOL    HW1 5918   1.896   1.895   4.563
 1673SOL    HW2 5919   1.992   2.007   4.494
 1674SOL     OW 5920   5.937   2.785   2.215
 1674SOL    HW1 5921   6.018   2.746   2.257
 1674SOL    HW2 5922   5.888   2.714   2.164
 1675SOL     OW 5923   4.775   0.641   1.361
 1675SOL    HW1 5924   4.682   0.638   1.399
 1675SOL    HW2 5925   4.788   0.728   1.314
 1676SOL     OW 5926   2.204   2.536   2.775
 1676SOL    HW1 5927   2.276   2.525   2.706
 1676SOL    HW2 5928   2.181   2.447   2.814
 1677SOL     OW 5929   3.888   4.026   3.193
 1677SOL    HW1 5930   3.894   4.000   3.096
 1677SOL    HW2 5931   3.793   4.018   3.224
 1678SOL     OW 5932   0.614   6.453   1.307
 1678SOL    HW1 5933   0.639   6.358   1.324
 1678SOL    HW2 5934   0.516   6.460   1.291
 1679SOL     OW 5935   1.824   1.040   5.241
 1679SOL    HW1 5936   1.922   1.028   5.229
 1679SOL    HW2 5937   1.777   1.021   5.155
 1680SOL     OW 5938   5.480   3.071   4.415
 1680SOL    HW1 5939   5.538   3.150   4.430
 1680SOL    HW2 5940   5.440   3.041   4.501
 1681SOL     OW 5941   1.613   5.838   4.679
 1681SOL    HW1 5942   1.616   5.787   4.594
 1681SOL    HW2 5943   1.707   5.858   4.710
 1682SOL     OW 5944   2.782   0.591   6.187
 1682SOL    HW1 5945   2.683   0.609   6.185
 1682SOL    HW2 5946   2.830   0.667   6.142
 1683SOL     OW 5947   5.519   5.625   3.103
 1683SOL    HW1 5948   5.614   5.647   3.081
 1683SOL    HW2 5949   5.513   5.530   3.133
 1684SOL     OW 5950   1.328   4.492   1.840
 1684SOL    HW1 5951   1.269   4.434   1.896
 1684SOL    HW2 5952   1.325   4.461   1.745
 1685SOL     OW 5953   1.711   1.730   5.721
 1685SOL    HW1 5954   1.679   1.657   5.661
 1685SOL    HW2 5955   1.807   1.715   5.745
 1686SOL     OW 5956   4.455   5.857   3.562
 1686SOL    HW1 5957   4.370   5.815   3.528
 1686SOL    HW2 5958   4.515   5.877   3.484
 1687SOL     OW 5959   0.366   4.258   1.986
 1687SOL    HW1 5960   0.394   4.345   1.946
 1687SOL    HW2 5961   0.441   4.221   2.041
 1688SOL     OW 5962   1.899   2.229   3.535
 1688SOL    HW1 5963   1.925   2.136   3.509
 1688SOL    HW2 5964   1.806   2.230   3.569
 1689SOL     OW 5965   6.433   1.419   2.313
 1689SOL    HW1 5966   6.480   1.339   2.350
 1689SOL    HW2 5967   6.499   1.493   2.298
 1690SOL     OW 5968   1.141   3.490   4.163
 1690SOL    HW1 5969   1.044   3.513   4.155
 1690SOL    HW2 5970   1.172   3.510   4.256
 1691SOL     OW 5971   4.944   3.616   4.335
 1691SOL    HW1 5972   4.883   3.602   4.257
 1691SOL    HW2 5973   4.938   3.537   4.396
 1692SOL     OW 5974   5.430   5.478   1.532
 1692SOL    HW1 5975   5.396   5.471   1.438
 1692SOL    HW2 5976   5.521   5.436   1.537
 1693SOL     OW 5977   0.175   1.984   4.859
 1693SOL    HW1 5978   0.147   1.974   4.763
 1693SOL    HW2 5979   0.140   1.907   4.912
 1694SOL     OW 5980   6.170   1.132   4.479
 1694SOL    HW1 5981   6.201   1.103   4.569
 1694SOL    HW2 5982   6.248   1.157   4.423
 1695SOL     OW 5983   3.622   0.585   6.850
 1695SOL    HW1 5984   3.694   0.516   6.846
 1695SOL    HW2 5985   3.540   0.546   6.890
 1696SOL     OW 5986   3.890   5.487   0.691
 1696SOL    HW1 5987   3.937   5.400   0.704
 1696SOL    HW2 5988   3.916   5.551   0.763
 1697SOL     OW 5989   6.101   2.332   0.732
 1697SOL    HW1 5990   6.087   2.392   0.811
 1697SOL    HW2 5991   6.030   2.262   0.731
 1698SOL     OW 5992   3.808   1.067   1.390
 1698SOL    HW1 5993   3.759   1.149   1.419
 1698SOL    HW2 5994   3.756   1.021   1.318
 1699SOL     OW 5995   2.461   1.630   6.157
 1699SOL    HW1 5996   2.380   1.644   6.214
 1699SOL    HW2 5997   2.500   1.540   6.176
 1700SOL     OW 5998   5.821   3.429   3.823
 1700SOL    HW1 5999   5.809   3.397   3.917
 1700SOL    HW2 6000   5.918   3.424   3.799
 1701SOL     OW 6001   6.400   5.281   4.723
 1701SOL    HW1 6002   6.450   5.354   4.770
 1701SOL    HW2 6003   6.375   5.210   4.788
 1702SOL     OW 6004   1.622   0.874   6.463
 1702SOL    HW1 6005   1.709   0.891   6.510
 1702SOL    HW2 6006   1.636   0.879   6.364
 1703SOL     OW 6007   3.671   1.637   6.175
 1703SOL    HW1 6008   3.685   1.640   6.076
 1703SOL    HW2 6009   3.623   1.553   6.199
 1704SOL     OW 6010   1.799   1.577   0.222
 1704SOL    HW1 6011   1.836   1.669   0.239
 1704SOL    HW2 6012   1.776   1.534   0.309
 1705SOL     OW 6013   4.147   2.129   2.064
 1705SOL    HW1 6014   4.142   2.226   2.084
 1705SOL    HW2 6015   4.079   2.106   1.995
 1706SOL     OW 6016   4.048   1.523   1.043
 1706SOL    HW1 6017   4.075   1.504   0.948
 1706SOL    HW2 6018   4.056   1.621   1.060
 1707SOL     OW 6019   4.871   1.939   3.148
 1707SOL    HW1 6020   4.857   1.999   3.069
 1707SOL    HW2 6021   4.837   1.847   3.126
 1708SOL     OW 6022   3.641   5.575   1.925
 1708SOL    HW1 6023   3.547   5.557   1.956
 1708SOL    HW2 6024   3.699   5.498   1.950
 1709SOL     OW 6025   4.658   6.259   0.805
 1709SOL    HW1 6026   4.576   6.315   0.813
 1709SOL    HW2 6027   4.738   6.318   0.788
 1710SOL     OW 6028   4.242   5.362   3.387
 1710SOL    HW1 6029   4.170   5.294   3.405
 1710SOL    HW2 6030   4.323   5.316   3.350
 1711SOL     OW 6031   2.668   5.405   5.841
 1711SOL    HW1 6032   2.668   5.306   5.832
 1711SOL    HW2 6033   2.730   5.445   5.774
 1712SOL     OW 6034   0.442   2.339   5.282
 1712SOL    HW1 6035   0.500   2.270   5.325
 1712SOL    HW2 6036   0.492   2.425   5.276
 1713SOL     OW 6037   3.799   0.911   3.054
 1713SOL    HW1 6038   3.766   0.976   2.986
 1713SOL    HW2 6039   3.846   0.960   3.127
 1714SOL     OW 6040   3.131   2.216   6.753
 1714SOL    HW1 6041   3.208   2.215   6.689
 1714SOL    HW2 6042   3.161   2.179   6.841
 1715SOL     OW 6043   1.617   6.103   2.188
 1715SOL    HW1 6044   1.703   6.053   2.200
 1715SOL    HW2 6045   1.619   6.152   2.100
 1716SOL     OW 6046   4.496   0.313   3.910
 1716SOL    HW1 6047   4.480   0.252   3.987
 1716SOL    HW2 6048   4.544   0.395   3.942
 1717SOL     OW 6049   4.085   6.210   5.094
 1717SOL    HW1 6050   4.110   6.113   5.094
 1717SOL    HW2 6051   4.030   6.230   5.175
 1718SOL     OW 6052   2.230   2.242   2.544
 1718SOL    HW1 6053   2.200   2.227   2.638
 1718SOL    HW2 6054   2.312   2.187   2.526
 1719SOL     OW 6055   1.584   4.708   1.482
 1719SOL    HW1 6056   1.580   4.718   1.581
 1719SOL    HW2 6057   1.502   4.750   1.441
 1720SOL     OW 6058   0.306   2.967   6.105
 1720SOL    HW1 6059   0.297   2.884   6.160
 1720SOL    HW2 6060   0.358   3.035   6.155
 1721SOL     OW 6061   1.388   0.459   2.306
 1721SOL    HW1 6062   1.321   0.524   2.269
 1721SOL    HW2 6063   1.410   0.391   2.236
 1722SOL     OW 6064   3.012   1.952   3.204
 1722SOL    HW1 6065   2.955   1.997   3.135
 1722SOL    HW2 6066   3.094   2.008   3.220
 1723SOL     OW 6067   4.865   2.220   0.077
 1723SOL    HW1 6068   4.817   2.277   0.144
 1723SOL    HW2 6069   4.932   2.163   0.124
 1724SOL     OW 6070   6.361   2.410   1.607
 1724SOL    HW1 6071   6.335   2.347   1.535
 1724SOL    HW2 6072   6.460   2.406   1.621
 1725SOL     OW 6073   1.739   4.559   6.876
 1725SOL    HW1 6074   1.661   4.551   6.814
 1725SOL    HW2 6075   1.752   4.655   6.901
 1726SOL     OW 6076   5.958   4.291   3.702
 1726SOL    HW1 6077   5.973   4.379   3.658
 1726SOL    HW2 6078   6.027   4.225   3.672
 1727SOL     OW 6079   3.756   3.474   3.588
 1727SOL    HW1 6080   3.702   3.451   3.670
 1727SOL    HW2 6081   3.831   3.535   3.614
 1728SOL     OW 6082   5.124   4.608   5.463
 1728SOL    HW1 6083   5.123   4.509   5.477
 1728SOL    HW2 6084   5.034   4.637   5.429
 1729SOL     OW 6085   1.676   3.630   1.628
 1729SOL    HW1 6086   1.739   3.696   1.588
 1729SOL    HW2 6087   1.634   3.670   1.710
 1730SOL     OW 6088   2.392   5.897   4.979
 1730SOL    HW1 6089   2.390   5.861   5.073
 1730SOL    HW2 6090   2.346   5.833   4.918
 1731SOL     OW 6091   5.191   4.989   4.061
 1731SOL    HW1 6092   5.131   5.067   4.079
 1731SOL    HW2 6093   5.136   4.907   4.047
 1732SOL     OW 6094   2.172   4.347   6.113
 1732SOL    HW1 6095   2.236   4.341   6.189
 1732SOL    HW2 6096   2.201   4.285   6.040
 1733SOL     OW 6097   2.877   3.870   0.113
 1733SOL    HW1 6098   2.818   3.790   0.102
 1733SOL    HW2 6099   2.956   3.863   0.052
 1734SOL     OW 6100   6.539   3.267   1.186
 1734SOL    HW1 6101   6.475   3.326   1.237
 1734SOL    HW2 6102   6.530   3.173   1.218
 1735SOL     OW 6103   4.402   5.436   0.248
 1735SOL    HW1 6104   4.397   5.336   0.247
 1735SOL    HW2 6105   4.343   5.473   0.176
 1736SOL     OW 6106   4.292   3.866   1.351
 1736SOL    HW1 6107   4.262   3.961   1.339
 1736SOL    HW2 6108   4.273   3.837   1.445
 1737SOL     OW 6109   5.225   0.805   4.270
 1737SOL    HW1 6110   5.183   0.765   4.352
 1737SOL    HW2 6111   5.167   0.880   4.237
 1738SOL     OW 6112   1.939   4.070   4.273
 1738SOL    HW1 6113   1.905   3.976   4.261
 1738SOL    HW2 6114   2.027   4.068   4.319
 1739SOL     OW 6115   5.586   0.258   3.376
 1739SOL    HW1 6116   5.629   0.275   3.465
 1739SOL    HW2 6117   5.559   0.344   3.335
 1740SOL     OW 6118   6.993   2.188   4.913
 1740SOL    HW1 6119   0.018   2.276   4.920
 1740SOL    HW2 6120   0.009   2.137   4.835
 1741SOL     OW 6121   1.548   1.884   4.362
 1741SOL    HW1 6122   1.456   1.912   4.336
 1741SOL    HW2 6123   1.613   1.956   4.335
 1742SOL     OW 6124   5.924   0.062   5.827
 1742SOL    HW1 6125   6.015   0.048   5.790
 1742SOL    HW2 6126   5.924   0.144   5.886
 1743SOL     OW 6127   1.170   1.289   3.440
 1743SOL    HW1 6128   1.160   1.319   3.345
 1743SOL    HW2 6129   1.215   1.199   3.442
 1744SOL     OW 6130   5.328   2.514   3.587
 1744SOL    HW1 6131   5.333   2.606   3.549
 1744SOL    HW2 6132   5.245   2.469   3.552
 1745SOL     OW 6133   6.060   6.245   0.974
 1745SOL    HW1 6134   5.965   6.224   0.954
 1745SOL    HW2 6135   6.074   6.249   1.073
 1746SOL     OW 6136   1.398   4.084   3.903
 1746SOL    HW1 6137   1.494   4.096   3.930
 1746SOL    HW2 6138   1.389   4.001   3.847
 1747SOL     OW 6139   3.901   1.698   1.790
 1747SOL    HW1 6140   3.896   1.743   1.879
 1747SOL    HW2 6141   3.832   1.738   1.728
 1748SOL     OW 6142   6.647   1.564   4.423
 1748SOL    HW1 6143   6.667   1.554   4.326
 1748SOL    HW2 6144   6.630   1.474   4.463
 1749SOL     OW 6145   2.568   5.907   1.034
 1749SOL    HW1 6146   2.568   5.982   1.100
 1749SOL    HW2 6147   2.592   5.943   0.944
 1750SOL     OW 6148   4.109   0.766   5.134
 1750SOL    HW1 6149   4.117   0.699   5.060
 1750SOL    HW2 6150   4.151   0.852   5.106
 1751SOL     OW 6151   6.363   2.229   5.282
 1751SOL    HW1 6152   6.454   2.253   5.250
 1751SOL    HW2 6153   6.301   2.219   5.204
 1752SOL     OW 6154   6.460   1.491   1.206
 1752SOL    HW1 6155   6.468   1.466   1.109
 1752SOL    HW2 6156   6.460   1.408   1.261
 1753SOL     OW 6157   6.786   1.515   1.382
 1753SOL    HW1 6158   6.776   1.581   1.308
 1753SOL    HW2 6159   6.806   1.424   1.344
 1754SOL     OW 6160   3.226   5.999   5.840
 1754SOL    HW1 6161   3.219   6.008   5.741
 1754SOL    HW2 6162   3.187   5.911   5.868
 1755SOL     OW 6163   6.568   6.857   5.100
 1755SOL    HW1 6164   6.497   6.807   5.050
 1755SOL    HW2 6165   6.566   6.830   5.196
 1756SOL     OW 6166   5.321   0.299   5.934
 1756SOL    HW1 6167   5.259   0.220   5.935
 1756SOL    HW2 6168   5.391   0.288   6.004
 1757SOL     OW 6169   2.530   5.145   3.971
 1757SOL    HW1 6170   2.491   5.053   3.980
 1757SOL    HW2 6171   2.615   5.149   4.023
 1758SOL     OW 6172   2.220   6.825   5.472
 1758SOL    HW1 6173   2.160   6.905   5.465
 1758SOL    HW2 6174   2.302   6.840   5.416
 1759SOL     OW 6175   1.301   5.867   6.342
 1759SOL    HW1 6176   1.373   5.797   6.348
 1759SOL    HW2 6177   1.325   5.944   6.401
 1760SOL     OW 6178   6.047   0.753   4.526
 1760SOL    HW1 6179   6.080   0.666   4.561
 1760SOL    HW2 6180   6.115   0.791   4.463
 1761SOL     OW 6181   6.968   1.827   1.163
 1761SOL    HW1 6182   6.872   1.806   1.177
 1761SOL    HW2 6183   6.976   1.918   1.120
 1762SOL     OW 6184   1.067   1.678   5.257
 1762SOL    HW1 6185   1.109   1.740   5.323
 1762SOL    HW2 6186   1.129   1.602   5.238
 1763SOL     OW 6187   1.491   3.823   5.109
 1763SOL    HW1 6188   1.559   3.896   5.104
 1763SOL    HW2 6189   1.513   3.753   5.041
 1764SOL     OW 6190   1.661   4.266   1.926
 1764SOL    HW1 6191   1.676   4.272   1.828
 1764SOL    HW2 6192   1.734   4.211   1.968
 1765SOL     OW 6193   4.888   3.057   1.737
 1765SOL    HW1 6194   4.806   3.062   1.794
 1765SOL    HW2 6195   4.969   3.062   1.796
 1766SOL     OW 6196   4.340   4.620   3.723
 1766SOL    HW1 6197   4.290   4.655   3.803
 1766SOL    HW2 6198   4.416   4.563   3.754
 1767SOL     OW 6199   6.797   5.726   2.234
 1767SOL    HW1 6200   6.753   5.638   2.218
 1767SOL    HW2 6201   6.831   5.729   2.328
 1768SOL     OW 6202   4.856   5.890   1.799
 1768SOL    HW1 6203   4.780   5.847   1.846
 1768SOL    HW2 6204   4.843   5.989   1.798
 1769SOL     OW 6205   6.131   0.862   6.664
 1769SOL    HW1 6206   6.060   0.932   6.663
 1769SOL    HW2 6207   6.118   0.802   6.743
 1770SOL     OW 6208   1.344   4.711   5.442
 1770SOL    HW1 6209   1.345   4.616   5.413
 1770SOL    HW2 6210   1.282   4.722   5.519
 1771SOL     OW 6211   1.086   4.069   7.001
 1771SOL    HW1 6212   1.071   4.088   6.904
 1771SOL    HW2 6213   1.116   3.974   7.012
 1772SOL     OW 6214   3.227   4.909   3.749
 1772SOL    HW1 6215   3.163   4.980   3.719
 1772SOL    HW2 6216   3.223   4.900   3.848
 1773SOL     OW 6217   1.331   0.361   4.725
 1773SOL    HW1 6218   1.372   0.362   4.634
 1773SOL    HW2 6219   1.251   0.422   4.726
 1774SOL     OW 6220   5.880   6.622   1.424
 1774SOL    HW1 6221   5.866   6.523   1.421
 1774SOL    HW2 6222   5.793   6.667   1.446
 1775SOL     OW 6223   1.565   5.305   6.796
 1775SOL    HW1 6224   1.547   5.249   6.715
 1775SOL    HW2 6225   1.558   5.402   6.772
 1776SOL     OW 6226   4.425   1.053   5.364
 1776SOL    HW1 6227   4.425   1.141   5.411
 1776SOL    HW2 6228   4.496   0.994   5.403
 1777SOL     OW 6229   4.232   6.600   6.579
 1777SOL    HW1 6230   4.308   6.541   6.605
 1777SOL    HW2 6231   4.264   6.694   6.569
 1778SOL     OW 6232   5.453   1.208   3.870
 1778SOL    HW1 6233   5.477   1.118   3.907
 1778SOL    HW2 6234   5.475   1.212   3.773
 1779SOL     OW 6235   5.634   0.166   4.773
 1779SOL    HW1 6236   5.691   0.111   4.834
 1779SOL    HW2 6237   5.580   0.105   4.715
 1780SOL     OW 6238   1.290   5.020   4.928
 1780SOL    HW1 6239   1.337   5.091   4.981
 1780SOL    HW2 6240   1.237   5.062   4.854
 1781SOL     OW 6241   4.488   0.166   4.139
 1781SOL    HW1 6242   4.417   0.165   4.209
 1781SOL    HW2 6243   4.573   0.128   4.177
 1782SOL     OW 6244   1.873   2.031   2.502
 1782SOL    HW1 6245   1.837   2.059   2.413
 1782SOL    HW2 6246   1.872   1.931   2.507
 1783SOL     OW 6247   2.018   3.820   5.685
 1783SOL    HW1 6248   1.989   3.819   5.590
 1783SOL    HW2 6249   2.116   3.799   5.691
 1784SOL     OW 6250   2.521   0.528   1.053
 1784SOL    HW1 6251   2.430   0.504   1.085
 1784SOL    HW2 6252   2.520   0.620   1.013
 1785SOL     OW 6253   0.649   6.668   4.505
 1785SOL    HW1 6254   0.606   6.601   4.445
 1785SOL    HW2 6255   0.592   6.680   4.587
 1786SOL     OW 6256   1.981   5.459   0.747
 1786SOL    HW1 6257   1.938   5.391   0.806
 1786SOL    HW2 6258   1.911   5.499   0.687
 1787SOL     OW 6259   1.998   2.949   5.698
 1787SOL    HW1 6260   2.082   2.901   5.724
 1787SOL    HW2 6261   1.957   2.905   5.619
 1788SOL     OW 6262   4.656   4.210   0.739
 1788SOL    HW1 6263   4.651   4.131   0.678
 1788SOL    HW2 6264   4.626   4.292   0.690
 1789SOL     OW 6265   6.837   3.635   1.679
 1789SOL    HW1 6266   6.745   3.613   1.711
 1789SOL    HW2 6267   6.867   3.565   1.615
 1790SOL     OW 6268   2.985   2.027   4.336
 1790SOL    HW1 6269   2.955   1.952   4.394
 1790SOL    HW2 6270   2.914   2.048   4.269
 1791SOL     OW 6271   6.267   0.843   3.717
 1791SOL    HW1 6272   6.306   0.791   3.793
 1791SOL    HW2 6273   6.282   0.794   3.631
 1792SOL     OW 6274   6.981   2.236   5.303
 1792SOL    HW1 6275   6.888   2.211   5.331
 1792SOL    HW2 6276   6.987   2.335   5.294
 1793SOL     OW 6277   0.485   1.307   5.057
 1793SOL    HW1 6278   0.445   1.381   5.002
 1793SOL    HW2 6279   0.440   1.220   5.033
 1794SOL     OW 6280   6.759   0.315   6.156
 1794SOL    HW1 6281   6.852   0.290   6.179
 1794SOL    HW2 6282   6.760   0.383   6.082
 1795SOL     OW 6283   6.081   4.603   0.222
 1795SOL    HW1 6284   6.076   4.658   0.138
 1795SOL    HW2 6285   6.130   4.655   0.292
 1796SOL     OW 6286   1.241   0.153   5.109
 1796SOL    HW1 6287   1.256   0.167   5.012
 1796SOL    HW2 6288   1.321   0.185   5.160
 1797SOL     OW 6289   2.216   6.396   4.809
 1797SOL    HW1 6290   2.314   6.382   4.823
 1797SOL    HW2 6291   2.201   6.482   4.759
 1798SOL     OW 6292   3.451   3.609   4.658
 1798SOL    HW1 6293   3.411   3.529   4.614
 1798SOL    HW2 6294   3.386   3.685   4.652
 1799SOL     OW 6295   3.414   0.504   6.992
 1799SOL    HW1 6296   3.400   0.552   0.057
 1799SOL    HW2 6297   3.443   0.410   7.012
 1800SOL     OW 6298   5.095   4.080   3.956
 1800SOL    HW1 6299   5.139   4.061   3.868
 1800SOL    HW2 6300   4.998   4.098   3.941
 1801SOL     OW 6301   1.144   1.377   1.923
 1801SOL    HW1 6302   1.163   1.462   1.972
 1801SOL    HW2 6303   1.149   1.394   1.824
 1802SOL     OW 6304   6.313   4.876   3.699
 1802SOL    HW1 6305   6.214   4.862   3.707
 1802SOL    HW2 6306   6.332   4.946   3.631
 1803SOL     OW 6307   0.245   6.097   2.713
 1803SOL    HW1 6308   0.247   6.116   2.811
 1803SOL    HW2 6309   0.198   6.171   2.665
 1804SOL     OW 6310   2.961   3.750   6.222
 1804SOL    HW1 6311   2.864   3.726   6.228
 1804SOL    HW2 6312   3.013   3.692   6.286
 1805SOL     OW 6313   0.249   6.532   6.526
 1805SOL    HW1 6314   0.312   6.455   6.534
 1805SOL    HW2 6315   0.301   6.616   6.510
 1806SOL     OW 6316   6.950   2.509   2.379
 1806SOL    HW1 6317   7.008   2.428   2.371
 1806SOL    HW2 6318   6.924   2.523   2.474
 1807SOL     OW 6319   6.359   3.967   1.384
 1807SOL    HW1 6320   6.350   4.050   1.329
 1807SOL    HW2 6321   6.274   3.952   1.435
 1808SOL     OW 6322   5.041   2.360   5.854
 1808SOL    HW1 6323   4.941   2.368   5.857
 1808SOL    HW2 6324   5.076   2.409   5.775
 1809SOL     OW 6325   3.743   1.952   5.214
 1809SOL    HW1 6326   3.824   1.986   5.262
 1809SOL    HW2 6327   3.763   1.945   5.116
 1810SOL     OW 6328   0.488   6.907   3.841
 1810SOL    HW1 6329   0.521   6.839   3.906
 1810SOL    HW2 6330   0.449   6.861   3.761
 1811SOL     OW 6331   3.962   5.120   2.344
 1811SOL    HW1 6332   4.012   5.189   2.292
 1811SOL    HW2 6333   3.952   5.151   2.439
 1812SOL     OW 6334   4.509   0.379   6.280
 1812SOL    HW1 6335   4.605   0.374   6.307
 1812SOL    HW2 6336   4.451   0.363   6.359
 1813SOL     OW 6337   4.649   4.865   2.889
 1813SOL    HW1 6338   4.659   4.945   2.947
 1813SOL    HW2 6339   4.641   4.893   2.793
 1814SOL     OW 6340   0.873   6.750   0.585
 1814SOL    HW1 6341   0.776   6.737   0.607
 1814SOL    HW2 6342   0.911   6.663   0.554
 1815SOL     OW 6343   5.673   5.899   2.289
 1815SOL    HW1 6344   5.694   5.844   2.370
 1815SOL    HW2 6345   5.687   5.996   2.310
 1816SOL     OW 6346   4.097   6.013   5.639
 1816SOL    HW1 6347   4.017   6.073   5.631
 1816SOL    HW2 6348   4.176   6.067   5.668
 1817SOL     OW 6349   2.494   1.587   3.280
 1817SOL    HW1 6350   2.555   1.525   3.230
 1817SOL    HW2 6351   2.424   1.622   3.218
 1818SOL     OW 6352   2.240   6.271   0.101
 1818SOL    HW1 6353   2.147   6.294   0.072
 1818SOL    HW2 6354   2.303   6.286   0.024
 1819SOL     OW 6355   1.416   4.929   2.986
 1819SOL    HW1 6356   1.405   5.022   3.023
 1819SOL    HW2 6357   1.512   4.911   2.969
 1820SOL     OW 6358   4.295   6.829   3.246
 1820SOL    HW1 6359   4.268   6.918   3.210
 1820SOL    HW2 6360   4.214   6.779   3.277
 1821SOL     OW 6361   4.355   1.212   2.153
 1821SOL    HW1 6362   4.295   1.133   2.146
 1821SOL    HW2 6363   4.324   1.284   2.091
 1822SOL     OW 6364   0.681   2.910   2.078
 1822SOL    HW1 6365   0.583   2.886   2.081
 1822SOL    HW2 6366   0.729   2.860   2.151
 1823SOL     OW 6367   3.475   6.776   2.464
 1823SOL    HW1 6368   3.479   6.838   2.542
 1823SOL    HW2 6369   3.464   6.682   2.497
 1824SOL     OW 6370   4.187   3.838   0.946
 1824SOL    HW1 6371   4.108   3.878   0.993
 1824SOL    HW2 6372   4.259   3.907   0.938
 1825SOL     OW 6373   1.794   2.368   5.295
 1825SOL    HW1 6374   1.767   2.356   5.200
 1825SOL    HW2 6375   1.850   2.290   5.324
 1826SOL     OW 6376   3.350   2.051   2.114
 1826SOL    HW1 6377   3.371   2.065   2.211
 1826SOL    HW2 6378   3.378   1.959   2.088
 1827SOL     OW 6379   5.753   4.777   0.274
 1827SOL    HW1 6380   5.655   4.761   0.267
 1827SOL    HW2 6381   5.772   4.833   0.354
 1828SOL     OW 6382   1.407   3.401   5.848
 1828SOL    HW1 6383   1.361   3.363   5.928
 1828SOL    HW2 6384   1.502   3.368   5.845
 1829SOL     OW 6385   3.768   0.413   3.955
 1829SOL    HW1 6386   3.719   0.495   3.926
 1829SOL    HW2 6387   3.732   0.383   4.043
 1830SOL     OW 6388   5.816   6.866   4.718
 1830SOL    HW1 6389   5.817   6.892   4.622
 1830SOL    HW2 6390   5.814   6.949   4.775
 1831SOL     OW 6391   5.200   5.387   2.787
 1831SOL    HW1 6392   5.120   5.347   2.831
 1831SOL    HW2 6393   5.179   5.478   2.754
 1832SOL     OW 6394   2.446   3.502   0.674
 1832SOL    HW1 6395   2.503   3.434   0.627
 1832SOL    HW2 6396   2.352   3.497   0.639
 1833SOL     OW 6397   4.801   0.432   1.792
 1833SOL    HW1 6398   4.719   0.374   1.791
 1833SOL    HW2 6399   4.871   0.390   1.734
 1834SOL     OW 6400   2.170   2.484   0.163
 1834SOL    HW1 6401   2.101   2.448   0.226
 1834SOL    HW2 6402   2.251   2.425   0.165
 1835SOL     OW 6403   0.124   4.961   1.415
 1835SOL    HW1 6404   0.133   4.925   1.508
 1835SOL    HW2 6405   0.113   4.886   1.351
 1836SOL     OW 6406   5.166   1.797   1.857
 1836SOL    HW1 6407   5.084   1.747   1.829
 1836SOL    HW2 6408   5.144   1.857   1.934
 1837SOL     OW 6409   2.903   1.135   6.255
 1837SOL    HW1 6410   2.843   1.117   6.177
 1837SOL    HW2 6411   2.867   1.213   6.307
 1838SOL     OW 6412   6.048   1.490   0.720
 1838SOL    HW1 6413   5.983   1.439   0.776
 1838SOL    HW2 6414   5.999   1.541   0.650
 1839SOL     OW 6415   5.632   1.866   0.180
 1839SOL    HW1 6416   5.602   1.792   0.120
 1839SOL    HW2 6417   5.667   1.942   0.124
 1840SOL     OW 6418   4.545   7.017   2.887
 1840SOL    HW1 6419   4.537   0.069   2.953
 1840SOL    HW2 6420   4.573   6.933   2.933
 1841SOL     OW 6421   2.194   0.608   2.548
 1841SOL    HW1 6422   2.283   0.575   2.517
 1841SOL    HW2 6423   2.122   0.569   2.491
 1842SOL     OW 6424   1.719   4.850   0.560
 1842SOL    HW1 6425   1.667   4.915   0.506
 1842SOL    HW2 6426   1.730   4.765   0.509
 1843SOL     OW 6427   3.392   1.288   4.630
 1843SOL    HW1 6428   3.487   1.316   4.622
 1843SOL    HW2 6429   3.333   1.360   4.592
 1844SOL     OW 6430   4.560   1.650   6.783
 1844SOL    HW1 6431   4.463   1.627   6.782
 1844SOL    HW2 6432   4.581   1.702   6.866
 1845SOL     OW 6433   2.491   1.203   3.089
 1845SOL    HW1 6434   2.399   1.228   3.059
 1845SOL    HW2 6435   2.542   1.285   3.114
 1846SOL     OW 6436   4.537   1.137   2.806
 1846SOL    HW1 6437   4.577   1.055   2.766
 1846SOL    HW2 6438   4.498   1.116   2.896
 1847SOL     OW 6439   2.136   0.161   4.330
 1847SOL    HW1 6440   2.201   0.231   4.360
 1847SOL    HW2 6441   2.120   0.170   4.232
 1848SOL     OW 6442   2.078   5.671   4.039
 1848SOL    HW1 6443   2.103   5.609   3.964
 1848SOL    HW2 6444   2.132   5.649   4.120
 1849SOL     OW 6445   4.473   2.515   2.616
 1849SOL    HW1 6446   4.515   2.444   2.560
 1849SOL    HW2 6447   4.545   2.569   2.660
 1850SOL     OW 6448   5.215   2.426   2.166
 1850SOL    HW1 6449   5.228   2.472   2.078
 1850SOL    HW2 6450   5.117   2.416   2.184
 1851SOL     OW 6451   0.195   3.250   5.929
 1851SOL    HW1 6452   0.253   3.252   6.011
 1851SOL    HW2 6453   0.103   3.222   5.954
 1852SOL     OW 6454   1.590   4.955   1.922
 1852SOL    HW1 6455   1.535   4.872   1.928
 1852SOL    HW2 6456   1.531   5.035   1.926
 1853SOL     OW 6457   0.716   3.263   4.671
 1853SOL    HW1 6458   0.711   3.185   4.733
 1853SOL    HW2 6459   0.625   3.283   4.635
 1854SOL     OW 6460   0.474   5.964   3.415
 1854SOL    HW1 6461   0.545   5.972   3.485
 1854SOL    HW2 6462   0.512   5.917   3.335
 1855SOL     OW 6463   4.981   3.490   4.978
 1855SOL    HW1 6464   4.928   3.558   5.029
 1855SOL    HW2 6465   5.059   3.461   5.034
 1856SOL     OW 6466   3.960   3.845   6.973
 1856SOL    HW1 6467   4.056   3.837   6.949
 1856SOL    HW2 6468   3.946   3.814   0.046
 1857SOL     OW 6469   5.080   1.024   0.193
 1857SOL    HW1 6470   5.070   1.045   0.096
 1857SOL    HW2 6471   5.015   1.078   0.246
 1858SOL     OW 6472   4.582   2.555   4.318
 1858SOL    HW1 6473   4.654   2.614   4.352
 1858SOL    HW2 6474   4.623   2.478   4.268
 1859SOL     OW 6475   6.094   2.218   4.802
 1859SOL    HW1 6476   6.064   2.134   4.756
 1859SOL    HW2 6477   6.013   2.269   4.832
 1860SOL     OW 6478   1.284   1.656   4.982
 1860SOL    HW1 6479   1.320   1.736   5.031
 1860SOL    HW2 6480   1.296   1.669   4.884
 1861SOL     OW 6481   6.680   0.912   2.976
 1861SOL    HW1 6482   6.614   0.847   3.013
 1861SOL    HW2 6483   6.631   0.990   2.936
 1862SOL     OW 6484   2.057   6.301   6.570
 1862SOL    HW1 6485   2.065   6.234   6.643
 1862SOL    HW2 6486   2.133   6.366   6.575
 1863SOL     OW 6487   0.414   3.247   1.544
 1863SOL    HW1 6488   0.468   3.317   1.591
 1863SOL    HW2 6489   0.322   3.281   1.527
 1864SOL     OW 6490   3.204   6.292   3.175
 1864SOL    HW1 6491   3.276   6.226   3.194
 1864SOL    HW2 6492   3.196   6.356   3.251
 1865SOL     OW 6493   4.935   1.260   6.906
 1865SOL    HW1 6494   4.989   1.337   6.874
 1865SOL    HW2 6495   4.890   1.284   6.992
 1866SOL     OW 6496   0.847   4.482   4.107
 1866SOL    HW1 6497   0.820   4.481   4.010
 1866SOL    HW2 6498   0.928   4.426   4.120
 1867SOL     OW 6499   2.386   2.089   1.320
 1867SOL    HW1 6500   2.465   2.135   1.361
 1867SOL    HW2 6501   2.332   2.155   1.268
 1868SOL     OW 6502   5.639   4.294   5.619
 1868SOL    HW1 6503   5.567   4.362   5.603
 1868SOL    HW2 6504   5.657   4.287   5.717
 1869SOL     OW 6505   4.418   2.255   4.100
 1869SOL    HW1 6506   4.429   2.156   4.095
 1869SOL    HW2 6507   4.391   2.290   4.011
 1870SOL     OW 6508   1.540   4.453   4.296
 1870SOL    HW1 6509   1.633   4.422   4.312
 1870SOL    HW2 6510   1.524   4.461   4.198
 1871SOL     OW 6511   1.059   6.547   0.437
 1871SOL    HW1 6512   1.084   6.456   0.470
 1871SOL    HW2 6513   1.137   6.588   0.389
 1872SOL     OW 6514   2.981   2.154   0.589
 1872SOL    HW1 6515   2.888   2.120   0.599
 1872SOL    HW2 6516   3.027   2.106   0.514
 1873SOL     OW 6517   6.329   1.037   6.975
 1873SOL    HW1 6518   6.303   0.946   7.007
 1873SOL    HW2 6519   6.250   1.098   6.981
 1874SOL     OW 6520   1.291   6.110   6.610
 1874SOL    HW1 6521   1.336   6.051   6.677
 1874SOL    HW2 6522   1.197   6.127   6.638
 1875SOL     OW 6523   6.098   5.456   6.900
 1875SOL    HW1 6524   6.068   5.551   6.891
 1875SOL    HW2 6525   6.019   5.395   6.889
 1876SOL     OW 6526   5.720   6.677   6.346
 1876SOL    HW1 6527   5.808   6.705   6.383
 1876SOL    HW2 6528   5.724   6.582   6.315
 1877SOL     OW 6529   0.381   1.146   2.467
 1877SOL    HW1 6530   0.332   1.068   2.429
 1877SOL    HW2 6531   0.469   1.116   2.503
 1878SOL     OW 6532   0.567   4.688   3.164
 1878SOL    HW1 6533   0.572   4.688   3.064
 1878SOL    HW2 6534   0.525   4.773   3.195
 1879SOL     OW 6535   3.502   5.864   5.251
 1879SOL    HW1 6536   3.570   5.846   5.180
 1879SOL    HW2 6537   3.453   5.779   5.272
 1880SOL     OW 6538   0.131   2.064   3.600
 1880SOL    HW1 6539   0.152   1.989   3.663
 1880SOL    HW2 6540   0.079   2.028   3.522
 1881SOL     OW 6541   0.653   2.298   3.834
 1881SOL    HW1 6542   0.748   2.297   3.802
 1881SOL    HW2 6543   0.622   2.204   3.846
 1882SOL     OW 6544   1.271   6.080   0.054
 1882SOL    HW1 6545   1.173   6.064   0.051
 1882SOL    HW2 6546   1.289   6.178   0.063
 1883SOL     OW 6547   1.435   3.775   3.016
 1883SOL    HW1 6548   1.460   3.870   2.998
 1883SOL    HW2 6549   1.343   3.757   2.980
 1884SOL     OW 6550   2.853   0.691   0.712
 1884SOL    HW1 6551   2.879   0.597   0.690
 1884SOL    HW2 6552   2.929   0.753   0.692
 1885SOL     OW 6553   0.106   2.902   1.016
 1885SOL    HW1 6554   0.166   2.926   1.093
 1885SOL    HW2 6555   0.143   2.823   0.968
 1886SOL     OW 6556   2.238   2.072   6.739
 1886SOL    HW1 6557   2.253   2.153   6.795
 1886SOL    HW2 6558   2.143   2.043   6.747
 1887SOL     OW 6559   0.975   5.775   5.409
 1887SOL    HW1 6560   0.876   5.762   5.409
 1887SOL    HW2 6561   1.019   5.702   5.462
 1888SOL     OW 6562   2.337   1.818   6.519
 1888SOL    HW1 6563   2.343   1.744   6.586
 1888SOL    HW2 6564   2.429   1.851   6.498
 1889SOL     OW 6565   4.200   2.796   0.167
 1889SOL    HW1 6566   4.143   2.749   0.234
 1889SOL    HW2 6567   4.293   2.761   0.173
 1890SOL     OW 6568   0.405   5.574   6.368
 1890SOL    HW1 6569   0.390   5.525   6.283
 1890SOL    HW2 6570   0.325   5.563   6.428
 1891SOL     OW 6571   5.408   3.598   5.468
 1891SOL    HW1 6572   5.488   3.596   5.409
 1891SOL    HW2 6573   5.337   3.656   5.428
 1892SOL     OW 6574   3.696   5.211   1.510
 1892SOL    HW1 6575   3.714   5.293   1.456
 1892SOL    HW2 6576   3.611   5.222   1.561
 1893SOL     OW 6577   3.885   2.147   3.674
 1893SOL    HW1 6578   3.915   2.176   3.583
 1893SOL    HW2 6579   3.957   2.168   3.741
 1894SOL     OW 6580   4.562   3.919   1.490
 1894SOL    HW1 6581   4.596   3.827   1.508
 1894SOL    HW2 6582   4.505   3.918   1.408
 1895SOL     OW 6583   6.278   1.218   2.756
 1895SOL    HW1 6584   6.178   1.222   2.759
 1895SOL    HW2 6585   6.307   1.183   2.668
 1896SOL     OW 6586   6.389   1.665   4.405
 1896SOL    HW1 6587   6.327   1.591   4.430
 1896SOL    HW2 6588   6.483   1.632   4.403
 1897SOL     OW 6589   5.784   4.927   3.037
 1897SOL    HW1 6590   5.779   5.008   3.096
 1897SOL    HW2 6591   5.695   4.912   2.992
 1898SOL     OW 6592   5.217   5.568   1.321
 1898SOL    HW1 6593   5.146   5.635   1.299
 1898SOL    HW2 6594   5.300   5.590   1.269
 1899SOL     OW 6595   0.294   3.059   3.014
 1899SOL    HW1 6596   0.340   2.995   3.076
 1899SOL    HW2 6597   0.195   3.053   3.027
 1900SOL     OW 6598   1.265   6.047   5.849
 1900SOL    HW1 6599   1.248   6.146   5.849
 1900SOL    HW2 6600   1.362   6.030   5.834
 1901SOL     OW 6601   1.481   0.224   6.861
 1901SOL    HW1 6602   1.490   0.129   6.831
 1901SOL    HW2 6603   1.561   0.249   6.916
 1902SOL     OW 6604   0.800   2.917   4.298
 1902SOL    HW1 6605   0.715   2.889   4.253
 1902SOL    HW2 6606   0.789   3.009   4.334
 1903SOL     OW 6607   6.417   4.055   3.123
 1903SOL    HW1 6608   6.361   4.013   3.195
 1903SOL    HW2 6609   6.454   3.984   3.063
 1904SOL     OW 6610   0.033   0.468   3.911
 1904SOL    HW1 6611   0.003   0.497   4.002
 1904SOL    HW2 6612   6.990   0.502   3.843
 1905SOL     OW 6613   0.422   2.434   4.184
 1905SOL    HW1 6614   0.514   2.400   4.205
 1905SOL    HW2 6615   0.423   2.480   4.096
 1906SOL     OW 6616   2.161   6.407   6.121
 1906SOL    HW1 6617   2.141   6.309   6.126
 1906SOL    HW2 6618   2.227   6.431   6.192
 1907SOL     OW 6619   3.255   6.573   3.319
 1907SOL    HW1 6620   3.344   6.598   3.282
 1907SOL    HW2 6621   3.263   6.560   3.418
 1908SOL     OW 6622   4.174   1.689   5.941
 1908SOL    HW1 6623   4.231   1.612   5.972
 1908SOL    HW2 6624   4.143   1.742   6.020
 1909SOL     OW 6625   1.881   4.708   4.594
 1909SOL    HW1 6626   1.799   4.752   4.558
 1909SOL    HW2 6627   1.905   4.629   4.536
 1910SOL     OW 6628   5.066   2.248   6.221
 1910SOL    HW1 6629   4.980   2.196   6.219
 1910SOL    HW2 6630   5.049   2.341   6.187
 1911SOL     OW 6631   6.682   2.386   5.273
 1911SOL    HW1 6632   6.741   2.351   5.345
 1911SOL    HW2 6633   6.625   2.460   5.308
 1912SOL     OW 6634   3.145   6.924   2.466
 1912SOL    HW1 6635   3.123   6.994   2.534
 1912SOL    HW2 6636   3.161   6.837   2.513
 1913SOL     OW 6637   1.589   5.803   4.985
 1913SOL    HW1 6638   1.498   5.783   5.023
 1913SOL    HW2 6639   1.600   5.756   4.898
 1914SOL     OW 6640   2.685   2.559   6.190
 1914SOL    HW1 6641   2.769   2.572   6.137
 1914SOL    HW2 6642   2.607   2.555   6.128
 1915SOL     OW 6643   4.181   0.605   6.068
 1915SOL    HW1 6644   4.126   0.579   5.988
 1915SOL    HW2 6645   4.277   0.581   6.051
 1916SOL     OW 6646   3.276   5.776   1.892
 1916SOL    HW1 6647   3.334   5.695   1.888
 1916SOL    HW2 6648   3.189   5.753   1.935
 1917SOL     OW 6649   2.937   3.604   4.593
 1917SOL    HW1 6650   2.906   3.569   4.682
 1917SOL    HW2 6651   2.951   3.703   4.600
 1918SOL     OW 6652   5.804   5.938   5.810
 1918SOL    HW1 6653   5.867   5.996   5.758
 1918SOL    HW2 6654   5.834   5.843   5.804
 1919SOL     OW 6655   0.944   6.174   2.419
 1919SOL    HW1 6656   1.026   6.120   2.398
 1919SOL    HW2 6657   0.865   6.113   2.427
 1920SOL     OW 6658   0.182   5.697   3.687
 1920SOL    HW1 6659   0.163   5.650   3.773
 1920SOL    HW2 6660   0.219   5.788   3.706
 1921SOL     OW 6661   1.633   5.817   6.854
 1921SOL    HW1 6662   1.554   5.879   6.855
 1921SOL    HW2 6663   1.682   5.826   6.941
 1922SOL     OW 6664   3.694   3.267   1.654
 1922SOL    HW1 6665   3.653   3.179   1.629
 1922SOL    HW2 6666   3.670   3.288   1.749
 1923SOL     OW 6667   2.280   0.928   1.322
 1923SOL    HW1 6668   2.214   0.943   1.396
 1923SOL    HW2 6669   2.328   1.013   1.303
 1924SOL     OW 6670   6.628   4.562   1.998
 1924SOL    HW1 6671   6.581   4.474   2.009
 1924SOL    HW2 6672   6.565   4.636   2.021
 1925SOL     OW 6673   3.231   3.793   1.726
 1925SOL    HW1 6674   3.245   3.754   1.818
 1925SOL    HW2 6675   3.217   3.892   1.734
 1926SOL     OW 6676   1.462   0.065   4.551
 1926SOL    HW1 6677   1.473   0.101   4.459
 1926SOL    HW2 6678   1.368   0.032   4.564
 1927SOL     OW 6679   4.220   3.561   6.724
 1927SOL    HW1 6680   4.266   3.649   6.737
 1927SOL    HW2 6681   4.208   3.516   6.813
 1928SOL     OW 6682   6.814   3.531   5.736
 1928SOL    HW1 6683   6.740   3.484   5.783
 1928SOL    HW2 6684   6.853   3.469   5.667
 1929SOL     OW 6685   1.601   5.996   1.398
 1929SOL    HW1 6686   1.649   6.082   1.378
 1929SOL    HW2 6687   1.647   5.949   1.473
 1930SOL     OW 6688   6.433   4.261   6.337
 1930SOL    HW1 6689   6.362   4.315   6.292
 1930SOL    HW2 6690   6.410   4.250   6.434
 1931SOL     OW 6691   0.762   3.528   3.444
 1931SOL    HW1 6692   0.685   3.543   3.505
 1931SOL    HW2 6693   0.804   3.616   3.421
 1932SOL     OW 6694   4.849   4.008   1.893
 1932SOL    HW1 6695   4.787   4.031   1.818
 1932SOL    HW2 6696   4.854   4.085   1.957
 1933SOL     OW 6697   3.046   4.324   0.575
 1933SOL    HW1 6698   3.096   4.363   0.498
 1933SOL    HW2 6699   3.000   4.240   0.547
 1934SOL     OW 6700   0.766   6.894   5.587
 1934SOL    HW1 6701   0.809   6.808   5.614
 1934SOL    HW2 6702   0.676   6.875   5.546
 1935SOL     OW 6703   2.293   6.866   4.164
 1935SOL    HW1 6704   2.388   6.897   4.162
 1935SOL    HW2 6705   2.258   6.874   4.258
 1936SOL     OW 6706   5.444   6.055   4.810
 1936SOL    HW1 6707   5.530   6.084   4.770
 1936SOL    HW2 6708   5.371   6.065   4.743
 1937SOL     OW 6709   4.187   6.707   1.541
 1937SOL    HW1 6710   4.182   6.787   1.601
 1937SOL    HW2 6711   4.112   6.710   1.476
 1938SOL     OW 6712   3.925   1.253   3.510
 1938SOL    HW1 6713   3.956   1.308   3.432
 1938SOL    HW2 6714   3.973   1.165   3.510
 1939SOL     OW 6715   1.790   0.989   4.018
 1939SOL    HW1 6716   1.727   1.065   4.027
 1939SOL    HW2 6717   1.844   0.980   4.102
 1940SOL     OW 6718   6.031   5.303   6.650
 1940SOL    HW1 6719   5.993   5.258   6.731
 1940SOL    HW2 6720   5.957   5.345   6.597
 1941SOL     OW 6721   6.158   3.959   2.790
 1941SOL    HW1 6722   6.085   3.992   2.731
 1941SOL    HW2 6723   6.157   3.859   2.792
 1942SOL     OW 6724   5.970   5.673   2.237
 1942SOL    HW1 6725   5.987   5.673   2.336
 1942SOL    HW2 6726   6.040   5.727   2.191
 1943SOL     OW 6727   2.648   5.348   2.622
 1943SOL    HW1 6728   2.633   5.382   2.529
 1943SOL    HW2 6729   2.743   5.318   2.632
 1944SOL     OW 6730   5.652   1.664   6.525
 1944SOL    HW1 6731   5.609   1.646   6.437
 1944SOL    HW2 6732   5.665   1.763   6.536
 1945SOL     OW 6733   4.453   5.290   2.912
 1945SOL    HW1 6734   4.383   5.319   2.847
 1945SOL    HW2 6735   4.468   5.362   2.979
 1946SOL     OW 6736   1.582   6.904   0.826
 1946SOL    HW1 6737   1.541   6.923   0.916
 1946SOL    HW2 6738   1.510   6.884   0.760
 1947SOL     OW 6739   5.535   6.423   4.606
 1947SOL    HW1 6740   5.485   6.387   4.528
 1947SOL    HW2 6741   5.481   6.409   4.689
 1948SOL     OW 6742   0.245   5.154   4.681
 1948SOL    HW1 6743   0.169   5.175   4.742
 1948SOL    HW2 6744   0.227   5.193   4.591
 1949SOL     OW 6745   4.300   4.609   5.740
 1949SOL    HW1 6746   4.283   4.681   5.672
 1949SOL    HW2 6747   4.217   4.555   5.751
 1950SOL     OW 6748   3.924   3.612   6.389
 1950SOL    HW1 6749   3.840   3.596   6.338
 1950SOL    HW2 6750   3.913   3.578   6.483
 1951SOL     OW 6751   5.391   2.184   0.244
 1951SOL    HW1 6752   5.328   2.204   0.169
 1951SOL    HW2 6753   5.469   2.132   0.210
 1952SOL     OW 6754   3.791   1.695   1.109
 1952SOL    HW1 6755   3.766   1.665   1.201
 1952SOL    HW2 6756   3.844   1.779   1.115
 1953SOL     OW 6757   6.854   1.897   6.794
 1953SOL    HW1 6758   6.943   1.851   6.787
 1953SOL    HW2 6759   6.808   1.895   6.705
 1954SOL     OW 6760   5.201   2.001   3.276
 1954SOL    HW1 6761   5.291   1.984   3.317
 1954SOL    HW2 6762   5.129   1.976   3.341
 1955SOL     OW 6763   1.613   0.019   2.291
 1955SOL    HW1 6764   1.569   0.088   2.233
 1955SOL    HW2 6765   1.711   0.040   2.298
 1956SOL     OW 6766   5.016   5.877   2.899
 1956SOL    HW1 6767   4.930   5.925   2.881
 1956SOL    HW2 6768   5.084   5.903   2.831
 1957SOL     OW 6769   0.284   5.785   4.603
 1957SOL    HW1 6770   0.286   5.873   4.556
 1957SOL    HW2 6771   0.261   5.799   4.699
 1958SOL     OW 6772   5.531   3.294   4.986
 1958SOL    HW1 6773   5.626   3.315   4.963
 1958SOL    HW2 6774   5.469   3.340   4.922
 1959SOL     OW 6775   0.971   2.750   5.865
 1959SOL    HW1 6776   0.975   2.651   5.875
 1959SOL    HW2 6777   0.947   2.774   5.771
 1960SOL     OW 6778   6.404   4.931   0.857
 1960SOL    HW1 6779   6.457   4.934   0.772
 1960SOL    HW2 6780   6.372   4.838   0.873
 1961SOL     OW 6781   5.851   4.761   3.929
 1961SOL    HW1 6782   5.787   4.796   3.997
 1961SOL    HW2 6783   5.916   4.699   3.974
 1962SOL     OW 6784   1.553   6.224   3.752
 1962SOL    HW1 6785   1.592   6.175   3.830
 1962SOL    HW2 6786   1.609   6.207   3.671
 1963SOL     OW 6787   0.547   0.701   1.956
 1963SOL    HW1 6788   0.605   0.631   1.998
 1963SOL    HW2 6789   0.534   0.776   2.021
 1964SOL     OW 6790   4.666   2.900   1.588
 1964SOL    HW1 6791   4.581   2.848   1.586
 1964SOL    HW2 6792   4.658   2.974   1.655
 1965SOL     OW 6793   0.200   3.188   2.475
 1965SOL    HW1 6794   0.160   3.097   2.459
 1965SOL    HW2 6795   0.209   3.235   2.387
 1966SOL     OW 6796   0.309   4.910   4.544
 1966SOL    HW1 6797   0.275   5.001   4.566
 1966SOL    HW2 6798   0.372   4.915   4.467
 1967SOL     OW 6799   5.298   2.633   6.027
 1967SOL    HW1 6800   5.258   2.666   6.112
 1967SOL    HW2 6801   5.398   2.639   6.033
 1968SOL     OW 6802   2.698   5.697   6.657
 1968SOL    HW1 6803   2.619   5.667   6.605
 1968SOL    HW2 6804   2.775   5.636   6.638
 1969SOL     OW 6805   6.900   2.476   1.924
 1969SOL    HW1 6806   6.976   2.510   1.870
 1969SOL    HW2 6807   6.892   2.377   1.913
 1970SOL     OW 6808   1.627   0.579   5.922
 1970SOL    HW1 6809   1.700   0.648   5.924
 1970SOL    HW2 6810   1.614   0.546   5.828
 1971SOL     OW 6811   6.936   0.147   6.315
 1971SOL    HW1 6812   6.992   0.065   6.319
 1971SOL    HW2 6813   6.846   0.125   6.279
 1972SOL     OW 6814   0.621   3.491   3.851
 1972SOL    HW1 6815   0.717   3.516   3.840
 1972SOL    HW2 6816   0.603   3.466   3.946
 1973SOL     OW 6817   3.714   2.767   1.808
 1973SOL    HW1 6818   3.616   2.753   1.820
 1973SOL    HW2 6819   3.730   2.822   1.725
 1974SOL     OW 6820   6.112   6.367   4.185
 1974SOL    HW1 6821   6.157   6.456   4.179
 1974SOL    HW2 6822   6.052   6.366   4.265
 1975SOL     OW 6823   2.124   0.456   4.461
 1975SOL    HW1 6824   2.206   0.419   4.505
 1975SOL    HW2 6825   2.043   0.426   4.510
 1976SOL     OW 6826   0.473   6.184   0.535
 1976SOL    HW1 6827   0.497   6.087   0.545
 1976SOL    HW2 6828   0.380   6.199   0.567
 1977SOL     OW 6829   0.792   2.909   3.941
 1977SOL    HW1 6830   0.806   2.999   3.983
 1977SOL    HW2 6831   0.881   2.871   3.914
 1978SOL     OW 6832   0.837   1.771   4.121
 1978SOL    HW1 6833   0.761   1.781   4.185
 1978SOL    HW2 6834   0.837   1.679   4.082
 1979SOL     OW 6835   6.778   4.741   4.868
 1979SOL    HW1 6836   6.776   4.747   4.968
 1979SOL    HW2 6837   6.685   4.754   4.832
 1980SOL     OW 6838   3.165   0.320   0.855
 1980SOL    HW1 6839   3.182   0.234   0.807
 1980SOL    HW2 6840   3.173   0.396   0.790
 1981SOL     OW 6841   5.321   2.306   2.922
 1981SOL    HW1 6842   5.291   2.387   2.872
 1981SOL    HW2 6843   5.331   2.329   3.019
 1982SOL     OW 6844   6.123   5.145   5.139
 1982SOL    HW1 6845   6.069   5.227   5.118
 1982SOL    HW2 6846   6.209   5.149   5.089
 1983SOL     OW 6847   1.740   2.190   3.191
 1983SOL    HW1 6848   1.833   2.156   3.177
 1983SOL    HW2 6849   1.674   2.119   3.163
 1984SOL     OW 6850   4.431   1.719   6.213
 1984SOL    HW1 6851   4.350   1.770   6.184
 1984SOL    HW2 6852   4.426   1.701   6.311
 1985SOL     OW 6853   0.794   1.231   2.132
 1985SOL    HW1 6854   0.888   1.248   2.162
 1985SOL    HW2 6855   0.786   1.253   2.034
 1986SOL     OW 6856   1.192   1.823   6.883
 1986SOL    HW1 6857   1.117   1.805   6.947
 1986SOL    HW2 6858   1.155   1.849   6.794
 1987SOL     OW 6859   2.792   2.986   1.729
 1987SOL    HW1 6860   2.872   2.926   1.728
 1987SOL    HW2 6861   2.822   3.080   1.745
 1988SOL     OW 6862   4.797   4.238   6.826
 1988SOL    HW1 6863   4.885   4.260   6.869
 1988SOL    HW2 6864   4.756   4.161   6.875
 1989SOL     OW 6865   2.308   0.469   4.856
 1989SOL    HW1 6866   2.381   0.538   4.844
 1989SOL    HW2 6867   2.348   0.378   4.852
 1990SOL     OW 6868   2.904   0.662   1.945
 1990SOL    HW1 6869   2.903   0.572   1.990
 1990SOL    HW2 6870   2.883   0.650   1.848
 1991SOL     OW 6871   3.825   5.436   6.005
 1991SOL    HW1 6872   3.728   5.451   6.022
 1991SOL    HW2 6873   3.859   5.504   5.940
 1992SOL     OW 6874   2.822   0.149   5.275
 1992SOL    HW1 6875   2.885   0.227   5.280
 1992SOL    HW2 6876   2.809   0.123   5.179
 1993SOL     OW 6877   3.680   3.605   5.487
 1993SOL    HW1 6878   3.640   3.678   5.431
 1993SOL    HW2 6879   3.720   3.644   5.570
 1994SOL     OW 6880   0.337   2.295   2.314
 1994SOL    HW1 6881   0.408   2.300   2.243
 1994SOL    HW2 6882   0.328   2.384   2.358
 1995SOL     OW 6883   6.342   1.947   2.210
 1995SOL    HW1 6884   6.407   2.024   2.214
 1995SOL    HW2 6885   6.340   1.911   2.117
 1996SOL     OW 6886   3.386   2.828   0.971
 1996SOL    HW1 6887   3.399   2.815   0.873
 1996SOL    HW2 6888   3.389   2.739   1.017
 1997SOL     OW 6889   5.817   1.332   4.825
 1997SOL    HW1 6890   5.876   1.340   4.745
 1997SOL    HW2 6891   5.768   1.244   4.822
 1998SOL     OW 6892   2.942   3.746   6.690
 1998SOL    HW1 6893   2.864   3.795   6.650
 1998SOL    HW2 6894   3.023   3.761   6.634
 1999SOL     OW 6895   2.328   0.450   2.314
 1999SOL    HW1 6896   2.264   0.385   2.274
 1999SOL    HW2 6897   2.351   0.520   2.247
 2000SOL     OW 6898   4.103   1.468   4.786
 2000SOL    HW1 6899   4.056   1.382   4.808
 2000SOL    HW2 6900   4.037   1.543   4.787
 2001SOL     OW 6901   3.477   2.208   1.656
 2001SOL    HW1 6902   3.534   2.233   1.735
 2001SOL    HW2 6903   3.494   2.113   1.632
 2002SOL     OW 6904   1.419   6.294   6.102
 2002SOL    HW1 6905   1.365   6.222   6.145
 2002SOL    HW2 6906   1.507   6.258   6.074
 2003SOL     OW 6907   5.028   0.181   3.974
 2003SOL    HW1 6908   5.068   0.229   4.052
 2003SOL    HW2 6909   5.097   0.121   3.933
 2004SOL     OW 6910   4.437   0.914   4.427
 2004SOL    HW1 6911   4.404   0.938   4.336
 2004SOL    HW2 6912   4.470   0.997   4.473
 2005SOL     OW 6913   1.533   5.573   6.731
 2005SOL    HW1 6914   1.556   5.631   6.809
 2005SOL    HW2 6915   1.542   5.625   6.646
 2006SOL     OW 6916   4.942   4.337   3.786
 2006SOL    HW1 6917   4.847   4.311   3.803
 2006SOL    HW2 6918   4.945   4.408   3.715
 2007SOL     OW 6919   4.996   5.061   6.887
 2007SOL    HW1 6920   5.071   5.112   6.844
 2007SOL    HW2 6921   4.947   5.121   6.950
 2008SOL     OW 6922   0.061   6.022   3.881
 2008SOL    HW1 6923   7.006   6.068   3.836
 2008SOL    HW2 6924   0.026   5.952   3.943
 2009SOL     OW 6925   6.035   0.371   1.869
 2009SOL    HW1 6926   6.072   0.303   1.932
 2009SOL    HW2 6927   6.106   0.437   1.845
 2010SOL     OW 6928   1.707   0.875   1.341
 2010SOL    HW1 6929   1.628   0.920   1.300
 2010SOL    HW2 6930   1.729   0.919   1.429
 2011SOL     OW 6931   0.011   2.589   5.192
 2011SOL    HW1 6932   0.049   2.572   5.282
 2011SOL    HW2 6933   7.003   2.685   5.185
 2012SOL     OW 6934   0.901   3.623   1.709
 2012SOL    HW1 6935   0.892   3.687   1.632
 2012SOL    HW2 6936   0.992   3.581   1.706
 2013SOL     OW 6937   5.105   1.794   2.758
 2013SOL    HW1 6938   5.049   1.877   2.750
 2013SOL    HW2 6939   5.153   1.795   2.845
 2014SOL     OW 6940   1.043   5.768   3.277
 2014SOL    HW1 6941   0.975   5.841   3.285
 2014SOL    HW2 6942   1.086   5.772   3.187
 2015SOL     OW 6943   3.233   1.123   0.100
 2015SOL    HW1 6944   3.208   1.218   0.078
 2015SOL    HW2 6945   3.202   1.063   0.026
 2016SOL     OW 6946   0.996   5.136   4.463
 2016SOL    HW1 6947   1.076   5.184   4.499
 2016SOL    HW2 6948   0.925   5.132   4.533
 2017SOL     OW 6949   3.237   6.539   3.598
 2017SOL    HW1 6950   3.306   6.479   3.638
 2017SOL    HW2 6951   3.275   6.631   3.587
 2018SOL     OW 6952   0.208   5.557   5.574
 2018SOL    HW1 6953   0.129   5.517   5.526
 2018SOL    HW2 6954   0.292   5.512   5.543
 2019SOL     OW 6955   5.462   2.994   0.875
 2019SOL    HW1 6956   5.439   3.059   0.948
 2019SOL    HW2 6957   5.384   2.983   0.814
 2020SOL     OW 6958   1.418   5.200   5.073
 2020SOL    HW1 6959   1.513   5.172   5.057
 2020SOL    HW2 6960   1.417   5.285   5.124
 2021SOL     OW 6961   1.810   0.570   2.776
 2021SOL    HW1 6962   1.873   0.493   2.766
 2021SOL    HW2 6963   1.814   0.605   2.869
 2022SOL     OW 6964   1.783   3.861   1.932
 2022SOL    HW1 6965   1.686   3.857   1.907
 2022SOL    HW2 6966   1.801   3.793   2.004
 2023SOL     OW 6967   0.003   1.525   6.867
 2023SOL    HW1 6968   6.999   1.599   6.929
 2023SOL    HW2 6969   6.942   1.472   6.842
 2024SOL     OW 6970   6.968   1.036   2.976
 2024SOL    HW1 6971   6.968   1.124   2.927
 2024SOL    HW2 6972   6.876   0.996   2.972
 2025SOL     OW 6973   1.493   2.213   1.743
 2025SOL    HW1 6974   1.467   2.308   1.727
 2025SOL    HW2 6975   1.494   2.164   1.656
 2026SOL     OW 6976   2.010   1.962   6.248
 2026SOL    HW1 6977   2.103   1.946   6.214
 2026SOL    HW2 6978   1.996   1.906   6.330
 2027SOL     OW 6979   0.547   1.130   1.926
 2027SOL    HW1 6980   0.620   1.195   1.903
 2027SOL    HW2 6981   0.579   1.068   1.998
 2028SOL     OW 6982   3.577   1.473   0.678
 2028SOL    HW1 6983   3.637   1.415   0.623
 2028SOL    HW2 6984   3.629   1.514   0.753
 2029SOL     OW 6985   0.815   0.397   6.646
 2029SOL    HW1 6986   0.898   0.392   6.701
 2029SOL    HW2 6987   0.770   0.485   6.662
 2030SOL     OW 6988   1.640   2.321   3.659
 2030SOL    HW1 6989   1.616   2.232   3.621
 2030SOL    HW2 6990   1.575   2.390   3.627
 2031SOL     OW 6991   5.478   6.037   2.019
 2031SOL    HW1 6992   5.455   6.084   2.105
 2031SOL    HW2 6993   5.519   6.102   1.955
 2032SOL     OW 6994   5.122   6.519   0.814
 2032SOL    HW1 6995   5.055   6.444   0.820
 2032SOL    HW2 6996   5.106   6.582   0.890
 2033SOL     OW 6997   4.400   4.553   5.999
 2033SOL    HW1 6998   4.465   4.625   6.025
 2033SOL    HW2 6999   4.372   4.567   5.904
 2034SOL     OW 7000   2.031   6.202   3.296
 2034SOL    HW1 7001   1.979   6.129   3.252
 2034SOL    HW2 7002   2.019   6.196   3.395
 2035SOL     OW 7003   6.706   2.088   2.470
 2035SOL    HW1 7004   6.717   2.101   2.372
 2035SOL    HW2 7005   6.610   2.070   2.491
 2036SOL     OW 7006   0.268   5.830   1.399
 2036SOL    HW1 7007   0.316   5.743   1.410
 2036SOL    HW2 7008   0.328   5.905   1.425
 2037SOL     OW 7009   6.768   2.583   6.003
 2037SOL    HW1 7010   6.793   2.510   6.067
 2037SOL    HW2 7011   6.837   2.656   6.008
 2038SOL     OW 7012   0.908   1.782   6.259
 2038SOL    HW1 7013   0.830   1.721   6.246
 2038SOL    HW2 7014   0.882   1.855   6.323
 2039SOL     OW 7015   0.397   6.251   3.250
 2039SOL    HW1 7016   0.486   6.263   3.293
 2039SOL    HW2 7017   0.409   6.205   3.162
 2040SOL     OW 7018   3.893   3.055   4.512
 2040SOL    HW1 7019   3.864   3.014   4.426
 2040SOL    HW2 7020   3.993   3.059   4.515
 2041SOL     OW 7021   6.082   5.665   6.386
 2041SOL    HW1 7022   6.165   5.705   6.347
 2041SOL    HW2 7023   6.090   5.565   6.386
 2042SOL     OW 7024   5.872   5.253   0.644
 2042SOL    HW1 7025   5.838   5.270   0.551
 2042SOL    HW2 7026   5.969   5.274   0.649
 2043SOL     OW 7027   6.567   5.317   2.051
 2043SOL    HW1 7028   6.595   5.279   2.139
 2043SOL    HW2 7029   6.555   5.416   2.059
 2044SOL     OW 7030   5.512   0.595   1.596
 2044SOL    HW1 7031   5.557   0.524   1.541
 2044SOL    HW2 7032   5.483   0.556   1.683
 2045SOL     OW 7033   1.682   4.501   5.361
 2045SOL    HW1 7034   1.585   4.478   5.371
 2045SOL    HW2 7035   1.736   4.442   5.421
 2046SOL     OW 7036   6.618   0.752   4.597
 2046SOL    HW1 7037   6.661   0.823   4.541
 2046SOL    HW2 7038   6.566   0.690   4.538
 2047SOL     OW 7039   4.481   2.087   0.703
 2047SOL    HW1 7040   4.510   2.119   0.794
 2047SOL    HW2 7041   4.489   1.988   0.699
 2048SOL     OW 7042   3.545   6.185   6.956
 2048SOL    HW1 7043   3.494   6.103   6.929
 2048SOL    HW2 7044   3.554   6.246   6.877
 2049SOL     OW 7045   4.806   2.385   6.602
 2049SOL    HW1 7046   4.735   2.448   6.634
 2049SOL    HW2 7047   4.800   2.299   6.654
 2050SOL     OW 7048   6.163   2.983   4.121
 2050SOL    HW1 7049   6.114   3.033   4.192
 2050SOL    HW2 7050   6.171   3.040   4.039
 2051SOL     OW 7051   6.972   4.835   6.713
 2051SOL    HW1 7052   6.877   4.814   6.693
 2051SOL    HW2 7053   6.977   4.909   6.780
 2052SOL     OW 7054   0.384   3.296   6.814
 2052SOL    HW1 7055   0.311   3.264   6.754
 2052SOL    HW2 7056   0.461   3.328   6.759
 2053SOL     OW 7057   5.985   0.621   0.569
 2053SOL    HW1 7058   5.986   0.542   0.508
 2053SOL    HW2 7059   5.953   0.701   0.518
 2054SOL     OW 7060   5.424   3.116   1.105
 2054SOL    HW1 7061   5.495   3.107   1.175
 2054SOL    HW2 7062   5.407   3.212   1.086
 2055SOL     OW 7063   5.628   3.111   2.860
 2055SOL    HW1 7064   5.690   3.055   2.914
 2055SOL    HW2 7065   5.667   3.203   2.849
 2056SOL     OW 7066   1.909   1.722   2.461
 2056SOL    HW1 7067   1.942   1.694   2.371
 2056SOL    HW2 7068   1.915   1.645   2.524
 2057SOL     OW 7069   5.511   2.388   3.769
 2057SOL    HW1 7070   5.513   2.292   3.743
 2057SOL    HW2 7071   5.456   2.440   3.703
 2058SOL     OW 7072   1.114   1.769   2.902
 2058SOL    HW1 7073   1.017   1.792   2.897
 2058SOL    HW2 7074   1.128   1.678   2.863
 2059SOL     OW 7075   2.245   6.642   6.780
 2059SOL    HW1 7076   2.316   6.706   6.810
 2059SOL    HW2 7077   2.203   6.677   6.696
 2060SOL     OW 7078   6.924   4.351   0.858
 2060SOL    HW1 7079   6.978   4.305   0.788
 2060SOL    HW2 7080   6.898   4.286   0.929
 2061SOL     OW 7081   0.212   1.396   2.686
 2061SOL    HW1 7082   0.146   1.324   2.665
 2061SOL    HW2 7083   0.198   1.473   2.624
 2062SOL     OW 7084   5.348   0.144   3.406
 2062SOL    HW1 7085   5.323   0.206   3.481
 2062SOL    HW2 7086   5.437   0.170   3.370
 2063SOL     OW 7087   0.679   0.915   6.918
 2063SOL    HW1 7088   0.639   0.857   6.989
 2063SOL    HW2 7089   0.614   0.928   6.843
 2064SOL     OW 7090   0.896   1.922   5.882
 2064SOL    HW1 7091   0.912   2.000   5.822
 2064SOL    HW2 7092   0.983   1.893   5.922
 2065SOL     OW 7093   5.929   3.639   2.200
 2065SOL    HW1 7094   5.849   3.662   2.145
 2065SOL    HW2 7095   5.919   3.545   2.234
 2066SOL     OW 7096   0.727   5.550   4.134
 2066SOL    HW1 7097   0.804   5.610   4.159
 2066SOL    HW2 7098   0.756   5.455   4.141
 2067SOL     OW 7099   0.065   6.547   0.692
 2067SOL    HW1 7100   0.010   6.495   0.758
 2067SOL    HW2 7101   0.007   6.612   0.644
 2068SOL     OW 7102   1.734   1.268   5.405
 2068SOL    HW1 7103   1.793   1.198   5.364
 2068SOL    HW2 7104   1.647   1.270   5.358
 2069SOL     OW 7105   0.418   2.589   3.212
 2069SOL    HW1 7106   0.358   2.548   3.281
 2069SOL    HW2 7107   0.514   2.573   3.237
 2070SOL     OW 7108   1.882   0.111   2.342
 2070SOL    HW1 7109   1.837   0.197   2.366
 2070SOL    HW2 7110   1.960   0.131   2.282
 2071SOL     OW 7111   0.585   6.466   4.809
 2071SOL    HW1 7112   0.519   6.529   4.770
 2071SOL    HW2 7113   0.617   6.403   4.739
 2072SOL     OW 7114   4.312   6.029   1.661
 2072SOL    HW1 7115   4.372   6.103   1.630
 2072SOL    HW2 7116   4.271   5.984   1.581
 2073SOL     OW 7117   3.953   6.421   4.600
 2073SOL    HW1 7118   3.866   6.380   4.573
 2073SOL    HW2 7119   3.943   6.463   4.691
 2074SOL     OW 7120   0.730   2.056   6.638
 2074SOL    HW1 7121   0.802   2.077   6.570
 2074SOL    HW2 7122   0.650   2.113   6.620
 2075SOL     OW 7123   5.257   3.113   1.389
 2075SOL    HW1 7124   5.167   3.101   1.429
 2075SOL    HW2 7125   5.270   3.048   1.314
 2076SOL     OW 7126   5.483   6.226   6.845
 2076SOL    HW1 7127   5.482   6.266   6.937
 2076SOL    HW2 7128   5.392   6.194   6.821
 2077SOL     OW 7129   5.281   2.848   1.925
 2077SOL    HW1 7130   5.302   2.813   2.016
 2077SOL    HW2 7131   5.218   2.786   1.879
 2078SOL     OW 7132   2.432   5.976   6.070
 2078SOL    HW1 7133   2.416   6.058   6.125
 2078SOL    HW2 7134   2.349   5.951   6.021
 2079SOL     OW 7135   5.688   1.427   3.306
 2079SOL    HW1 7136   5.629   1.447   3.385
 2079SOL    HW2 7137   5.635   1.433   3.222
 2080SOL     OW 7138   2.500   1.219   4.946
 2080SOL    HW1 7139   2.489   1.193   5.042
 2080SOL    HW2 7140   2.542   1.309   4.941
 2081SOL     OW 7141   1.341   5.797   5.076
 2081SOL    HW1 7142   1.333   5.879   5.133
 2081SOL    HW2 7143   1.283   5.805   4.995
 2082SOL     OW 7144   5.929   0.336   2.185
 2082SOL    HW1 7145   5.900   0.312   2.277
 2082SOL    HW2 7146   6.029   0.330   2.178
 2083SOL     OW 7147   4.034   4.220   6.359
 2083SOL    HW1 7148   4.015   4.173   6.445
 2083SOL    HW2 7149   4.095   4.164   6.303
 2084SOL     OW 7150   6.891   3.323   4.073
 2084SOL    HW1 7151   6.990   3.313   4.070
 2084SOL    HW2 7152   6.860   3.370   3.990
 2085SOL     OW 7153   5.114   0.800   6.872
 2085SOL    HW1 7154   5.105   0.899   6.887
 2085SOL    HW2 7155   5.063   0.775   6.790
 2086SOL     OW 7156   2.817   5.835   6.181
 2086SOL    HW1 7157   2.756   5.869   6.253
 2086SOL    HW2 7158   2.777   5.855   6.091
 2087SOL     OW 7159   4.730   6.808   1.566
 2087SOL    HW1 7160   4.800   6.738   1.575
 2087SOL    HW2 7161   4.642   6.772   1.595
 2088SOL     OW 7162   3.160   5.551   0.623
 2088SOL    HW1 7163   3.096   5.535   0.698
 2088SOL    HW2 7164   3.112   5.543   0.536
 2089SOL     OW 7165   3.926   1.418   0.062
 2089SOL    HW1 7166   3.901   1.365   0.143
 2089SOL    HW2 7167   3.881   1.380   7.003
 2090SOL     OW 7168   4.157   3.419   4.785
 2090SOL    HW1 7169   4.232   3.413   4.852
 2090SOL    HW2 7170   4.170   3.500   4.729
 2091SOL     OW 7171   0.356   6.558   6.932
 2091SOL    HW1 7172   0.288   6.547   7.004
 2091SOL    HW2 7173   0.439   6.599   6.970
 2092SOL     OW 7174   4.937   5.523   0.686
 2092SOL    HW1 7175   4.838   5.538   0.682
 2092SOL    HW2 7176   4.975   5.571   0.765
 2093SOL     OW 7177   1.484   2.015   1.559
 2093SOL    HW1 7178   1.554   1.956   1.598
 2093SOL    HW2 7179   1.448   1.972   1.475
 2094SOL     OW 7180   6.127   1.460   1.617
 2094SOL    HW1 7181   6.032   1.470   1.646
 2094SOL    HW2 7182   6.152   1.363   1.615
 2095SOL     OW 7183   5.953   0.337   3.987
 2095SOL    HW1 7184   5.853   0.334   3.990
 2095SOL    HW2 7185   5.988   0.363   4.077
 2096SOL     OW 7186   4.914   3.850   2.619
 2096SOL    HW1 7187   4.864   3.887   2.541
 2096SOL    HW2 7188   4.871   3.882   2.704
 2097SOL     OW 7189   1.136   2.813   6.423
 2097SOL    HW1 7190   1.120   2.745   6.494
 2097SOL    HW2 7191   1.138   2.767   6.334
 2098SOL     OW 7192   3.543   5.665   3.396
 2098SOL    HW1 7193   3.469   5.638   3.458
 2098SOL    HW2 7194   3.593   5.742   3.436
 2099SOL     OW 7195   2.629   1.868   4.764
 2099SOL    HW1 7196   2.530   1.873   4.771
 2099SOL    HW2 7197   2.668   1.960   4.773
 2100SOL     OW 7198   3.791   4.237   6.175
 2100SOL    HW1 7199   3.874   4.246   6.230
 2100SOL    HW2 7200   3.734   4.164   6.213
 2101SOL     OW 7201   1.522   6.579   2.168
 2101SOL    HW1 7202   1.463   6.656   2.194
 2101SOL    HW2 7203   1.492   6.497   2.216
 2102SOL     OW 7204   0.595   4.975   1.901
 2102SOL    HW1 7205   0.606   5.053   1.963
 2102SOL    HW2 7206   0.550   4.900   1.950
 2103SOL     OW 7207   3.065   3.821   6.951
 2103SOL    HW1 7208   3.159   3.790   6.966
 2103SOL    HW2 7209   3.042   3.811   6.854
 2104SOL     OW 7210   1.256   3.615   6.829
 2104SOL    HW1 7211   1.268   3.550   6.904
 2104SOL    HW2 7212   1.343   3.630   6.783
 2105SOL     OW 7213   5.811   5.211   3.679
 2105SOL    HW1 7214   5.733   5.160   3.716
 2105SOL    HW2 7215   5.895   5.180   3.723
 2106SOL     OW 7216   3.891   4.727   0.196
 2106SOL    HW1 7217   3.835   4.692   0.272
 2106SOL    HW2 7218   3.874   4.825   0.186
 2107SOL     OW 7219   4.398   2.901   5.620
 2107SOL    HW1 7220   4.384   2.834   5.693
 2107SOL    HW2 7221   4.467   2.968   5.648
 2108SOL     OW 7222   6.604   6.608   5.768
 2108SOL    HW1 7223   6.646   6.524   5.732
 2108SOL    HW2 7224   6.505   6.599   5.765
 2109SOL     OW 7225   5.239   6.569   3.639
 2109SOL    HW1 7226   5.314   6.538   3.698
 2109SOL    HW2 7227   5.248   6.667   3.623
 2110SOL     OW 7228   3.299   3.745   6.078
 2110SOL    HW1 7229   3.227   3.677   6.070
 2110SOL    HW2 7230   3.316   3.787   5.989
 2111SOL     OW 7231   0.159   1.905   6.594
 2111SOL    HW1 7232   0.187   1.844   6.668
 2111SOL    HW2 7233   0.076   1.869   6.551
 2112SOL     OW 7234   4.444   1.695   1.219
 2112SOL    HW1 7235   4.493   1.782   1.226
 2112SOL    HW2 7236   4.406   1.685   1.127
 2113SOL     OW 7237   1.174   0.199   3.959
 2113SOL    HW1 7238   1.177   0.132   4.033
 2113SOL    HW2 7239   1.083   0.240   3.955
 2114SOL     OW 7240   1.706   2.658   0.609
 2114SOL    HW1 7241   1.787   2.601   0.601
 2114SOL    HW2 7242   1.721   2.744   0.561
 2115SOL     OW 7243   2.133   4.528   3.087
 2115SOL    HW1 7244   2.199   4.454   3.098
 2115SOL    HW2 7245   2.176   4.606   3.042
 2116SOL     OW 7246   0.207   4.427   3.145
 2116SOL    HW1 7247   0.154   4.428   3.060
 2116SOL    HW2 7248   0.146   4.448   3.221
 2117SOL     OW 7249   0.133   4.737   1.260
 2117SOL    HW1 7250   0.222   4.760   1.219
 2117SOL    HW2 7251   0.060   4.761   1.196
 2118SOL     OW 7252   0.441   3.466   2.460
 2118SOL    HW1 7253   0.528   3.417   2.461
 2118SOL    HW2 7254   0.414   3.488   2.554
 2119SOL     OW 7255   2.244   5.551   0.892
 2119SOL    HW1 7256   2.204   5.549   0.984
 2119SOL    HW2 7257   2.187   5.498   0.829
 2120SOL     OW 7258   6.636   5.492   3.667
 2120SOL    HW1 7259   6.717   5.548   3.648
 2120SOL    HW2 7260   6.592   5.524   3.751
 2121SOL     OW 7261   1.386   4.482   5.784
 2121SOL    HW1 7262   1.389   4.385   5.805
 2121SOL    HW2 7263   1.318   4.499   5.713
 2122SOL     OW 7264   6.108   4.423   5.270
 2122SOL    HW1 7265   6.082   4.330   5.246
 2122SOL    HW2 7266   6.060   4.488   5.211
 2123SOL     OW 7267   0.490   4.419   2.835
 2123SOL    HW1 7268   0.492   4.411   2.735
 2123SOL    HW2 7269   0.399   4.393   2.869
 2124SOL     OW 7270   2.302   1.106   1.697
 2124SOL    HW1 7271   2.334   1.190   1.654
 2124SOL    HW2 7272   2.222   1.072   1.647
 2125SOL     OW 7273   1.397   0.198   0.225
 2125SOL    HW1 7274   1.431   0.291   0.210
 2125SOL    HW2 7275   1.462   0.132   0.187
 2126SOL     OW 7276   3.174   0.694   1.468
 2126SOL    HW1 7277   3.150   0.606   1.426
 2126SOL    HW2 7278   3.126   0.767   1.420
 2127SOL     OW 7279   6.008   3.320   4.746
 2127SOL    HW1 7280   6.060   3.255   4.800
 2127SOL    HW2 7281   6.056   3.340   4.660
 2128SOL     OW 7282   0.201   3.832   4.507
 2128SOL    HW1 7283   0.224   3.814   4.603
 2128SOL    HW2 7284   0.195   3.745   4.458
 2129SOL     OW 7285   4.346   2.983   5.369
 2129SOL    HW1 7286   4.286   2.911   5.335
 2129SOL    HW2 7287   4.371   2.963   5.464
 2130SOL     OW 7288   5.049   6.935   2.959
 2130SOL    HW1 7289   5.047   6.836   2.952
 2130SOL    HW2 7290   5.112   6.973   2.891
 2131SOL     OW 7291   6.961   1.095   1.284
 2131SOL    HW1 7292   0.039   1.104   1.285
 2131SOL    HW2 7293   6.936   0.998   1.279
 2132SOL     OW 7294   4.655   2.531   1.257
 2132SOL    HW1 7295   4.629   2.607   1.198
 2132SOL    HW2 7296   4.698   2.567   1.340
 2133SOL     OW 7297   2.986   2.823   5.634
 2133SOL    HW1 7298   3.011   2.799   5.540
 2133SOL    HW2 7299   2.905   2.770   5.661
 2134SOL     OW 7300   0.322   2.209   0.851
 2134SOL    HW1 7301   0.382   2.244   0.779
 2134SOL    HW2 7302   0.378   2.168   0.924
 2135SOL     OW 7303   0.782   4.218   4.399
 2135SOL    HW1 7304   0.705   4.174   4.444
 2135SOL    HW2 7305   0.847   4.250   4.468
 2136SOL     OW 7306   2.640   4.972   2.508
 2136SOL    HW1 7307   2.709   5.019   2.563
 2136SOL    HW2 7308   2.679   4.951   2.418
 2137SOL     OW 7309   2.653   5.251   5.150
 2137SOL    HW1 7310   2.683   5.339   5.186
 2137SOL    HW2 7311   2.732   5.192   5.136
 2138SOL     OW 7312   5.922   0.454   2.746
 2138SOL    HW1 7313   5.939   0.475   2.842
 2138SOL    HW2 7314   5.892   0.359   2.737
 2139SOL     OW 7315   3.797   0.625   4.438
 2139SOL    HW1 7316   3.751   0.666   4.360
 2139SOL    HW2 7317   3.828   0.533   4.414
 2140SOL     OW 7318   3.125   6.443   4.441
 2140SOL    HW1 7319   3.166   6.399   4.362
 2140SOL    HW2 7320   3.105   6.373   4.511
 2141SOL     OW 7321   6.371   3.369   1.894
 2141SOL    HW1 7322   6.434   3.420   1.953
 2141SOL    HW2 7323   6.377   3.405   1.801
 2142SOL     OW 7324   0.696   1.573   3.717
 2142SOL    HW1 7325   0.786   1.602   3.686
 2142SOL    HW2 7326   0.635   1.652   3.722
 2143SOL     OW 7327   1.956   5.129   1.123
 2143SOL    HW1 7328   1.912   5.077   1.196
 2143SOL    HW2 7329   1.972   5.069   1.045
 2144SOL     OW 7330   0.533   5.001   4.429
 2144SOL    HW1 7331   0.564   5.092   4.456
 2144SOL    HW2 7332   0.603   4.957   4.373
 2145SOL     OW 7333   3.968   6.575   3.983
 2145SOL    HW1 7334   4.001   6.484   3.956
 2145SOL    HW2 7335   4.018   6.645   3.932
 2146SOL     OW 7336   2.000   2.186   1.044
 2146SOL    HW1 7337   2.009   2.279   1.080
 2146SOL    HW2 7338   2.079   2.131   1.073
 2147SOL     OW 7339   6.179   1.734   6.740
 2147SOL    HW1 7340   6.185   1.635   6.737
 2147SOL    HW2 7341   6.114   1.761   6.811
 2148SOL     OW 7342   6.713   3.259   6.413
 2148SOL    HW1 7343   6.701   3.203   6.495
 2148SOL    HW2 7344   6.638   3.241   6.349
 2149SOL     OW 7345   1.647   1.193   1.212
 2149SOL    HW1 7346   1.597   1.106   1.217
 2149SOL    HW2 7347   1.582   1.268   1.197
 2150SOL     OW 7348   2.576   2.158   1.718
 2150SOL    HW1 7349   2.625   2.211   1.786
 2150SOL    HW2 7350   2.638   2.134   1.643
 2151SOL     OW 7351   0.938   6.436   6.740
 2151SOL    HW1 7352   0.974   6.444   6.833
 2151SOL    HW2 7353   0.840   6.415   6.743
 2152SOL     OW 7354   4.104   4.892   2.379
 2152SOL    HW1 7355   4.060   4.981   2.371
 2152SOL    HW2 7356   4.075   4.833   2.304
 2153SOL     OW 7357   4.803   1.807   2.111
 2153SOL    HW1 7358   4.796   1.819   2.210
 2153SOL    HW2 7359   4.744   1.731   2.083
 2154SOL     OW 7360   2.533   6.989   4.649
 2154SOL    HW1 7361   2.606   6.921   4.650
 2154SOL    HW2 7362   2.572   0.058   4.632
 2155SOL     OW 7363   4.284   6.704   1.101
 2155SOL    HW1 7364   4.255   6.610   1.115
 2155SOL    HW2 7365   4.220   6.750   1.039
 2156SOL     OW 7366   6.727   0.249   4.801
 2156SOL    HW1 7367   6.815   0.249   4.850
 2156SOL    HW2 7368   6.661   0.194   4.852
 2157SOL     OW 7369   4.660   5.618   3.884
 2157SOL    HW1 7370   4.632   5.623   3.979
 2157SOL    HW2 7371   4.580   5.606   3.826
 2158SOL     OW 7372   3.922   6.049   0.594
 2158SOL    HW1 7373   3.947   6.137   0.553
 2158SOL    HW2 7374   3.970   5.975   0.547
 2159SOL     OW 7375   1.451   0.818   4.964
 2159SOL    HW1 7376   1.418   0.725   4.944
 2159SOL    HW2 7377   1.476   0.823   5.061
 2160SOL     OW 7378   5.278   4.748   6.459
 2160SOL    HW1 7379   5.263   4.664   6.407
 2160SOL    HW2 7380   5.289   4.825   6.396
 2161SOL     OW 7381   6.658   4.118   1.875
 2161SOL    HW1 7382   6.640   4.052   1.802
 2161SOL    HW2 7383   6.715   4.192   1.838
 2162SOL     OW 7384   2.722   0.227   2.962
 2162SOL    HW1 7385   2.729   0.142   2.911
 2162SOL    HW2 7386   2.814   0.262   2.982
 2163SOL     OW 7387   1.543   3.956   0.534
 2163SOL    HW1 7388   1.536   3.872   0.588
 2163SOL    HW2 7389   1.515   3.938   0.440
 2164SOL     OW 7390   2.288   2.317   6.877
 2164SOL    HW1 7391   2.266   2.354   6.786
 2164SOL    HW2 7392   2.385   2.329   6.896
 2165SOL     OW 7393   0.584   2.012   3.920
 2165SOL    HW1 7394   0.609   1.962   3.836
 2165SOL    HW2 7395   0.541   1.949   3.984
 2166SOL     OW 7396   0.865   3.614   4.599
 2166SOL    HW1 7397   0.899   3.524   4.626
 2166SOL    HW2 7398   0.870   3.676   4.677
 2167SOL     OW 7399   0.591   2.768   3.774
 2167SOL    HW1 7400   0.662   2.835   3.796
 2167SOL    HW2 7401   0.573   2.711   3.854
 2168SOL     OW 7402   0.764   1.704   2.699
 2168SOL    HW1 7403   0.788   1.784   2.755
 2168SOL    HW2 7404   0.802   1.716   2.607
 2169SOL     OW 7405   6.907   0.439   0.979
 2169SOL    HW1 7406   6.851   0.421   0.898
 2169SOL    HW2 7407   6.922   0.354   1.029
 2170SOL     OW 7408   6.983   3.953   4.540
 2170SOL    HW1 7409   0.047   3.917   4.504
 2170SOL    HW2 7410   6.994   4.050   4.561
 2171SOL     OW 7411   0.345   5.529   1.461
 2171SOL    HW1 7412   0.444   5.532   1.445
 2171SOL    HW2 7413   0.326   5.484   1.548
 2172SOL     OW 7414   2.083   1.980   5.797
 2172SOL    HW1 7415   2.026   2.015   5.870
 2172SOL    HW2 7416   2.042   1.897   5.759
 2173SOL     OW 7417   4.653   0.425   5.875
 2173SOL    HW1 7418   4.749   0.445   5.858
 2173SOL    HW2 7419   4.616   0.369   5.800
 2174SOL     OW 7420   6.697   6.480   5.160
 2174SOL    HW1 7421   6.702   6.523   5.250
 2174SOL    HW2 7422   6.789   6.469   5.122
 2175SOL     OW 7423   2.003   2.622   4.927
 2175SOL    HW1 7424   1.906   2.609   4.906
 2175SOL    HW2 7425   2.058   2.586   4.852
 2176SOL     OW 7426   5.230   1.766   1.230
 2176SOL    HW1 7427   5.239   1.669   1.251
 2176SOL    HW2 7428   5.302   1.794   1.167
 2177SOL     OW 7429   6.495   0.809   2.212
 2177SOL    HW1 7430   6.524   0.714   2.197
 2177SOL    HW2 7431   6.452   0.844   2.128
 2178SOL     OW 7432   1.042   1.278   2.191
 2178SOL    HW1 7433   1.114   1.238   2.249
 2178SOL    HW2 7434   1.081   1.305   2.103
 2179SOL     OW 7435   2.012   3.414   6.276
 2179SOL    HW1 7436   1.984   3.339   6.215
 2179SOL    HW2 7437   2.112   3.421   6.275
 2180SOL     OW 7438   1.476   2.966   2.318
 2180SOL    HW1 7439   1.542   2.891   2.323
 2180SOL    HW2 7440   1.446   2.991   2.411
 2181SOL     OW 7441   4.566   5.141   4.188
 2181SOL    HW1 7442   4.635   5.094   4.133
 2181SOL    HW2 7443   4.587   5.239   4.191
 2182SOL     OW 7444   0.924   5.011   3.840
 2182SOL    HW1 7445   0.982   4.932   3.819
 2182SOL    HW2 7446   0.957   5.091   3.790
 2183SOL     OW 7447   2.504   3.920   0.232
 2183SOL    HW1 7448   2.594   3.928   0.274
 2183SOL    HW2 7449   2.514   3.880   0.141
 2184SOL     OW 7450   4.491   6.906   6.632
 2184SOL    HW1 7451   4.561   6.941   6.570
 2184SOL    HW2 7452   4.412   6.967   6.631
 2185SOL     OW 7453   1.323   1.253   6.536
 2185SOL    HW1 7454   1.376   1.228   6.617
 2185SOL    HW2 7455   1.243   1.192   6.529
 2186SOL     OW 7456   6.103   6.064   6.324
 2186SOL    HW1 7457   6.006   6.082   6.309
 2186SOL    HW2 7458   6.115   5.975   6.366
 2187SOL     OW 7459   0.055   6.420   2.309
 2187SOL    HW1 7460   6.992   6.464   2.341
 2187SOL    HW2 7461   0.031   6.341   2.252
 2188SOL     OW 7462   1.926   5.329   5.507
 2188SOL    HW1 7463   1.965   5.417   5.535
 2188SOL    HW2 7464   1.987   5.255   5.537
 2189SOL     OW 7465   1.690   0.487   2.158
 2189SOL    HW1 7466   1.608   0.494   2.101
 2189SOL    HW2 7467   1.750   0.566   2.141
 2190SOL     OW 7468   6.670   3.257   1.669
 2190SOL    HW1 7469   6.735   3.221   1.736
 2190SOL    HW2 7470   6.656   3.355   1.685
 2191SOL     OW 7471   2.864   1.239   5.559
 2191SOL    HW1 7472   2.940   1.222   5.497
 2191SOL    HW2 7473   2.781   1.257   5.506
 2192SOL     OW 7474   5.037   0.411   2.587
 2192SOL    HW1 7475   4.981   0.486   2.553
 2192SOL    HW2 7476   5.085   0.440   2.670
 2193SOL     OW 7477   6.954   0.170   5.798
 2193SOL    HW1 7478   0.021   0.184   5.843
 2193SOL    HW2 7479   6.956   0.213   5.707
 2194SOL     OW 7480   1.246   4.089   6.214
 2194SOL    HW1 7481   1.226   4.181   6.247
 2194SOL    HW2 7482   1.336   4.060   6.247
 2195SOL     OW 7483   6.973   6.295   5.216
 2195SOL    HW1 7484   6.955   6.376   5.273
 2195SOL    HW2 7485   0.050   6.288   5.198
 2196SOL     OW 7486   3.097   6.292   5.083
 2196SOL    HW1 7487   3.163   6.362   5.111
 2196SOL    HW2 7488   3.096   6.285   4.983
 2197SOL     OW 7489   2.971   3.569   6.429
 2197SOL    HW1 7490   2.880   3.599   6.457
 2197SOL    HW2 7491   3.032   3.568   6.509
 2198SOL     OW 7492   6.037   6.996   1.068
 2198SOL    HW1 7493   5.995   6.907   1.084
 2198SOL    HW2 7494   6.123   6.983   1.018
 2199SOL     OW 7495   5.508   0.437   4.625
 2199SOL    HW1 7496   5.455   0.472   4.703
 2199SOL    HW2 7497   5.557   0.355   4.652
 2200SOL     OW 7498   2.413   1.499   3.738
 2200SOL    HW1 7499   2.421   1.402   3.762
 2200SOL    HW2 7500   2.502   1.544   3.752
 2201SOL     OW 7501   6.303   2.880   2.671
 2201SOL    HW1 7502   6.338   2.933   2.594
 2201SOL    HW2 7503   6.368   2.884   2.747
 2202SOL     OW 7504   3.390   5.526   1.943
 2202SOL    HW1 7505   3.336   5.461   1.890
 2202SOL    HW2 7506   3.367   5.516   2.040
 2203SOL     OW 7507   2.671   3.159   1.308
 2203SOL    HW1 7508   2.577   3.181   1.336
 2203SOL    HW2 7509   2.703   3.080   1.360
 2204SOL     OW 7510   4.212   2.448   1.030
 2204SOL    HW1 7511   4.277   2.420   1.101
 2204SOL    HW2 7512   4.138   2.501   1.072
 2205SOL     OW 7513   1.118   0.243   0.118
 2205SOL    HW1 7514   1.152   0.320   0.064
 2205SOL    HW2 7515   1.182   0.166   0.110
 2206SOL     OW 7516   2.615   4.595   5.767
 2206SOL    HW1 7517   2.680   4.540   5.715
 2206SOL    HW2 7518   2.560   4.535   5.826
 2207SOL     OW 7519   3.213   4.494   6.960
 2207SOL    HW1 7520   3.213   4.533   6.868
 2207SOL    HW2 7521   3.303   4.508   7.002
 2208SOL     OW 7522   0.762   5.265   3.045
 2208SOL    HW1 7523   0.688   5.248   2.980
 2208SOL    HW2 7524   0.826   5.332   3.007
 2209SOL     OW 7525   2.637   6.551   4.924
 2209SOL    HW1 7526   2.574   6.608   4.871
 2209SOL    HW2 7527   2.729   6.562   4.888
 2210SOL     OW 7528   6.665   5.409   3.086
 2210SOL    HW1 7529   6.701   5.352   3.160
 2210SOL    HW2 7530   6.659   5.504   3.117
 2211SOL     OW 7531   6.426   0.800   0.603
 2211SOL    HW1 7532   6.416   0.702   0.620
 2211SOL    HW2 7533   6.426   0.849   0.690
 2212SOL     OW 7534   1.425   5.593   0.004
 2212SOL    HW1 7535   1.456   5.630   0.092
 2212SOL    HW2 7536   1.492   5.528   6.991
 2213SOL     OW 7537   4.178   2.540   5.582
 2213SOL    HW1 7538   4.184   2.608   5.510
 2213SOL    HW2 7539   4.220   2.576   5.665
 2214SOL     OW 7540   3.134   3.403   5.123
 2214SOL    HW1 7541   3.049   3.444   5.154
 2214SOL    HW2 7542   3.129   3.384   5.025
 2215SOL     OW 7543   5.949   1.078   6.689
 2215SOL    HW1 7544   5.909   1.090   6.780
 2215SOL    HW2 7545   5.879   1.092   6.619
 2216SOL     OW 7546   0.173   0.222   5.916
 2216SOL    HW1 7547   0.226   0.170   5.983
 2216SOL    HW2 7548   0.200   0.318   5.920
 2217SOL     OW 7549   4.814   0.282   2.935
 2217SOL    HW1 7550   4.747   0.348   2.968
 2217SOL    HW2 7551   4.903   0.326   2.925
 2218SOL     OW 7552   6.466   4.987   0.097
 2218SOL    HW1 7553   6.539   5.027   0.041
 2218SOL    HW2 7554   6.383   5.042   0.086
 2219SOL     OW 7555   6.091   2.160   1.178
 2219SOL    HW1 7556   6.088   2.060   1.167
 2219SOL    HW2 7557   6.160   2.198   1.117
 2220SOL     OW 7558   1.733   5.636   5.434
 2220SOL    HW1 7559   1.651   5.685   5.460
 2220SOL    HW2 7560   1.751   5.562   5.500
 2221SOL     OW 7561   6.317   1.587   4.874
 2221SOL    HW1 7562   6.238   1.559   4.928
 2221SOL    HW2 7563   6.335   1.685   4.889
 2222SOL     OW 7564   6.071   0.270   0.866
 2222SOL    HW1 7565   6.158   0.224   0.884
 2222SOL    HW2 7566   6.085   0.368   0.862
 2223SOL     OW 7567   5.741   1.105   6.496
 2223SOL    HW1 7568   5.804   1.058   6.434
 2223SOL    HW2 7569   5.647   1.083   6.470
 2224SOL     OW 7570   5.926   3.493   1.234
 2224SOL    HW1 7571   5.922   3.573   1.293
 2224SOL    HW2 7572   5.978   3.515   1.151
 2225SOL     OW 7573   6.506   6.819   3.586
 2225SOL    HW1 7574   6.473   6.740   3.637
 2225SOL    HW2 7575   6.606   6.814   3.577
 2226SOL     OW 7576   3.428   5.697   1.172
 2226SOL    HW1 7577   3.390   5.789   1.165
 2226SOL    HW2 7578   3.525   5.700   1.146
 2227SOL     OW 7579   4.962   2.708   1.383
 2227SOL    HW1 7580   5.000   2.643   1.317
 2227SOL    HW2 7581   4.912   2.780   1.335
 2228SOL     OW 7582   3.622   5.093   0.366
 2228SOL    HW1 7583   3.632   5.168   0.300
 2228SOL    HW2 7584   3.552   5.030   0.333
 2229SOL     OW 7585   4.002   3.173   5.162
 2229SOL    HW1 7586   4.078   3.220   5.206
 2229SOL    HW2 7587   4.007   3.188   5.063
 2230SOL     OW 7588   5.463   6.914   1.030
 2230SOL    HW1 7589   5.437   6.912   1.127
 2230SOL    HW2 7590   5.446   6.825   0.988
 2231SOL     OW 7591   0.110   0.713   0.242
 2231SOL    HW1 7592   0.074   0.765   0.319
 2231SOL    HW2 7593   0.112   0.772   0.161
 2232SOL     OW 7594   1.411   1.364   4.973
 2232SOL    HW1 7595   1.424   1.266   4.986
 2232SOL    HW2 7596   1.343   1.379   4.901
 2233SOL     OW 7597   2.727   2.778   0.569
 2233SOL    HW1 7598   2.753   2.781   0.665
 2233SOL    HW2 7599   2.630   2.803   0.560
 2234SOL     OW 7600   3.336   1.485   0.817
 2234SOL    HW1 7601   3.426   1.471   0.775
 2234SOL    HW2 7602   3.279   1.404   0.800
 2235SOL     OW 7603   2.410   6.959   1.636
 2235SOL    HW1 7604   2.451   6.878   1.676
 2235SOL    HW2 7605   2.432   0.018   1.693
 2236SOL     OW 7606   1.615   3.561   6.107
 2236SOL    HW1 7607   1.690   3.620   6.078
 2236SOL    HW2 7608   1.528   3.600   6.076
 2237SOL     OW 7609   5.932   4.523   4.354
 2237SOL    HW1 7610   5.956   4.593   4.286
 2237SOL    HW2 7611   6.003   4.521   4.425
 2238SOL     OW 7612   4.491   5.207   2.482
 2238SOL    HW1 7613   4.530   5.227   2.572
 2238SOL    HW2 7614   4.549   5.249   2.411
 2239SOL     OW 7615   4.865   6.238   3.997
 2239SOL    HW1 7616   4.880   6.146   3.961
 2239SOL    HW2 7617   4.767   6.258   3.998
 2240SOL     OW 7618   3.473   5.285   2.963
 2240SOL    HW1 7619   3.459   5.376   2.925
 2240SOL    HW2 7620   3.396   5.226   2.938
 2241SOL     OW 7621   6.761   6.461   2.169
 2241SOL    HW1 7622   6.751   6.449   2.268
 2241SOL    HW2 7623   6.778   6.372   2.126
 2242SOL     OW 7624   4.882   3.312   2.633
 2242SOL    HW1 7625   4.850   3.404   2.613
 2242SOL    HW2 7626   4.881   3.257   2.549
 2243SOL     OW 7627   1.903   6.791   6.804
 2243SOL    HW1 7628   1.885   6.816   6.708
 2243SOL    HW2 7629   1.982   6.730   6.808
 2244SOL     OW 7630   3.105   7.006   1.845
 2244SOL    HW1 7631   3.114   7.018   1.747
 2244SOL    HW2 7632   3.017   0.021   1.875
 2245SOL     OW 7633   0.581   1.547   1.180
 2245SOL    HW1 7634   0.568   1.509   1.272
 2245SOL    HW2 7635   0.528   1.493   1.114
 2246SOL     OW 7636   2.542   0.520   4.451
 2246SOL    HW1 7637   2.588   0.607   4.466
 2246SOL    HW2 7638   2.597   0.446   4.489
 2247SOL     OW 7639   3.067   3.067   3.104
 2247SOL    HW1 7640   3.039   2.971   3.103
 2247SOL    HW2 7641   3.163   3.073   3.132
 2248SOL     OW 7642   6.347   3.909   4.501
 2248SOL    HW1 7643   6.383   3.891   4.410
 2248SOL    HW2 7644   6.259   3.861   4.512
 2249SOL     OW 7645   5.626   6.463   3.826
 2249SOL    HW1 7646   5.706   6.439   3.771
 2249SOL    HW2 7647   5.545   6.421   3.787
 2250SOL     OW 7648   3.263   3.970   5.174
 2250SOL    HW1 7649   3.306   3.914   5.245
 2250SOL    HW2 7650   3.319   3.968   5.091
 2251SOL     OW 7651   5.275   0.109   6.272
 2251SOL    HW1 7652   5.209   0.180   6.249
 2251SOL    HW2 7653   5.324   0.135   6.355
 2252SOL     OW 7654   4.982   1.573   3.076
 2252SOL    HW1 7655   5.052   1.644   3.064
 2252SOL    HW2 7656   4.895   1.616   3.099
 2253SOL     OW 7657   0.100   3.175   6.989
 2253SOL    HW1 7658   0.109   3.265   6.947
 2253SOL    HW2 7659   0.016   3.131   6.956
 2254SOL     OW 7660   3.400   2.893   4.303
 2254SOL    HW1 7661   3.425   2.863   4.211
 2254SOL    HW2 7662   3.367   2.987   4.300
 2255SOL     OW 7663   3.871   3.486   5.951
 2255SOL    HW1 7664   3.882   3.561   5.886
 2255SOL    HW2 7665   3.954   3.475   6.005
 2256SOL     OW 7666   5.284   6.444   2.010
 2256SOL    HW1 7667   5.224   6.442   2.090
 2256SOL    HW2 7668   5.367   6.497   2.031
 2257SOL     OW 7669   0.775   1.693   4.610
 2257SOL    HW1 7670   0.800   1.619   4.547
 2257SOL    HW2 7671   0.809   1.671   4.701
 2258SOL     OW 7672   1.187   5.764   4.846
 2258SOL    HW1 7673   1.249   5.718   4.783
 2258SOL    HW2 7674   1.110   5.704   4.867
 2259SOL     OW 7675   5.683   2.565   5.432
 2259SOL    HW1 7676   5.779   2.536   5.433
 2259SOL    HW2 7677   5.642   2.544   5.521
 2260SOL     OW 7678   0.335   3.839   1.026
 2260SOL    HW1 7679   0.304   3.759   1.078
 2260SOL    HW2 7680   0.335   3.919   1.085
 2261SOL     OW 7681   6.573   5.075   1.010
 2261SOL    HW1 7682   6.593   5.007   1.080
 2261SOL    HW2 7683   6.517   5.033   0.938
 2262SOL     OW 7684   5.999   0.023   2.824
 2262SOL    HW1 7685   6.091   0.055   2.847
 2262SOL    HW2 7686   5.933   0.066   2.885
 2263SOL     OW 7687   2.765   5.812   6.992
 2263SOL    HW1 7688   2.836   5.757   6.949
 2263SOL    HW2 7689   2.676   5.768   6.979
 2264SOL     OW 7690   3.516   6.045   5.943
 2264SOL    HW1 7691   3.438   6.010   5.891
 2264SOL    HW2 7692   3.599   6.038   5.887
 2265SOL     OW 7693   2.079   0.801   4.586
 2265SOL    HW1 7694   2.172   0.766   4.588
 2265SOL    HW2 7695   2.024   0.748   4.521
 2266SOL     OW 7696   5.226   1.515   6.390
 2266SOL    HW1 7697   5.135   1.515   6.350
 2266SOL    HW2 7698   5.294   1.504   6.318
 2267SOL     OW 7699   5.094   3.291   5.171
 2267SOL    HW1 7700   5.165   3.324   5.233
 2267SOL    HW2 7701   5.006   3.329   5.198
 2268SOL     OW 7702   5.953   4.242   6.106
 2268SOL    HW1 7703   5.973   4.255   6.008
 2268SOL    HW2 7704   5.960   4.145   6.129
 2269SOL     OW 7705   0.662   4.222   5.485
 2269SOL    HW1 7706   0.622   4.134   5.460
 2269SOL    HW2 7707   0.712   4.259   5.407
 2270SOL     OW 7708   4.106   2.557   6.270
 2270SOL    HW1 7709   4.027   2.507   6.235
 2270SOL    HW2 7710   4.111   2.647   6.227
 2271SOL     OW 7711   5.768   4.737   0.009
 2271SOL    HW1 7712   5.782   4.738   0.108
 2271SOL    HW2 7713   5.857   4.746   6.985
 2272SOL     OW 7714   5.580   1.569   0.088
 2272SOL    HW1 7715   5.581   1.593   7.012
 2272SOL    HW2 7716   5.672   1.543   0.117
 2273SOL     OW 7717   1.329   1.350   2.292
 2273SOL    HW1 7718   1.348   1.262   2.337
 2273SOL    HW2 7719   1.369   1.349   2.200
 2274SOL     OW 7720   0.867   1.399   6.001
 2274SOL    HW1 7721   0.943   1.419   6.063
 2274SOL    HW2 7722   0.803   1.476   6.001
 2275SOL     OW 7723   6.072   6.918   3.275
 2275SOL    HW1 7724   6.045   6.989   3.341
 2275SOL    HW2 7725   6.115   6.842   3.324
 2276SOL     OW 7726   2.402   5.569   1.858
 2276SOL    HW1 7727   2.400   5.530   1.766
 2276SOL    HW2 7728   2.319   5.543   1.907
 2277SOL     OW 7729   3.451   4.139   4.258
 2277SOL    HW1 7730   3.490   4.211   4.315
 2277SOL    HW2 7731   3.446   4.054   4.310
 2278SOL     OW 7732   5.937   3.491   4.280
 2278SOL    HW1 7733   5.953   3.450   4.191
 2278SOL    HW2 7734   5.839   3.509   4.292
 2279SOL     OW 7735   6.076   0.169   5.059
 2279SOL    HW1 7736   6.056   0.097   5.126
 2279SOL    HW2 7737   6.073   0.258   5.104
 2280SOL     OW 7738   6.480   0.005   4.641
 2280SOL    HW1 7739   6.568   0.041   4.609
 2280SOL    HW2 7740   6.477   0.009   4.741
 2281SOL     OW 7741   3.444   0.552   2.039
 2281SOL    HW1 7742   3.344   0.546   2.041
 2281SOL    HW2 7743   3.479   0.510   1.956
 2282SOL     OW 7744   5.628   6.602   5.505
 2282SOL    HW1 7745   5.567   6.636   5.434
 2282SOL    HW2 7746   5.688   6.531   5.467
 2283SOL     OW 7747   1.416   0.110   1.828
 2283SOL    HW1 7748   1.468   0.192   1.804
 2283SOL    HW2 7749   1.340   0.098   1.765
 2284SOL     OW 7750   1.676   3.004   6.641
 2284SOL    HW1 7751   1.761   3.000   6.693
 2284SOL    HW2 7752   1.689   3.064   6.561
 2285SOL     OW 7753   0.938   2.750   0.630
 2285SOL    HW1 7754   0.918   2.820   0.698
 2285SOL    HW2 7755   0.854   2.701   0.607
 2286SOL     OW 7756   5.707   6.963   3.316
 2286SOL    HW1 7757   5.625   6.941   3.369
 2286SOL    HW2 7758   5.710   0.040   3.300
 2287SOL     OW 7759   2.316   0.380   4.013
 2287SOL    HW1 7760   2.253   0.437   3.961
 2287SOL    HW2 7761   2.372   0.437   4.072
 2288SOL     OW 7762   6.028   5.285   3.470
 2288SOL    HW1 7763   6.006   5.372   3.427
 2288SOL    HW2 7764   5.960   5.217   3.443
 2289SOL     OW 7765   0.042   5.207   0.886
 2289SOL    HW1 7766   6.998   5.167   0.951
 2289SOL    HW2 7767   0.070   5.137   0.821
 2290SOL     OW 7768   0.791   3.552   1.040
 2290SOL    HW1 7769   0.704   3.599   1.025
 2290SOL    HW2 7770   0.775   3.466   1.088
 2291SOL     OW 7771   2.132   2.478   5.893
 2291SOL    HW1 7772   2.224   2.486   5.855
 2291SOL    HW2 7773   2.066   2.514   5.827
 2292SOL     OW 7774   1.043   1.829   4.341
 2292SOL    HW1 7775   1.077   1.735   4.343
 2292SOL    HW2 7776   0.988   1.842   4.258
 2293SOL     OW 7777   5.063   6.910   1.102
 2293SOL    HW1 7778   4.998   6.905   1.177
 2293SOL    HW2 7779   5.013   6.925   1.016
 2294SOL     OW 7780   3.371   0.594   0.205
 2294SOL    HW1 7781   3.323   0.507   0.217
 2294SOL    HW2 7782   3.414   0.620   0.291
 2295SOL     OW 7783   0.574   2.090   2.677
 2295SOL    HW1 7784   0.551   2.183   2.705
 2295SOL    HW2 7785   0.631   2.046   2.746
 2296SOL     OW 7786   3.688   5.478   0.513
 2296SOL    HW1 7787   3.741   5.411   0.461
 2296SOL    HW2 7788   3.745   5.518   0.584
 2297SOL     OW 7789   3.620   4.239   5.093
 2297SOL    HW1 7790   3.542   4.211   5.148
 2297SOL    HW2 7791   3.659   4.323   5.130
 2298SOL     OW 7792   3.950   3.107   1.979
 2298SOL    HW1 7793   3.968   3.189   2.032
 2298SOL    HW2 7794   4.002   3.110   1.893
 2299SOL     OW 7795   5.009   6.681   6.478
 2299SOL    HW1 7796   4.955   6.736   6.541
 2299SOL    HW2 7797   4.990   6.584   6.494
 2300SOL     OW 7798   2.641   4.626   1.737
 2300SOL    HW1 7799   2.726   4.598   1.783
 2300SOL    HW2 7800   2.644   4.595   1.641
 2301SOL     OW 7801   3.245   3.006   3.598
 2301SOL    HW1 7802   3.329   2.951   3.602
 2301SOL    HW2 7803   3.166   2.946   3.601
 2302SOL     OW 7804   3.663   6.810   1.761
 2302SOL    HW1 7805   3.697   6.790   1.853
 2302SOL    HW2 7806   3.574   6.856   1.768
 2303SOL     OW 7807   1.877   3.446   6.491
 2303SOL    HW1 7808   1.943   3.497   6.546
 2303SOL    HW2 7809   1.908   3.444   6.396
 2304SOL     OW 7810   3.564   0.062   3.333
 2304SOL    HW1 7811   3.613   0.148   3.318
 2304SOL    HW2 7812   3.474   0.081   3.373
 2305SOL     OW 7813   2.870   6.584   2.850
 2305SOL    HW1 7814   2.814   6.517   2.802
 2305SOL    HW2 7815   2.904   6.545   2.936
 2306SOL     OW 7816   2.253   5.035   1.837
 2306SOL    HW1 7817   2.178   5.071   1.782
 2306SOL    HW2 7818   2.296   4.958   1.789
 2307SOL     OW 7819   1.527   3.769   2.594
 2307SOL    HW1 7820   1.445   3.824   2.578
 2307SOL    HW2 7821   1.608   3.827   2.591
 2308SOL     OW 7822   1.476   6.745   0.145
 2308SOL    HW1 7823   1.457   6.651   0.116
 2308SOL    HW2 7824   1.396   6.803   0.126
 2309SOL     OW 7825   3.033   6.555   6.807
 2309SOL    HW1 7826   2.993   6.464   6.795
 2309SOL    HW2 7827   2.961   6.621   6.827
 2310SOL     OW 7828   5.493   6.568   1.547
 2310SOL    HW1 7829   5.560   6.642   1.546
 2310SOL    HW2 7830   5.500   6.515   1.463
 2311SOL     OW 7831   2.484   6.371   2.242
 2311SOL    HW1 7832   2.570   6.420   2.257
 2311SOL    HW2 7833   2.502   6.274   2.230
 2312SOL     OW 7834   3.536   6.015   4.184
 2312SOL    HW1 7835   3.601   5.983   4.115
 2312SOL    HW2 7836   3.549   6.113   4.199
 2313SOL     OW 7837   5.294   5.532   1.916
 2313SOL    HW1 7838   5.230   5.575   1.980
 2313SOL    HW2 7839   5.247   5.513   1.830
 2314SOL     OW 7840   5.992   0.960   4.796
 2314SOL    HW1 7841   6.051   0.935   4.872
 2314SOL    HW2 7842   6.017   0.908   4.715
 2315SOL     OW 7843   5.135   3.717   5.366
 2315SOL    HW1 7844   5.086   3.646   5.417
 2315SOL    HW2 7845   5.136   3.801   5.419
 2316SOL     OW 7846   3.179   0.076   4.595
 2316SOL    HW1 7847   3.259   0.099   4.539
 2316SOL    HW2 7848   3.114   0.152   4.592
 2317SOL     OW 7849   6.431   6.138   3.164
 2317SOL    HW1 7850   6.515   6.167   3.117
 2317SOL    HW2 7851   6.417   6.194   3.246
 2318SOL     OW 7852   2.272   2.914   4.574
 2318SOL    HW1 7853   2.284   2.899   4.476
 2318SOL    HW2 7854   2.352   2.879   4.623
 2319SOL     OW 7855   3.190   5.309   4.703
 2319SOL    HW1 7856   3.129   5.276   4.631
 2319SOL    HW2 7857   3.240   5.232   4.743
 2320SOL     OW 7858   1.409   2.989   4.932
 2320SOL    HW1 7859   1.394   2.975   4.834
 2320SOL    HW2 7860   1.345   2.932   4.984
 2321SOL     OW 7861   1.371   5.189   0.425
 2321SOL    HW1 7862   1.459   5.144   0.437
 2321SOL    HW2 7863   1.340   5.227   0.512
 2322SOL     OW 7864   1.811   4.339   2.806
 2322SOL    HW1 7865   1.752   4.258   2.807
 2322SOL    HW2 7866   1.906   4.311   2.793
 2323SOL     OW 7867   3.146   4.633   1.672
 2323SOL    HW1 7868   3.240   4.604   1.689
 2323SOL    HW2 7869   3.129   4.635   1.573
 2324SOL     OW 7870   6.517   5.711   0.669
 2324SOL    HW1 7871   6.567   5.704   0.756
 2324SOL    HW2 7872   6.556   5.648   0.603
 2325SOL     OW 7873   0.839   4.363   1.454
 2325SOL    HW1 7874   0.884   4.279   1.424
 2325SOL    HW2 7875   0.751   4.371   1.408
 2326SOL     OW 7876   2.144   6.160   6.805
 2326SOL    HW1 7877   2.083   6.080   6.802
 2326SOL    HW2 7878   2.112   6.224   6.875
 2327SOL     OW 7879   6.877   1.749   3.792
 2327SOL    HW1 7880   6.951   1.760   3.725
 2327SOL    HW2 7881   6.794   1.794   3.757
 2328SOL     OW 7882   1.598   1.404   2.667
 2328SOL    HW1 7883   1.567   1.344   2.741
 2328SOL    HW2 7884   1.638   1.487   2.706
 2329SOL     OW 7885   1.402   4.391   4.916
 2329SOL    HW1 7886   1.326   4.396   4.980
 2329SOL    HW2 7887   1.482   4.352   4.963
 2330SOL     OW 7888   0.364   3.020   1.717
 2330SOL    HW1 7889   0.427   3.037   1.793
 2330SOL    HW2 7890   0.347   3.106   1.668
 2331SOL     OW 7891   4.049   5.313   6.754
 2331SOL    HW1 7892   3.998   5.371   6.691
 2331SOL    HW2 7893   4.140   5.352   6.768
 2332SOL     OW 7894   6.382   0.873   5.408
 2332SOL    HW1 7895   6.304   0.884   5.469
 2332SOL    HW2 7896   6.362   0.916   5.320
 2333SOL     OW 7897   6.977   3.903   2.913
 2333SOL    HW1 7898   0.008   3.958   2.848
 2333SOL    HW2 7899   0.015   3.831   2.950
 2334SOL     OW 7900   1.643   0.645   6.627
 2334SOL    HW1 7901   1.728   0.660   6.677
 2334SOL    HW2 7902   1.614   0.730   6.583
 2335SOL     OW 7903   6.561   1.216   4.254
 2335SOL    HW1 7904   6.644   1.260   4.222
 2335SOL    HW2 7905   6.483   1.250   4.201
 2336SOL     OW 7906   3.742   1.622   4.514
 2336SOL    HW1 7907   3.681   1.687   4.470
 2336SOL    HW2 7908   3.829   1.619   4.465
 2337SOL     OW 7909   4.134   0.376   1.736
 2337SOL    HW1 7910   4.059   0.353   1.798
 2337SOL    HW2 7911   4.124   0.470   1.704
 2338SOL     OW 7912   0.714   2.778   5.111
 2338SOL    HW1 7913   0.788   2.731   5.062
 2338SOL    HW2 7914   0.751   2.823   5.192
 2339SOL     OW 7915   2.894   3.538   3.566
 2339SOL    HW1 7916   2.885   3.564   3.662
 2339SOL    HW2 7917   2.842   3.602   3.509
 2340SOL     OW 7918   6.567   4.208   6.087
 2340SOL    HW1 7919   6.512   4.197   6.171
 2340SOL    HW2 7920   6.653   4.254   6.109
 2341SOL     OW 7921   3.333   4.886   2.068
 2341SOL    HW1 7922   3.347   4.910   1.972
 2341SOL    HW2 7923   3.400   4.816   2.095
 2342SOL     OW 7924   0.756   6.640   5.791
 2342SOL    HW1 7925   0.819   6.688   5.853
 2342SOL    HW2 7926   0.793   6.641   5.698
 2343SOL     OW 7927   1.902   5.435   3.074
 2343SOL    HW1 7928   1.962   5.509   3.043
 2343SOL    HW2 7929   1.900   5.433   3.174
 2344SOL     OW 7930   1.158   5.862   6.806
 2344SOL    HW1 7931   1.109   5.805   6.740
 2344SOL    HW2 7932   1.092   5.900   6.872
 2345SOL     OW 7933   3.391   5.644   5.385
 2345SOL    HW1 7934   3.420   5.564   5.332
 2345SOL    HW2 7935   3.294   5.636   5.406
 2346SOL     OW 7936   3.962   3.786   5.333
 2346SOL    HW1 7937   3.880   3.749   5.290
 2346SOL    HW2 7938   4.012   3.841   5.266
 2347SOL     OW 7939   3.406   2.306   1.403
 2347SOL    HW1 7940   3.339   2.233   1.390
 2347SOL    HW2 7941   3.443   2.301   1.496
 2348SOL     OW 7942   2.564   6.879   4.202
 2348SOL    HW1 7943   2.620   6.921   4.130
 2348SOL    HW2 7944   2.623   6.822   4.260
 2349SOL     OW 7945   0.495   4.755   5.934
 2349SOL    HW1 7946   0.482   4.854   5.930
 2349SOL    HW2 7947   0.440   4.712   5.862
 2350SOL     OW 7948   6.201   0.101   6.441
 2350SOL    HW1 7949   6.278   0.049   6.478
 2350SOL    HW2 7950   6.131   0.038   6.408
 2351SOL     OW 7951   2.883   5.330   4.119
 2351SOL    HW1 7952   2.865   5.338   4.217
 2351SOL    HW2 7953   2.837   5.250   4.083
 2352SOL     OW 7954   0.628   4.331   2.598
 2352SOL    HW1 7955   0.616   4.232   2.609
 2352SOL    HW2 7956   0.725   4.354   2.609
 2353SOL     OW 7957   3.411   5.130   5.296
 2353SOL    HW1 7958   3.424   5.035   5.266
 2353SOL    HW2 7959   3.421   5.191   5.218
 2354SOL     OW 7960   3.042   1.383   5.986
 2354SOL    HW1 7961   2.985   1.460   5.957
 2354SOL    HW2 7962   3.113   1.366   5.918
 2355SOL     OW 7963   2.235   5.957   0.219
 2355SOL    HW1 7964   2.273   5.899   0.291
 2355SOL    HW2 7965   2.224   6.051   0.254
 2356SOL     OW 7966   1.421   3.240   6.515
 2356SOL    HW1 7967   1.432   3.142   6.529
 2356SOL    HW2 7968   1.327   3.266   6.536
 2357SOL     OW 7969   4.850   0.064   3.085
 2357SOL    HW1 7970   4.937   0.019   3.065
 2357SOL    HW2 7971   4.834   0.137   3.017
 2358SOL     OW 7972   3.647   4.961   4.710
 2358SOL    HW1 7973   3.742   4.945   4.683
 2358SOL    HW2 7974   3.638   4.948   4.809
 2359SOL     OW 7975   6.392   0.416   5.564
 2359SOL    HW1 7976   6.440   0.502   5.546
 2359SOL    HW2 7977   6.446   0.339   5.528
 2360SOL     OW 7978   5.040   4.165   0.150
 2360SOL    HW1 7979   5.135   4.168   0.181
 2360SOL    HW2 7980   4.986   4.108   0.212
 2361SOL     OW 7981   2.808   1.001   5.277
 2361SOL    HW1 7982   2.880   0.935   5.298
 2361SOL    HW2 7983   2.719   0.957   5.280
 2362SOL     OW 7984   2.545   6.408   4.157
 2362SOL    HW1 7985   2.475   6.472   4.189
 2362SOL    HW2 7986   2.566   6.342   4.229
 2363SOL     OW 7987   4.483   2.510   5.162
 2363SOL    HW1 7988   4.556   2.471   5.106
 2363SOL    HW2 7989   4.519   2.583   5.220
 2364SOL     OW 7990   1.021   2.180   3.021
 2364SOL    HW1 7991   0.979   2.113   3.083
 2364SOL    HW2 7992   1.003   2.273   3.056
 2365SOL     OW 7993   6.292   2.608   6.584
 2365SOL    HW1 7994   6.324   2.557   6.664
 2365SOL    HW2 7995   6.212   2.563   6.544
 2366SOL     OW 7996   2.222   5.228   6.702
 2366SOL    HW1 7997   2.242   5.161   6.631
 2366SOL    HW2 7998   2.147   5.287   6.673
 2367SOL     OW 7999   2.230   4.090   0.373
 2367SOL    HW1 8000   2.163   4.161   0.350
 2367SOL    HW2 8001   2.205   4.005   0.327
 2368SOL     OW 8002   4.075   0.633   4.028
 2368SOL    HW1 8003   4.160   0.581   4.018
 2368SOL    HW2 8004   4.018   0.591   4.099
 2369SOL     OW 8005   1.439   1.489   5.962
 2369SOL    HW1 8006   1.518   1.436   5.935
 2369SOL    HW2 8007   1.469   1.576   6.001
 2370SOL     OW 8008   4.796   3.354   0.159
 2370SOL    HW1 8009   4.790   3.439   0.106
 2370SOL    HW2 8010   4.882   3.352   0.209
 2371SOL     OW 8011   0.243   7.014   2.481
 2371SOL    HW1 8012   0.254   6.921   2.446
 2371SOL    HW2 8013   0.298   0.056   2.427
 2372SOL     OW 8014   0.076   2.755   3.015
 2372SOL    HW1 8015   0.034   2.814   3.084
 2372SOL    HW2 8016   0.019   2.755   2.932
 2373SOL     OW 8017   0.142   1.830   6.879
 2373SOL    HW1 8018   0.172   1.830   6.974
 2373SOL    HW2 8019   0.168   1.744   6.835
 2374SOL     OW 8020   5.913   1.452   3.095
 2374SOL    HW1 8021   5.884   1.417   3.184
 2374SOL    HW2 8022   5.936   1.375   3.035
 2375SOL     OW 8023   3.068   6.776   4.906
 2375SOL    HW1 8024   3.004   6.798   4.980
 2375SOL    HW2 8025   3.038   6.820   4.822
 2376SOL     OW 8026   6.904   2.531   4.826
 2376SOL    HW1 8027   6.978   2.469   4.852
 2376SOL    HW2 8028   6.839   2.538   4.902
 2377SOL     OW 8029   3.436   4.100   3.100
 2377SOL    HW1 8030   3.423   4.124   3.196
 2377SOL    HW2 8031   3.521   4.049   3.089
 2378SOL     OW 8032   5.043   1.563   0.653
 2378SOL    HW1 8033   4.966   1.503   0.676
 2378SOL    HW2 8034   5.125   1.533   0.702
 2379SOL     OW 8035   5.639   2.055   7.008
 2379SOL    HW1 8036   5.587   2.134   6.974
 2379SOL    HW2 8037   5.634   1.981   6.942
 2380SOL     OW 8038   0.919   1.037   6.984
 2380SOL    HW1 8039   0.885   1.102   0.030
 2380SOL    HW2 8040   0.848   0.968   6.966
 2381SOL     OW 8041   2.228   4.240   4.691
 2381SOL    HW1 8042   2.133   4.226   4.721
 2381SOL    HW2 8043   2.285   4.260   4.770
 2382SOL     OW 8044   2.432   4.456   3.773
 2382SOL    HW1 8045   2.500   4.519   3.734
 2382SOL    HW2 8046   2.440   4.457   3.873
 2383SOL     OW 8047   5.186   6.837   1.465
 2383SOL    HW1 8048   5.234   6.924   1.474
 2383SOL    HW2 8049   5.171   6.798   1.556
 2384SOL     OW 8050   5.636   0.536   2.611
 2384SOL    HW1 8051   5.728   0.525   2.649
 2384SOL    HW2 8052   5.642   0.540   2.511
 2385SOL     OW 8053   1.310   6.794   0.998
 2385SOL    HW1 8054   1.230   6.852   0.980
 2385SOL    HW2 8055   1.381   6.849   1.044
 2386SOL     OW 8056   6.158   5.839   4.271
 2386SOL    HW1 8057   6.094   5.896   4.221
 2386SOL    HW2 8058   6.208   5.780   4.207
 2387SOL     OW 8059   1.588   2.054   3.581
 2387SOL    HW1 8060   1.568   2.033   3.485
 2387SOL    HW2 8061   1.508   2.031   3.637
 2388SOL     OW 8062   0.646   2.537   4.747
 2388SOL    HW1 8063   0.724   2.596   4.728
 2388SOL    HW2 8064   0.563   2.579   4.710
 2389SOL     OW 8065   4.880   3.925   2.877
 2389SOL    HW1 8066   4.856   3.918   2.974
 2389SOL    HW2 8067   4.980   3.931   2.867
 2390SOL     OW 8068   4.003   3.125   3.096
 2390SOL    HW1 8069   4.017   3.026   3.085
 2390SOL    HW2 8070   3.989   3.147   3.192
 2391SOL     OW 8071   5.314   4.371   5.866
 2391SOL    HW1 8072   5.372   4.367   5.947
 2391SOL    HW2 8073   5.330   4.289   5.810
 2392SOL     OW 8074   4.412   6.590   5.045
 2392SOL    HW1 8075   4.485   6.549   4.990
 2392SOL    HW2 8076   4.345   6.520   5.069
 2393SOL     OW 8077   5.606   3.769   6.181
 2393SOL    HW1 8078   5.617   3.733   6.274
 2393SOL    HW2 8079   5.514   3.807   6.171
 2394SOL     OW 8080   1.224   3.216   4.664
 2394SOL    HW1 8081   1.229   3.228   4.565
 2394SOL    HW2 8082   1.310   3.243   4.706
 2395SOL     OW 8083   5.560   2.595   6.430
 2395SOL    HW1 8084   5.543   2.510   6.480
 2395SOL    HW2 8085   5.560   2.576   6.332
 2396SOL     OW 8086   3.679   4.587   1.404
 2396SOL    HW1 8087   3.579   4.593   1.404
 2396SOL    HW2 8088   3.716   4.640   1.480
 2397SOL     OW 8089   0.258   4.228   6.437
 2397SOL    HW1 8090   0.214   4.287   6.369
 2397SOL    HW2 8091   0.335   4.180   6.395
 2398SOL     OW 8092   2.801   3.140   0.009
 2398SOL    HW1 8093   2.821   3.086   0.091
 2398SOL    HW2 8094   2.745   3.086   6.968
 2399SOL     OW 8095   4.569   1.878   1.871
 2399SOL    HW1 8096   4.470   1.876   1.882
 2399SOL    HW2 8097   4.606   1.786   1.879
 2400SOL     OW 8098   2.939   4.087   0.557
 2400SOL    HW1 8099   2.981   4.052   0.473
 2400SOL    HW2 8100   2.840   4.075   0.552
 2401SOL     OW 8101   4.221   6.000   6.254
 2401SOL    HW1 8102   4.133   6.027   6.215
 2401SOL    HW2 8103   4.274   5.950   6.186
 2402SOL     OW 8104   6.826   0.872   3.441
 2402SOL    HW1 8105   6.789   0.928   3.367
 2402SOL    HW2 8106   6.776   0.785   3.446
 2403SOL     OW 8107   2.098   2.569   6.942
 2403SOL    HW1 8108   2.139   2.504   6.877
 2403SOL    HW2 8109   2.123   2.542   0.014
 2404SOL     OW 8110   3.548   0.981   0.778
 2404SOL    HW1 8111   3.555   1.022   0.687
 2404SOL    HW2 8112   3.596   0.893   0.778
 2405SOL     OW 8113   3.860   3.341   2.813
 2405SOL    HW1 8114   3.825   3.247   2.814
 2405SOL    HW2 8115   3.790   3.404   2.844
 2406SOL     OW 8116   2.911   6.763   2.393
 2406SOL    HW1 8117   2.930   6.677   2.346
 2406SOL    HW2 8118   2.992   6.821   2.390
 2407SOL     OW 8119   5.554   1.874   2.103
 2407SOL    HW1 8120   5.511   1.955   2.064
 2407SOL    HW2 8121   5.494   1.795   2.088
 2408SOL     OW 8122   3.579   4.905   3.158
 2408SOL    HW1 8123   3.651   4.878   3.094
 2408SOL    HW2 8124   3.616   4.905   3.251
 2409SOL     OW 8125   1.825   4.819   1.972
 2409SOL    HW1 8126   1.766   4.897   1.954
 2409SOL    HW2 8127   1.778   4.735   1.947
 2410SOL     OW 8128   4.003   2.781   5.869
 2410SOL    HW1 8129   3.966   2.691   5.890
 2410SOL    HW2 8130   3.977   2.808   5.776
 2411SOL     OW 8131   3.796   5.566   5.019
 2411SOL    HW1 8132   3.759   5.657   5.035
 2411SOL    HW2 8133   3.761   5.530   4.933
 2412SOL     OW 8134   4.830   5.128   1.092
 2412SOL    HW1 8135   4.832   5.029   1.107
 2412SOL    HW2 8136   4.864   5.175   1.173
 2413SOL     OW 8137   5.920   2.511   0.846
 2413SOL    HW1 8138   5.878   2.510   0.937
 2413SOL    HW2 8139   5.927   2.605   0.814
 2414SOL     OW 8140   4.966   4.742   2.578
 2414SOL    HW1 8141   5.014   4.654   2.582
 2414SOL    HW2 8142   5.032   4.816   2.594
 2415SOL     OW 8143   6.948   0.353   2.618
 2415SOL    HW1 8144   6.905   0.356   2.707
 2415SOL    HW2 8145   0.026   0.347   2.629
 2416SOL     OW 8146   4.223   1.872   5.740
 2416SOL    HW1 8147   4.239   1.791   5.796
 2416SOL    HW2 8148   4.127   1.873   5.710
 2417SOL     OW 8149   3.570   2.844   5.819
 2417SOL    HW1 8150   3.573   2.918   5.753
 2417SOL    HW2 8151   3.640   2.860   5.889
 2418SOL     OW 8152   2.971   3.191   4.299
 2418SOL    HW1 8153   2.936   3.285   4.294
 2418SOL    HW2 8154   3.002   3.172   4.392
 2419SOL     OW 8155   0.053   0.008   4.959
 2419SOL    HW1 8156   6.999   6.965   4.971
 2419SOL    HW2 8157   0.102   0.020   5.046
 2420SOL     OW 8158   2.828   1.281   2.411
 2420SOL    HW1 8159   2.840   1.225   2.329
 2420SOL    HW2 8160   2.911   1.275   2.467
 2421SOL     OW 8161   2.822   1.893   4.542
 2421SOL    HW1 8162   2.799   1.816   4.602
 2421SOL    HW2 8163   2.862   1.967   4.598
 2422SOL     OW 8164   5.837   1.653   0.930
 2422SOL    HW1 8165   5.877   1.566   0.902
 2422SOL    HW2 8166   5.764   1.636   0.996
 2423SOL     OW 8167   1.459   5.948   2.687
 2423SOL    HW1 8168   1.390   5.966   2.758
 2423SOL    HW2 8169   1.532   6.016   2.694
 2424SOL     OW 8170   6.188   0.094   5.942
 2424SOL    HW1 8171   6.219   0.168   5.883
 2424SOL    HW2 8172   6.262   0.027   5.954
 2425SOL     OW 8173   5.727   0.692   3.801
 2425SOL    HW1 8174   5.687   0.747   3.874
 2425SOL    HW2 8175   5.821   0.721   3.784
 2426SOL     OW 8176   0.968   6.374   5.035
 2426SOL    HW1 8177   1.048   6.314   5.037
 2426SOL    HW2 8178   0.968   6.426   4.949
 2427SOL     OW 8179   5.926   6.188   5.732
 2427SOL    HW1 8180   5.985   6.174   5.652
 2427SOL    HW2 8181   5.925   6.285   5.756
 2428SOL     OW 8182   6.219   0.345   2.440
 2428SOL    HW1 8183   6.160   0.397   2.501
 2428SOL    HW2 8184   6.203   0.374   2.345
 2429SOL     OW 8185   5.007   5.507   3.554
 2429SOL    HW1 8186   4.956   5.530   3.471
 2429SOL    HW2 8187   4.969   5.423   3.594
 2430SOL     OW 8188   5.971   1.718   1.489
 2430SOL    HW1 8189   5.957   1.621   1.510
 2430SOL    HW2 8190   5.899   1.772   1.531
 2431SOL     OW 8191   4.262   0.834   2.510
 2431SOL    HW1 8192   4.348   0.886   2.512
 2431SOL    HW2 8193   4.275   0.750   2.459
 2432SOL     OW 8194   3.181   6.414   2.761
 2432SOL    HW1 8195   3.260   6.466   2.727
 2432SOL    HW2 8196   3.100   6.440   2.709
 2433SOL     OW 8197   3.516   1.064   1.045
 2433SOL    HW1 8198   3.500   1.163   1.040
 2433SOL    HW2 8199   3.540   1.029   0.955
 2434SOL     OW 8200   3.939   1.089   5.658
 2434SOL    HW1 8201   3.853   1.050   5.691
 2434SOL    HW2 8202   4.015   1.055   5.714
 2435SOL     OW 8203   4.719   4.533   6.463
 2435SOL    HW1 8204   4.761   4.568   6.379
 2435SOL    HW2 8205   4.741   4.595   6.539
 2436SOL     OW 8206   1.173   5.267   0.704
 2436SOL    HW1 8207   1.140   5.303   0.617
 2436SOL    HW2 8208   1.149   5.331   0.777
 2437SOL     OW 8209   5.020   6.415   6.519
 2437SOL    HW1 8210   4.994   6.409   6.615
 2437SOL    HW2 8211   5.110   6.373   6.506
 2438SOL     OW 8212   3.187   0.945   6.937
 2438SOL    HW1 8213   3.223   0.853   6.921
 2438SOL    HW2 8214   3.087   0.943   6.932
 2439SOL     OW 8215   1.525   4.384   6.721
 2439SOL    HW1 8216   1.580   4.355   6.799
 2439SOL    HW2 8217   1.430   4.355   6.735
 2440SOL     OW 8218   4.818   6.323   5.475
 2440SOL    HW1 8219   4.772   6.234   5.471
 2440SOL    HW2 8220   4.868   6.338   5.390
 2441SOL     OW 8221   0.642   1.160   0.595
 2441SOL    HW1 8222   0.681   1.237   0.644
 2441SOL    HW2 8223   0.544   1.153   0.615
 2442SOL     OW 8224   0.938   3.324   6.246
 2442SOL    HW1 8225   0.881   3.242   6.253
 2442SOL    HW2 8226   0.938   3.357   6.152
 2443SOL     OW 8227   4.051   5.287   6.130
 2443SOL    HW1 8228   3.970   5.331   6.092
 2443SOL    HW2 8229   4.076   5.331   6.216
 2444SOL     OW 8230   3.013   4.045   6.456
 2444SOL    HW1 8231   2.920   4.040   6.419
 2444SOL    HW2 8232   3.074   3.990   6.399
 2445SOL     OW 8233   6.965   1.359   1.193
 2445SOL    HW1 8234   6.936   1.268   1.222
 2445SOL    HW2 8235   0.041   1.370   1.213
 2446SOL     OW 8236   6.112   4.564   3.653
 2446SOL    HW1 8237   6.156   4.586   3.741
 2446SOL    HW2 8238   6.183   4.540   3.586
 2447SOL     OW 8239   2.158   2.596   0.575
 2447SOL    HW1 8240   2.184   2.649   0.656
 2447SOL    HW2 8241   2.182   2.647   0.492
 2448SOL     OW 8242   0.227   1.008   4.707
 2448SOL    HW1 8243   0.288   1.087   4.717
 2448SOL    HW2 8244   0.258   0.934   4.766
 2449SOL     OW 8245   6.879   4.695   7.019
 2449SOL    HW1 8246   6.794   4.701   6.966
 2449SOL    HW2 8247   6.863   4.640   0.080
 2450SOL     OW 8248   2.520   4.550   3.048
 2450SOL    HW1 8249   2.461   4.469   3.060
 2450SOL    HW2 8250   2.462   4.631   3.040
 2451SOL     OW 8251   1.827   0.953   3.721
 2451SOL    HW1 8252   1.824   1.044   3.681
 2451SOL    HW2 8253   1.842   0.960   3.820
 2452SOL     OW 8254   2.049   3.838   2.656
 2452SOL    HW1 8255   2.080   3.745   2.677
 2452SOL    HW2 8256   2.039   3.848   2.557
 2453SOL     OW 8257   6.291   4.886   1.419
 2453SOL    HW1 8258   6.350   4.900   1.498
 2453SOL    HW2 8259   6.196   4.902   1.446
 2454SOL     OW 8260   3.409   0.687   1.664
 2454SOL    HW1 8261   3.310   0.699   1.650
 2454SOL    HW2 8262   3.443   0.761   1.723
 2455SOL     OW 8263   5.051   6.281   0.330
 2455SOL    HW1 8264   5.059   6.276   0.231
 2455SOL    HW2 8265   5.135   6.321   0.368
 2456SOL     OW 8266   5.429   6.169   1.503
 2456SOL    HW1 8267   5.442   6.075   1.532
 2456SOL    HW2 8268   5.357   6.211   1.559
 2457SOL     OW 8269   5.320   6.688   0.362
 2457SOL    HW1 8270   5.407   6.700   0.410
 2457SOL    HW2 8271   5.244   6.699   0.427
 2458SOL     OW 8272   2.494   5.976   3.333
 2458SOL    HW1 8273   2.512   6.069   3.303
 2458SOL    HW2 8274   2.570   5.944   3.390
 2459SOL     OW 8275   2.062   6.870   0.699
 2459SOL    HW1 8276   1.987   6.834   0.754
 2459SOL    HW2 8277   2.046   6.967   0.679
 2460SOL     OW 8278   2.189   0.535   1.659
 2460SOL    HW1 8279   2.185   0.574   1.566
 2460SOL    HW2 8280   2.099   0.501   1.685
 2461SOL     OW 8281   5.804   0.671   1.793
 2461SOL    HW1 8282   5.842   0.734   1.725
 2461SOL    HW2 8283   5.747   0.723   1.858
 2462SOL     OW 8284   2.670   5.502   0.028
 2462SOL    HW1 8285   2.588   5.555   0.007
 2462SOL    HW2 8286   2.693   5.443   6.972
 2463SOL     OW 8287   6.689   1.982   4.464
 2463SOL    HW1 8288   6.690   1.915   4.538
 2463SOL    HW2 8289   6.704   2.073   4.502
 2464SOL     OW 8290   0.857   4.650   1.086
 2464SOL    HW1 8291   0.831   4.712   1.013
 2464SOL    HW2 8292   0.802   4.669   1.167
 2465SOL     OW 8293   0.366   5.928   1.806
 2465SOL    HW1 8294   0.438   5.949   1.740
 2465SOL    HW2 8295   0.289   5.885   1.759
 2466SOL     OW 8296   4.047   1.523   2.271
 2466SOL    HW1 8297   4.079   1.533   2.365
 2466SOL    HW2 8298   3.970   1.459   2.270
 2467SOL     OW 8299   6.069   1.490   5.837
 2467SOL    HW1 8300   6.018   1.444   5.764
 2467SOL    HW2 8301   6.008   1.550   5.888
 2468SOL     OW 8302   6.754   6.208   2.022
 2468SOL    HW1 8303   6.789   6.174   1.935
 2468SOL    HW2 8304   6.663   6.169   2.039
 2469SOL     OW 8305   3.354   3.795   5.833
 2469SOL    HW1 8306   3.318   3.832   5.747
 2469SOL    HW2 8307   3.454   3.792   5.828
 2470SOL     OW 8308   2.934   4.090   6.096
 2470SOL    HW1 8309   2.977   4.087   6.007
 2470SOL    HW2 8310   2.918   4.186   6.122
 2471SOL     OW 8311   0.649   6.223   1.483
 2471SOL    HW1 8312   0.669   6.293   1.552
 2471SOL    HW2 8313   0.721   6.154   1.483
 2472SOL     OW 8314   5.747   2.030   4.195
 2472SOL    HW1 8315   5.690   2.058   4.272
 2472SOL    HW2 8316   5.693   1.974   4.132
 2473SOL     OW 8317   1.270   5.187   4.571
 2473SOL    HW1 8318   1.267   5.271   4.516
 2473SOL    HW2 8319   1.316   5.115   4.519
 2474SOL     OW 8320   6.885   5.388   5.926
 2474SOL    HW1 8321   6.965   5.358   5.977
 2474SOL    HW2 8322   6.855   5.478   5.959
 2475SOL     OW 8323   4.131   2.403   0.771
 2475SOL    HW1 8324   4.194   2.343   0.721
 2475SOL    HW2 8325   4.153   2.402   0.868
 2476SOL     OW 8326   0.933   2.018   3.835
 2476SOL    HW1 8327   0.858   1.985   3.779
 2476SOL    HW2 8328   0.907   2.014   3.932
 2477SOL     OW 8329   5.882   6.385   1.604
 2477SOL    HW1 8330   5.926   6.401   1.693
 2477SOL    HW2 8331   5.826   6.303   1.609
 2478SOL     OW 8332   6.103   6.362   2.622
 2478SOL    HW1 8333   6.038   6.286   2.630
 2478SOL    HW2 8334   6.196   6.328   2.631
 2479SOL     OW 8335   0.320   2.500   1.367
 2479SOL    HW1 8336   0.315   2.599   1.384
 2479SOL    HW2 8337   0.244   2.473   1.307
 2480SOL     OW 8338   6.903   2.923   0.806
 2480SOL    HW1 8339   6.973   2.908   0.875
 2480SOL    HW2 8340   6.862   3.014   0.819
 2481SOL     OW 8341   3.739   6.067   1.097
 2481SOL    HW1 8342   3.802   5.990   1.097
 2481SOL    HW2 8343   3.693   6.073   1.009
 2482SOL     OW 8344   4.787   3.600   5.684
 2482SOL    HW1 8345   4.811   3.644   5.597
 2482SOL    HW2 8346   4.703   3.640   5.719
 2483SOL     OW 8347   1.603   0.936   0.864
 2483SOL    HW1 8348   1.540   0.953   0.939
 2483SOL    HW2 8349   1.672   0.870   0.893
 2484SOL     OW 8350   2.068   0.254   0.915
 2484SOL    HW1 8351   2.055   0.349   0.944
 2484SOL    HW2 8352   2.147   0.249   0.854
 2485SOL     OW 8353   6.736   5.299   2.345
 2485SOL    HW1 8354   6.741   5.211   2.393
 2485SOL    HW2 8355   6.682   5.363   2.399
 2486SOL     OW 8356   1.981   5.908   3.811
 2486SOL    HW1 8357   1.990   5.889   3.713
 2486SOL    HW2 8358   2.023   5.834   3.864
 2487SOL     OW 8359   3.954   6.479   0.285
 2487SOL    HW1 8360   3.960   6.381   0.271
 2487SOL    HW2 8361   3.960   6.527   0.197
 2488SOL     OW 8362   2.784   3.930   1.307
 2488SOL    HW1 8363   2.865   3.952   1.360
 2488SOL    HW2 8364   2.761   3.833   1.321
 2489SOL     OW 8365   1.809   5.904   5.169
 2489SOL    HW1 8366   1.829   5.872   5.261
 2489SOL    HW2 8367   1.748   5.839   5.123
 2490SOL     OW 8368   6.770   4.848   0.271
 2490SOL    HW1 8369   6.733   4.760   0.242
 2490SOL    HW2 8370   6.813   4.894   0.193
 2491SOL     OW 8371   2.857   5.684   2.550
 2491SOL    HW1 8372   2.846   5.600   2.497
 2491SOL    HW2 8373   2.951   5.691   2.583
 2492SOL     OW 8374   4.638   3.361   6.284
 2492SOL    HW1 8375   4.614   3.272   6.246
 2492SOL    HW2 8376   4.656   3.352   6.382
 2493SOL     OW 8377   5.386   1.008   2.552
 2493SOL    HW1 8378   5.411   1.101   2.524
 2493SOL    HW2 8379   5.420   0.990   2.644
 2494SOL     OW 8380   4.741   2.730   2.512
 2494SOL    HW1 8381   4.657   2.765   2.472
 2494SOL    HW2 8382   4.738   2.740   2.611
 2495SOL     OW 8383   4.869   1.485   5.127
 2495SOL    HW1 8384   4.844   1.453   5.219
 2495SOL    HW2 8385   4.891   1.582   5.131
 2496SOL     OW 8386   0.734   5.278   0.222
 2496SOL    HW1 8387   0.669   5.235   0.285
 2496SOL    HW2 8388   0.713   5.250   0.129
 2497SOL     OW 8389   6.563   1.723   0.828
 2497SOL    HW1 8390   6.646   1.685   0.788
 2497SOL    HW2 8391   6.586   1.806   0.879
 2498SOL     OW 8392   2.075   3.250   3.318
 2498SOL    HW1 8393   1.980   3.227   3.295
 2498SOL    HW2 8394   2.129   3.166   3.323
 2499SOL     OW 8395   5.646   0.955   4.468
 2499SOL    HW1 8396   5.577   0.918   4.405
 2499SOL    HW2 8397   5.690   0.881   4.517
 2500SOL     OW 8398   5.252   2.993   6.230
 2500SOL    HW1 8399   5.219   3.073   6.280
 2500SOL    HW2 8400   5.175   2.946   6.187
 2501SOL     OW 8401   5.828   4.518   6.831
 2501SOL    HW1 8402   5.756   4.479   6.889
 2501SOL    HW2 8403   5.875   4.591   6.881
 2502SOL     OW 8404   2.430   6.543   3.320
 2502SOL    HW1 8405   2.377   6.624   3.294
 2502SOL    HW2 8406   2.385   6.461   3.283
 2503SOL     OW 8407   3.959   5.650   5.850
 2503SOL    HW1 8408   4.029   5.579   5.836
 2503SOL    HW2 8409   3.916   5.672   5.762
 2504SOL     OW 8410   1.506   4.621   4.750
 2504SOL    HW1 8411   1.588   4.651   4.799
 2504SOL    HW2 8412   1.470   4.538   4.793
 2505SOL     OW 8413   3.577   5.570   4.153
 2505SOL    HW1 8414   3.494   5.527   4.118
 2505SOL    HW2 8415   3.622   5.508   4.216
 2506SOL     OW 8416   6.534   3.184   6.231
 2506SOL    HW1 8417   6.437   3.174   6.252
 2506SOL    HW2 8418   6.570   3.095   6.200
 2507SOL     OW 8419   6.257   5.551   0.703
 2507SOL    HW1 8420   6.252   5.460   0.745
 2507SOL    HW2 8421   6.352   5.581   0.699
 2508SOL     OW 8422   2.773   1.867   2.370
 2508SOL    HW1 8423   2.743   1.891   2.278
 2508SOL    HW2 8424   2.745   1.938   2.434
 2509SOL     OW 8425   5.506   2.854   2.750
 2509SOL    HW1 8426   5.517   2.923   2.820
 2509SOL    HW2 8427   5.593   2.839   2.703
 2510SOL     OW 8428   2.983   4.943   0.837
 2510SOL    HW1 8429   2.934   4.925   0.922
 2510SOL    HW2 8430   3.010   5.039   0.834
 2511SOL     OW 8431   1.050   0.776   4.910
 2511SOL    HW1 8432   0.977   0.809   4.851
 2511SOL    HW2 8433   1.090   0.852   4.961
 2512SOL     OW 8434   4.761   4.043   5.009
 2512SOL    HW1 8435   4.772   4.122   4.948
 2512SOL    HW2 8436   4.804   3.963   4.967
 2513SOL     OW 8437   1.297   2.506   6.445
 2513SOL    HW1 8438   1.329   2.583   6.500
 2513SOL    HW2 8439   1.226   2.537   6.383
 2514SOL     OW 8440   0.915   1.518   4.398
 2514SOL    HW1 8441   1.015   1.524   4.402
 2514SOL    HW2 8442   0.879   1.593   4.343
 2515SOL     OW 8443   1.552   6.154   0.081
 2515SOL    HW1 8444   1.591   6.131   0.171
 2515SOL    HW2 8445   1.461   6.114   0.072
 2516SOL     OW 8446   6.017   6.299   3.355
 2516SOL    HW1 8447   6.076   6.379   3.346
 2516SOL    HW2 8448   6.073   6.216   3.364
 2517SOL     OW 8449   2.457   4.825   0.171
 2517SOL    HW1 8450   2.483   4.752   0.107
 2517SOL    HW2 8451   2.516   4.821   0.252
 2518SOL     OW 8452   2.243   2.725   6.552
 2518SOL    HW1 8453   2.288   2.806   6.514
 2518SOL    HW2 8454   2.208   2.747   6.644
 2519SOL     OW 8455   4.998   4.810   4.519
 2519SOL    HW1 8456   5.063   4.878   4.486
 2519SOL    HW2 8457   4.965   4.755   4.442
 2520SOL     OW 8458   2.565   3.184   1.057
 2520SOL    HW1 8459   2.491   3.129   1.019
 2520SOL    HW2 8460   2.593   3.147   1.146
 2521SOL     OW 8461   6.997   6.807   5.558
 2521SOL    HW1 8462   6.921   6.863   5.592
 2521SOL    HW2 8463   0.053   6.816   5.620
 2522SOL     OW 8464   1.351   3.126   4.142
 2522SOL    HW1 8465   1.407   3.209   4.141
 2522SOL    HW2 8466   1.259   3.149   4.173
 2523SOL     OW 8467   6.855   3.544   0.394
 2523SOL    HW1 8468   6.904   3.624   0.429
 2523SOL    HW2 8469   6.777   3.573   0.339
 2524SOL     OW 8470   1.223   6.475   4.308
 2524SOL    HW1 8471   1.186   6.551   4.254
 2524SOL    HW2 8472   1.226   6.393   4.251
 2525SOL     OW 8473   1.365   4.249   4.324
 2525SOL    HW1 8474   1.392   4.155   4.345
 2525SOL    HW2 8475   1.444   4.310   4.335
 2526SOL     OW 8476   0.285   2.103   4.529
 2526SOL    HW1 8477   0.241   2.192   4.540
 2526SOL    HW2 8478   0.219   2.038   4.491
 2527SOL     OW 8479   5.855   6.483   4.930
 2527SOL    HW1 8480   5.816   6.395   4.958
 2527SOL    HW2 8481   5.928   6.508   4.993
 2528SOL     OW 8482   6.076   5.409   0.424
 2528SOL    HW1 8483   6.104   5.315   0.445
 2528SOL    HW2 8484   6.022   5.446   0.500
 2529SOL     OW 8485   4.862   5.854   4.614
 2529SOL    HW1 8486   4.919   5.785   4.569
 2529SOL    HW2 8487   4.891   5.945   4.585
 2530SOL     OW 8488   1.019   6.504   3.205
 2530SOL    HW1 8489   1.020   6.516   3.304
 2530SOL    HW2 8490   1.100   6.549   3.165
 2531SOL     OW 8491   4.795   0.640   5.406
 2531SOL    HW1 8492   4.826   0.718   5.460
 2531SOL    HW2 8493   4.695   0.638   5.404
 2532SOL     OW 8494   1.102   5.452   0.115
 2532SOL    HW1 8495   1.027   5.389   0.132
 2532SOL    HW2 8496   1.186   5.415   0.156
 2533SOL     OW 8497   5.321   0.188   5.391
 2533SOL    HW1 8498   5.392   0.251   5.423
 2533SOL    HW2 8499   5.302   0.122   5.463
 2534SOL     OW 8500   2.066   0.332   3.551
 2534SOL    HW1 8501   2.034   0.256   3.608
 2534SOL    HW2 8502   2.166   0.335   3.552
 2535SOL     OW 8503   1.593   1.196   3.972
 2535SOL    HW1 8504   1.620   1.220   3.879
 2535SOL    HW2 8505   1.493   1.193   3.978
 2536SOL     OW 8506   5.994   1.318   4.610
 2536SOL    HW1 8507   5.916   1.350   4.557
 2536SOL    HW2 8508   6.032   1.236   4.568
 2537SOL     OW 8509   4.763   5.804   0.995
 2537SOL    HW1 8510   4.703   5.860   0.938
 2537SOL    HW2 8511   4.791   5.857   1.076
 2538SOL     OW 8512   1.751   4.650   4.853
 2538SOL    HW1 8513   1.800   4.679   4.770
 2538SOL    HW2 8514   1.817   4.616   4.920
 2539SOL     OW 8515   4.288   0.106   5.270
 2539SOL    HW1 8516   4.314   0.012   5.288
 2539SOL    HW2 8517   4.369   0.164   5.268
 2540SOL     OW 8518   5.301   1.384   2.086
 2540SOL    HW1 8519   5.263   1.366   1.996
 2540SOL    HW2 8520   5.266   1.317   2.152
 2541SOL     OW 8521   1.226   6.922   5.379
 2541SOL    HW1 8522   1.272   7.008   5.359
 2541SOL    HW2 8523   1.149   6.910   5.316
 2542SOL     OW 8524   3.743   1.854   3.902
 2542SOL    HW1 8525   3.749   1.881   3.806
 2542SOL    HW2 8526   3.742   1.935   3.960
 2543SOL     OW 8527   1.114   0.851   2.499
 2543SOL    HW1 8528   1.197   0.798   2.482
 2543SOL    HW2 8529   1.092   0.849   2.597
 2544SOL     OW 8530   0.277   5.117   1.242
 2544SOL    HW1 8531   0.256   5.210   1.270
 2544SOL    HW2 8532   0.239   5.053   1.309
 2545SOL     OW 8533   1.387   1.722   1.649
 2545SOL    HW1 8534   1.312   1.760   1.704
 2545SOL    HW2 8535   1.375   1.751   1.554
 2546SOL     OW 8536   6.423   3.729   1.897
 2546SOL    HW1 8537   6.440   3.700   1.992
 2546SOL    HW2 8538   6.397   3.825   1.895
 2547SOL     OW 8539   5.599   4.392   0.194
 2547SOL    HW1 8540   5.671   4.389   0.125
 2547SOL    HW2 8541   5.541   4.311   0.186
 2548SOL     OW 8542   0.363   0.254   5.106
 2548SOL    HW1 8543   0.359   0.233   5.204
 2548SOL    HW2 8544   0.345   0.171   5.054
 2549SOL     OW 8545   1.853   2.346   2.176
 2549SOL    HW1 8546   1.827   2.250   2.168
 2549SOL    HW2 8547   1.880   2.381   2.087
 2550SOL     OW 8548   5.444   0.245   6.453
 2550SOL    HW1 8549   5.495   0.326   6.482
 2550SOL    HW2 8550   5.444   0.177   6.527
 2551SOL     OW 8551   3.143   5.920   6.833
 2551SOL    HW1 8552   3.103   5.909   6.925
 2551SOL    HW2 8553   3.110   5.846   6.774
 2552SOL     OW 8554   2.097   5.029   0.209
 2552SOL    HW1 8555   2.131   4.948   0.163
 2552SOL    HW2 8556   2.164   5.061   0.276
 2553SOL     OW 8557   3.482   2.083   6.433
 2553SOL    HW1 8558   3.442   2.070   6.524
 2553SOL    HW2 8559   3.422   2.042   6.364
 2554SOL     OW 8560   1.954   5.763   0.922
 2554SOL    HW1 8561   1.962   5.691   0.991
 2554SOL    HW2 8562   1.951   5.721   0.831
 2555SOL     OW 8563   6.320   6.631   5.823
 2555SOL    HW1 8564   6.270   6.550   5.792
 2555SOL    HW2 8565   6.342   6.621   5.920
 2556SOL     OW 8566   3.448   6.627   1.502
 2556SOL    HW1 8567   3.530   6.684   1.495
 2556SOL    HW2 8568   3.465   6.539   1.458
 2557SOL     OW 8569   3.563   0.719   0.370
 2557SOL    HW1 8570   3.483   0.763   0.411
 2557SOL    HW2 8571   3.636   0.711   0.438
 2558SOL     OW 8572   5.770   4.673   6.538
 2558SOL    HW1 8573   5.698   4.695   6.604
 2558SOL    HW2 8574   5.860   4.688   6.579
 2559SOL     OW 8575   0.316   3.616   3.156
 2559SOL    HW1 8576   0.378   3.682   3.198
 2559SOL    HW2 8577   0.369   3.546   3.108
 2560SOL     OW 8578   4.994   3.347   3.515
 2560SOL    HW1 8579   5.067   3.385   3.573
 2560SOL    HW2 8580   4.946   3.275   3.565
 2561SOL     OW 8581   3.276   0.937   4.252
 2561SOL    HW1 8582   3.243   0.971   4.164
 2561SOL    HW2 8583   3.308   1.013   4.308
 2562SOL     OW 8584   3.476   6.259   3.252
 2562SOL    HW1 8585   3.573   6.233   3.249
 2562SOL    HW2 8586   3.441   6.249   3.345
 2563SOL     OW 8587   2.697   1.113   6.864
 2563SOL    HW1 8588   2.734   1.137   6.954
 2563SOL    HW2 8589   2.597   1.107   6.870
 2564SOL     OW 8590   1.830   0.641   0.416
 2564SOL    HW1 8591   1.741   0.615   0.453
 2564SOL    HW2 8592   1.826   0.643   0.316
 2565SOL     OW 8593   0.663   1.592   6.381
 2565SOL    HW1 8594   0.635   1.675   6.332
 2565SOL    HW2 8595   0.674   1.614   6.478
 2566SOL     OW 8596   2.997   0.810   1.665
 2566SOL    HW1 8597   2.910   0.793   1.618
 2566SOL    HW2 8598   3.072   0.776   1.609
 2567SOL     OW 8599   1.190   0.366   0.396
 2567SOL    HW1 8600   1.242   0.452   0.396
 2567SOL    HW2 8601   1.218   0.310   0.319
 2568SOL     OW 8602   2.610   6.123   1.212
 2568SOL    HW1 8603   2.693   6.087   1.255
 2568SOL    HW2 8604   2.548   6.157   1.282
 2569SOL     OW 8605   2.056   1.118   1.202
 2569SOL    HW1 8606   1.979   1.164   1.156
 2569SOL    HW2 8607   2.045   1.127   1.301
 2570SOL     OW 8608   5.623   6.351   6.634
 2570SOL    HW1 8609   5.581   6.315   6.551
 2570SOL    HW2 8610   5.595   6.296   6.712
 2571SOL     OW 8611   4.015   3.111   4.071
 2571SOL    HW1 8612   3.966   3.040   4.122
 2571SOL    HW2 8613   4.043   3.184   4.133
 2572SOL     OW 8614   2.531   5.373   1.698
 2572SOL    HW1 8615   2.520   5.328   1.787
 2572SOL    HW2 8616   2.628   5.371   1.672
 2573SOL     OW 8617   0.033   2.420   4.172
 2573SOL    HW1 8618   0.113   2.362   4.158
 2573SOL    HW2 8619   0.051   2.484   4.247
 2574SOL     OW 8620   6.805   3.283   1.053
 2574SOL    HW1 8621   6.848   3.369   1.081
 2574SOL    HW2 8622   6.718   3.271   1.101
 2575SOL     OW 8623   5.248   4.050   0.620
 2575SOL    HW1 8624   5.324   4.104   0.585
 2575SOL    HW2 8625   5.243   3.963   0.571
 2576SOL     OW 8626   2.237   6.914   3.499
 2576SOL    HW1 8627   2.295   6.981   3.453
 2576SOL    HW2 8628   2.293   6.838   3.532
 2577SOL     OW 8629   3.717   0.289   3.316
 2577SOL    HW1 8630   3.690   0.367   3.259
 2577SOL    HW2 8631   3.817   0.285   3.321
 2578SOL     OW 8632   4.555   2.609   4.672
 2578SOL    HW1 8633   4.634   2.548   4.676
 2578SOL    HW2 8634   4.487   2.572   4.610
 2579SOL     OW 8635   0.512   2.047   6.922
 2579SOL    HW1 8636   0.490   2.099   6.840
 2579SOL    HW2 8637   0.559   2.107   6.988
 2580SOL     OW 8638   2.026   2.172   6.069
 2580SOL    HW1 8639   2.003   2.101   6.136
 2580SOL    HW2 8640   2.106   2.223   6.101
 2581SOL     OW 8641   5.392   5.741   2.247
 2581SOL    HW1 8642   5.472   5.682   2.262
 2581SOL    HW2 8643   5.312   5.684   2.228
 2582SOL     OW 8644   1.191   5.367   2.579
 2582SOL    HW1 8645   1.124   5.320   2.522
 2582SOL    HW2 8646   1.184   5.334   2.673
 2583SOL     OW 8647   0.274   0.431   0.910
 2583SOL    HW1 8648   0.248   0.351   0.964
 2583SOL    HW2 8649   0.249   0.415   0.814
 2584SOL     OW 8650   3.002   6.105   0.900
 2584SOL    HW1 8651   2.999   6.040   0.824
 2584SOL    HW2 8652   2.914   6.153   0.906
 2585SOL     OW 8653   3.046   6.687   0.798
 2585SOL    HW1 8654   3.104   6.710   0.875
 2585SOL    HW2 8655   3.013   6.593   0.808
 2586SOL     OW 8656   6.165   1.302   4.871
 2586SOL    HW1 8657   6.239   1.316   4.805
 2586SOL    HW2 8658   6.077   1.304   4.823
 2587SOL     OW 8659   6.131   0.016   4.630
 2587SOL    HW1 8660   6.147   6.968   4.700
 2587SOL    HW2 8661   6.166   0.105   4.662
 2588SOL     OW 8662   5.575   1.310   1.247
 2588SOL    HW1 8663   5.675   1.302   1.247
 2588SOL    HW2 8664   5.536   1.246   1.180
 2589SOL     OW 8665   6.706   0.347   5.609
 2589SOL    HW1 8666   6.680   0.406   5.532
 2589SOL    HW2 8667   6.786   0.292   5.584
 2590SOL     OW 8668   3.762   6.809   2.451
 2590SOL    HW1 8669   3.694   6.794   2.379
 2590SOL    HW2 8670   3.780   6.907   2.461
 2591SOL     OW 8671   4.848   6.629   1.350
 2591SOL    HW1 8672   4.826   6.566   1.276
 2591SOL    HW2 8673   4.918   6.589   1.409
 2592SOL     OW 8674   3.211   5.276   1.315
 2592SOL    HW1 8675   3.242   5.203   1.377
 2592SOL    HW2 8676   3.278   5.349   1.314
 2593SOL     OW 8677   3.438   6.537   2.740
 2593SOL    HW1 8678   3.466   6.607   2.806
 2593SOL    HW2 8679   3.518   6.486   2.709
 2594SOL     OW 8680   0.264   0.706   6.669
 2594SOL    HW1 8681   0.359   0.693   6.642
 2594SOL    HW2 8682   0.258   0.778   6.738
 2595SOL     OW 8683   6.765   3.438   5.119
 2595SOL    HW1 8684   6.754   3.527   5.162
 2595SOL    HW2 8685   6.750   3.446   5.020
 2596SOL     OW 8686   3.951   2.103   1.868
 2596SOL    HW1 8687   3.920   2.015   1.831
 2596SOL    HW2 8688   3.872   2.155   1.900
 2597SOL     OW 8689   2.875   3.057   0.863
 2597SOL    HW1 8690   2.948   3.028   0.801
 2597SOL    HW2 8691   2.884   3.155   0.882
 2598SOL     OW 8692   6.768   2.708   4.449
 2598SOL    HW1 8693   6.824   2.787   4.423
 2598SOL    HW2 8694   6.752   2.651   4.368
 2599SOL     OW 8695   3.798   6.387   5.960
 2599SOL    HW1 8696   3.861   6.362   5.887
 2599SOL    HW2 8697   3.807   6.322   6.035
 2600SOL     OW 8698   5.228   3.952   3.738
 2600SOL    HW1 8699   5.310   3.904   3.766
 2600SOL    HW2 8700   5.153   3.886   3.727
 2601SOL     OW 8701   3.383   2.674   5.906
 2601SOL    HW1 8702   3.289   2.708   5.902
 2601SOL    HW2 8703   3.444   2.739   5.861
 2602SOL     OW 8704   6.901   5.032   4.816
 2602SOL    HW1 8705   6.950   5.119   4.812
 2602SOL    HW2 8706   6.919   4.980   4.733
 2603SOL     OW 8707   2.519   2.541   1.894
 2603SOL    HW1 8708   2.584   2.465   1.890
 2603SOL    HW2 8709   2.543   2.608   1.825
 2604SOL     OW 8710   5.228   0.540   1.037
 2604SOL    HW1 8711   5.226   0.500   1.128
 2604SOL    HW2 8712   5.150   0.506   0.984
 2605SOL     OW 8713   4.470   4.575   3.348
 2605SOL    HW1 8714   4.466   4.622   3.260
 2605SOL    HW2 8715   4.405   4.617   3.411
 2606SOL     OW 8716   6.772   4.024   0.736
 2606SOL    HW1 8717   6.854   4.056   0.784
 2606SOL    HW2 8718   6.736   4.097   0.678
 2607SOL     OW 8719   1.619   1.351   4.218
 2607SOL    HW1 8720   1.685   1.426   4.214
 2607SOL    HW2 8721   1.629   1.293   4.137
 2608SOL     OW 8722   5.380   0.543   1.838
 2608SOL    HW1 8723   5.351   0.456   1.876
 2608SOL    HW2 8724   5.321   0.616   1.872
 2609SOL     OW 8725   0.731   2.754   2.576
 2609SOL    HW1 8726   0.728   2.809   2.659
 2609SOL    HW2 8727   0.673   2.673   2.588
 2610SOL     OW 8728   0.373   5.529   4.641
 2610SOL    HW1 8729   0.343   5.624   4.652
 2610SOL    HW2 8730   0.319   5.485   4.570
 2611SOL     OW 8731   5.148   6.661   0.601
 2611SOL    HW1 8732   5.083   6.736   0.585
 2611SOL    HW2 8733   5.112   6.602   0.673
 2612SOL     OW 8734   5.835   6.440   4.625
 2612SOL    HW1 8735   5.735   6.436   4.625
 2612SOL    HW2 8736   5.864   6.525   4.581
 2613SOL     OW 8737   3.722   6.586   2.274
 2613SOL    HW1 8738   3.671   6.503   2.252
 2613SOL    HW2 8739   3.761   6.579   2.366
 2614SOL     OW 8740   6.596   7.005   5.500
 2614SOL    HW1 8741   6.591   0.067   5.446
 2614SOL    HW2 8742   6.556   6.929   5.449
 2615SOL     OW 8743   5.549   5.703   4.286
 2615SOL    HW1 8744   5.451   5.705   4.304
 2615SOL    HW2 8745   5.566   5.733   4.192
 2616SOL     OW 8746   3.910   3.681   3.669
 2616SOL    HW1 8747   3.919   3.780   3.674
 2616SOL    HW2 8748   3.990   3.643   3.621
 2617SOL     OW 8749   3.547   4.903   1.104
 2617SOL    HW1 8750   3.636   4.869   1.136
 2617SOL    HW2 8751   3.492   4.930   1.183
 2618SOL     OW 8752   0.289   6.487   2.687
 2618SOL    HW1 8753   0.356   6.556   2.661
 2618SOL    HW2 8754   0.298   6.407   2.628
 2619SOL     OW 8755   4.340   2.011   2.371
 2619SOL    HW1 8756   4.279   1.950   2.421
 2619SOL    HW2 8757   4.364   1.970   2.283
 2620SOL     OW 8758   1.583   5.341   3.476
 2620SOL    HW1 8759   1.676   5.327   3.442
 2620SOL    HW2 8760   1.535   5.254   3.480
 2621SOL     OW 8761   0.595   5.656   3.493
 2621SOL    HW1 8762   0.589   5.694   3.585
 2621SOL    HW2 8763   0.678   5.602   3.485
 2622SOL     OW 8764   2.066   3.283   6.040
 2622SOL    HW1 8765   2.040   3.195   6.081
 2622SOL    HW2 8766   2.095   3.269   5.946
 2623SOL     OW 8767   3.589   0.897   4.000
 2623SOL    HW1 8768   3.654   0.913   3.926
 2623SOL    HW2 8769   3.550   0.984   4.030
 2624SOL     OW 8770   6.239   3.320   3.078
 2624SOL    HW1 8771   6.337   3.338   3.077
 2624SOL    HW2 8772   6.223   3.222   3.061
 2625SOL     OW 8773   1.669   3.339   5.822
 2625SOL    HW1 8774   1.710   3.408   5.763
 2625SOL    HW2 8775   1.696   3.248   5.790
 2626SOL     OW 8776   1.026   6.341   3.869
 2626SOL    HW1 8777   1.057   6.302   3.956
 2626SOL    HW2 8778   1.000   6.436   3.882
 2627SOL     OW 8779   0.373   1.077   4.961
 2627SOL    HW1 8780   0.279   1.108   4.944
 2627SOL    HW2 8781   0.372   0.983   4.993
 2628SOL     OW 8782   3.687   6.320   6.362
 2628SOL    HW1 8783   3.755   6.368   6.307
 2628SOL    HW2 8784   3.639   6.253   6.305
 2629SOL     OW 8785   3.830   3.991   1.761
 2629SOL    HW1 8786   3.902   4.029   1.703
 2629SOL    HW2 8787   3.792   4.063   1.818
 2630SOL     OW 8788   3.514   2.064   2.368
 2630SOL    HW1 8789   3.603   2.050   2.324
 2630SOL    HW2 8790   3.516   2.149   2.420
 2631SOL     OW 8791   5.420   6.978   4.363
 2631SOL    HW1 8792   5.382   6.904   4.309
 2631SOL    HW2 8793   5.445   0.032   4.303
 2632SOL     OW 8794   3.165   2.356   0.309
 2632SOL    HW1 8795   3.119   2.346   0.220
 2632SOL    HW2 8796   3.162   2.451   0.337
 2633SOL     OW 8797   5.743   2.370   6.488
 2633SOL    HW1 8798   5.773   2.449   6.434
 2633SOL    HW2 8799   5.786   2.373   6.579
 2634SOL     OW 8800   1.766   4.199   2.309
 2634SOL    HW1 8801   1.740   4.147   2.390
 2634SOL    HW2 8802   1.791   4.136   2.235
 2635SOL     OW 8803   5.342   6.348   4.383
 2635SOL    HW1 8804   5.249   6.339   4.348
 2635SOL    HW2 8805   5.406   6.356   4.307
 2636SOL     OW 8806   5.703   0.833   6.696
 2636SOL    HW1 8807   5.682   0.752   6.751
 2636SOL    HW2 8808   5.655   0.912   6.734
 2637SOL     OW 8809   6.521   0.714   3.100
 2637SOL    HW1 8810   6.558   0.670   3.182
 2637SOL    HW2 8811   6.435   0.761   3.123
 2638SOL     OW 8812   6.025   0.065   1.751
 2638SOL    HW1 8813   6.110   0.011   1.750
 2638SOL    HW2 8814   6.047   0.162   1.747
 2639SOL     OW 8815   6.069   6.932   2.005
 2639SOL    HW1 8816   5.995   6.924   1.938
 2639SOL    HW2 8817   6.037   6.904   2.095
 2640SOL     OW 8818   6.911   6.447   4.981
 2640SOL    HW1 8819   6.984   6.379   4.977
 2640SOL    HW2 8820   6.884   6.473   4.888
 2641SOL     OW 8821   5.629   3.575   0.204
 2641SOL    HW1 8822   5.530   3.581   0.193
 2641SOL    HW2 8823   5.651   3.574   0.301
 2642SOL     OW 8824   5.871   0.680   4.127
 2642SOL    HW1 8825   5.960   0.703   4.089
 2642SOL    HW2 8826   5.804   0.748   4.097
 2643SOL     OW 8827   6.624   5.765   2.743
 2643SOL    HW1 8828   6.687   5.843   2.735
 2643SOL    HW2 8829   6.676   5.680   2.741
 2644SOL     OW 8830   0.953   4.631   5.480
 2644SOL    HW1 8831   1.044   4.672   5.480
 2644SOL    HW2 8832   0.903   4.660   5.561
 2645SOL     OW 8833   5.036   0.025   5.278
 2645SOL    HW1 8834   5.023   0.043   5.181
 2645SOL    HW2 8835   5.121   6.994   5.291
 2646SOL     OW 8836   6.035   0.000   6.165
 2646SOL    HW1 8837   6.061   6.925   6.169
 2646SOL    HW2 8838   6.070   0.041   6.080
 2647SOL     OW 8839   5.007   0.901   0.979
 2647SOL    HW1 8840   4.981   0.940   0.891
 2647SOL    HW2 8841   5.101   0.866   0.974
 2648SOL     OW 8842   6.456   6.816   2.873
 2648SOL    HW1 8843   6.409   6.824   2.961
 2648SOL    HW2 8844   6.397   6.851   2.800
 2649SOL     OW 8845   3.537   1.394   6.185
 2649SOL    HW1 8846   3.459   1.332   6.182
 2649SOL    HW2 8847   3.622   1.341   6.189
 2650SOL     OW 8848   0.439   5.204   3.637
 2650SOL    HW1 8849   0.537   5.194   3.624
 2650SOL    HW2 8850   0.419   5.291   3.682
 2651SOL     OW 8851   0.841   1.554   1.105
 2651SOL    HW1 8852   0.744   1.557   1.128
 2651SOL    HW2 8853   0.876   1.462   1.120
 2652SOL     OW 8854   3.464   2.883   3.490
 2652SOL    HW1 8855   3.521   2.822   3.545
 2652SOL    HW2 8856   3.496   2.882   3.395
 2653SOL     OW 8857   5.294   6.880   5.787
 2653SOL    HW1 8858   5.338   6.790   5.788
 2653SOL    HW2 8859   5.218   6.881   5.851
 2654SOL     OW 8860   5.361   3.179   6.052
 2654SOL    HW1 8861   5.294   3.194   5.979
 2654SOL    HW2 8862   5.320   3.124   6.125
 2655SOL     OW 8863   3.981   5.574   4.376
 2655SOL    HW1 8864   3.928   5.503   4.329
 2655SOL    HW2 8865   4.050   5.530   4.433
 2656SOL     OW 8866   5.594   5.111   3.801
 2656SOL    HW1 8867   5.556   5.051   3.730
 2656SOL    HW2 8868   5.530   5.117   3.877
 2657SOL     OW 8869   2.175   3.897   6.342
 2657SOL    HW1 8870   2.241   3.938   6.279
 2657SOL    HW2 8871   2.136   3.815   6.300
 2658SOL     OW 8872   6.364   4.747   6.397
 2658SOL    HW1 8873   6.325   4.660   6.429
 2658SOL    HW2 8874   6.297   4.794   6.340
 2659SOL     OW 8875   6.743   2.502   4.628
 2659SOL    HW1 8876   6.736   2.592   4.585
 2659SOL    HW2 8877   6.802   2.509   4.709
 2660SOL     OW 8878   6.836   2.205   1.807
 2660SOL    HW1 8879   6.787   2.130   1.764
 2660SOL    HW2 8880   6.933   2.199   1.783
 2661SOL     OW 8881   2.745   6.198   0.998
 2661SOL    HW1 8882   2.697   6.199   0.910
 2661SOL    HW2 8883   2.686   6.156   1.067
 2662SOL     OW 8884   4.116   6.594   4.346
 2662SOL    HW1 8885   4.095   6.599   4.444
 2662SOL    HW2 8886   4.063   6.520   4.304
 2663SOL     OW 8887   2.374   4.537   1.583
 2663SOL    HW1 8888   2.437   4.463   1.560
 2663SOL    HW2 8889   2.281   4.500   1.592
 2664SOL     OW 8890   3.386   3.811   3.418
 2664SOL    HW1 8891   3.349   3.834   3.328
 2664SOL    HW2 8892   3.432   3.723   3.413
 2665SOL     OW 8893   3.490   1.490   4.249
 2665SOL    HW1 8894   3.423   1.507   4.176
 2665SOL    HW2 8895   3.445   1.499   4.338
 2666SOL     OW 8896   4.824   4.855   1.162
 2666SOL    HW1 8897   4.739   4.803   1.158
 2666SOL    HW2 8898   4.879   4.833   1.081
 2667SOL     OW 8899   1.272   6.164   5.007
 2667SOL    HW1 8900   1.301   6.258   5.028
 2667SOL    HW2 8901   1.277   6.109   5.090
 2668SOL     OW 8902   6.874   3.566   4.415
 2668SOL    HW1 8903   6.872   3.494   4.346
 2668SOL    HW2 8904   6.961   3.615   4.411
 2669SOL     OW 8905   3.667   4.964   5.358
 2669SOL    HW1 8906   3.705   4.908   5.432
 2669SOL    HW2 8907   3.722   5.047   5.348
 2670SOL     OW 8908   6.688   1.130   6.826
 2670SOL    HW1 8909   6.756   1.111   6.756
 2670SOL    HW2 8910   6.608   1.071   6.811
 2671SOL     OW 8911   2.332   3.516   6.877
 2671SOL    HW1 8912   2.413   3.459   6.889
 2671SOL    HW2 8913   2.338   3.565   6.790
 2672SOL     OW 8914   1.221   5.758   0.121
 2672SOL    HW1 8915   1.266   5.847   0.111
 2672SOL    HW2 8916   1.274   5.688   0.074
 2673SOL     OW 8917   4.880   3.178   3.695
 2673SOL    HW1 8918   4.829   3.200   3.778
 2673SOL    HW2 8919   4.954   3.115   3.718
 2674SOL     OW 8920   1.794   4.567   4.261
 2674SOL    HW1 8921   1.779   4.664   4.278
 2674SOL    HW2 8922   1.851   4.529   4.334
 2675SOL     OW 8923   1.016   4.393   5.929
 2675SOL    HW1 8924   0.921   4.416   5.951
 2675SOL    HW2 8925   1.022   4.295   5.910
 2676SOL     OW 8926   4.827   1.805   2.388
 2676SOL    HW1 8927   4.865   1.748   2.460
 2676SOL    HW2 8928   4.888   1.883   2.371
 2677SOL     OW 8929   2.358   4.836   1.691
 2677SOL    HW1 8930   2.373   4.912   1.627
 2677SOL    HW2 8931   2.382   4.750   1.646
 2678SOL     OW 8932   0.818   4.858   0.335
 2678SOL    HW1 8933   0.892   4.818   0.389
 2678SOL    HW2 8934   0.780   4.789   0.272
 2679SOL     OW 8935   3.910   4.874   0.828
 2679SOL    HW1 8936   3.983   4.933   0.794
 2679SOL    HW2 8937   3.825   4.895   0.780
 2680SOL     OW 8938   2.113   1.505   0.626
 2680SOL    HW1 8939   2.107   1.465   0.717
 2680SOL    HW2 8940   2.027   1.552   0.604
 2681SOL     OW 8941   1.413   3.739   4.188
 2681SOL    HW1 8942   1.445   3.673   4.119
 2681SOL    HW2 8943   1.313   3.737   4.192
 2682SOL     OW 8944   5.637   3.085   1.970
 2682SOL    HW1 8945   5.724   3.105   1.926
 2682SOL    HW2 8946   5.577   3.038   1.906
 2683SOL     OW 8947   0.944   5.079   1.287
 2683SOL    HW1 8948   0.981   5.015   1.220
 2683SOL    HW2 8949   0.899   5.028   1.361
 2684SOL     OW 8950   4.100   6.047   2.285
 2684SOL    HW1 8951   4.117   6.142   2.260
 2684SOL    HW2 8952   4.146   6.027   2.372
 2685SOL     OW 8953   6.253   0.218   4.451
 2685SOL    HW1 8954   6.251   0.128   4.495
 2685SOL    HW2 8955   6.272   0.207   4.353
 2686SOL     OW 8956   1.568   2.267   4.236
 2686SOL    HW1 8957   1.644   2.205   4.256
 2686SOL    HW2 8958   1.561   2.279   4.137
 2687SOL     OW 8959   4.111   5.040   2.644
 2687SOL    HW1 8960   4.138   5.018   2.550
 2687SOL    HW2 8961   4.054   5.122   2.644
 2688SOL     OW 8962   4.158   5.504   5.566
 2688SOL    HW1 8963   4.074   5.506   5.512
 2688SOL    HW2 8964   4.144   5.450   5.649
 2689SOL     OW 8965   1.293   1.648   3.891
 2689SOL    HW1 8966   1.229   1.578   3.859
 2689SOL    HW2 8967   1.287   1.728   3.833
 2690SOL     OW 8968   4.121   3.384   3.804
 2690SOL    HW1 8969   4.219   3.364   3.814
 2690SOL    HW2 8970   4.098   3.388   3.707
 2691SOL     OW 8971   1.845   5.845   2.025
 2691SOL    HW1 8972   1.932   5.851   1.976
 2691SOL    HW2 8973   1.785   5.779   1.979
 2692SOL     OW 8974   6.189   5.711   3.829
 2692SOL    HW1 8975   6.238   5.640   3.779
 2692SOL    HW2 8976   6.250   5.790   3.843
 2693SOL     OW 8977   2.204   4.961   2.867
 2693SOL    HW1 8978   2.141   4.995   2.797
 2693SOL    HW2 8979   2.295   5.000   2.853
 2694SOL     OW 8980   3.236   0.521   3.089
 2694SOL    HW1 8981   3.193   0.537   3.001
 2694SOL    HW2 8982   3.165   0.501   3.157
 2695SOL     OW 8983   4.943   2.062   2.304
 2695SOL    HW1 8984   4.994   2.134   2.350
 2695SOL    HW2 8985   4.872   2.103   2.246
 2696SOL     OW 8986   3.902   2.847   5.608
 2696SOL    HW1 8987   3.997   2.833   5.580
 2696SOL    HW2 8988   3.847   2.872   5.528
 2697SOL     OW 8989   4.381   2.089   3.802
 2697SOL    HW1 8990   4.434   2.050   3.725
 2697SOL    HW2 8991   4.390   2.029   3.881
 2698SOL     OW 8992   0.976   4.587   0.748
 2698SOL    HW1 8993   1.007   4.508   0.800
 2698SOL    HW2 8994   0.936   4.655   0.811
 2699SOL     OW 8995   3.451   5.406   0.129
 2699SOL    HW1 8996   3.423   5.400   0.033
 2699SOL    HW2 8997   3.548   5.386   0.137
 2700SOL     OW 8998   2.140   3.570   2.663
 2700SOL    HW1 8999   2.149   3.475   2.693
 2700SOL    HW2 9000   2.209   3.590   2.593
 2701SOL     OW 9001   4.344   0.330   6.532
 2701SOL    HW1 9002   4.331   0.271   6.612
 2701SOL    HW2 9003   4.271   0.397   6.528
 2702SOL     OW 9004   6.342   2.027   3.373
 2702SOL    HW1 9005   6.266   1.967   3.348
 2702SOL    HW2 9006   6.400   2.043   3.292
 2703SOL     OW 9007   2.881   1.279   2.960
 2703SOL    HW1 9008   2.920   1.207   3.017
 2703SOL    HW2 9009   2.781   1.278   2.969
 2704SOL     OW 9010   2.136   5.739   1.859
 2704SOL    HW1 9011   2.229   5.707   1.843
 2704SOL    HW2 9012   2.124   5.761   1.957
 2705SOL     OW 9013   6.826   5.149   4.110
 2705SOL    HW1 9014   6.900   5.090   4.077
 2705SOL    HW2 9015   6.815   5.136   4.208
 2706SOL     OW 9016   6.707   1.284   2.055
 2706SOL    HW1 9017   6.760   1.358   2.013
 2706SOL    HW2 9018   6.766   1.203   2.065
 2707SOL     OW 9019   2.214   0.364   6.797
 2707SOL    HW1 9020   2.244   0.403   6.884
 2707SOL    HW2 9021   2.292   0.327   6.748
 2708SOL     OW 9022   2.697   2.321   1.889
 2708SOL    HW1 9023   2.791   2.355   1.899
 2708SOL    HW2 9024   2.659   2.305   1.980
 2709SOL     OW 9025   4.819   6.475   1.091
 2709SOL    HW1 9026   4.874   6.532   1.031
 2709SOL    HW2 9027   4.804   6.386   1.049
 2710SOL     OW 9028   6.848   3.642   2.720
 2710SOL    HW1 9029   6.767   3.662   2.776
 2710SOL    HW2 9030   6.866   3.544   2.721
 2711SOL     OW 9031   1.595   0.311   2.610
 2711SOL    HW1 9032   1.641   0.308   2.521
 2711SOL    HW2 9033   1.510   0.363   2.602
 2712SOL     OW 9034   2.977   4.782   0.605
 2712SOL    HW1 9035   3.055   4.718   0.606
 2712SOL    HW2 9036   2.973   4.831   0.692
 2713SOL     OW 9037   2.135   2.523   4.686
 2713SOL    HW1 9038   2.228   2.515   4.649
 2713SOL    HW2 9039   2.080   2.447   4.651
 2714SOL     OW 9040   5.268   1.549   6.666
 2714SOL    HW1 9041   5.248   1.515   6.574
 2714SOL    HW2 9042   5.248   1.646   6.671
 2715SOL     OW 9043   5.639   0.903   0.125
 2715SOL    HW1 9044   5.657   0.955   0.041
 2715SOL    HW2 9045   5.567   0.835   0.106
 2716SOL     OW 9046   0.016   5.722   1.335
 2716SOL    HW1 9047   6.981   5.746   1.414
 2716SOL    HW2 9048   0.107   5.763   1.345
 2717SOL     OW 9049   0.826   5.874   1.978
 2717SOL    HW1 9050   0.792   5.871   1.884
 2717SOL    HW2 9051   0.912   5.925   1.981
 2718SOL     OW 9052   2.144   4.261   3.968
 2718SOL    HW1 9053   2.185   4.221   3.886
 2718SOL    HW2 9054   2.048   4.232   3.973
 2719SOL     OW 9055   4.541   4.960   2.117
 2719SOL    HW1 9056   4.536   4.864   2.090
 2719SOL    HW2 9057   4.496   4.973   2.205
 2720SOL     OW 9058   1.657   5.731   3.286
 2720SOL    HW1 9059   1.729   5.711   3.221
 2720SOL    HW2 9060   1.598   5.651   3.297
 2721SOL     OW 9061   2.772   0.566   4.999
 2721SOL    HW1 9062   2.865   0.533   5.015
 2721SOL    HW2 9063   2.707   0.511   5.052
 2722SOL     OW 9064   6.926   5.731   3.338
 2722SOL    HW1 9065   6.978   5.727   3.253
 2722SOL    HW2 9066   6.835   5.692   3.323
 2723SOL     OW 9067   2.313   1.031   5.826
 2723SOL    HW1 9068   2.277   1.124   5.838
 2723SOL    HW2 9069   2.411   1.035   5.811
 2724SOL     OW 9070   3.132   5.753   5.896
 2724SOL    HW1 9071   3.071   5.681   5.930
 2724SOL    HW2 9072   3.190   5.716   5.824
 2725SOL     OW 9073   5.254   4.777   3.181
 2725SOL    HW1 9074   5.310   4.700   3.150
 2725SOL    HW2 9075   5.309   4.838   3.239
 2726SOL     OW 9076   5.081   4.775   1.603
 2726SOL    HW1 9077   5.096   4.775   1.504
 2726SOL    HW2 9078   4.996   4.824   1.623
 2727SOL     OW 9079   0.529   4.978   2.975
 2727SOL    HW1 9080   0.618   4.966   3.019
 2727SOL    HW2 9081   0.540   4.973   2.876
 2728SOL     OW 9082   3.184   0.353   4.797
 2728SOL    HW1 9083   3.119   0.297   4.849
 2728SOL    HW2 9084   3.135   0.429   4.753
 2729SOL     OW 9085   6.595   6.179   2.414
 2729SOL    HW1 9086   6.644   6.095   2.391
 2729SOL    HW2 9087   6.628   6.214   2.502
 2730SOL     OW 9088   2.301   6.949   0.773
 2730SOL    HW1 9089   2.285   6.970   0.869
 2730SOL    HW2 9090   2.231   6.885   0.740
 2731SOL     OW 9091   2.684   3.676   1.446
 2731SOL    HW1 9092   2.645   3.745   1.506
 2731SOL    HW2 9093   2.611   3.625   1.402
 2732SOL     OW 9094   5.957   3.131   2.410
 2732SOL    HW1 9095   5.988   3.076   2.332
 2732SOL    HW2 9096   5.972   3.079   2.494
 2733SOL     OW 9097   0.905   6.636   5.552
 2733SOL    HW1 9098   0.965   6.566   5.590
 2733SOL    HW2 9099   0.949   6.679   5.474
 2734SOL     OW 9100   1.781   5.650   3.515
 2734SOL    HW1 9101   1.722   5.677   3.439
 2734SOL    HW2 9102   1.845   5.723   3.535
 2735SOL     OW 9103   0.624   4.036   2.840
 2735SOL    HW1 9104   0.638   4.122   2.889
 2735SOL    HW2 9105   0.712   4.002   2.807
 2736SOL     OW 9106   4.784   0.632   5.139
 2736SOL    HW1 9107   4.717   0.705   5.131
 2736SOL    HW2 9108   4.801   0.611   5.235
 2737SOL     OW 9109   2.987   3.413   6.204
 2737SOL    HW1 9110   3.046   3.464   6.142
 2737SOL    HW2 9111   2.956   3.473   6.278
 2738SOL     OW 9112   4.901   5.608   4.099
 2738SOL    HW1 9113   4.959   5.618   4.017
 2738SOL    HW2 9114   4.960   5.591   4.178
 2739SOL     OW 9115   5.801   4.508   0.601
 2739SOL    HW1 9116   5.753   4.531   0.517
 2739SOL    HW2 9117   5.736   4.472   0.668
 2740SOL     OW 9118   5.947   1.942   2.494
 2740SOL    HW1 9119   6.039   1.921   2.461
 2740SOL    HW2 9120   5.886   1.955   2.416
 2741SOL     OW 9121   0.022   1.715   5.726
 2741SOL    HW1 9122   0.071   1.683   5.646
 2741SOL    HW2 9123   6.960   1.762   5.697
 2742SOL     OW 9124   1.001   5.578   6.279
 2742SOL    HW1 9125   1.024   5.675   6.281
 2742SOL    HW2 9126   1.042   5.533   6.358
 2743SOL     OW 9127   5.874   5.799   1.373
 2743SOL    HW1 9128   5.943   5.795   1.446
 2743SOL    HW2 9129   5.917   5.779   1.285
 2744SOL     OW 9130   3.769   1.971   6.791
 2744SOL    HW1 9131   3.758   1.995   6.694
 2744SOL    HW2 9132   3.714   1.890   6.811
 2745SOL     OW 9133   1.965   5.975   0.604
 2745SOL    HW1 9134   2.042   5.958   0.543
 2745SOL    HW2 9135   1.998   5.986   0.697
 2746SOL     OW 9136   1.964   2.884   4.908
 2746SOL    HW1 9137   1.998   2.790   4.907
 2746SOL    HW2 9138   2.036   2.946   4.876
 2747SOL     OW 9139   5.677   5.103   5.119
 2747SOL    HW1 9140   5.659   5.058   5.032
 2747SOL    HW2 9141   5.675   5.203   5.106
 2748SOL     OW 9142   3.293   1.478   3.528
 2748SOL    HW1 9143   3.391   1.496   3.534
 2748SOL    HW2 9144   3.255   1.528   3.450
 2749SOL     OW 9145   5.593   4.594   4.214
 2749SOL    HW1 9146   5.622   4.685   4.185
 2749SOL    HW2 9147   5.526   4.558   4.149
 2750SOL     OW 9148   0.326   5.402   1.714
 2750SOL    HW1 9149   0.409   5.443   1.751
 2750SOL    HW2 9150   0.251   5.467   1.721
 2751SOL     OW 9151   1.850   6.788   0.873
 2751SOL    HW1 9152   1.775   6.853   0.866
 2751SOL    HW2 9153   1.818   6.704   0.917
 2752SOL     OW 9154   4.742   6.360   5.082
 2752SOL    HW1 9155   4.835   6.349   5.118
 2752SOL    HW2 9156   4.679   6.300   5.131
 2753SOL     OW 9157   3.153   5.499   6.204
 2753SOL    HW1 9158   3.104   5.532   6.123
 2753SOL    HW2 9159   3.205   5.574   6.244
 2754SOL     OW 9160   0.216   0.278   3.900
 2754SOL    HW1 9161   0.288   0.344   3.876
 2754SOL    HW2 9162   0.139   0.326   3.941
 2755SOL     OW 9163   2.816   6.844   3.227
 2755SOL    HW1 9164   2.882   6.799   3.286
 2755SOL    HW2 9165   2.749   6.777   3.195
 2756SOL     OW 9166   6.126   4.128   4.404
 2756SOL    HW1 9167   6.028   4.114   4.406
 2756SOL    HW2 9168   6.150   4.207   4.461
 2757SOL     OW 9169   3.359   1.825   6.791
 2757SOL    HW1 9170   3.440   1.811   6.848
 2757SOL    HW2 9171   3.370   1.775   6.705
 2758SOL     OW 9172   5.256   5.542   3.642
 2758SOL    HW1 9173   5.332   5.538   3.577
 2758SOL    HW2 9174   5.169   5.530   3.594
 2759SOL     OW 9175   3.546   4.403   5.688
 2759SOL    HW1 9176   3.484   4.332   5.654
 2759SOL    HW2 9177   3.501   4.492   5.684
 2760SOL     OW 9178   5.876   5.909   2.653
 2760SOL    HW1 9179   5.777   5.895   2.651
 2760SOL    HW2 9180   5.918   5.859   2.577
 2761SOL     OW 9181   1.396   4.361   3.510
 2761SOL    HW1 9182   1.385   4.460   3.508
 2761SOL    HW2 9183   1.393   4.325   3.417
 2762SOL     OW 9184   1.278   2.084   6.904
 2762SOL    HW1 9185   1.237   1.993   6.897
 2762SOL    HW2 9186   1.228   2.148   6.845
 2763SOL     OW 9187   4.665   1.687   6.030
 2763SOL    HW1 9188   4.740   1.748   6.007
 2763SOL    HW2 9189   4.581   1.740   6.040
 2764SOL     OW 9190   1.048   4.522   3.029
 2764SOL    HW1 9191   1.120   4.534   3.097
 2764SOL    HW2 9192   1.085   4.542   2.938
 2765SOL     OW 9193   6.335   0.025   6.982
 2765SOL    HW1 9194   6.259   7.006   0.011
 2765SOL    HW2 9195   6.311   0.117   6.952
 2766SOL     OW 9196   4.315   1.231   6.991
 2766SOL    HW1 9197   4.383   1.302   6.974
 2766SOL    HW2 9198   4.360   1.143   7.003
 2767SOL     OW 9199   5.912   5.712   6.184
 2767SOL    HW1 9200   5.984   5.744   6.123
 2767SOL    HW2 9201   5.952   5.684   6.271
 2768SOL     OW 9202   3.480   0.017   1.006
 2768SOL    HW1 9203   3.541   6.959   1.016
 2768SOL    HW2 9204   3.387   7.013   1.031
 2769SOL     OW 9205   1.833   4.184   5.854
 2769SOL    HW1 9206   1.900   4.256   5.832
 2769SOL    HW2 9207   1.795   4.147   5.769
 2770SOL     OW 9208   3.366   6.714   6.180
 2770SOL    HW1 9209   3.420   6.630   6.188
 2770SOL    HW2 9210   3.300   6.704   6.106
 2771SOL     OW 9211   5.760   6.854   4.155
 2771SOL    HW1 9212   5.744   6.943   4.114
 2771SOL    HW2 9213   5.766   6.785   4.083
 2772SOL     OW 9214   3.911   0.650   2.598
 2772SOL    HW1 9215   3.983   0.581   2.595
 2772SOL    HW2 9216   3.945   0.732   2.643
 2773SOL     OW 9217   0.463   3.317   4.574
 2773SOL    HW1 9218   0.479   3.331   4.477
 2773SOL    HW2 9219   0.372   3.277   4.587
 2774SOL     OW 9220   5.319   2.391   3.171
 2774SOL    HW1 9221   5.395   2.344   3.215
 2774SOL    HW2 9222   5.309   2.483   3.209
 2775SOL     OW 9223   0.010   3.982   4.135
 2775SOL    HW1 9224   0.037   3.974   4.039
 2775SOL    HW2 9225   0.082   3.945   4.193
 2776SOL     OW 9226   4.921   5.260   0.091
 2776SOL    HW1 9227   4.934   5.193   0.163
 2776SOL    HW2 9228   4.903   5.350   0.132
 2777SOL     OW 9229   2.590   2.153   5.794
 2777SOL    HW1 9230   2.521   2.225   5.807
 2777SOL    HW2 9231   2.550   2.064   5.817
 2778SOL     OW 9232   2.788   5.593   6.353
 2778SOL    HW1 9233   2.852   5.525   6.316
 2778SOL    HW2 9234   2.783   5.671   6.291
 2779SOL     OW 9235   5.642   6.210   1.889
 2779SOL    HW1 9236   5.639   6.297   1.839
 2779SOL    HW2 9237   5.715   6.213   1.956
 2780SOL     OW 9238   0.394   0.962   6.251
 2780SOL    HW1 9239   0.312   0.967   6.193
 2780SOL    HW2 9240   0.414   0.866   6.272
 2781SOL     OW 9241   6.799   0.845   2.192
 2781SOL    HW1 9242   6.817   0.837   2.290
 2781SOL    HW2 9243   6.701   0.855   2.177
 2782SOL     OW 9244   4.300   0.992   6.133
 2782SOL    HW1 9245   4.366   0.954   6.069
 2782SOL    HW2 9246   4.342   1.067   6.185
 2783SOL     OW 9247   6.307   3.340   1.327
 2783SOL    HW1 9248   6.260   3.417   1.371
 2783SOL    HW2 9249   6.262   3.319   1.240
 2784SOL     OW 9250   2.770   1.585   2.182
 2784SOL    HW1 9251   2.692   1.623   2.233
 2784SOL    HW2 9252   2.738   1.510   2.124
 2785SOL     OW 9253   4.761   2.637   1.544
 2785SOL    HW1 9254   4.815   2.649   1.460
 2785SOL    HW2 9255   4.738   2.727   1.582
 2786SOL     OW 9256   6.742   5.182   0.809
 2786SOL    HW1 9257   6.691   5.249   0.755
 2786SOL    HW2 9258   6.680   5.137   0.874
 2787SOL     OW 9259   6.382   5.731   6.029
 2787SOL    HW1 9260   6.342   5.644   5.999
 2787SOL    HW2 9261   6.471   5.743   5.985
 2788SOL     OW 9262   3.337   6.625   5.732
 2788SOL    HW1 9263   3.313   6.669   5.818
 2788SOL    HW2 9264   3.413   6.560   5.747
 2789SOL     OW 9265   1.553   2.894   3.581
 2789SOL    HW1 9266   1.612   2.839   3.640
 2789SOL    HW2 9267   1.457   2.875   3.602
 2790SOL     OW 9268   2.416   5.015   0.527
 2790SOL    HW1 9269   2.358   5.084   0.484
 2790SOL    HW2 9270   2.362   4.932   0.543
 2791SOL     OW 9271   0.052   3.912   2.179
 2791SOL    HW1 9272   0.026   3.823   2.217
 2791SOL    HW2 9273   0.150   3.924   2.187
 2792SOL     OW 9274   3.129   0.742   4.870
 2792SOL    HW1 9275   3.168   0.695   4.949
 2792SOL    HW2 9276   3.161   0.836   4.868
 2793SOL     OW 9277   4.142   4.111   1.273
 2793SOL    HW1 9278   4.193   4.180   1.325
 2793SOL    HW2 9279   4.066   4.077   1.328
 2794SOL     OW 9280   6.928   1.243   6.322
 2794SOL    HW1 9281   6.885   1.252   6.232
 2794SOL    HW2 9282   6.893   1.313   6.383
 2795SOL     OW 9283   0.204   4.648   0.719
 2795SOL    HW1 9284   0.298   4.670   0.746
 2795SOL    HW2 9285   0.154   4.614   0.798
 2796SOL     OW 9286   0.676   5.961   5.508
 2796SOL    HW1 9287   0.727   5.892   5.559
 2796SOL    HW2 9288   0.688   5.945   5.410
 2797SOL     OW 9289   5.690   6.164   4.772
 2797SOL    HW1 9290   5.698   6.247   4.716
 2797SOL    HW2 9291   5.782   6.131   4.795
 2798SOL     OW 9292   6.652   6.883   2.160
 2798SOL    HW1 9293   6.578   6.828   2.197
 2798SOL    HW2 9294   6.731   6.879   2.222
 2799SOL     OW 9295   4.677   5.632   5.374
 2799SOL    HW1 9296   4.592   5.581   5.384
 2799SOL    HW2 9297   4.732   5.591   5.302
 2800SOL     OW 9298   5.781   0.649   0.093
 2800SOL    HW1 9299   5.854   0.580   0.099
 2800SOL    HW2 9300   5.802   0.725   0.153
 2801SOL     OW 9301   0.348   4.991   6.283
 2801SOL    HW1 9302   0.274   4.979   6.349
 2801SOL    HW2 9303   0.329   4.937   6.201
 2802SOL     OW 9304   6.308   6.636   5.484
 2802SOL    HW1 9305   6.280   6.700   5.556
 2802SOL    HW2 9306   6.275   6.544   5.508
 2803SOL     OW 9307   3.667   2.946   6.074
 2803SOL    HW1 9308   3.573   2.963   6.105
 2803SOL    HW2 9309   3.717   3.032   6.072
 2804SOL     OW 9310   0.645   2.666   4.064
 2804SOL    HW1 9311   0.587   2.596   4.023
 2804SOL    HW2 9312   0.723   2.622   4.108
 2805SOL     OW 9313   4.855   3.761   1.706
 2805SOL    HW1 9314   4.854   3.846   1.760
 2805SOL    HW2 9315   4.763   3.742   1.672
 2806SOL     OW 9316   1.586   3.992   6.113
 2806SOL    HW1 9317   1.531   3.968   6.193
 2806SOL    HW2 9318   1.587   4.091   6.102
 2807SOL     OW 9319   3.092   0.572   2.859
 2807SOL    HW1 9320   3.122   0.577   2.763
 2807SOL    HW2 9321   2.998   0.538   2.863
 2808SOL     OW 9322   6.578   5.358   0.686
 2808SOL    HW1 9323   6.583   5.425   0.760
 2808SOL    HW2 9324   6.577   5.405   0.598
 2809SOL     OW 9325   5.937   4.696   2.049
 2809SOL    HW1 9326   5.931   4.695   2.149
 2809SOL    HW2 9327   5.908   4.786   2.015
 2810SOL     OW 9328   2.526   5.945   3.674
 2810SOL    HW1 9329   2.475   6.027   3.647
 2810SOL    HW2 9330   2.615   5.971   3.711
 2811SOL     OW 9331   0.430   0.153   2.329
 2811SOL    HW1 9332   0.438   0.252   2.335
 2811SOL    HW2 9333   0.509   0.110   2.372
 2812SOL     OW 9334   0.524   2.963   1.008
 2812SOL    HW1 9335   0.483   3.052   1.027
 2812SOL    HW2 9336   0.544   2.917   1.094
 2813SOL     OW 9337   0.606   1.798   1.060
 2813SOL    HW1 9338   0.590   1.701   1.078
 2813SOL    HW2 9339   0.698   1.823   1.091
 2814SOL     OW 9340   2.334   4.379   7.006
 2814SOL    HW1 9341   2.241   4.412   0.004
 2814SOL    HW2 9342   2.368   4.327   0.063
 2815SOL     OW 9343   0.267   5.959   5.026
 2815SOL    HW1 9344   0.253   5.956   5.125
 2815SOL    HW2 9345   0.205   5.894   4.981
 2816SOL     OW 9346   0.024   6.227   5.553
 2816SOL    HW1 9347   7.016   6.153   5.492
 2816SOL    HW2 9348   0.118   6.253   5.531
 2817SOL     OW 9349   3.948   0.337   1.937
 2817SOL    HW1 9350   3.919   0.430   1.959
 2817SOL    HW2 9351   3.871   0.274   1.950
 2818SOL     OW 9352   1.958   0.724   1.546
 2818SOL    HW1 9353   1.859   0.716   1.554
 2818SOL    HW2 9354   1.993   0.650   1.488
 2819SOL     OW 9355   0.829   6.941   0.906
 2819SOL    HW1 9356   0.746   6.969   0.954
 2819SOL    HW2 9357   0.816   6.952   0.807
 2820SOL     OW 9358   0.907   2.196   2.157
 2820SOL    HW1 9359   0.811   2.190   2.184
 2820SOL    HW2 9360   0.964   2.212   2.238
 2821SOL     OW 9361   3.586   4.389   6.354
 2821SOL    HW1 9362   3.678   4.352   6.371
 2821SOL    HW2 9363   3.572   4.400   6.255
 2822SOL     OW 9364   3.854   2.745   0.715
 2822SOL    HW1 9365   3.815   2.657   0.742
 2822SOL    HW2 9366   3.819   2.817   0.775
 2823SOL     OW 9367   4.848   1.102   0.519
 2823SOL    HW1 9368   4.785   1.176   0.498
 2823SOL    HW2 9369   4.942   1.134   0.506
 2824SOL     OW 9370   1.030   3.909   5.997
 2824SOL    HW1 9371   0.973   3.846   6.049
 2824SOL    HW2 9372   1.068   3.977   6.059
 2825SOL     OW 9373   5.317   1.143   6.091
 2825SOL    HW1 9374   5.235   1.095   6.122
 2825SOL    HW2 9375   5.307   1.241   6.110
 2826SOL     OW 9376   0.991   3.576   6.331
 2826SOL    HW1 9377   0.958   3.482   6.317
 2826SOL    HW2 9378   1.079   3.587   6.285
 2827SOL     OW 9379   0.070   1.113   6.486
 2827SOL    HW1 9380   0.019   1.145   6.406
 2827SOL    HW2 9381   0.166   1.140   6.477
 2828SOL     OW 9382   1.130   3.508   1.392
 2828SOL    HW1 9383   1.111   3.540   1.485
 2828SOL    HW2 9384   1.227   3.520   1.371
 2829SOL     OW 9385   3.431   4.160   3.346
 2829SOL    HW1 9386   3.357   4.227   3.352
 2829SOL    HW2 9387   3.465   4.139   3.438
 2830SOL     OW 9388   4.415   5.402   6.018
 2830SOL    HW1 9389   4.374   5.432   6.104
 2830SOL    HW2 9390   4.435   5.305   6.023
 2831SOL     OW 9391   0.068   2.282   2.378
 2831SOL    HW1 9392   0.167   2.286   2.361
 2831SOL    HW2 9393   0.053   2.264   2.475
 2832SOL     OW 9394   0.854   3.147   1.357
 2832SOL    HW1 9395   0.775   3.108   1.309
 2832SOL    HW2 9396   0.827   3.170   1.451
 2833SOL     OW 9397   2.133   1.064   1.909
 2833SOL    HW1 9398   2.230   1.039   1.902
 2833SOL    HW2 9399   2.111   1.084   2.004
 2834SOL     OW 9400   4.287   6.268   4.872
 2834SOL    HW1 9401   4.327   6.353   4.908
 2834SOL    HW2 9402   4.344   6.191   4.899
 2835SOL     OW 9403   0.970   5.986   0.791
 2835SOL    HW1 9404   0.897   5.928   0.827
 2835SOL    HW2 9405   1.052   5.931   0.775
 2836SOL     OW 9406   3.474   6.737   3.332
 2836SOL    HW1 9407   3.558   6.684   3.341
 2836SOL    HW2 9408   3.485   6.805   3.259
 2837SOL     OW 9409   5.579   3.994   2.138
 2837SOL    HW1 9410   5.673   4.005   2.170
 2837SOL    HW2 9411   5.555   4.071   2.079
 2838SOL     OW 9412   5.121   3.899   6.276
 2838SOL    HW1 9413   5.194   3.830   6.278
 2838SOL    HW2 9414   5.100   3.928   6.369
 2839SOL     OW 9415   6.131   3.328   4.495
 2839SOL    HW1 9416   6.217   3.357   4.453
 2839SOL    HW2 9417   6.055   3.374   4.450
 2840SOL     OW 9418   0.717   6.006   2.408
 2840SOL    HW1 9419   0.712   5.982   2.311
 2840SOL    HW2 9420   0.624   6.012   2.445
 2841SOL     OW 9421   6.030   2.595   1.376
 2841SOL    HW1 9422   6.093   2.588   1.452
 2841SOL    HW2 9423   6.071   2.651   1.303
 2842SOL     OW 9424   1.400   6.198   4.399
 2842SOL    HW1 9425   1.467   6.235   4.464
 2842SOL    HW2 9426   1.354   6.273   4.351
 2843SOL     OW 9427   2.041   3.254   2.998
 2843SOL    HW1 9428   1.994   3.173   3.033
 2843SOL    HW2 9429   2.099   3.292   3.070
 2844SOL     OW 9430   4.727   4.777   0.806
 2844SOL    HW1 9431   4.660   4.829   0.859
 2844SOL    HW2 9432   4.737   4.819   0.715
 2845SOL     OW 9433   4.691   2.700   3.161
 2845SOL    HW1 9434   4.664   2.636   3.090
 2845SOL    HW2 9435   4.663   2.792   3.135
 2846SOL     OW 9436   4.742   0.586   7.021
 2846SOL    HW1 9437   4.794   0.667   0.026
 2846SOL    HW2 9438   4.651   0.614   6.991
 2847SOL     OW 9439   4.555   4.446   2.209
 2847SOL    HW1 9440   4.598   4.390   2.279
 2847SOL    HW2 9441   4.543   4.392   2.126
 2848SOL     OW 9442   0.650   3.119   4.938
 2848SOL    HW1 9443   0.581   3.053   4.967
 2848SOL    HW2 9444   0.742   3.084   4.959
 2849SOL     OW 9445   3.739   0.447   2.641
 2849SOL    HW1 9446   3.788   0.534   2.632
 2849SOL    HW2 9447   3.790   0.376   2.593
 2850SOL     OW 9448   2.738   0.025   2.780
 2850SOL    HW1 9449   2.712   6.957   2.818
 2850SOL    HW2 9450   2.727   0.024   2.681
 2851SOL     OW 9451   4.378   3.249   0.775
 2851SOL    HW1 9452   4.363   3.296   0.688
 2851SOL    HW2 9453   4.432   3.166   0.760
 2852SOL     OW 9454   6.334   4.401   5.763
 2852SOL    HW1 9455   6.303   4.399   5.668
 2852SOL    HW2 9456   6.266   4.448   5.819
 2853SOL     OW 9457   0.117   3.859   0.106
 2853SOL    HW1 9458   0.047   3.824   0.043
 2853SOL    HW2 9459   0.134   3.791   0.177
 2854SOL     OW 9460   3.010   1.208   6.631
 2854SOL    HW1 9461   3.076   1.164   6.570
 2854SOL    HW2 9462   2.934   1.145   6.649
 2855SOL     OW 9463   1.650   1.727   4.855
 2855SOL    HW1 9464   1.643   1.640   4.903
 2855SOL    HW2 9465   1.585   1.793   4.895
 2856SOL     OW 9466   1.526   4.233   2.827
 2856SOL    HW1 9467   1.504   4.150   2.878
 2856SOL    HW2 9468   1.544   4.308   2.891
 2857SOL     OW 9469   0.332   3.229   0.769
 2857SOL    HW1 9470   0.248   3.206   0.721
 2857SOL    HW2 9471   0.362   3.150   0.823
 2858SOL     OW 9472   4.647   5.223   2.710
 2858SOL    HW1 9473   4.586   5.213   2.789
 2858SOL    HW2 9474   4.695   5.137   2.694
 2859SOL     OW 9475   4.899   5.945   1.181
 2859SOL    HW1 9476   4.861   6.033   1.153
 2859SOL    HW2 9477   4.972   5.961   1.248
 2860SOL     OW 9478   1.395   5.811   1.461
 2860SOL    HW1 9479   1.306   5.839   1.424
 2860SOL    HW2 9480   1.466   5.871   1.425
 2861SOL     OW 9481   3.831   4.499   6.622
 2861SOL    HW1 9482   3.908   4.521   6.561
 2861SOL    HW2 9483   3.802   4.405   6.606
 2862SOL     OW 9484   4.494   3.387   1.276
 2862SOL    HW1 9485   4.428   3.459   1.299
 2862SOL    HW2 9486   4.500   3.322   1.351
 2863SOL     OW 9487   5.766   0.262   5.657
 2863SOL    HW1 9488   5.777   0.186   5.721
 2863SOL    HW2 9489   5.673   0.297   5.662
 2864SOL     OW 9490   3.807   3.504   1.902
 2864SOL    HW1 9491   3.746   3.425   1.905
 2864SOL    HW2 9492   3.880   3.493   1.968
 2865SOL     OW 9493   5.048   5.978   4.354
 2865SOL    HW1 9494   5.122   6.029   4.397
 2865SOL    HW2 9495   4.965   5.986   4.409
 2866SOL     OW 9496   5.024   4.383   6.441
 2866SOL    HW1 9497   5.117   4.346   6.455
 2866SOL    HW2 9498   5.006   4.391   6.344
 2867SOL     OW 9499   6.088   6.630   1.669
 2867SOL    HW1 9500   6.051   6.598   1.581
 2867SOL    HW2 9501   6.186   6.611   1.672
 2868SOL     OW 9502   1.710   1.356   5.902
 2868SOL    HW1 9503   1.809   1.362   5.911
 2868SOL    HW2 9504   1.687   1.324   5.810
 2869SOL     OW 9505   5.519   6.066   3.878
 2869SOL    HW1 9506   5.471   5.990   3.835
 2869SOL    HW2 9507   5.492   6.152   3.833
 2870SOL     OW 9508   1.133   1.805   1.348
 2870SOL    HW1 9509   1.223   1.847   1.358
 2870SOL    HW2 9510   1.115   1.788   1.252
 2871SOL     OW 9511   6.659   2.002   1.790
 2871SOL    HW1 9512   6.606   1.927   1.750
 2871SOL    HW2 9513   6.597   2.076   1.817
 2872SOL     OW 9514   2.473   1.932   2.574
 2872SOL    HW1 9515   2.518   2.016   2.542
 2872SOL    HW2 9516   2.441   1.880   2.494
 2873SOL     OW 9517   0.772   5.937   1.161
 2873SOL    HW1 9518   0.791   5.970   1.253
 2873SOL    HW2 9519   0.783   6.011   1.095
 2874SOL     OW 9520   2.838   0.527   2.900
 2874SOL    HW1 9521   2.845   0.427   2.908
 2874SOL    HW2 9522   2.742   0.554   2.903
 2875SOL     OW 9523   3.054   0.066   2.657
 2875SOL    HW1 9524   3.060   0.165   2.650
 2875SOL    HW2 9525   2.971   0.042   2.708
 2876SOL     OW 9526   1.903   6.471   2.051
 2876SOL    HW1 9527   1.941   6.443   2.139
 2876SOL    HW2 9528   1.978   6.480   1.985
 2877SOL     OW 9529   1.641   1.252   5.663
 2877SOL    HW1 9530   1.684   1.251   5.573
 2877SOL    HW2 9531   1.565   1.187   5.663
 2878SOL     OW 9532   3.723   2.895   5.430
 2878SOL    HW1 9533   3.682   2.809   5.398
 2878SOL    HW2 9534   3.739   2.955   5.352
 2879SOL     OW 9535   4.491   4.300   5.782
 2879SOL    HW1 9536   4.459   4.390   5.754
 2879SOL    HW2 9537   4.570   4.310   5.843
 2880SOL     OW 9538   0.809   2.024   4.076
 2880SOL    HW1 9539   0.715   2.048   4.051
 2880SOL    HW2 9540   0.813   1.926   4.099
 2881SOL     OW 9541   3.342   6.195   6.647
 2881SOL    HW1 9542   3.410   6.142   6.596
 2881SOL    HW2 9543   3.389   6.264   6.702
 2882SOL     OW 9544   4.396   6.174   0.039
 2882SOL    HW1 9545   4.303   6.149   0.014
 2882SOL    HW2 9546   4.431   6.243   6.996
 2883SOL     OW 9547   5.757   6.469   3.289
 2883SOL    HW1 9548   5.693   6.421   3.229
 2883SOL    HW2 9549   5.851   6.450   3.261
 2884SOL     OW 9550   6.825   5.619   2.669
 2884SOL    HW1 9551   6.916   5.598   2.703
 2884SOL    HW2 9552   6.832   5.664   2.579
 2885SOL     OW 9553   1.561   3.160   2.954
 2885SOL    HW1 9554   1.509   3.076   2.942
 2885SOL    HW2 9555   1.647   3.154   2.903
 2886SOL     OW 9556   2.779   4.381   6.612
 2886SOL    HW1 9557   2.849   4.410   6.548
 2886SOL    HW2 9558   2.810   4.300   6.661
 2887SOL     OW 9559   0.587   6.389   4.432
 2887SOL    HW1 9560   0.684   6.388   4.408
 2887SOL    HW2 9561   0.539   6.316   4.384
 2888SOL     OW 9562   6.714   6.502   0.379
 2888SOL    HW1 9563   6.630   6.500   0.325
 2888SOL    HW2 9564   6.719   6.420   0.436
 2889SOL     OW 9565   3.195   0.121   3.119
 2889SOL    HW1 9566   3.210   0.169   3.205
 2889SOL    HW2 9567   3.178   0.024   3.137
 2890SOL     OW 9568   1.712   6.290   1.317
 2890SOL    HW1 9569   1.718   6.269   1.220
 2890SOL    HW2 9570   1.726   6.388   1.330
 2891SOL     OW 9571   6.773   3.286   2.409
 2891SOL    HW1 9572   6.729   3.329   2.331
 2891SOL    HW2 9573   6.799   3.355   2.476
 2892SOL     OW 9574   6.106   3.940   0.781
 2892SOL    HW1 9575   6.188   3.889   0.807
 2892SOL    HW2 9576   6.128   4.038   0.776
 2893SOL     OW 9577   0.578   5.572   4.449
 2893SOL    HW1 9578   0.509   5.555   4.519
 2893SOL    HW2 9579   0.565   5.508   4.374
 2894SOL     OW 9580   1.200   4.734   1.832
 2894SOL    HW1 9581   1.245   4.785   1.904
 2894SOL    HW2 9582   1.242   4.644   1.823
 2895SOL     OW 9583   3.766   0.258   6.068
 2895SOL    HW1 9584   3.730   0.166   6.081
 2895SOL    HW2 9585   3.782   0.274   5.971
 2896SOL     OW 9586   5.908   6.546   5.321
 2896SOL    HW1 9587   5.992   6.493   5.322
 2896SOL    HW2 9588   5.927   6.639   5.289
 2897SOL     OW 9589   3.015   5.085   3.049
 2897SOL    HW1 9590   2.999   5.002   3.103
 2897SOL    HW2 9591   2.930   5.113   3.005
 2898SOL     OW 9592   5.813   3.946   2.242
 2898SOL    HW1 9593   5.896   3.971   2.191
 2898SOL    HW2 9594   5.839   3.899   2.326
 2899SOL     OW 9595   6.576   2.245   1.141
 2899SOL    HW1 9596   6.602   2.234   1.237
 2899SOL    HW2 9597   6.640   2.193   1.084
 2900SOL     OW 9598   3.303   3.728   6.966
 2900SOL    HW1 9599   3.382   3.783   6.992
 2900SOL    HW2 9600   3.329   3.667   6.891
 2901SOL     OW 9601   1.641   4.535   3.395
 2901SOL    HW1 9602   1.676   4.537   3.489
 2901SOL    HW2 9603   1.694   4.469   3.341
 2902SOL     OW 9604   0.567   5.876   3.752
 2902SOL    HW1 9605   0.468   5.868   3.759
 2902SOL    HW2 9606   0.611   5.817   3.820
 2903SOL     OW 9607   4.087   5.828   0.518
 2903SOL    HW1 9608   4.114   5.772   0.596
 2903SOL    HW2 9609   4.168   5.876   0.483
 2904SOL     OW 9610   2.596   4.635   5.098
 2904SOL    HW1 9611   2.680   4.661   5.051
 2904SOL    HW2 9612   2.594   4.536   5.111
 2905SOL     OW 9613   1.176   4.423   2.412
 2905SOL    HW1 9614   1.109   4.491   2.383
 2905SOL    HW2 9615   1.155   4.335   2.370
 2906SOL     OW 9616   5.418   6.237   2.796
 2906SOL    HW1 9617   5.441   6.141   2.779
 2906SOL    HW2 9618   5.498   6.283   2.836
 2907SOL     OW 9619   0.891   0.283   3.553
 2907SOL    HW1 9620   0.954   0.278   3.631
 2907SOL    HW2 9621   0.808   0.232   3.575
 2908SOL     OW 9622   5.099   0.147   3.285
 2908SOL    HW1 9623   5.179   0.105   3.329
 2908SOL    HW2 9624   5.025   0.080   3.283
 2909SOL     OW 9625   1.226   5.717   2.127
 2909SOL    HW1 9626   1.242   5.637   2.069
 2909SOL    HW2 9627   1.129   5.742   2.123
 2910SOL     OW 9628   6.934   1.310   3.786
 2910SOL    HW1 9629   6.837   1.286   3.780
 2910SOL    HW2 9630   6.973   1.312   3.694
 2911SOL     OW 9631   6.444   4.458   3.578
 2911SOL    HW1 9632   6.457   4.451   3.677
 2911SOL    HW2 9633   6.508   4.525   3.540
 2912SOL     OW 9634   6.850   6.684   0.573
 2912SOL    HW1 9635   6.805   6.650   0.490
 2912SOL    HW2 9636   6.784   6.732   0.630
 2913SOL     OW 9637   2.013   4.828   1.604
 2913SOL    HW1 9638   2.059   4.831   1.515
 2913SOL    HW2 9639   1.974   4.737   1.618
 2914SOL     OW 9640   5.566   4.519   0.455
 2914SOL    HW1 9641   5.594   4.443   0.396
 2914SOL    HW2 9642   5.535   4.595   0.398
 2915SOL     OW 9643   3.603   2.046   2.837
 2915SOL    HW1 9644   3.682   2.084   2.789
 2915SOL    HW2 9645   3.526   2.038   2.773
 2916SOL     OW 9646   2.366   5.437   0.593
 2916SOL    HW1 9647   2.363   5.392   0.682
 2916SOL    HW2 9648   2.297   5.397   0.533
 2917SOL     OW 9649   2.405   0.062   3.358
 2917SOL    HW1 9650   2.366   0.091   3.271
 2917SOL    HW2 9651   2.433   0.142   3.411
 2918SOL     OW 9652   5.967   4.296   1.060
 2918SOL    HW1 9653   6.018   4.364   1.113
 2918SOL    HW2 9654   5.981   4.205   1.099
 2919SOL     OW 9655   0.578   6.076   4.505
 2919SOL    HW1 9656   0.633   6.107   4.583
 2919SOL    HW2 9657   0.597   5.980   4.487
 2920SOL     OW 9658   1.836   0.690   2.035
 2920SOL    HW1 9659   1.880   0.717   2.121
 2920SOL    HW2 9660   1.792   0.770   1.994
 2921SOL     OW 9661   6.988   0.273   5.550
 2921SOL    HW1 9662   0.044   0.215   5.522
 2921SOL    HW2 9663   6.990   0.358   5.498
 2922SOL     OW 9664   4.724   0.711   3.353
 2922SOL    HW1 9665   4.727   0.632   3.292
 2922SOL    HW2 9666   4.690   0.683   3.443
 2923SOL     OW 9667   6.517   4.720   4.806
 2923SOL    HW1 9668   6.417   4.715   4.808
 2923SOL    HW2 9669   6.551   4.688   4.717
 2924SOL     OW 9670   6.773   2.231   5.481
 2924SOL    HW1 9671   6.842   2.247   5.552
 2924SOL    HW2 9672   6.729   2.143   5.496
 2925SOL     OW 9673   5.506   0.759   5.818
 2925SOL    HW1 9674   5.504   0.858   5.833
 2925SOL    HW2 9675   5.513   0.712   5.906
 2926SOL     OW 9676   0.610   1.791   5.198
 2926SOL    HW1 9677   0.659   1.835   5.123
 2926SOL    HW2 9678   0.512   1.808   5.188
 2927SOL     OW 9679   1.830   2.807   1.454
 2927SOL    HW1 9680   1.880   2.802   1.541
 2927SOL    HW2 9681   1.751   2.746   1.458
 2928SOL     OW 9682   6.403   1.977   6.945
 2928SOL    HW1 9683   6.445   1.897   6.903
 2928SOL    HW2 9684   6.336   2.017   6.882
 2929SOL     OW 9685   1.525   2.365   4.746
 2929SOL    HW1 9686   1.459   2.291   4.756
 2929SOL    HW2 9687   1.581   2.349   4.664
 2930SOL     OW 9688   6.574   5.596   4.416
 2930SOL    HW1 9689   6.624   5.515   4.446
 2930SOL    HW2 9690   6.476   5.579   4.421
 2931SOL     OW 9691   4.042   4.485   6.443
 2931SOL    HW1 9692   4.138   4.512   6.434
 2931SOL    HW2 9693   4.031   4.389   6.417
 2932SOL     OW 9694   6.857   6.124   1.147
 2932SOL    HW1 9695   6.824   6.126   1.053
 2932SOL    HW2 9696   6.956   6.108   1.147
 2933SOL     OW 9697   0.978   0.234   1.213
 2933SOL    HW1 9698   0.878   0.231   1.214
 2933SOL    HW2 9699   1.014   0.171   1.281
 2934SOL     OW 9700   4.131   3.221   0.858
 2934SOL    HW1 9701   4.228   3.244   0.856
 2934SOL    HW2 9702   4.119   3.134   0.906
 2935SOL     OW 9703   0.646   2.239   6.357
 2935SOL    HW1 9704   0.617   2.334   6.341
 2935SOL    HW2 9705   0.640   2.187   6.272
 2936SOL     OW 9706   4.704   0.659   0.587
 2936SOL    HW1 9707   4.731   0.731   0.523
 2936SOL    HW2 9708   4.706   0.696   0.680
 2937SOL     OW 9709   4.187   5.574   1.680
 2937SOL    HW1 9710   4.123   5.549   1.607
 2937SOL    HW2 9711   4.144   5.557   1.769
 2938SOL     OW 9712   6.479   6.367   6.705
 2938SOL    HW1 9713   6.456   6.298   6.637
 2938SOL    HW2 9714   6.579   6.375   6.712
 2939SOL     OW 9715   0.124   5.604   1.683
 2939SOL    HW1 9716   0.028   5.582   1.670
 2939SOL    HW2 9717   0.132   5.700   1.711
 2940SOL     OW 9718   5.763   6.136   4.298
 2940SOL    HW1 9719   5.678   6.127   4.350
 2940SOL    HW2 9720   5.841   6.122   4.358
 2941SOL     OW 9721   1.649   3.420   3.406
 2941SOL    HW1 9722   1.615   3.474   3.330
 2941SOL    HW2 9723   1.595   3.336   3.414
 2942SOL     OW 9724   2.445   1.200   6.910
 2942SOL    HW1 9725   2.415   1.243   6.995
 2942SOL    HW2 9726   2.401   1.245   6.832
 2943SOL     OW 9727   5.948   4.400   3.363
 2943SOL    HW1 9728   6.027   4.354   3.405
 2943SOL    HW2 9729   5.970   4.423   3.268
 2944SOL     OW 9730   2.750   6.211   4.267
 2944SOL    HW1 9731   2.826   6.153   4.237
 2944SOL    HW2 9732   2.680   6.156   4.311
 2945SOL     OW 9733   5.178   4.462   1.332
 2945SOL    HW1 9734   5.175   4.402   1.412
 2945SOL    HW2 9735   5.111   4.431   1.264
 2946SOL     OW 9736   3.174   3.956   6.249
 2946SOL    HW1 9737   3.103   3.903   6.202
 2946SOL    HW2 9738   3.259   3.904   6.251
 2947SOL     OW 9739   5.805   6.014   0.837
 2947SOL    HW1 9740   5.896   5.973   0.832
 2947SOL    HW2 9741   5.781   6.053   0.748
 2948SOL     OW 9742   5.747   4.657   3.141
 2948SOL    HW1 9743   5.749   4.756   3.127
 2948SOL    HW2 9744   5.765   4.636   3.237
 2949SOL     OW 9745   0.996   6.483   0.936
 2949SOL    HW1 9746   1.000   6.520   0.843
 2949SOL    HW2 9747   0.902   6.487   0.969
 2950SOL     OW 9748   4.454   4.506   2.685
 2950SOL    HW1 9749   4.484   4.491   2.779
 2950SOL    HW2 9750   4.382   4.575   2.684
 2951SOL     OW 9751   5.630   0.694   1.250
 2951SOL    HW1 9752   5.544   0.727   1.288
 2951SOL    HW2 9753   5.671   0.766   1.193
 2952SOL     OW 9754   6.163   0.709   4.025
 2952SOL    HW1 9755   6.232   0.687   4.094
 2952SOL    HW2 9756   6.148   0.808   4.024
 2953SOL     OW 9757   0.476   6.112   3.045
 2953SOL    HW1 9758   0.475   6.017   3.077
 2953SOL    HW2 9759   0.555   6.125   2.984
 2954SOL     OW 9760   1.188   4.484   6.533
 2954SOL    HW1 9761   1.214   4.409   6.594
 2954SOL    HW2 9762   1.142   4.555   6.586
 2955SOL     OW 9763   1.342   3.903   0.315
 2955SOL    HW1 9764   1.246   3.922   0.332
 2955SOL    HW2 9765   1.353   3.807   0.288
 2956SOL     OW 9766   6.465   4.445   3.858
 2956SOL    HW1 9767   6.559   4.465   3.885
 2956SOL    HW2 9768   6.438   4.356   3.893
 2957SOL     OW 9769   2.809   4.922   1.609
 2957SOL    HW1 9770   2.747   4.908   1.686
 2957SOL    HW2 9771   2.763   4.896   1.524
 2958SOL     OW 9772   2.060   4.965   3.168
 2958SOL    HW1 9773   2.080   4.898   3.240
 2958SOL    HW2 9774   2.105   4.937   3.083
 2959SOL     OW 9775   6.095   2.428   2.930
 2959SOL    HW1 9776   6.007   2.424   2.977
 2959SOL    HW2 9777   6.115   2.522   2.904
 2960SOL     OW 9778   4.049   0.408   0.458
 2960SOL    HW1 9779   4.083   0.321   0.495
 2960SOL    HW2 9780   4.047   0.476   0.530
 2961SOL     OW 9781   5.744   4.218   2.394
 2961SOL    HW1 9782   5.778   4.309   2.418
 2961SOL    HW2 9783   5.818   4.151   2.404
 2962SOL     OW 9784   6.235   6.656   2.532
 2962SOL    HW1 9785   6.181   6.654   2.448
 2962SOL    HW2 9786   6.188   6.710   2.601
 2963SOL     OW 9787   1.080   0.555   6.042
 2963SOL    HW1 9788   1.033   0.630   6.088
 2963SOL    HW2 9789   1.110   0.488   6.111
 2964SOL     OW 9790   0.648   2.511   6.833
 2964SOL    HW1 9791   0.657   2.475   6.740
 2964SOL    HW2 9792   0.705   2.593   6.843
 2965SOL     OW 9793   0.866   0.403   4.590
 2965SOL    HW1 9794   0.865   0.306   4.614
 2965SOL    HW2 9795   0.850   0.413   4.492
 2966SOL     OW 9796   4.251   5.437   3.644
 2966SOL    HW1 9797   4.257   5.412   3.548
 2966SOL    HW2 9798   4.172   5.391   3.686
 2967SOL     OW 9799   6.364   0.897   5.778
 2967SOL    HW1 9800   6.358   0.941   5.688
 2967SOL    HW2 9801   6.273   0.864   5.805
 2968SOL     OW 9802   2.062   2.452   1.131
 2968SOL    HW1 9803   2.057   2.439   1.230
 2968SOL    HW2 9804   2.000   2.525   1.103
 2969SOL     OW 9805   5.145   3.818   4.572
 2969SOL    HW1 9806   5.092   3.744   4.613
 2969SOL    HW2 9807   5.218   3.846   4.635
 2970SOL     OW 9808   2.495   2.814   5.374
 2970SOL    HW1 9809   2.396   2.825   5.365
 2970SOL    HW2 9810   2.542   2.879   5.315
 2971SOL     OW 9811   5.328   4.160   0.166
 2971SOL    HW1 9812   5.338   4.108   0.251
 2971SOL    HW2 9813   5.398   4.132   0.101
 2972SOL     OW 9814   6.062   5.399   6.323
 2972SOL    HW1 9815   6.068   5.392   6.224
 2972SOL    HW2 9816   6.139   5.350   6.365
 2973SOL     OW 9817   4.847   6.762   1.894
 2973SOL    HW1 9818   4.936   6.754   1.940
 2973SOL    HW2 9819   4.820   6.673   1.857
 2974SOL     OW 9820   5.955   4.826   3.422
 2974SOL    HW1 9821   5.872   4.770   3.411
 2974SOL    HW2 9822   5.981   4.829   3.518
 2975SOL     OW 9823   4.831   4.762   4.238
 2975SOL    HW1 9824   4.838   4.667   4.209
 2975SOL    HW2 9825   4.741   4.778   4.279
 2976SOL     OW 9826   4.804   2.225   2.631
 2976SOL    HW1 9827   4.715   2.181   2.619
 2976SOL    HW2 9828   4.809   2.306   2.573
 2977SOL     OW 9829   0.250   0.224   1.872
 2977SOL    HW1 9830   0.158   0.263   1.879
 2977SOL    HW2 9831   0.318   0.296   1.889
 2978SOL     OW 9832   4.454   4.265   6.089
 2978SOL    HW1 9833   4.436   4.335   6.020
 2978SOL    HW2 9834   4.458   4.307   6.180
 2979SOL     OW 9835   3.111   1.532   4.825
 2979SOL    HW1 9836   3.046   1.485   4.765
 2979SOL    HW2 9837   3.142   1.470   4.896
 2980SOL     OW 9838   4.254   4.072   6.217
 2980SOL    HW1 9839   4.217   3.980   6.235
 2980SOL    HW2 9840   4.232   4.098   6.123
 2981SOL     OW 9841   1.943   0.979   0.778
 2981SOL    HW1 9842   1.991   1.066   0.793
 2981SOL    HW2 9843   1.866   0.994   0.715
 2982SOL     OW 9844   1.736   6.762   2.188
 2982SOL    HW1 9845   1.664   6.697   2.162
 2982SOL    HW2 9846   1.694   6.849   2.214
 2983SOL     OW 9847   6.341   3.039   6.933
 2983SOL    HW1 9848   6.387   3.124   6.910
 2983SOL    HW2 9849   6.370   3.009   0.003
 2984SOL     OW 9850   6.261   5.152   0.048
 2984SOL    HW1 9851   6.277   5.244   0.083
 2984SOL    HW2 9852   6.166   5.144   0.017
 2985SOL     OW 9853   0.348   0.303   4.484
 2985SOL    HW1 9854   0.259   0.257   4.485
 2985SOL    HW2 9855   0.359   0.356   4.568
 2986SOL     OW 9856   3.384   4.171   2.625
 2986SOL    HW1 9857   3.413   4.233   2.552
 2986SOL    HW2 9858   3.459   4.158   2.690
 2987SOL     OW 9859   0.922   2.164   4.311
 2987SOL    HW1 9860   0.838   2.170   4.364
 2987SOL    HW2 9861   0.900   2.143   4.216
 2988SOL     OW 9862   1.100   1.370   1.315
 2988SOL    HW1 9863   1.048   1.357   1.231
 2988SOL    HW2 9864   1.075   1.458   1.356
 2989SOL     OW 9865   5.083   3.038   5.017
 2989SOL    HW1 9866   4.985   3.033   4.996
 2989SOL    HW2 9867   5.104   3.126   5.059
 2990SOL     OW 9868   4.889   1.784   4.578
 2990SOL    HW1 9869   4.978   1.829   4.585
 2990SOL    HW2 9870   4.860   1.753   4.669
 2991SOL     OW 9871   5.740   3.302   0.605
 2991SOL    HW1 9872   5.808   3.272   0.672
 2991SOL    HW2 9873   5.712   3.395   0.626
 2992SOL     OW 9874   0.894   3.729   5.356
 2992SOL    HW1 9875   0.831   3.805   5.344
 2992SOL    HW2 9876   0.973   3.759   5.410
 2993SOL     OW 9877   0.689   4.824   6.866
 2993SOL    HW1 9878   0.641   4.737   6.857
 2993SOL    HW2 9879   0.763   4.828   6.799
 2994SOL     OW 9880   4.645   5.790   7.017
 2994SOL    HW1 9881   4.688   5.852   0.061
 2994SOL    HW2 9882   4.564   5.748   0.038
 2995SOL     OW 9883   4.536   0.457   0.544
 2995SOL    HW1 9884   4.587   0.542   0.553
 2995SOL    HW2 9885   4.574   0.403   0.468
 2996SOL     OW 9886   1.430   2.079   4.817
 2996SOL    HW1 9887   1.489   2.095   4.896
 2996SOL    HW2 9888   1.463   1.999   4.766
 2997SOL     OW 9889   5.009   0.667   3.522
 2997SOL    HW1 9890   4.978   0.740   3.462
 2997SOL    HW2 9891   4.973   0.579   3.490
 2998SOL     OW 9892   2.687   0.650   3.360
 2998SOL    HW1 9893   2.624   0.610   3.293
 2998SOL    HW2 9894   2.732   0.730   3.320
 2999SOL     OW 9895   2.889   4.359   0.170
 2999SOL    HW1 9896   2.841   4.279   0.205
 2999SOL    HW2 9897   2.861   4.440   0.222
 3000SOL     OW 9898   2.679   3.638   5.603
 3000SOL    HW1 9899   2.596   3.583   5.614
 3000SOL    HW2 9900   2.704   3.643   5.506
 3001SOL     OW 9901   5.911   1.389   6.553
 3001SOL    HW1 9902   5.923   1.289   6.548
 3001SOL    HW2 9903   5.973   1.433   6.489
 3002SOL     OW 9904   2.910   1.099   1.297
 3002SOL    HW1 9905   2.952   1.011   1.274
 3002SOL    HW2 9906   2.963   1.173   1.255
 3003SOL     OW 9907   0.985   6.092   0.531
 3003SOL    HW1 9908   0.983   6.087   0.631
 3003SOL    HW2 9909   1.015   6.005   0.494
 3004SOL     OW 9910   2.775   4.778   4.047
 3004SOL    HW1 9911   2.717   4.699   4.027
 3004SOL    HW2 9912   2.780   4.836   3.966
 3005SOL     OW 9913   1.247   2.829   5.844
 3005SOL    HW1 9914   1.148   2.812   5.852
 3005SOL    HW2 9915   1.268   2.861   5.752
 3006SOL     OW 9916   5.636   1.926   5.413
 3006SOL    HW1 9917   5.678   1.855   5.470
 3006SOL    HW2 9918   5.548   1.894   5.380
 3007SOL     OW 9919   5.398   5.360   0.188
 3007SOL    HW1 9920   5.442   5.376   0.276
 3007SOL    HW2 9921   5.393   5.445   0.136
 3008SOL     OW 9922   4.208   2.053   5.948
 3008SOL    HW1 9923   4.226   1.996   5.868
 3008SOL    HW2 9924   4.272   2.130   5.949
 3009SOL     OW 9925   0.325   2.869   3.224
 3009SOL    HW1 9926   0.266   2.865   3.305
 3009SOL    HW2 9927   0.344   2.776   3.192
 3010SOL     OW 9928   4.340   5.427   6.309
 3010SOL    HW1 9929   4.324   5.526   6.312
 3010SOL    HW2 9930   4.294   5.384   6.386
 3011SOL     OW 9931   6.023   0.042   1.399
 3011SOL    HW1 9932   6.033   7.014   1.313
 3011SOL    HW2 9933   6.067   7.011   1.472
 3012SOL     OW 9934   2.823   3.223   6.503
 3012SOL    HW1 9935   2.890   3.282   6.546
 3012SOL    HW2 9936   2.731   3.261   6.516
 3013SOL     OW 9937   0.140   6.269   3.971
 3013SOL    HW1 9938   0.092   6.183   3.953
 3013SOL    HW2 9939   0.095   6.342   3.920
 3014SOL     OW 9940   4.822   1.145   5.120
 3014SOL    HW1 9941   4.906   1.199   5.115
 3014SOL    HW2 9942   4.836   1.058   5.072
 3015SOL     OW 9943   1.732   0.912   0.373
 3015SOL    HW1 9944   1.695   0.954   0.290
 3015SOL    HW2 9945   1.784   0.830   0.349
 3016SOL     OW 9946   2.768   6.685   4.256
 3016SOL    HW1 9947   2.799   6.596   4.288
 3016SOL    HW2 9948   2.726   6.676   4.166
 3017SOL     OW 9949   6.614   5.810   1.770
 3017SOL    HW1 9950   6.711   5.835   1.769
 3017SOL    HW2 9951   6.604   5.711   1.757
 3018SOL     OW 9952   3.428   6.894   0.370
 3018SOL    HW1 9953   3.461   6.923   0.281
 3018SOL    HW2 9954   3.504   6.855   0.423
 3019SOL     OW 9955   1.492   6.209   6.466
 3019SOL    HW1 9956   1.516   6.305   6.474
 3019SOL    HW2 9957   1.424   6.186   6.535
 3020SOL     OW 9958   5.478   3.412   6.885
 3020SOL    HW1 9959   5.555   3.443   6.940
 3020SOL    HW2 9960   5.494   3.318   6.855
 3021SOL     OW 9961   3.145   6.350   4.785
 3021SOL    HW1 9962   3.199   6.431   4.809
 3021SOL    HW2 9963   3.190   6.301   4.710
 3022SOL     OW 9964   3.665   5.911   3.476
 3022SOL    HW1 9965   3.726   5.947   3.406
 3022SOL    HW2 9966   3.572   5.947   3.461
 3023SOL     OW 9967   4.454   6.753   2.701
 3023SOL    HW1 9968   4.456   6.724   2.797
 3023SOL    HW2 9969   4.493   6.681   2.643
 3024SOL     OW 9970   0.403   6.485   5.931
 3024SOL    HW1 9971   0.342   6.465   6.008
 3024SOL    HW2 9972   0.491   6.438   5.945
 3025SOL     OW 9973   4.000   5.966   0.850
 3025SOL    HW1 9974   3.929   5.980   0.781
 3025SOL    HW2 9975   4.090   5.980   0.810
 3026SOL     OW 9976   5.679   1.608   0.620
 3026SOL    HW1 9977   5.681   1.692   0.674
 3026SOL    HW2 9978   5.773   1.580   0.598
 3027SOL     OW 9979   4.744   2.134   1.828
 3027SOL    HW1 9980   4.751   2.122   1.729
 3027SOL    HW2 9981   4.697   2.055   1.868
 3028SOL     OW 9982   2.208   4.271   6.637
 3028SOL    HW1 9983   2.163   4.230   6.716
 3028SOL    HW2 9984   2.139   4.293   6.567
 3029SOL     OW 9985   1.010   2.565   4.427
 3029SOL    HW1 9986   1.062   2.646   4.403
 3029SOL    HW2 9987   1.057   2.483   4.393
 3030SOL     OW 9988   1.672   4.222   1.640
 3030SOL    HW1 9989   1.659   4.130   1.602
 3030SOL    HW2 9990   1.674   4.289   1.566
 3031SOL     OW 9991   1.437   5.705   1.077
 3031SOL    HW1 9992   1.440   5.708   1.177
 3031SOL    HW2 9993   1.416   5.796   1.041
 3032SOL     OW 9994   1.825   0.183   3.002
 3032SOL    HW1 9995   1.865   0.093   3.018
 3032SOL    HW2 9996   1.812   0.197   2.904
 3033SOL     OW 9997   6.494   2.755   4.448
 3033SOL    HW1 9998   6.586   2.715   4.453
 3033SOL    HW2 9999   6.427   2.690   4.484
 3034SOL     OW10000   0.704   5.991   3.561
 3034SOL    HW110001   0.730   6.082   3.593
 3034SOL    HW210002   0.653   5.944   3.633
 3035SOL     OW10003   1.465   2.502   6.188
 3035SOL    HW110004   1.436   2.535   6.278
 3035SOL    HW210005   1.560   2.527   6.172
 3036SOL     OW10006   1.871   2.416   6.357
 3036SOL    HW110007   1.877   2.318   6.339
 3036SOL    HW210008   1.867   2.431   6.456
 3037SOL     OW10009   0.520   5.084   5.960
 3037SOL    HW110010   0.601   5.119   6.008
 3037SOL    HW210011   0.492   5.148   5.889
 3038SOL     OW10012   5.263   5.186   6.138
 3038SOL    HW110013   5.287   5.279   6.111
 3038SOL    HW210014   5.296   5.122   6.069
 3039SOL     OW10015   6.137   3.658   6.923
 3039SOL    HW110016   6.112   3.613   6.837
 3039SOL    HW210017   6.055   3.688   6.971
 3040SOL     OW10018   3.657   4.083   5.933
 3040SOL    HW110019   3.639   4.002   5.878
 3040SOL    HW210020   3.593   4.087   6.010
 3041SOL     OW10021   2.006   4.200   5.034
 3041SOL    HW110022   1.931   4.135   5.027
 3041SOL    HW210023   2.090   4.151   5.058
 3042SOL     OW10024   0.450   5.192   3.354
 3042SOL    HW110025   0.508   5.268   3.325
 3042SOL    HW210026   0.430   5.200   3.452
 3043SOL     OW10027   2.911   3.610   0.755
 3043SOL    HW110028   2.936   3.593   0.851
 3043SOL    HW210029   2.987   3.656   0.709
 3044SOL     OW10030   3.455   3.607   4.938
 3044SOL    HW110031   3.454   3.583   4.841
 3044SOL    HW210032   3.459   3.523   4.993
 3045SOL     OW10033   5.132   1.404   3.235
 3045SOL    HW110034   5.090   1.377   3.322
 3045SOL    HW210035   5.061   1.435   3.172
 3046SOL     OW10036   5.509   5.475   0.727
 3046SOL    HW110037   5.454   5.473   0.811
 3046SOL    HW210038   5.599   5.513   0.748
 3047SOL     OW10039   6.004   0.485   0.031
 3047SOL    HW110040   5.968   0.399   7.015
 3047SOL    HW210041   6.086   0.511   7.002
 3048SOL     OW10042   4.453   3.053   1.100
 3048SOL    HW110043   4.540   3.100   1.086
 3048SOL    HW210044   4.455   3.003   1.187
 3049SOL     OW10045   1.170   0.505   4.200
 3049SOL    HW110046   1.102   0.478   4.133
 3049SOL    HW210047   1.214   0.590   4.171
 3050SOL     OW10048   2.712   2.267   1.184
 3050SOL    HW110049   2.713   2.167   1.179
 3050SOL    HW210050   2.782   2.304   1.123
 3051SOL     OW10051   2.893   6.889   5.350
 3051SOL    HW110052   2.886   6.987   5.335
 3051SOL    HW210053   2.860   6.867   5.442
 3052SOL     OW10054   5.721   6.175   2.368
 3052SOL    HW110055   5.768   6.151   2.453
 3052SOL    HW210056   5.743   6.269   2.343
 3053SOL     OW10057   1.859   4.197   0.171
 3053SOL    HW110058   1.788   4.181   0.240
 3053SOL    HW210059   1.941   4.234   0.214
 3054SOL     OW10060   5.409   1.288   2.782
 3054SOL    HW110061   5.484   1.350   2.806
 3054SOL    HW210062   5.380   1.306   2.688
 3055SOL     OW10063   6.242   6.322   6.471
 3055SOL    HW110064   6.301   6.241   6.463
 3055SOL    HW210065   6.222   6.359   6.381
 3056SOL     OW10066   4.789   1.685   6.265
 3056SOL    HW110067   4.735   1.681   6.349
 3056SOL    HW210068   4.728   1.686   6.186
 3057SOL     OW10069   5.397   5.781   3.311
 3057SOL    HW110070   5.299   5.759   3.314
 3057SOL    HW210071   5.443   5.716   3.250
 3058SOL     OW10072   6.050   4.431   0.472
 3058SOL    HW110073   5.961   4.432   0.519
 3058SOL    HW210074   6.041   4.479   0.385
 3059SOL     OW10075   2.360   2.813   4.291
 3059SOL    HW110076   2.355   2.877   4.214
 3059SOL    HW210077   2.414   2.733   4.263
 3060SOL     OW10078   3.283   5.063   5.536
 3060SOL    HW110079   3.226   4.984   5.556
 3060SOL    HW210080   3.291   5.075   5.436
 3061SOL     OW10081   5.466   4.878   5.741
 3061SOL    HW110082   5.375   4.874   5.702
 3061SOL    HW210083   5.533   4.891   5.668
 3062SOL     OW10084   4.133   4.465   1.558
 3062SOL    HW110085   4.172   4.556   1.563
 3062SOL    HW210086   4.047   4.468   1.508
 3063SOL     OW10087   0.597   4.040   1.495
 3063SOL    HW110088   0.626   3.967   1.434
 3063SOL    HW210089   0.585   4.124   1.442
 3064SOL     OW10090   3.947   2.260   6.777
 3064SOL    HW110091   3.929   2.232   6.683
 3064SOL    HW210092   4.043   2.239   6.800
 3065SOL     OW10093   1.178   0.784   6.856
 3065SOL    HW110094   1.148   0.879   6.845
 3065SOL    HW210095   1.160   0.733   6.773
 3066SOL     OW10096   4.788   5.244   5.388
 3066SOL    HW110097   4.860   5.304   5.421
 3066SOL    HW210098   4.739   5.289   5.313
 3067SOL     OW10099   2.654   1.441   6.776
 3067SOL    HW110100   2.609   1.352   6.789
 3067SOL    HW210101   2.668   1.457   6.678
 3068SOL     OW10102   0.495   1.284   1.072
 3068SOL    HW110103   0.540   1.222   1.007
 3068SOL    HW210104   0.532   1.270   1.163
 3069SOL     OW10105   5.236   6.891   3.139
 3069SOL    HW110106   5.184   6.837   3.205
 3069SOL    HW210107   5.173   6.930   3.071
 3070SOL     OW10108   2.928   1.374   0.206
 3070SOL    HW110109   2.886   1.463   0.190
 3070SOL    HW210110   2.998   1.357   0.137
 3071SOL     OW10111   0.276   3.495   3.466
 3071SOL    HW110112   0.302   3.584   3.427
 3071SOL    HW210113   0.357   3.448   3.501
 3072SOL     OW10114   1.883   6.014   6.848
 3072SOL    HW110115   1.857   5.964   6.765
 3072SOL    HW210116   1.816   6.086   6.866
 3073SOL     OW10117   6.528   4.459   0.594
 3073SOL    HW110118   6.549   4.549   0.632
 3073SOL    HW210119   6.504   4.467   0.498
 3074SOL     OW10120   1.111   3.773   0.818
 3074SOL    HW110121   1.063   3.686   0.823
 3074SOL    HW210122   1.166   3.786   0.901
 3075SOL     OW10123   2.484   5.241   3.700
 3075SOL    HW110124   2.497   5.216   3.796
 3075SOL    HW210125   2.411   5.186   3.660
 3076SOL     OW10126   0.325   1.503   4.924
 3076SOL    HW110127   0.398   1.527   4.860
 3076SOL    HW210128   0.247   1.466   4.874
 3077SOL     OW10129   6.267   3.635   1.079
 3077SOL    HW110130   6.318   3.562   1.034
 3077SOL    HW210131   6.325   3.681   1.145
 3078SOL     OW10132   6.601   2.871   1.619
 3078SOL    HW110133   6.668   2.856   1.547
 3078SOL    HW210134   6.510   2.845   1.586
 3079SOL     OW10135   2.267   2.527   5.147
 3079SOL    HW110136   2.311   2.491   5.065
 3079SOL    HW210137   2.243   2.623   5.133
 3080SOL     OW10138   4.490   4.923   0.964
 3080SOL    HW110139   4.532   5.011   0.986
 3080SOL    HW210140   4.466   4.874   1.048
 3081SOL     OW10141   1.269   4.042   0.616
 3081SOL    HW110142   1.205   4.043   0.539
 3081SOL    HW210143   1.356   4.003   0.586
 3082SOL     OW10144   3.667   5.314   4.305
 3082SOL    HW110145   3.652   5.261   4.222
 3082SOL    HW210146   3.588   5.305   4.365
 3083SOL     OW10147   2.260   5.878   2.740
 3083SOL    HW110148   2.287   5.932   2.660
 3083SOL    HW210149   2.268   5.781   2.719
 3084SOL     OW10150   0.816   3.785   3.171
 3084SOL    HW110151   0.718   3.778   3.188
 3084SOL    HW210152   0.865   3.777   3.257
 3085SOL     OW10153   4.437   5.125   0.701
 3085SOL    HW110154   4.516   5.174   0.740
 3085SOL    HW210155   4.436   5.136   0.602
 3086SOL     OW10156   5.933   1.263   0.115
 3086SOL    HW110157   5.886   1.179   0.088
 3086SOL    HW210158   5.921   1.277   0.213
 3087SOL     OW10159   2.814   7.021   1.803
 3087SOL    HW110160   2.746   7.012   1.876
 3087SOL    HW210161   2.780   6.978   1.720
 3088SOL     OW10162   0.729   2.599   5.637
 3088SOL    HW110163   0.797   2.672   5.642
 3088SOL    HW210164   0.770   2.518   5.595
 3089SOL     OW10165   4.962   0.309   4.751
 3089SOL    HW110166   4.962   0.332   4.848
 3089SOL    HW210167   4.973   0.392   4.696
 3090SOL     OW10168   1.015   1.603   1.465
 3090SOL    HW110169   1.050   1.690   1.429
 3090SOL    HW210170   0.922   1.617   1.498
 3091SOL     OW10171   1.263   1.518   1.143
 3091SOL    HW110172   1.227   1.516   1.050
 3091SOL    HW210173   1.214   1.450   1.198
 3092SOL     OW10174   5.349   6.898   2.226
 3092SOL    HW110175   5.445   6.892   2.198
 3092SOL    HW210176   5.323   6.814   2.274
 3093SOL     OW10177   5.779   5.228   6.045
 3093SOL    HW110178   5.766   5.324   6.020
 3093SOL    HW210179   5.763   5.171   5.964
 3094SOL     OW10180   2.897   0.957   5.601
 3094SOL    HW110181   2.884   1.053   5.578
 3094SOL    HW210182   2.936   0.909   5.523
 3095SOL     OW10183   2.758   3.045   5.402
 3095SOL    HW110184   2.747   2.979   5.476
 3095SOL    HW210185   2.677   3.046   5.344
 3096SOL     OW10186   0.973   3.408   4.972
 3096SOL    HW110187   0.882   3.437   5.001
 3096SOL    HW210188   0.981   3.417   4.873
 3097SOL     OW10189   6.031   2.106   6.282
 3097SOL    HW110190   5.954   2.044   6.268
 3097SOL    HW210191   6.112   2.068   6.237
 3098SOL     OW10192   1.994   1.656   2.168
 3098SOL    HW110193   2.020   1.560   2.166
 3098SOL    HW210194   2.075   1.712   2.188
 3099SOL     OW10195   0.668   6.539   3.972
 3099SOL    HW110196   0.620   6.452   3.965
 3099SOL    HW210197   0.608   6.608   4.012
 3100SOL     OW10198   6.352   6.560   2.940
 3100SOL    HW110199   6.378   6.641   2.993
 3100SOL    HW210200   6.255   6.566   2.917
 3101SOL     OW10201   4.591   6.661   5.796
 3101SOL    HW110202   4.646   6.624   5.721
 3101SOL    HW210203   4.632   6.747   5.829
 3102SOL     OW10204   6.873   5.538   0.368
 3102SOL    HW110205   6.824   5.624   0.375
 3102SOL    HW210206   6.873   5.491   0.456
 3103SOL     OW10207   3.306   0.015   1.323
 3103SOL    HW110208   3.292   0.102   1.369
 3103SOL    HW210209   3.322   6.965   1.391
 3104SOL     OW10210   4.772   0.534   6.154
 3104SOL    HW110211   4.753   0.568   6.062
 3104SOL    HW210212   4.786   0.435   6.150
 3105SOL     OW10213   5.165   3.185   0.096
 3105SOL    HW110214   5.117   3.175   0.183
 3105SOL    HW210215   5.233   3.113   0.086
 3106SOL     OW10216   5.636   1.140   4.670
 3106SOL    HW110217   5.604   1.102   4.757
 3106SOL    HW210218   5.636   1.068   4.601
 3107SOL     OW10219   4.285   1.558   4.991
 3107SOL    HW110220   4.285   1.476   4.934
 3107SOL    HW210221   4.196   1.603   4.986
 3108SOL     OW10222   2.303   4.463   4.319
 3108SOL    HW110223   2.303   4.470   4.419
 3108SOL    HW210224   2.286   4.368   4.292
 3109SOL     OW10225   6.478   6.860   4.308
 3109SOL    HW110226   6.414   6.925   4.348
 3109SOL    HW210227   6.540   6.907   4.246
 3110SOL     OW10228   2.526   4.704   3.343
 3110SOL    HW110229   2.620   4.723   3.372
 3110SOL    HW210230   2.483   4.788   3.312
 3111SOL     OW10231   6.247   4.707   4.802
 3111SOL    HW110232   6.158   4.666   4.782
 3111SOL    HW210233   6.243   4.753   4.891
 3112SOL     OW10234   3.958   2.693   0.261
 3112SOL    HW110235   3.914   2.740   0.337
 3112SOL    HW210236   3.946   2.746   0.177
 3113SOL     OW10237   2.748   5.922   3.006
 3113SOL    HW110238   2.664   5.907   3.058
 3113SOL    HW210239   2.753   5.855   2.932
 3114SOL     OW10240   3.390   1.771   0.342
 3114SOL    HW110241   3.300   1.785   0.300
 3114SOL    HW210242   3.400   1.675   0.367
 3115SOL     OW10243   4.085   4.402   5.308
 3115SOL    HW110244   4.170   4.411   5.257
 3115SOL    HW210245   4.084   4.315   5.357
 3116SOL     OW10246   0.139   2.475   0.902
 3116SOL    HW110247   0.175   2.383   0.883
 3116SOL    HW210248   0.042   2.468   0.925
 3117SOL     OW10249   4.924   1.972   5.452
 3117SOL    HW110250   4.925   1.913   5.370
 3117SOL    HW210251   4.837   1.961   5.500
 3118SOL     OW10252   1.520   0.549   2.833
 3118SOL    HW110253   1.499   0.456   2.864
 3118SOL    HW210254   1.614   0.552   2.800
 3119SOL     OW10255   3.948   3.086   5.816
 3119SOL    HW110256   3.883   3.031   5.763
 3119SOL    HW210257   4.029   3.106   5.761
 3120SOL     OW10258   3.083   0.297   5.376
 3120SOL    HW110259   3.169   0.247   5.391
 3120SOL    HW210260   3.091   0.389   5.414
 3121SOL     OW10261   4.819   1.892   4.325
 3121SOL    HW110262   4.854   1.841   4.403
 3121SOL    HW210263   4.730   1.855   4.298
 3122SOL     OW10264   4.363   4.625   4.299
 3122SOL    HW110265   4.367   4.540   4.351
 3122SOL    HW210266   4.426   4.620   4.222
 3123SOL     OW10267   2.318   1.955   3.030
 3123SOL    HW110268   2.338   1.985   3.124
 3123SOL    HW210269   2.390   1.989   2.969
 3124SOL     OW10270   5.179   6.710   4.472
 3124SOL    HW110271   5.270   6.726   4.510
 3124SOL    HW210272   5.180   6.730   4.374
 3125SOL     OW10273   1.443   2.781   5.361
 3125SOL    HW110274   1.399   2.726   5.290
 3125SOL    HW210275   1.375   2.842   5.402
 3126SOL     OW10276   5.775   5.850   4.467
 3126SOL    HW110277   5.740   5.837   4.560
 3126SOL    HW210278   5.699   5.848   4.402
 3127SOL     OW10279   0.795   2.377   4.552
 3127SOL    HW110280   0.891   2.376   4.583
 3127SOL    HW210281   0.737   2.414   4.624
 3128SOL     OW10282   3.689   0.145   0.615
 3128SOL    HW110283   3.729   0.202   0.544
 3128SOL    HW210284   3.621   0.198   0.666
 3129SOL     OW10285   4.724   3.147   1.074
 3129SOL    HW110286   4.718   3.173   0.977
 3129SOL    HW210287   4.772   3.219   1.124
 3130SOL     OW10288   1.833   3.779   0.994
 3130SOL    HW110289   1.907   3.779   0.928
 3130SOL    HW210290   1.848   3.706   1.061
 3131SOL     OW10291   0.000   4.013   1.616
 3131SOL    HW110292   0.074   4.047   1.557
 3131SOL    HW210293   6.985   4.089   1.670
 3132SOL     OW10294   3.873   4.334   0.398
 3132SOL    HW110295   3.823   4.315   0.313
 3132SOL    HW210296   3.966   4.299   0.391
 3133SOL     OW10297   4.190   0.063   3.215
 3133SOL    HW110298   4.216   0.111   3.131
 3133SOL    HW210299   4.146   0.127   3.278
 3134SOL     OW10300   3.044   4.955   2.061
 3134SOL    HW110301   3.020   4.877   2.004
 3134SOL    HW210302   3.142   4.951   2.083
 3135SOL     OW10303   5.783   6.902   5.969
 3135SOL    HW110304   5.845   6.975   5.939
 3135SOL    HW210305   5.837   6.822   5.996
 3136SOL     OW10306   6.290   1.071   2.501
 3136SOL    HW110307   6.216   1.121   2.457
 3136SOL    HW210308   6.294   0.978   2.465
 3137SOL     OW10309   6.157   0.048   0.353
 3137SOL    HW110310   6.251   0.062   0.383
 3137SOL    HW210311   6.094   0.083   0.422
 3138SOL     OW10312   5.529   5.590   3.834
 3138SOL    HW110313   5.570   5.543   3.756
 3138SOL    HW210314   5.506   5.523   3.904
 3139SOL     OW10315   2.356   5.063   1.542
 3139SOL    HW110316   2.320   5.060   1.449
 3139SOL    HW210317   2.349   5.156   1.577
 3140SOL     OW10318   6.188   6.794   5.675
 3140SOL    HW110319   6.237   6.735   5.739
 3140SOL    HW210320   6.089   6.785   5.690
 3141SOL     OW10321   0.254   2.301   6.821
 3141SOL    HW110322   0.198   2.334   6.896
 3141SOL    HW210323   0.197   2.245   6.760
 3142SOL     OW10324   4.580   0.510   2.521
 3142SOL    HW110325   4.647   0.437   2.535
 3142SOL    HW210326   4.628   0.598   2.512
 3143SOL     OW10327   6.106   1.729   0.199
 3143SOL    HW110328   6.025   1.764   0.248
 3143SOL    HW210329   6.166   1.805   0.176
 3144SOL     OW10330   4.485   3.905   6.553
 3144SOL    HW110331   4.447   3.996   6.534
 3144SOL    HW210332   4.518   3.865   6.468
 3145SOL     OW10333   2.982   6.745   1.836
 3145SOL    HW110334   2.974   6.719   1.740
 3145SOL    HW210335   2.948   6.838   1.848
 3146SOL     OW10336   0.780   0.999   5.081
 3146SOL    HW110337   0.754   0.903   5.075
 3146SOL    HW210338   0.794   1.025   5.177
 3147SOL     OW10339   3.423   4.820   6.163
 3147SOL    HW110340   3.509   4.852   6.124
 3147SOL    HW210341   3.439   4.739   6.219
 3148SOL     OW10342   0.567   6.581   2.950
 3148SOL    HW110343   0.471   6.577   2.922
 3148SOL    HW210344   0.583   6.663   3.005
 3149SOL     OW10345   3.248   1.298   0.500
 3149SOL    HW110346   3.216   1.220   0.446
 3149SOL    HW210347   3.203   1.298   0.589
 3150SOL     OW10348   6.055   6.287   5.320
 3150SOL    HW110349   6.012   6.243   5.399
 3150SOL    HW210350   6.001   6.269   5.238
 3151SOL     OW10351   6.358   2.026   5.910
 3151SOL    HW110352   6.371   1.986   5.820
 3151SOL    HW210353   6.446   2.052   5.949
 3152SOL     OW10354   1.633   3.892   6.654
 3152SOL    HW110355   1.659   3.833   6.577
 3152SOL    HW210356   1.534   3.905   6.653
 3153SOL     OW10357   6.554   4.908   0.635
 3153SOL    HW110358   6.596   4.818   0.654
 3153SOL    HW210359   6.563   4.928   0.537
 3154SOL     OW10360   5.663   1.676   1.727
 3154SOL    HW110361   5.603   1.670   1.646
 3154SOL    HW210362   5.704   1.767   1.731
 3155SOL     OW10363   6.457   4.718   0.111
 3155SOL    HW110364   6.430   4.677   0.023
 3155SOL    HW210365   6.444   4.817   0.107
 3156SOL     OW10366   3.542   4.125   2.371
 3156SOL    HW110367   3.509   4.082   2.287
 3156SOL    HW210368   3.639   4.102   2.384
 3157SOL     OW10369   1.469   2.051   5.242
 3157SOL    HW110370   1.417   1.979   5.197
 3157SOL    HW210371   1.565   2.025   5.247
 3158SOL     OW10372   2.967   2.185   5.477
 3158SOL    HW110373   2.968   2.271   5.425
 3158SOL    HW210374   3.030   2.120   5.435
 3159SOL     OW10375   4.611   6.877   0.641
 3159SOL    HW110376   4.573   6.819   0.713
 3159SOL    HW210377   4.634   6.967   0.680
 3160SOL     OW10378   2.271   0.145   5.606
 3160SOL    HW110379   2.305   0.197   5.684
 3160SOL    HW210380   2.204   0.199   5.556
 3161SOL     OW10381   1.814   2.846   2.588
 3161SOL    HW110382   1.874   2.784   2.639
 3161SOL    HW210383   1.868   2.922   2.550
 3162SOL     OW10384   1.818   5.396   0.134
 3162SOL    HW110385   1.860   5.409   0.224
 3162SOL    HW210386   1.865   5.453   0.067
 3163SOL     OW10387   4.286   3.411   0.571
 3163SOL    HW110388   4.262   3.430   0.476
 3163SOL    HW210389   4.212   3.443   0.631
 3164SOL     OW10390   2.919   5.385   2.464
 3164SOL    HW110391   2.922   5.408   2.367
 3164SOL    HW210392   2.974   5.304   2.481
 3165SOL     OW10393   0.418   5.101   0.102
 3165SOL    HW110394   0.465   5.060   0.180
 3165SOL    HW210395   0.457   5.192   0.084
 3166SOL     OW10396   3.781   0.997   4.501
 3166SOL    HW110397   3.716   1.036   4.436
 3166SOL    HW210398   3.848   0.941   4.452
 3167SOL     OW10399   4.717   3.926   0.207
 3167SOL    HW110400   4.643   3.904   0.270
 3167SOL    HW210401   4.793   3.967   0.258
 3168SOL     OW10402   4.590   2.741   1.109
 3168SOL    HW110403   4.655   2.773   1.039
 3168SOL    HW210404   4.498   2.737   1.070
 3169SOL     OW10405   1.567   4.679   2.222
 3169SOL    HW110406   1.506   4.634   2.287
 3169SOL    HW210407   1.655   4.632   2.220
 3170SOL     OW10408   3.550   5.752   2.773
 3170SOL    HW110409   3.646   5.726   2.761
 3170SOL    HW210410   3.514   5.787   2.687
 3171SOL     OW10411   5.156   3.384   2.486
 3171SOL    HW110412   5.080   3.421   2.540
 3171SOL    HW210413   5.192   3.455   2.425
 3172SOL     OW10414   0.116   4.820   0.025
 3172SOL    HW110415   0.030   4.777   7.021
 3172SOL    HW210416   0.107   4.861   0.116
 3173SOL     OW10417   2.826   1.781   6.894
 3173SOL    HW110418   2.771   1.804   6.814
 3173SOL    HW210419   2.919   1.815   6.882
 3174SOL     OW10420   2.603   2.827   5.923
 3174SOL    HW110421   2.531   2.895   5.910
 3174SOL    HW210422   2.691   2.873   5.933
 3175SOL     OW10423   6.603   1.815   3.637
 3175SOL    HW110424   6.610   1.882   3.564
 3175SOL    HW210425   6.586   1.724   3.599
 3176SOL     OW10426   6.937   4.174   4.853
 3176SOL    HW110427   7.006   4.226   4.802
 3176SOL    HW210428   6.953   4.076   4.841
 3177SOL     OW10429   5.311   4.228   3.156
 3177SOL    HW110430   5.376   4.187   3.092
 3177SOL    HW210431   5.246   4.285   3.105
 3178SOL     OW10432   5.511   1.533   0.391
 3178SOL    HW110433   5.560   1.568   0.471
 3178SOL    HW210434   5.548   1.574   0.308
 3179SOL     OW10435   1.116   1.850   2.511
 3179SOL    HW110436   1.196   1.825   2.456
 3179SOL    HW210437   1.100   1.948   2.503
 3180SOL     OW10438   5.507   6.786   6.542
 3180SOL    HW110439   5.429   6.724   6.540
 3180SOL    HW210440   5.568   6.764   6.465
 3181SOL     OW10441   0.443   1.331   4.530
 3181SOL    HW110442   0.451   1.423   4.492
 3181SOL    HW210443   0.425   1.266   4.456
 3182SOL     OW10444   3.159   0.089   0.736
 3182SOL    HW110445   3.080   0.050   0.687
 3182SOL    HW210446   3.243   0.057   0.693
 3183SOL     OW10447   4.546   4.883   2.602
 3183SOL    HW110448   4.601   4.806   2.571
 3183SOL    HW210449   4.490   4.916   2.526
 3184SOL     OW10450   0.871   2.258   3.601
 3184SOL    HW110451   0.923   2.177   3.573
 3184SOL    HW210452   0.899   2.285   3.694
 3185SOL     OW10453   6.708   6.618   5.449
 3185SOL    HW110454   6.799   6.657   5.463
 3185SOL    HW210455   6.691   6.547   5.517
 3186SOL     OW10456   1.779   0.714   0.134
 3186SOL    HW110457   1.808   0.646   0.068
 3186SOL    HW210458   1.682   0.735   0.121
 3187SOL     OW10459   3.720   5.397   2.505
 3187SOL    HW110460   3.705   5.374   2.602
 3187SOL    HW210461   3.637   5.439   2.468
 3188SOL     OW10462   2.011   4.881   4.874
 3188SOL    HW110463   1.931   4.894   4.934
 3188SOL    HW210464   2.081   4.949   4.897
 3189SOL     OW10465   1.990   0.831   0.549
 3189SOL    HW110466   1.957   0.846   0.642
 3189SOL    HW210467   1.951   0.746   0.513
 3190SOL     OW10468   6.678   5.768   5.447
 3190SOL    HW110469   6.607   5.781   5.516
 3190SOL    HW210470   6.650   5.696   5.384
 3191SOL     OW10471   4.537   5.525   1.944
 3191SOL    HW110472   4.596   5.505   1.866
 3191SOL    HW210473   4.489   5.612   1.929
 3192SOL     OW10474   0.005   2.428   1.306
 3192SOL    HW110475   0.009   2.361   1.380
 3192SOL    HW210476   6.957   2.497   1.327
 3193SOL     OW10477   4.051   1.200   4.831
 3193SOL    HW110478   4.012   1.166   4.745
 3193SOL    HW210479   4.066   1.124   4.893
 3194SOL     OW10480   1.300   1.169   5.460
 3194SOL    HW110481   1.259   1.083   5.491
 3194SOL    HW210482   1.293   1.237   5.533
 3195SOL     OW10483   0.288   1.145   1.977
 3195SOL    HW110484   0.375   1.126   1.930
 3195SOL    HW210485   0.290   1.238   2.013
 3196SOL     OW10486   6.744   0.815   5.619
 3196SOL    HW110487   6.699   0.904   5.620
 3196SOL    HW210488   6.823   0.817   5.680
 3197SOL     OW10489   2.203   6.724   6.197
 3197SOL    HW110490   2.120   6.775   6.179
 3197SOL    HW210491   2.182   6.646   6.256
 3198SOL     OW10492   6.481   2.447   4.291
 3198SOL    HW110493   6.429   2.471   4.209
 3198SOL    HW210494   6.427   2.470   4.373
 3199SOL     OW10495   5.541   4.910   2.907
 3199SOL    HW110496   5.516   4.925   3.003
 3199SOL    HW210497   5.473   4.849   2.865
 3200SOL     OW10498   6.395   3.181   4.469
 3200SOL    HW110499   6.323   3.114   4.487
 3200SOL    HW210500   6.392   3.210   4.374
 3201SOL     OW10501   6.272   4.655   3.030
 3201SOL    HW110502   6.241   4.720   3.100
 3201SOL    HW210503   6.260   4.562   3.065
 3202SOL     OW10504   0.840   5.052   0.612
 3202SOL    HW110505   0.879   5.095   0.693
 3202SOL    HW210506   0.904   5.062   0.536
 3203SOL     OW10507   4.502   0.633   1.478
 3203SOL    HW110508   4.557   0.673   1.551
 3203SOL    HW210509   4.441   0.562   1.516
 3204SOL     OW10510   2.817   1.854   3.729
 3204SOL    HW110511   2.882   1.859   3.653
 3204SOL    HW210512   2.867   1.844   3.815
 3205SOL     OW10513   5.248   3.704   5.685
 3205SOL    HW110514   5.307   3.644   5.631
 3205SOL    HW210515   5.228   3.662   5.773
 3206SOL     OW10516   2.819   2.956   1.428
 3206SOL    HW110517   2.898   3.013   1.408
 3206SOL    HW210518   2.841   2.893   1.503
 3207SOL     OW10519   1.085   0.761   5.720
 3207SOL    HW110520   1.076   0.678   5.665
 3207SOL    HW210521   1.002   0.773   5.775
 3208SOL     OW10522   5.921   5.636   5.572
 3208SOL    HW110523   5.828   5.602   5.560
 3208SOL    HW210524   5.925   5.692   5.655
 3209SOL     OW10525   3.843   5.473   5.550
 3209SOL    HW110526   3.810   5.482   5.456
 3209SOL    HW210527   3.865   5.378   5.569
 3210SOL     OW10528   0.072   5.059   1.753
 3210SOL    HW110529   0.058   5.132   1.819
 3210SOL    HW210530   0.033   4.974   1.789
 3211SOL     OW10531   1.194   4.985   0.731
 3211SOL    HW110532   1.221   4.959   0.639
 3211SOL    HW210533   1.176   5.084   0.733
 3212SOL     OW10534   3.265   0.344   2.458
 3212SOL    HW110535   3.206   0.290   2.398
 3212SOL    HW210536   3.240   0.440   2.452
 3213SOL     OW10537   1.795   0.319   6.239
 3213SOL    HW110538   1.746   0.305   6.153
 3213SOL    HW210539   1.746   0.388   6.293
 3214SOL     OW10540   4.701   6.741   4.013
 3214SOL    HW110541   4.672   6.828   3.974
 3214SOL    HW210542   4.790   6.716   3.975
 3215SOL     OW10543   1.270   3.176   0.208
 3215SOL    HW110544   1.309   3.259   0.248
 3215SOL    HW210545   1.343   3.113   0.182
 3216SOL     OW10546   5.873   5.163   1.506
 3216SOL    HW110547   5.885   5.226   1.429
 3216SOL    HW210548   5.878   5.214   1.592
 3217SOL     OW10549   0.004   5.680   3.092
 3217SOL    HW110550   0.103   5.680   3.081
 3217SOL    HW210551   6.989   5.588   3.074
 3218SOL     OW10552   5.914   2.367   3.494
 3218SOL    HW110553   5.997   2.398   3.541
 3218SOL    HW210554   5.840   2.356   3.561
 3219SOL     OW10555   6.742   1.278   4.855
 3219SOL    HW110556   6.758   1.254   4.759
 3219SOL    HW210557   6.673   1.217   4.893
 3220SOL     OW10558   0.299   5.899   6.454
 3220SOL    HW110559   0.376   5.908   6.392
 3220SOL    HW210560   0.325   5.931   6.545
 3221SOL     OW10561   4.081   0.166   2.765
 3221SOL    HW110562   3.990   0.127   2.783
 3221SOL    HW210563   4.091   0.182   2.667
 3222SOL     OW10564   3.068   1.129   3.331
 3222SOL    HW110565   3.152   1.173   3.363
 3222SOL    HW210566   3.038   1.061   3.398
 3223SOL     OW10567   1.826   6.218   0.541
 3223SOL    HW110568   1.875   6.246   0.458
 3223SOL    HW210569   1.868   6.135   0.577
 3224SOL     OW10570   5.180   2.485   5.183
 3224SOL    HW110571   5.246   2.532   5.125
 3224SOL    HW210572   5.185   2.521   5.276
 3225SOL     OW10573   4.319   1.289   4.236
 3225SOL    HW110574   4.334   1.377   4.282
 3225SOL    HW210575   4.231   1.251   4.265
 3226SOL     OW10576   1.906   6.897   1.979
 3226SOL    HW110577   1.911   6.843   1.895
 3226SOL    HW210578   1.851   6.847   2.047
 3227SOL     OW10579   3.667   2.491   6.701
 3227SOL    HW110580   3.729   2.486   6.622
 3227SOL    HW210581   3.712   2.451   6.781
 3228SOL     OW10582   0.292   4.140   0.757
 3228SOL    HW110583   0.271   4.042   0.768
 3228SOL    HW210584   0.391   4.153   0.752
 3229SOL     OW10585   3.405   0.509   5.396
 3229SOL    HW110586   3.501   0.529   5.412
 3229SOL    HW210587   3.398   0.429   5.335
 3230SOL     OW10588   2.101   5.337   6.182
 3230SOL    HW110589   2.093   5.316   6.279
 3230SOL    HW210590   2.118   5.253   6.130
 3231SOL     OW10591   3.183   1.061   2.471
 3231SOL    HW110592   3.249   1.033   2.540
 3231SOL    HW210593   3.119   1.128   2.510
 3232SOL     OW10594   3.651   5.995   3.742
 3232SOL    HW110595   3.688   5.936   3.670
 3232SOL    HW210596   3.568   5.953   3.779
 3233SOL     OW10597   6.808   2.581   0.505
 3233SOL    HW110598   6.718   2.565   0.546
 3233SOL    HW210599   6.802   2.570   0.406
 3234SOL     OW10600   1.764   2.601   0.289
 3234SOL    HW110601   1.664   2.602   0.292
 3234SOL    HW210602   1.795   2.662   0.217
 3235SOL     OW10603   5.976   5.638   1.939
 3235SOL    HW110604   6.022   5.673   1.857
 3235SOL    HW210605   6.029   5.563   1.978
 3236SOL     OW10606   2.341   3.773   0.397
 3236SOL    HW110607   2.396   3.831   0.337
 3236SOL    HW210608   2.383   3.683   0.404
 3237SOL     OW10609   6.174   1.872   4.454
 3237SOL    HW110610   6.168   1.830   4.544
 3237SOL    HW210611   6.252   1.833   4.404
 3238SOL     OW10612   6.134   5.275   0.715
 3238SOL    HW110613   6.190   5.219   0.654
 3238SOL    HW210614   6.180   5.285   0.803
 3239SOL     OW10615   0.195   0.159   3.662
 3239SOL    HW110616   0.186   0.187   3.758
 3239SOL    HW210617   0.183   0.238   3.603
 3240SOL     OW10618   0.109   0.843   6.394
 3240SOL    HW110619   0.125   0.937   6.423
 3240SOL    HW210620   0.151   0.780   6.459
 3241SOL     OW10621   4.790   2.170   6.774
 3241SOL    HW110622   4.788   2.076   6.739
 3241SOL    HW210623   4.842   2.172   6.860
 3242SOL     OW10624   5.108   4.113   5.777
 3242SOL    HW110625   5.193   4.119   5.725
 3242SOL    HW210626   5.030   4.114   5.715
 3243SOL     OW10627   4.764   5.762   6.766
 3243SOL    HW110628   4.853   5.717   6.767
 3243SOL    HW210629   4.726   5.763   6.859
 3244SOL     OW10630   5.372   6.020   0.312
 3244SOL    HW110631   5.423   6.005   0.396
 3244SOL    HW210632   5.421   6.086   0.255
 3245SOL     OW10633   4.996   2.528   4.206
 3245SOL    HW110634   4.938   2.610   4.202
 3245SOL    HW210635   4.951   2.453   4.158
 3246SOL     OW10636   6.756   0.318   2.840
 3246SOL    HW110637   6.691   0.243   2.841
 3246SOL    HW210638   6.714   0.399   2.880
 3247SOL     OW10639   7.017   4.453   2.969
 3247SOL    HW110640   7.015   4.551   2.946
 3247SOL    HW210641   6.957   4.403   2.907
 3248SOL     OW10642   5.713   2.851   2.341
 3248SOL    HW110643   5.803   2.829   2.303
 3248SOL    HW210644   5.671   2.924   2.287
 3249SOL     OW10645   3.679   3.643   4.178
 3249SOL    HW110646   3.678   3.668   4.081
 3249SOL    HW210647   3.585   3.627   4.209
 3250SOL     OW10648   5.107   6.354   3.510
 3250SOL    HW110649   5.082   6.311   3.597
 3250SOL    HW210650   5.152   6.442   3.528
 3251SOL     OW10651   2.795   0.997   4.513
 3251SOL    HW110652   2.889   1.024   4.492
 3251SOL    HW210653   2.775   1.019   4.609
 3252SOL     OW10654   3.050   1.484   2.996
 3252SOL    HW110655   3.117   1.442   3.057
 3252SOL    HW210656   2.981   1.417   2.971
 3253SOL     OW10657   4.761   3.783   1.123
 3253SOL    HW110658   4.827   3.728   1.173
 3253SOL    HW210659   4.681   3.799   1.181
 3254SOL     OW10660   5.173   6.883   6.267
 3254SOL    HW110661   5.151   6.846   6.357
 3254SOL    HW210662   5.218   6.972   6.279
 3255SOL     OW10663   5.768   5.926   1.077
 3255SOL    HW110664   5.858   5.898   1.110
 3255SOL    HW210665   5.774   5.952   0.981
 3256SOL     OW10666   4.701   2.292   1.129
 3256SOL    HW110667   4.674   2.231   1.203
 3256SOL    HW210668   4.687   2.387   1.157
 3257SOL     OW10669   3.101   2.143   2.197
 3257SOL    HW110670   3.164   2.115   2.126
 3257SOL    HW210671   3.033   2.206   2.158
 3258SOL     OW10672   3.315   5.137   3.450
 3258SOL    HW110673   3.393   5.187   3.415
 3258SOL    HW210674   3.241   5.138   3.382
 3259SOL     OW10675   5.401   4.828   4.038
 3259SOL    HW110676   5.371   4.752   4.095
 3259SOL    HW210677   5.328   4.896   4.032
 3260SOL     OW10678   1.855   4.101   2.040
 3260SOL    HW110679   1.921   4.141   1.976
 3260SOL    HW210680   1.826   4.012   2.006
 3261SOL     OW10681   5.440   0.223   2.263
 3261SOL    HW110682   5.367   0.203   2.198
 3261SOL    HW210683   5.522   0.254   2.214
 3262SOL     OW10684   3.933   2.130   2.447
 3262SOL    HW110685   3.857   2.118   2.384
 3262SOL    HW210686   4.008   2.176   2.400
 3263SOL     OW10687   3.055   0.922   3.529
 3263SOL    HW110688   3.091   0.864   3.456
 3263SOL    HW210689   3.044   0.867   3.613
 3264SOL     OW10690   1.709   4.885   0.821
 3264SOL    HW110691   1.701   4.873   0.722
 3264SOL    HW210692   1.737   4.799   0.863
 3265SOL     OW10693   6.026   6.057   5.489
 3265SOL    HW110694   5.951   6.047   5.424
 3265SOL    HW210695   6.086   5.977   5.484
 3266SOL     OW10696   2.486   4.595   0.030
 3266SOL    HW110697   2.581   4.579   0.055
 3266SOL    HW210698   2.441   4.508   0.012
 3267SOL     OW10699   3.657   0.410   1.853
 3267SOL    HW110700   3.625   0.417   1.759
 3267SOL    HW210701   3.672   0.314   1.877
 3268SOL     OW10702   0.847   4.921   1.487
 3268SOL    HW110703   0.775   4.917   1.556
 3268SOL    HW210704   0.915   4.851   1.506
 3269SOL     OW10705   0.702   5.031   2.262
 3269SOL    HW110706   0.622   4.992   2.308
 3269SOL    HW210707   0.765   4.958   2.237
 3270SOL     OW10708   1.665   3.053   6.371
 3270SOL    HW110709   1.757   3.064   6.409
 3270SOL    HW210710   1.650   3.124   6.301
 3271SOL     OW10711   6.428   3.187   1.573
 3271SOL    HW110712   6.386   3.244   1.503
 3271SOL    HW210713   6.518   3.222   1.595
 3272SOL     OW10714   3.272   4.660   6.733
 3272SOL    HW110715   3.300   4.675   6.638
 3272SOL    HW210716   3.176   4.685   6.743
 3273SOL     OW10717   5.208   4.725   5.972
 3273SOL    HW110718   5.186   4.818   6.000
 3273SOL    HW210719   5.171   4.708   5.881
 3274SOL     OW10720   5.828   0.242   0.351
 3274SOL    HW110721   5.733   0.272   0.351
 3274SOL    HW210722   5.852   0.204   0.262
 3275SOL     OW10723   4.403   1.158   0.554
 3275SOL    HW110724   4.429   1.103   0.633
 3275SOL    HW210725   4.402   1.255   0.579
 3276SOL     OW10726   4.534   6.800   0.125
 3276SOL    HW110727   4.523   6.799   0.224
 3276SOL    HW210728   4.631   6.806   0.103
 3277SOL     OW10729   2.904   1.318   1.099
 3277SOL    HW110730   2.962   1.390   1.061
 3277SOL    HW210731   2.864   1.264   1.024
 3278SOL     OW10732   0.327   0.222   5.673
 3278SOL    HW110733   0.282   0.236   5.761
 3278SOL    HW210734   0.374   0.134   5.673
 3279SOL     OW10735   4.515   6.683   0.797
 3279SOL    HW110736   4.551   6.674   0.890
 3279SOL    HW210737   4.423   6.645   0.793
 3280SOL     OW10738   5.207   4.620   4.109
 3280SOL    HW110739   5.120   4.572   4.121
 3280SOL    HW210740   5.281   4.553   4.100
 3281SOL     OW10741   0.040   4.470   1.285
 3281SOL    HW110742   0.075   4.562   1.269
 3281SOL    HW210743   0.115   4.404   1.279
 3282SOL     OW10744   0.338   3.691   5.185
 3282SOL    HW110745   0.379   3.623   5.245
 3282SOL    HW210746   0.408   3.756   5.155
 3283SOL     OW10747   3.961   1.089   1.007
 3283SOL    HW110748   4.040   1.098   0.947
 3283SOL    HW210749   3.970   1.007   1.063
 3284SOL     OW10750   0.897   5.224   4.860
 3284SOL    HW110751   0.985   5.251   4.899
 3284SOL    HW210752   0.850   5.162   4.923
 3285SOL     OW10753   5.965   1.891   4.784
 3285SOL    HW110754   5.930   1.948   4.710
 3285SOL    HW210755   6.048   1.844   4.754
 3286SOL     OW10756   3.261   2.406   1.692
 3286SOL    HW110757   3.199   2.382   1.617
 3286SOL    HW210758   3.341   2.346   1.689
 3287SOL     OW10759   0.540   0.176   0.296
 3287SOL    HW110760   0.477   0.107   0.334
 3287SOL    HW210761   0.494   0.264   0.292
 3288SOL     OW10762   1.625   6.668   1.015
 3288SOL    HW110763   1.544   6.660   1.073
 3288SOL    HW210764   1.707   6.655   1.070
 3289SOL     OW10765   2.730   1.934   6.659
 3289SOL    HW110766   2.644   1.970   6.623
 3289SOL    HW210767   2.807   1.978   6.611
 3290SOL     OW10768   6.862   5.349   0.588
 3290SOL    HW110769   6.782   5.329   0.532
 3290SOL    HW210770   6.852   5.305   0.677
 3291SOL     OW10771   3.739   0.753   5.752
 3291SOL    HW110772   3.779   0.673   5.797
 3291SOL    HW210773   3.769   0.755   5.656
 3292SOL     OW10774   6.997   1.245   0.882
 3292SOL    HW110775   0.002   1.150   0.900
 3292SOL    HW210776   6.900   1.258   0.906
 3293SOL     OW10777   6.849   4.731   2.094
 3293SOL    HW110778   6.776   4.674   2.057
 3293SOL    HW210779   6.820   4.770   2.181
 3294SOL     OW10780   5.443   1.589   5.562
 3294SOL    HW110781   5.376   1.526   5.522
 3294SOL    HW210782   5.395   1.659   5.615
 3295SOL     OW10783   1.830   3.132   0.711
 3295SOL    HW110784   1.917   3.084   0.722
 3295SOL    HW210785   1.827   3.210   0.774
 3296SOL     OW10786   6.874   0.351   5.156
 3296SOL    HW110787   6.903   0.292   5.081
 3296SOL    HW210788   6.942   0.349   5.229
 3297SOL     OW10789   3.270   1.857   5.029
 3297SOL    HW110790   3.340   1.790   5.053
 3297SOL    HW210791   3.296   1.947   5.066
 3298SOL     OW10792   6.581   3.089   5.614
 3298SOL    HW110793   6.481   3.091   5.620
 3298SOL    HW210794   6.620   3.148   5.685
 3299SOL     OW10795   4.435   5.990   2.756
 3299SOL    HW110796   4.426   6.080   2.799
 3299SOL    HW210797   4.483   5.999   2.669
 3300SOL     OW10798   1.623   0.463   5.664
 3300SOL    HW110799   1.541   0.515   5.641
 3300SOL    HW210800   1.656   0.415   5.583
 3301SOL     OW10801   1.643   3.695   2.853
 3301SOL    HW110802   1.569   3.687   2.920
 3301SOL    HW210803   1.605   3.722   2.765
 3302SOL     OW10804   1.499   4.735   6.814
 3302SOL    HW110805   1.406   4.747   6.849
 3302SOL    HW210806   1.501   4.754   6.716
 3303SOL     OW10807   3.617   3.102   0.576
 3303SOL    HW110808   3.575   3.064   0.494
 3303SOL    HW210809   3.555   3.094   0.654
 3304SOL     OW10810   2.196   4.844   5.916
 3304SOL    HW110811   2.277   4.866   5.862
 3304SOL    HW210812   2.124   4.809   5.856
 3305SOL     OW10813   3.382   0.244   1.742
 3305SOL    HW110814   3.432   0.157   1.737
 3305SOL    HW210815   3.304   0.233   1.805
 3306SOL     OW10816   1.130   5.784   5.788
 3306SOL    HW110817   1.095   5.775   5.881
 3306SOL    HW210818   1.157   5.878   5.771
 3307SOL     OW10819   0.885   6.939   5.863
 3307SOL    HW110820   0.966   6.921   5.807
 3307SOL    HW210821   0.841   0.002   5.831
 3308SOL     OW10822   3.899   4.619   0.954
 3308SOL    HW110823   3.914   4.709   0.914
 3308SOL    HW210824   3.967   4.602   1.025
 3309SOL     OW10825   5.432   4.262   3.946
 3309SOL    HW110826   5.360   4.282   3.880
 3309SOL    HW210827   5.473   4.173   3.926
 3310SOL     OW10828   0.428   4.272   4.822
 3310SOL    HW110829   0.498   4.208   4.792
 3310SOL    HW210830   0.407   4.336   4.748
 3311SOL     OW10831   3.476   3.236   1.032
 3311SOL    HW110832   3.396   3.237   1.091
 3311SOL    HW210833   3.553   3.194   1.080
 3312SOL     OW10834   4.138   2.778   6.135
 3312SOL    HW110835   4.077   2.796   6.058
 3312SOL    HW210836   4.185   2.863   6.160
 3313SOL     OW10837   0.584   0.599   3.221
 3313SOL    HW110838   0.539   0.527   3.275
 3313SOL    HW210839   0.638   0.557   3.148
 3314SOL     OW10840   2.911   0.497   2.509
 3314SOL    HW110841   2.912   0.510   2.410
 3314SOL    HW210842   2.909   0.585   2.555
 3315SOL     OW10843   0.619   4.715   5.527
 3315SOL    HW110844   0.619   4.627   5.575
 3315SOL    HW210845   0.525   4.742   5.505
 3316SOL     OW10846   3.584   1.080   5.321
 3316SOL    HW110847   3.667   1.123   5.284
 3316SOL    HW210848   3.505   1.137   5.299
 3317SOL     OW10849   5.576   1.728   2.356
 3317SOL    HW110850   5.525   1.775   2.284
 3317SOL    HW210851   5.634   1.794   2.404
 3318SOL     OW10852   1.774   0.909   6.684
 3318SOL    HW110853   1.845   0.855   6.730
 3318SOL    HW210854   1.798   1.006   6.689
 3319SOL     OW10855   6.363   0.101   2.922
 3319SOL    HW110856   6.459   0.123   2.943
 3319SOL    HW210857   6.355   0.074   2.826
 3320SOL     OW10858   6.428   0.448   0.250
 3320SOL    HW110859   6.449   0.411   0.160
 3320SOL    HW210860   6.430   0.374   0.318
 3321SOL     OW10861   6.051   1.632   1.152
 3321SOL    HW110862   6.070   1.730   1.147
 3321SOL    HW210863   5.953   1.617   1.144
 3322SOL     OW10864   6.714   3.149   0.844
 3322SOL    HW110865   6.763   3.216   0.900
 3322SOL    HW210866   6.690   3.070   0.900
 3323SOL     OW10867   2.465   1.752   0.876
 3323SOL    HW110868   2.469   1.678   0.943
 3323SOL    HW210869   2.439   1.837   0.920
 3324SOL     OW10870   4.078   5.492   5.069
 3324SOL    HW110871   3.990   5.529   5.038
 3324SOL    HW210872   4.119   5.555   5.135
 3325SOL     OW10873   0.366   3.400   6.285
 3325SOL    HW110874   0.272   3.425   6.311
 3325SOL    HW210875   0.415   3.482   6.256
 3326SOL     OW10876   4.913   1.475   2.282
 3326SOL    HW110877   4.964   1.560   2.288
 3326SOL    HW210878   4.954   1.415   2.214
 3327SOL     OW10879   2.084   6.080   1.897
 3327SOL    HW110880   2.007   6.141   1.874
 3327SOL    HW210881   2.160   6.098   1.835
 3328SOL     OW10882   3.111   1.694   1.368
 3328SOL    HW110883   3.176   1.758   1.327
 3328SOL    HW210884   3.131   1.685   1.466
 3329SOL     OW10885   6.074   0.385   5.192
 3329SOL    HW110886   6.077   0.476   5.152
 3329SOL    HW210887   6.039   0.390   5.286
 3330SOL     OW10888   6.599   3.549   1.804
 3330SOL    HW110889   6.522   3.611   1.817
 3330SOL    HW210890   6.622   3.505   1.890
 3331SOL     OW10891   2.258   2.736   1.084
 3331SOL    HW110892   2.164   2.756   1.112
 3331SOL    HW210893   2.300   2.674   1.150
 3332SOL     OW10894   5.620   5.678   0.028
 3332SOL    HW110895   5.614   5.693   6.950
 3332SOL    HW210896   5.532   5.645   0.062
 3333SOL     OW10897   4.959   5.588   6.866
 3333SOL    HW110898   5.042   5.557   6.912
 3333SOL    HW210899   4.917   5.512   6.817
 3334SOL     OW10900   3.276   3.252   1.204
 3334SOL    HW110901   3.268   3.210   1.294
 3334SOL    HW210902   3.200   3.220   1.146
 3335SOL     OW10903   4.796   5.900   5.315
 3335SOL    HW110904   4.768   5.961   5.240
 3335SOL    HW210905   4.743   5.816   5.310
 3336SOL     OW10906   3.121   5.220   5.190
 3336SOL    HW110907   3.037   5.165   5.196
 3336SOL    HW210908   3.161   5.211   5.099
 3337SOL     OW10909   3.361   2.565   1.343
 3337SOL    HW110910   3.377   2.468   1.362
 3337SOL    HW210911   3.282   2.597   1.397
 3338SOL     OW10912   6.412   3.426   1.003
 3338SOL    HW110913   6.441   3.432   0.908
 3338SOL    HW210914   6.463   3.352   1.048
 3339SOL     OW10915   6.908   6.302   0.134
 3339SOL    HW110916   6.925   6.225   0.195
 3339SOL    HW210917   6.947   6.386   0.174
 3340SOL     OW10918   3.886   6.876   1.631
 3340SOL    HW110919   3.806   6.842   1.679
 3340SOL    HW210920   3.885   6.976   1.629
 3341SOL     OW10921   0.984   6.990   3.639
 3341SOL    HW110922   1.006   6.917   3.704
 3341SOL    HW210923   1.062   0.030   3.631
 3342SOL     OW10924   2.043   0.065   3.605
 3342SOL    HW110925   2.109   7.013   3.588
 3342SOL    HW210926   2.001   0.093   3.519
 3343SOL     OW10927   4.999   3.079   0.281
 3343SOL    HW110928   4.924   3.078   0.348
 3343SOL    HW210929   4.961   3.085   0.189
 3344SOL     OW10930   5.569   4.054   5.073
 3344SOL    HW110931   5.484   4.042   5.022
 3344SOL    HW210932   5.549   4.097   5.161
 3345SOL     OW10933   2.601   3.459   6.140
 3345SOL    HW110934   2.527   3.435   6.077
 3345SOL    HW210935   2.662   3.380   6.151
 3346SOL     OW10936   0.770   0.997   2.304
 3346SOL    HW110937   0.771   1.076   2.243
 3346SOL    HW210938   0.779   1.028   2.399
 3347SOL     OW10939   6.625   4.510   3.214
 3347SOL    HW110940   6.654   4.507   3.118
 3347SOL    HW210941   6.558   4.583   3.226
 3348SOL     OW10942   3.682   2.921   4.021
 3348SOL    HW110943   3.585   2.911   4.040
 3348SOL    HW210944   3.696   3.001   3.962
 3349SOL     OW10945   0.530   4.687   4.197
 3349SOL    HW110946   0.577   4.773   4.216
 3349SOL    HW210947   0.577   4.612   4.242
 3350SOL     OW10948   1.297   1.631   6.320
 3350SOL    HW110949   1.311   1.594   6.412
 3350SOL    HW210950   1.386   1.651   6.278
 3351SOL     OW10951   5.360   0.894   1.928
 3351SOL    HW110952   5.283   0.868   1.869
 3351SOL    HW210953   5.342   0.864   2.021
 3352SOL     OW10954   0.132   3.508   0.009
 3352SOL    HW110955   0.045   3.472   0.041
 3352SOL    HW210956   0.207   3.458   0.052
 3353SOL     OW10957   1.702   6.727   1.847
 3353SOL    HW110958   1.798   6.728   1.818
 3353SOL    HW210959   1.680   6.637   1.884
 3354SOL     OW10960   6.696   2.726   3.956
 3354SOL    HW110961   6.686   2.627   3.966
 3354SOL    HW210962   6.613   2.765   3.916
 3355SOL     OW10963   0.982   1.670   0.221
 3355SOL    HW110964   0.903   1.653   0.280
 3355SOL    HW210965   0.961   1.744   0.157
 3356SOL     OW10966   2.863   2.930   0.174
 3356SOL    HW110967   2.772   2.896   0.196
 3356SOL    HW210968   2.919   2.931   0.257
 3357SOL     OW10969   2.189   4.779   1.389
 3357SOL    HW110970   2.181   4.724   1.306
 3357SOL    HW210971   2.276   4.759   1.433
 3358SOL     OW10972   4.877   6.164   1.766
 3358SOL    HW110973   4.840   6.204   1.850
 3358SOL    HW210974   4.972   6.136   1.781
 3359SOL     OW10975   0.238   0.427   3.567
 3359SOL    HW110976   0.328   0.467   3.589
 3359SOL    HW210977   0.210   0.459   3.476
 3360SOL     OW10978   0.077   0.990   0.928
 3360SOL    HW110979   0.152   0.935   0.966
 3360SOL    HW210980   0.014   0.930   0.878
 3361SOL     OW10981   6.572   5.506   2.836
 3361SOL    HW110982   6.619   5.478   2.919
 3361SOL    HW210983   6.511   5.582   2.856
 3362SOL     OW10984   2.948   1.307   4.781
 3362SOL    HW110985   2.933   1.246   4.704
 3362SOL    HW210986   3.018   1.269   4.842
 3363SOL     OW10987   0.267   0.573   6.192
 3363SOL    HW110988   0.191   0.563   6.257
 3363SOL    HW210989   0.340   0.626   6.234
 3364SOL     OW10990   0.742   5.260   5.732
 3364SOL    HW110991   0.770   5.311   5.813
 3364SOL    HW210992   0.643   5.259   5.724
 3365SOL     OW10993   0.819   2.480   4.240
 3365SOL    HW110994   0.869   2.520   4.317
 3365SOL    HW210995   0.760   2.407   4.273
 3366SOL     OW10996   5.922   1.060   4.301
 3366SOL    HW110997   5.831   1.077   4.340
 3366SOL    HW210998   5.992   1.075   4.371
 3367SOL     OW10999   2.183   2.739   1.790
 3367SOL    HW111000   2.221   2.647   1.805
 3367SOL    HW211001   2.216   2.774   1.703
 3368SOL     OW11002   6.915   5.504   6.584
 3368SOL    HW111003   6.834   5.561   6.601
 3368SOL    HW211004   6.965   5.490   6.669
 3369SOL     OW11005   3.168   1.843   0.168
 3369SOL    HW111006   3.182   1.856   0.070
 3369SOL    HW211007   3.120   1.757   0.185
 3370SOL     OW11008   6.336   6.532   5.218
 3370SOL    HW111009   6.317   6.611   5.160
 3370SOL    HW211010   6.320   6.556   5.313
 3371SOL     OW11011   1.305   4.148   2.558
 3371SOL    HW111012   1.253   4.150   2.472
 3371SOL    HW211013   1.263   4.210   2.624
 3372SOL     OW11014   0.376   1.555   2.169
 3372SOL    HW111015   0.452   1.620   2.171
 3372SOL    HW211016   0.383   1.493   2.248
 3373SOL     OW11017   6.567   1.559   4.134
 3373SOL    HW111018   6.519   1.493   4.075
 3373SOL    HW211019   6.560   1.650   4.094
 3374SOL     OW11020   3.443   5.860   4.867
 3374SOL    HW111021   3.422   5.954   4.842
 3374SOL    HW211022   3.428   5.801   4.788
 3375SOL     OW11023   4.319   4.764   4.803
 3375SOL    HW111024   4.350   4.732   4.714
 3375SOL    HW211025   4.342   4.695   4.873
 3376SOL     OW11026   4.102   3.549   3.108
 3376SOL    HW111027   4.131   3.628   3.055
 3376SOL    HW211028   4.097   3.469   3.048
 3377SOL     OW11029   0.714   6.108   4.740
 3377SOL    HW111030   0.802   6.070   4.771
 3377SOL    HW211031   0.650   6.109   4.817
 3378SOL     OW11032   6.596   0.924   1.172
 3378SOL    HW111033   6.585   0.966   1.262
 3378SOL    HW211034   6.592   0.995   1.102
 3379SOL     OW11035   0.177   4.267   5.800
 3379SOL    HW111036   0.218   4.317   5.724
 3379SOL    HW211037   0.102   4.321   5.839
 3380SOL     OW11038   6.733   5.820   6.222
 3380SOL    HW111039   6.719   5.843   6.318
 3380SOL    HW211040   6.720   5.901   6.166
 3381SOL     OW11041   1.837   2.083   0.354
 3381SOL    HW111042   1.764   2.031   0.310
 3381SOL    HW211043   1.801   2.170   0.388
 3382SOL     OW11044   0.797   1.567   0.404
 3382SOL    HW111045   0.810   1.468   0.397
 3382SOL    HW211046   0.791   1.593   0.501
 3383SOL     OW11047   5.813   4.981   2.323
 3383SOL    HW111048   5.898   4.929   2.329
 3383SOL    HW211049   5.737   4.918   2.303
 3384SOL     OW11050   3.222   2.828   5.160
 3384SOL    HW111051   3.150   2.852   5.225
 3384SOL    HW211052   3.311   2.830   5.206
 3385SOL     OW11053   0.233   4.236   3.755
 3385SOL    HW111054   0.282   4.279   3.679
 3385SOL    HW211055   0.213   4.304   3.825
 3386SOL     OW11056   5.978   3.633   5.640
 3386SOL    HW111057   5.971   3.732   5.627
 3386SOL    HW211058   5.890   3.596   5.668
 3387SOL     OW11059   2.352   1.518   2.878
 3387SOL    HW111060   2.358   1.545   2.974
 3387SOL    HW211061   2.337   1.600   2.822
 3388SOL     OW11062   5.509   3.509   1.346
 3388SOL    HW111063   5.535   3.413   1.355
 3388SOL    HW211064   5.528   3.539   1.252
 3389SOL     OW11065   4.566   4.414   4.353
 3389SOL    HW111066   4.615   4.474   4.417
 3389SOL    HW211067   4.550   4.325   4.395
 3390SOL     OW11068   4.849   3.874   5.828
 3390SOL    HW111069   4.806   3.799   5.778
 3390SOL    HW211070   4.883   3.840   5.916
 3391SOL     OW11071   4.430   2.106   4.880
 3391SOL    HW111072   4.400   2.079   4.972
 3391SOL    HW211073   4.434   2.205   4.873
 3392SOL     OW11074   2.943   0.968   3.926
 3392SOL    HW111075   2.974   0.893   3.867
 3392SOL    HW211076   2.843   0.974   3.922
 3393SOL     OW11077   6.335   6.380   0.660
 3393SOL    HW111078   6.366   6.301   0.607
 3393SOL    HW211079   6.256   6.421   0.616
 3394SOL     OW11080   5.782   3.462   0.904
 3394SOL    HW111081   5.867   3.491   0.947
 3394SOL    HW211082   5.785   3.364   0.884
 3395SOL     OW11083   6.874   2.939   4.303
 3395SOL    HW111084   6.876   2.912   4.207
 3395SOL    HW211085   6.807   3.012   4.316
 3396SOL     OW11086   0.702   2.990   3.538
 3396SOL    HW111087   0.760   2.909   3.545
 3396SOL    HW211088   0.653   2.989   3.451
 3397SOL     OW11089   3.364   1.240   5.242
 3397SOL    HW111090   3.327   1.316   5.294
 3397SOL    HW211091   3.291   1.199   5.187
 3398SOL     OW11092   0.990   6.788   4.732
 3398SOL    HW111093   0.988   6.697   4.690
 3398SOL    HW211094   0.897   6.814   4.758
 3399SOL     OW11095   4.592   4.539   3.843
 3399SOL    HW111096   4.595   4.452   3.794
 3399SOL    HW211097   4.619   4.524   3.938
 3400SOL     OW11098   3.869   1.668   5.792
 3400SOL    HW111099   3.866   1.623   5.702
 3400SOL    HW211100   3.959   1.653   5.833
 3401SOL     OW11101   0.193   3.871   0.792
 3401SOL    HW111102   0.170   3.795   0.731
 3401SOL    HW211103   0.275   3.849   0.843
 3402SOL     OW11104   4.574   5.961   0.863
 3402SOL    HW111105   4.631   6.041   0.847
 3402SOL    HW211106   4.571   5.904   0.781
 3403SOL     OW11107   4.087   0.614   4.895
 3403SOL    HW111108   4.165   0.552   4.909
 3403SOL    HW211109   4.034   0.583   4.817
 3404SOL     OW11110   4.064   1.622   0.742
 3404SOL    HW111111   3.986   1.665   0.787
 3404SOL    HW211112   4.042   1.606   0.646
 3405SOL     OW11113   6.403   3.557   4.744
 3405SOL    HW111114   6.387   3.489   4.672
 3405SOL    HW211115   6.482   3.529   4.799
 3406SOL     OW11116   1.934   4.013   1.606
 3406SOL    HW111117   1.837   4.019   1.581
 3406SOL    HW211118   1.971   3.926   1.575
 3407SOL     OW11119   1.721   5.227   1.323
 3407SOL    HW111120   1.635   5.182   1.299
 3407SOL    HW211121   1.791   5.159   1.342
 3408SOL     OW11122   4.678   4.497   4.114
 3408SOL    HW111123   4.616   4.493   4.192
 3408SOL    HW211124   4.703   4.404   4.087
 3409SOL     OW11125   3.686   6.719   5.484
 3409SOL    HW111126   3.601   6.707   5.433
 3409SOL    HW211127   3.763   6.692   5.427
 3410SOL     OW11128   6.124   6.299   6.732
 3410SOL    HW111129   6.214   6.286   6.775
 3410SOL    HW211130   6.137   6.321   6.636
 3411SOL     OW11131   6.700   2.966   1.849
 3411SOL    HW111132   6.663   2.940   1.760
 3411SOL    HW211133   6.636   3.026   1.896
 3412SOL     OW11134   4.325   2.892   6.572
 3412SOL    HW111135   4.280   2.808   6.540
 3412SOL    HW211136   4.409   2.906   6.520
 3413SOL     OW11137   4.414   1.538   2.639
 3413SOL    HW111138   4.419   1.475   2.561
 3413SOL    HW211139   4.403   1.631   2.605
 3414SOL     OW11140   3.086   1.199   5.146
 3414SOL    HW111141   2.989   1.221   5.148
 3414SOL    HW211142   3.108   1.153   5.060
 3415SOL     OW11143   1.274   4.193   4.799
 3415SOL    HW111144   1.196   4.216   4.740
 3415SOL    HW211145   1.310   4.277   4.839
 3416SOL     OW11146   6.495   4.607   6.176
 3416SOL    HW111147   6.464   4.648   6.262
 3416SOL    HW211148   6.422   4.550   6.138
 3417SOL     OW11149   6.340   6.238   2.670
 3417SOL    HW111150   6.315   6.219   2.765
 3417SOL    HW211151   6.355   6.152   2.622
 3418SOL     OW11152   4.490   0.377   4.555
 3418SOL    HW111153   4.497   0.465   4.507
 3418SOL    HW211154   4.565   0.318   4.527
 3419SOL     OW11155   3.499   5.534   5.803
 3419SOL    HW111156   3.437   5.592   5.749
 3419SOL    HW211157   3.594   5.555   5.777
 3420SOL     OW11158   5.162   2.300   3.773
 3420SOL    HW111159   5.099   2.374   3.749
 3420SOL    HW211160   5.248   2.340   3.806
 3421SOL     OW11161   6.519   0.239   5.793
 3421SOL    HW111162   6.600   0.253   5.736
 3421SOL    HW211163   6.473   0.326   5.809
 3422SOL     OW11164   2.843   6.881   1.219
 3422SOL    HW111165   2.891   6.836   1.295
 3422SOL    HW211166   2.851   6.826   1.137
 3423SOL     OW11167   1.929   0.288   0.519
 3423SOL    HW111168   1.874   0.213   0.485
 3423SOL    HW211169   1.876   0.342   0.585
 3424SOL     OW11170   3.595   0.509   2.308
 3424SOL    HW111171   3.544   0.528   2.225
 3424SOL    HW211172   3.570   0.419   2.343
 3425SOL     OW11173   4.864   4.438   2.289
 3425SOL    HW111174   4.918   4.393   2.360
 3425SOL    HW211175   4.786   4.484   2.332
 3426SOL     OW11176   3.533   2.990   0.345
 3426SOL    HW111177   3.502   2.895   0.348
 3426SOL    HW211178   3.600   3.001   0.272
 3427SOL     OW11179   6.350   6.244   0.294
 3427SOL    HW111180   6.388   6.323   0.245
 3427SOL    HW211181   6.254   6.263   0.317
 3428SOL     OW11182   4.005   4.849   1.608
 3428SOL    HW111183   3.988   4.860   1.705
 3428SOL    HW211184   3.939   4.902   1.555
 3429SOL     OW11185   0.420   1.660   6.800
 3429SOL    HW111186   0.342   1.673   6.739
 3429SOL    HW211187   0.493   1.723   6.775
 3430SOL     OW11188   0.714   6.835   6.083
 3430SOL    HW111189   0.736   6.884   5.998
 3430SOL    HW211190   0.621   6.799   6.077
 3431SOL     OW11191   2.365   6.548   0.580
 3431SOL    HW111192   2.346   6.526   0.484
 3431SOL    HW211193   2.460   6.578   0.588
 3432SOL     OW11194   2.727   2.432   5.813
 3432SOL    HW111195   2.799   2.453   5.879
 3432SOL    HW211196   2.758   2.360   5.752
 3433SOL     OW11197   1.828   0.126   6.398
 3433SOL    HW111198   1.811   0.197   6.329
 3433SOL    HW211199   1.771   0.143   6.478
 3434SOL     OW11200   3.430   2.503   0.768
 3434SOL    HW111201   3.410   2.537   0.676
 3434SOL    HW211202   3.512   2.548   0.803
 3435SOL     OW11203   0.087   1.880   2.104
 3435SOL    HW111204   0.151   1.954   2.123
 3435SOL    HW211205   0.122   1.825   2.027
 3436SOL     OW11206   4.118   6.652   5.198
 3436SOL    HW111207   4.157   6.736   5.160
 3436SOL    HW211208   4.176   6.619   5.272
 3437SOL     OW11209   4.578   0.868   6.339
 3437SOL    HW111210   4.537   0.924   6.411
 3437SOL    HW211211   4.584   0.773   6.369
 3438SOL     OW11212   1.226   2.700   6.184
 3438SOL    HW111213   1.231   2.621   6.123
 3438SOL    HW211214   1.318   2.724   6.215
 3439SOL     OW11215   2.478   0.586   5.105
 3439SOL    HW111216   2.495   0.674   5.062
 3439SOL    HW211217   2.386   0.554   5.082
 3440SOL     OW11218   5.099   3.520   1.512
 3440SOL    HW111219   5.098   3.600   1.571
 3440SOL    HW211220   5.063   3.441   1.562
 3441SOL     OW11221   5.243   0.589   3.413
 3441SOL    HW111222   5.170   0.613   3.477
 3441SOL    HW211223   5.202   0.544   3.333
 3442SOL     OW11224   2.723   5.141   2.946
 3442SOL    HW111225   2.661   5.074   2.985
 3442SOL    HW211226   2.759   5.106   2.859
 3443SOL     OW11227   5.343   0.567   2.643
 3443SOL    HW111228   5.438   0.591   2.664
 3443SOL    HW211229   5.288   0.571   2.727
 3444SOL     OW11230   5.200   4.761   6.833
 3444SOL    HW111231   5.270   4.705   6.877
 3444SOL    HW211232   5.135   4.702   6.785
 3445SOL     OW11233   6.410   4.201   3.948
 3445SOL    HW111234   6.332   4.188   4.010
 3445SOL    HW211235   6.494   4.173   3.994
 3446SOL     OW11236   6.283   0.784   3.203
 3446SOL    HW111237   6.294   0.774   3.302
 3446SOL    HW211238   6.234   0.704   3.167
 3447SOL     OW11239   4.758   4.952   0.591
 3447SOL    HW111240   4.781   5.031   0.647
 3447SOL    HW211241   4.805   4.959   0.502
 3448SOL     OW11242   3.203   6.990   1.087
 3448SOL    HW111243   3.207   7.006   1.186
 3448SOL    HW211244   3.123   0.015   1.049
 3449SOL     OW11245   5.210   6.563   2.919
 3449SOL    HW111246   5.284   6.568   2.987
 3449SOL    HW211247   5.240   6.509   2.841
 3450SOL     OW11248   0.837   2.806   0.222
 3450SOL    HW111249   0.889   2.834   0.303
 3450SOL    HW211250   0.878   2.846   0.141
 3451SOL     OW11251   0.258   5.778   3.079
 3451SOL    HW111252   0.277   5.876   3.085
 3451SOL    HW211253   0.321   5.728   3.139
 3452SOL     OW11254   5.931   1.585   0.501
 3452SOL    HW111255   5.914   1.503   0.447
 3452SOL    HW211256   5.900   1.666   0.451
 3453SOL     OW11257   6.411   6.117   5.601
 3453SOL    HW111258   6.510   6.127   5.609
 3453SOL    HW211259   6.374   6.080   5.687
 3454SOL     OW11260   1.980   0.148   6.030
 3454SOL    HW111261   1.908   0.190   6.085
 3454SOL    HW211262   2.021   0.218   5.971
 3455SOL     OW11263   1.525   3.322   4.285
 3455SOL    HW111264   1.585   3.373   4.224
 3455SOL    HW211265   1.578   3.251   4.332
 3456SOL     OW11266   5.553   6.556   2.029
 3456SOL    HW111267   5.594   6.647   2.024
 3456SOL    HW211268   5.577   6.504   1.946
 3457SOL     OW11269   2.382   5.283   4.144
 3457SOL    HW111270   2.402   5.207   4.082
 3457SOL    HW211271   2.463   5.303   4.200
 3458SOL     OW11272   5.508   6.572   0.025
 3458SOL    HW111273   5.484   6.604   6.955
 3458SOL    HW211274   5.603   6.597   0.045
 3459SOL     OW11275   0.301   4.130   3.156
 3459SOL    HW111276   0.264   4.223   3.164
 3459SOL    HW211277   0.269   4.075   3.233
 3460SOL     OW11278   3.193   3.464   0.455
 3460SOL    HW111279   3.136   3.383   0.439
 3460SOL    HW211280   3.240   3.454   0.543
 3461SOL     OW11281   4.725   5.348   3.817
 3461SOL    HW111282   4.720   5.442   3.848
 3461SOL    HW211283   4.733   5.287   3.896
 3462SOL     OW11284   6.323   3.989   1.910
 3462SOL    HW111285   6.242   4.044   1.892
 3462SOL    HW211286   6.352   4.002   2.005
 3463SOL     OW11287   1.025   3.260   2.774
 3463SOL    HW111288   1.028   3.197   2.852
 3463SOL    HW211289   0.994   3.212   2.692
 3464SOL     OW11290   5.992   2.218   6.535
 3464SOL    HW111291   6.015   2.127   6.571
 3464SOL    HW211292   5.992   2.215   6.435
 3465SOL     OW11293   1.220   2.698   2.084
 3465SOL    HW111294   1.248   2.636   2.157
 3465SOL    HW211295   1.181   2.645   2.008
 3466SOL     OW11296   6.100   4.981   5.350
 3466SOL    HW111297   6.022   4.920   5.333
 3466SOL    HW211298   6.109   5.046   5.274
 3467SOL     OW11299   1.954   1.537   1.106
 3467SOL    HW111300   1.887   1.597   1.063
 3467SOL    HW211301   1.950   1.547   1.205
 3468SOL     OW11302   5.599   1.581   3.057
 3468SOL    HW111303   5.654   1.634   3.121
 3468SOL    HW211304   5.532   1.641   3.013
 3469SOL     OW11305   4.898   1.059   5.492
 3469SOL    HW111306   4.935   1.116   5.566
 3469SOL    HW211307   4.967   0.992   5.463
 3470SOL     OW11308   0.042   2.745   2.214
 3470SOL    HW111309   6.994   2.730   2.143
 3470SOL    HW211310   0.037   2.671   2.281
 3471SOL     OW11311   4.675   4.259   3.745
 3471SOL    HW111312   4.650   4.308   3.662
 3471SOL    HW211313   4.631   4.169   3.746
 3472SOL     OW11314   3.862   1.214   1.659
 3472SOL    HW111315   3.909   1.128   1.637
 3472SOL    HW211316   3.812   1.246   1.578
 3473SOL     OW11317   6.241   3.018   3.127
 3473SOL    HW111318   6.249   2.971   3.215
 3473SOL    HW211319   6.313   2.986   3.065
 3474SOL     OW11320   0.562   3.867   3.498
 3474SOL    HW111321   0.629   3.912   3.557
 3474SOL    HW211322   0.475   3.859   3.547
 3475SOL     OW11323   0.782   4.026   5.025
 3475SOL    HW111324   0.862   3.966   5.031
 3475SOL    HW211325   0.703   3.973   4.994
 3476SOL     OW11326   2.033   2.012   2.713
 3476SOL    HW111327   2.105   1.945   2.696
 3476SOL    HW211328   1.970   2.014   2.636
 3477SOL     OW11329   0.949   3.943   1.158
 3477SOL    HW111330   0.950   3.852   1.198
 3477SOL    HW211331   1.033   3.957   1.105
 3478SOL     OW11332   2.570   6.438   6.509
 3478SOL    HW111333   2.622   6.395   6.436
 3478SOL    HW211334   2.544   6.369   6.577
 3479SOL     OW11335   0.631   0.791   2.994
 3479SOL    HW111336   0.663   0.699   3.019
 3479SOL    HW211337   0.648   0.854   3.070
 3480SOL     OW11338   0.605   6.540   5.410
 3480SOL    HW111339   0.673   6.526   5.338
 3480SOL    HW211340   0.538   6.607   5.379
 3481SOL     OW11341   5.161   0.562   0.369
 3481SOL    HW111342   5.087   0.499   0.345
 3481SOL    HW211343   5.237   0.511   0.409
 3482SOL     OW11344   5.724   1.343   2.229
 3482SOL    HW111345   5.690   1.312   2.141
 3482SOL    HW211346   5.749   1.439   2.224
 3483SOL     OW11347   5.581   2.024   2.694
 3483SOL    HW111348   5.570   2.056   2.600
 3483SOL    HW211349   5.673   1.986   2.706
 3484SOL     OW11350   1.275   2.918   6.876
 3484SOL    HW111351   1.335   2.878   6.945
 3484SOL    HW211352   1.324   2.930   6.790
 3485SOL     OW11353   1.253   2.132   4.584
 3485SOL    HW111354   1.245   2.231   4.571
 3485SOL    HW211355   1.331   2.112   4.644
 3486SOL     OW11356   1.720   0.604   4.029
 3486SOL    HW111357   1.710   0.556   3.942
 3486SOL    HW211358   1.631   0.631   4.063
 3487SOL     OW11359   6.456   2.441   6.858
 3487SOL    HW111360   6.450   2.435   6.958
 3487SOL    HW211361   6.502   2.360   6.823
 3488SOL     OW11362   6.099   0.889   5.053
 3488SOL    HW111363   6.121   0.931   5.141
 3488SOL    HW211364   6.138   0.798   5.048
 3489SOL     OW11365   3.710   0.177   1.966
 3489SOL    HW111366   3.618   0.139   1.965
 3489SOL    HW211367   3.770   0.121   2.023
 3490SOL     OW11368   3.385   4.602   1.420
 3490SOL    HW111369   3.407   4.580   1.515
 3490SOL    HW211370   3.286   4.610   1.409
 3491SOL     OW11371   4.194   3.035   6.167
 3491SOL    HW111372   4.108   3.051   6.216
 3491SOL    HW211373   4.193   3.088   6.081
 3492SOL     OW11374   6.110   4.607   0.727
 3492SOL    HW111375   6.011   4.614   0.720
 3492SOL    HW211376   6.135   4.512   0.744
 3493SOL     OW11377   6.123   3.900   3.914
 3493SOL    HW111378   6.129   3.804   3.944
 3493SOL    HW211379   6.071   3.952   3.982
 3494SOL     OW11380   2.340   0.745   2.267
 3494SOL    HW111381   2.287   0.819   2.224
 3494SOL    HW211382   2.434   0.748   2.235
 3495SOL     OW11383   6.873   4.302   2.231
 3495SOL    HW111384   6.962   4.260   2.213
 3495SOL    HW211385   6.883   4.401   2.235
 3496SOL     OW11386   6.133   5.331   1.218
 3496SOL    HW111387   6.101   5.395   1.288
 3496SOL    HW211388   6.090   5.353   1.130
 3497SOL     OW11389   2.464   1.229   3.812
 3497SOL    HW111390   2.436   1.144   3.766
 3497SOL    HW211391   2.515   1.207   3.895
 3498SOL     OW11392   3.171   1.153   2.222
 3498SOL    HW111393   3.198   1.122   2.313
 3498SOL    HW211394   3.186   1.252   2.214
 3499SOL     OW11395   6.724   4.778   4.203
 3499SOL    HW111396   6.794   4.762   4.273
 3499SOL    HW211397   6.659   4.847   4.235
 3500SOL     OW11398   1.889   3.038   3.108
 3500SOL    HW111399   1.837   3.092   3.174
 3500SOL    HW211400   1.859   2.943   3.111
 3501SOL     OW11401   3.635   0.024   6.095
 3501SOL    HW111402   3.642   6.974   6.025
 3501SOL    HW211403   3.583   7.010   6.173
 3502SOL     OW11404   6.896   2.738   1.716
 3502SOL    HW111405   6.887   2.740   1.815
 3502SOL    HW211406   6.834   2.804   1.675
 3503SOL     OW11407   6.680   6.051   5.617
 3503SOL    HW111408   6.723   5.974   5.663
 3503SOL    HW211409   6.722   6.065   5.527
 3504SOL     OW11410   2.097   0.616   1.993
 3504SOL    HW111411   2.133   0.607   1.900
 3504SOL    HW211412   1.998   0.600   1.992
 3505SOL     OW11413   5.301   4.386   5.079
 3505SOL    HW111414   5.331   4.329   5.155
 3505SOL    HW211415   5.287   4.480   5.111
 3506SOL     OW11416   5.649   4.585   4.817
 3506SOL    HW111417   5.678   4.567   4.723
 3506SOL    HW211418   5.570   4.646   4.816
 3507SOL     OW11419   3.059   0.486   1.053
 3507SOL    HW111420   2.965   0.515   1.036
 3507SOL    HW211421   3.090   0.429   0.976
 3508SOL     OW11422   2.228   1.737   6.270
 3508SOL    HW111423   2.266   1.773   6.355
 3508SOL    HW211424   2.231   1.808   6.199
 3509SOL     OW11425   5.805   0.068   6.813
 3509SOL    HW111426   5.852   7.011   6.854
 3509SOL    HW211427   5.871   0.141   6.794
 3510SOL     OW11428   1.447   0.455   1.747
 3510SOL    HW111429   1.372   0.457   1.681
 3510SOL    HW211430   1.533   0.437   1.700
 3511SOL     OW11431   2.036   4.239   1.442
 3511SOL    HW111432   2.002   4.173   1.509
 3511SOL    HW211433   2.063   4.191   1.359
 3512SOL     OW11434   0.112   4.270   0.611
 3512SOL    HW111435   0.182   4.217   0.659
 3512SOL    HW211436   0.156   4.331   0.545
 3513SOL     OW11437   6.044   2.000   0.609
 3513SOL    HW111438   6.060   1.931   0.679
 3513SOL    HW211439   5.946   2.011   0.595
 3514SOL     OW11440   6.839   0.804   1.562
 3514SOL    HW111441   6.820   0.890   1.608
 3514SOL    HW211442   6.875   0.822   1.471
 3515SOL     OW11443   4.811   6.033   2.820
 3515SOL    HW111444   4.782   6.114   2.769
 3515SOL    HW211445   4.731   5.984   2.854
 3516SOL     OW11446   4.458   6.419   0.601
 3516SOL    HW111447   4.395   6.488   0.639
 3516SOL    HW211448   4.552   6.451   0.613
 3517SOL     OW11449   0.224   1.095   1.256
 3517SOL    HW111450   0.285   1.086   1.335
 3517SOL    HW211451   0.235   1.015   1.196
 3518SOL     OW11452   5.019   2.733   5.083
 3518SOL    HW111453   5.093   2.799   5.097
 3518SOL    HW211454   5.041   2.648   5.130
 3519SOL     OW11455   1.639   0.149   5.647
 3519SOL    HW111456   1.724   0.132   5.695
 3519SOL    HW211457   1.655   0.210   5.569
 3520SOL     OW11458   3.353   6.179   0.180
 3520SOL    HW111459   3.369   6.150   0.086
 3520SOL    HW211460   3.258   6.211   0.189
 3521SOL     OW11461   4.461   2.713   0.118
 3521SOL    HW111462   4.499   2.799   0.081
 3521SOL    HW211463   4.481   2.639   0.054
 3522SOL     OW11464   6.632   5.882   6.949
 3522SOL    HW111465   6.667   5.789   6.960
 3522SOL    HW211466   6.709   5.946   6.946
 3523SOL     OW11467   1.200   4.383   5.116
 3523SOL    HW111468   1.133   4.405   5.045
 3523SOL    HW211469   1.154   4.340   5.193
 3524SOL     OW11470   5.022   2.107   1.848
 3524SOL    HW111471   4.924   2.122   1.848
 3524SOL    HW211472   5.046   2.039   1.917
 3525SOL     OW11473   6.558   3.381   4.040
 3525SOL    HW111474   6.525   3.459   3.987
 3525SOL    HW211475   6.622   3.327   3.984
 3526SOL     OW11476   2.254   6.731   3.901
 3526SOL    HW111477   2.279   6.811   3.955
 3526SOL    HW211478   2.326   6.712   3.834
 3527SOL     OW11479   5.842   3.633   6.486
 3527SOL    HW111480   5.747   3.652   6.463
 3527SOL    HW211481   5.900   3.649   6.406
 3528SOL     OW11482   1.994   6.589   5.417
 3528SOL    HW111483   1.962   6.535   5.495
 3528SOL    HW211484   2.067   6.651   5.447
 3529SOL     OW11485   3.716   6.848   1.033
 3529SOL    HW111486   3.796   6.791   1.014
 3529SOL    HW211487   3.730   6.939   0.993
 3530SOL     OW11488   6.640   5.757   1.362
 3530SOL    HW111489   6.649   5.784   1.266
 3530SOL    HW211490   6.721   5.788   1.413
 3531SOL     OW11491   5.402   2.319   0.474
 3531SOL    HW111492   5.488   2.285   0.513
 3531SOL    HW211493   5.383   2.272   0.388
 3532SOL     OW11494   2.656   0.282   1.981
 3532SOL    HW111495   2.650   0.342   2.061
 3532SOL    HW211496   2.750   0.281   1.947
 3533SOL     OW11497   0.261   0.965   2.302
 3533SOL    HW111498   0.204   1.042   2.274
 3533SOL    HW211499   0.219   0.880   2.271
 3534SOL     OW11500   0.639   1.906   0.471
 3534SOL    HW111501   0.626   1.849   0.390
 3534SOL    HW211502   0.592   1.865   0.549
 3535SOL     OW11503   2.014   5.054   6.311
 3535SOL    HW111504   2.070   5.014   6.238
 3535SOL    HW211505   1.921   5.018   6.306
 3536SOL     OW11506   3.504   1.547   3.014
 3536SOL    HW111507   3.415   1.515   2.981
 3536SOL    HW211508   3.515   1.643   2.992
 3537SOL     OW11509   2.370   5.799   2.992
 3537SOL    HW111510   2.351   5.701   2.981
 3537SOL    HW211511   2.331   5.849   2.914
 3538SOL     OW11512   2.188   6.410   5.293
 3538SOL    HW111513   2.171   6.366   5.205
 3538SOL    HW211514   2.107   6.462   5.321
 3539SOL     OW11515   3.768   3.398   5.308
 3539SOL    HW111516   3.759   3.341   5.389
 3539SOL    HW211517   3.729   3.488   5.327
 3540SOL     OW11518   2.007   2.761   4.605
 3540SOL    HW111519   1.925   2.703   4.612
 3540SOL    HW211520   2.088   2.708   4.628
 3541SOL     OW11521   2.410   2.513   6.060
 3541SOL    HW111522   2.416   2.489   5.963
 3541SOL    HW211523   2.370   2.604   6.069
 3542SOL     OW11524   1.308   5.528   3.521
 3542SOL    HW111525   1.293   5.519   3.619
 3542SOL    HW211526   1.303   5.438   3.478
 3543SOL     OW11527   0.469   2.947   5.054
 3543SOL    HW111528   0.408   2.935   5.132
 3543SOL    HW211529   0.533   2.870   5.049
 3544SOL     OW11530   1.443   4.056   6.372
 3544SOL    HW111531   1.488   4.132   6.420
 3544SOL    HW211532   1.439   3.976   6.433
 3545SOL     OW11533   4.153   5.574   6.606
 3545SOL    HW111534   4.187   5.615   6.522
 3545SOL    HW211535   4.228   5.564   6.672
 3546SOL     OW11536   1.478   4.771   4.031
 3546SOL    HW111537   1.420   4.746   4.108
 3546SOL    HW211538   1.422   4.816   3.961
 3547SOL     OW11539   5.445   4.573   3.451
 3547SOL    HW111540   5.468   4.514   3.374
 3547SOL    HW211541   5.504   4.552   3.529
 3548SOL     OW11542   5.574   1.334   5.661
 3548SOL    HW111543   5.557   1.432   5.651
 3548SOL    HW211544   5.614   1.316   5.751
 3549SOL     OW11545   6.425   4.446   5.235
 3549SOL    HW111546   6.449   4.474   5.142
 3549SOL    HW211547   6.326   4.452   5.248
 3550SOL     OW11548   5.104   2.254   2.441
 3550SOL    HW111549   5.126   2.351   2.440
 3550SOL    HW211550   5.136   2.213   2.527
 3551SOL     OW11551   4.129   6.691   2.807
 3551SOL    HW111552   4.039   6.705   2.765
 3551SOL    HW211553   4.175   6.779   2.817
 3552SOL     OW11554   5.085   6.528   1.451
 3552SOL    HW111555   5.126   6.579   1.526
 3552SOL    HW211556   5.155   6.474   1.405
 3553SOL     OW11557   5.798   3.658   1.931
 3553SOL    HW111558   5.723   3.594   1.918
 3553SOL    HW211559   5.885   3.610   1.927
 3554SOL     OW11560   3.969   2.542   1.120
 3554SOL    HW111561   3.901   2.603   1.081
 3554SOL    HW211562   3.926   2.455   1.146
 3555SOL     OW11563   1.180   3.749   3.039
 3555SOL    HW111564   1.139   3.668   2.997
 3555SOL    HW211565   1.109   3.818   3.056
 3556SOL     OW11566   4.010   0.856   4.431
 3556SOL    HW111567   4.084   0.846   4.497
 3556SOL    HW211568   3.971   0.766   4.411
 3557SOL     OW11569   0.498   0.555   3.587
 3557SOL    HW111570   0.485   0.645   3.546
 3557SOL    HW211571   0.573   0.508   3.540
 3558SOL     OW11572   1.126   5.682   1.050
 3558SOL    HW111573   1.031   5.679   1.081
 3558SOL    HW211574   1.183   5.625   1.109
 3559SOL     OW11575   0.534   0.023   4.709
 3559SOL    HW111576   0.460   0.063   4.763
 3559SOL    HW211577   0.567   6.961   4.754
 3560SOL     OW11578   1.072   5.350   0.967
 3560SOL    HW111579   1.142   5.340   1.038
 3560SOL    HW211580   1.001   5.412   0.999
 3561SOL     OW11581   3.633   4.989   5.006
 3561SOL    HW111582   3.573   4.932   5.063
 3561SOL    HW211583   3.725   4.990   5.045
 3562SOL     OW11584   5.169   1.011   3.991
 3562SOL    HW111585   5.080   0.978   4.024
 3562SOL    HW211586   5.154   1.092   3.935
 3563SOL     OW11587   5.007   0.497   1.464
 3563SOL    HW111588   4.977   0.409   1.499
 3563SOL    HW211589   4.928   0.556   1.448
 3564SOL     OW11590   1.035   4.614   4.671
 3564SOL    HW111591   1.123   4.590   4.629
 3564SOL    HW211592   1.036   4.710   4.698
 3565SOL     OW11593   4.196   6.264   4.625
 3565SOL    HW111594   4.215   6.260   4.723
 3565SOL    HW211595   4.125   6.332   4.607
 3566SOL     OW11596   6.388   3.463   6.575
 3566SOL    HW111597   6.414   3.502   6.487
 3566SOL    HW211598   6.461   3.480   6.641
 3567SOL     OW11599   1.213   2.553   6.850
 3567SOL    HW111600   1.271   2.578   6.928
 3567SOL    HW211601   1.150   2.481   6.879
 3568SOL     OW11602   4.904   5.262   3.642
 3568SOL    HW111603   4.839   5.285   3.714
 3568SOL    HW211604   4.980   5.210   3.681
 3569SOL     OW11605   2.925   2.640   6.062
 3569SOL    HW111606   2.995   2.686   6.007
 3569SOL    HW211607   2.969   2.585   6.132
 3570SOL     OW11608   5.748   0.675   4.697
 3570SOL    HW111609   5.693   0.677   4.613
 3570SOL    HW211610   5.843   0.695   4.674
 3571SOL     OW11611   2.518   0.958   5.264
 3571SOL    HW111612   2.440   1.019   5.275
 3571SOL    HW211613   2.523   0.927   5.169
 3572SOL     OW11614   5.895   3.659   2.670
 3572SOL    HW111615   5.831   3.593   2.631
 3572SOL    HW211616   5.914   3.731   2.604
 3573SOL     OW11617   6.238   3.702   2.452
 3573SOL    HW111618   6.212   3.663   2.364
 3573SOL    HW211619   6.315   3.765   2.438
 3574SOL     OW11620   1.227   3.542   0.378
 3574SOL    HW111621   1.173   3.554   0.294
 3574SOL    HW211622   1.306   3.484   0.359
 3575SOL     OW11623   5.198   6.271   1.635
 3575SOL    HW111624   5.167   6.224   1.717
 3575SOL    HW211625   5.129   6.262   1.563
 3576SOL     OW11626   0.656   2.205   0.473
 3576SOL    HW111627   0.651   2.113   0.511
 3576SOL    HW211628   0.571   2.253   0.491
 3577SOL     OW11629   2.185   2.817   6.049
 3577SOL    HW111630   2.100   2.834   6.098
 3577SOL    HW211631   2.259   2.802   6.114
 3578SOL     OW11632   4.798   2.023   1.272
 3578SOL    HW111633   4.825   1.929   1.255
 3578SOL    HW211634   4.784   2.036   1.371
 3579SOL     OW11635   6.954   2.822   2.733
 3579SOL    HW111636   6.900   2.739   2.720
 3579SOL    HW211637   6.904   2.900   2.694
 3580SOL     OW11638   6.650   3.199   0.444
 3580SOL    HW111639   6.572   3.262   0.439
 3580SOL    HW211640   6.716   3.222   0.373
 3581SOL     OW11641   0.600   6.400   2.697
 3581SOL    HW111642   0.611   6.458   2.778
 3581SOL    HW211643   0.604   6.457   2.615
 3582SOL     OW11644   2.550   4.991   5.538
 3582SOL    HW111645   2.515   5.053   5.468
 3582SOL    HW211646   2.486   4.988   5.615
 3583SOL     OW11647   1.081   4.261   0.602
 3583SOL    HW111648   0.987   4.289   0.619
 3583SOL    HW211649   1.111   4.199   0.675
 3584SOL     OW11650   5.628   4.958   5.515
 3584SOL    HW111651   5.557   5.018   5.477
 3584SOL    HW211652   5.642   4.880   5.455
 3585SOL     OW11653   3.591   1.970   4.568
 3585SOL    HW111654   3.614   1.940   4.660
 3585SOL    HW211655   3.500   1.936   4.543
 3586SOL     OW11656   0.095   2.413   4.997
 3586SOL    HW111657   0.037   2.465   5.060
 3586SOL    HW211658   0.143   2.342   5.048
 3587SOL     OW11659   2.988   5.377   6.379
 3587SOL    HW111660   3.038   5.314   6.437
 3587SOL    HW211661   3.051   5.423   6.316
 3588SOL     OW11662   6.737   3.895   4.770
 3588SOL    HW111663   6.642   3.864   4.771
 3588SOL    HW211664   6.750   3.961   4.697
 3589SOL     OW11665   6.052   6.627   6.572
 3589SOL    HW111666   6.001   6.697   6.522
 3589SOL    HW211667   6.031   6.537   6.534
 3590SOL     OW11668   0.461   3.633   0.677
 3590SOL    HW111669   0.501   3.724   0.667
 3590SOL    HW211670   0.522   3.565   0.638
 3591SOL     OW11671   5.384   3.376   1.070
 3591SOL    HW111672   5.448   3.453   1.075
 3591SOL    HW211673   5.317   3.384   1.143
 3592SOL     OW11674   0.432   6.727   2.724
 3592SOL    HW111675   0.365   6.733   2.798
 3592SOL    HW211676   0.446   6.818   2.686
 3593SOL     OW11677   0.892   4.631   6.357
 3593SOL    HW111678   0.869   4.696   6.285
 3593SOL    HW211679   0.927   4.681   6.437
 3594SOL     OW11680   5.091   0.593   4.137
 3594SOL    HW111681   5.032   0.644   4.074
 3594SOL    HW211682   5.134   0.657   4.201
 3595SOL     OW11683   6.010   5.618   0.632
 3595SOL    HW111684   6.103   5.586   0.651
 3595SOL    HW211685   6.014   5.710   0.593
 3596SOL     OW11686   4.557   2.446   3.590
 3596SOL    HW111687   4.613   2.470   3.669
 3596SOL    HW211688   4.587   2.498   3.510
 3597SOL     OW11689   2.017   2.594   5.643
 3597SOL    HW111690   2.073   2.657   5.696
 3597SOL    HW211691   2.073   2.550   5.573
 3598SOL     OW11692   1.853   6.330   5.263
 3598SOL    HW111693   1.838   6.266   5.188
 3598SOL    HW211694   1.772   6.388   5.274
 3599SOL     OW11695   4.229   2.195   6.755
 3599SOL    HW111696   4.327   2.213   6.745
 3599SOL    HW211697   4.208   2.104   6.719
 3600SOL     OW11698   0.951   3.223   1.787
 3600SOL    HW111699   1.031   3.162   1.785
 3600SOL    HW211700   0.892   3.198   1.864
 3601SOL     OW11701   5.274   1.756   5.695
 3601SOL    HW111702   5.182   1.725   5.718
 3601SOL    HW211703   5.276   1.856   5.691
 3602SOL     OW11704   1.907   3.061   0.400
 3602SOL    HW111705   1.819   3.019   0.424
 3602SOL    HW211706   1.894   3.160   0.390
 3603SOL     OW11707   3.606   1.003   5.608
 3603SOL    HW111708   3.580   1.098   5.597
 3603SOL    HW211709   3.541   0.958   5.670
 3604SOL     OW11710   5.793   1.214   3.407
 3604SOL    HW111711   5.723   1.150   3.438
 3604SOL    HW211712   5.750   1.295   3.367
 3605SOL     OW11713   1.137   5.351   4.053
 3605SOL    HW111714   1.143   5.422   4.123
 3605SOL    HW211715   1.102   5.267   4.094
 3606SOL     OW11716   1.679   6.545   2.720
 3606SOL    HW111717   1.608   6.537   2.790
 3606SOL    HW211718   1.681   6.638   2.684
 3607SOL     OW11719   5.551   3.061   2.245
 3607SOL    HW111720   5.561   3.061   2.146
 3607SOL    HW211721   5.465   3.106   2.270
 3608SOL     OW11722   5.470   1.529   3.484
 3608SOL    HW111723   5.410   1.457   3.517
 3608SOL    HW211724   5.490   1.593   3.559
 3609SOL     OW11725   2.138   6.926   4.404
 3609SOL    HW111726   2.123   7.015   4.362
 3609SOL    HW211727   2.065   6.863   4.376
 3610SOL     OW11728   1.641   0.290   5.388
 3610SOL    HW111729   1.565   0.307   5.325
 3610SOL    HW211730   1.725   0.329   5.350
 3611SOL     OW11731   4.416   4.890   4.108
 3611SOL    HW111732   4.340   4.922   4.052
 3611SOL    HW211733   4.460   4.969   4.152
 3612SOL     OW11734   6.562   1.292   6.551
 3612SOL    HW111735   6.642   1.342   6.517
 3612SOL    HW211736   6.586   1.196   6.566
 3613SOL     OW11737   4.142   5.161   1.985
 3613SOL    HW111738   4.092   5.188   1.903
 3613SOL    HW211739   4.110   5.071   2.016
 3614SOL     OW11740   2.972   3.188   6.796
 3614SOL    HW111741   2.960   3.131   6.877
 3614SOL    HW211742   2.922   3.274   6.808
 3615SOL     OW11743   5.671   2.809   6.218
 3615SOL    HW111744   5.575   2.805   6.247
 3615SOL    HW211745   5.728   2.765   6.287
 3616SOL     OW11746   1.704   1.159   6.359
 3616SOL    HW111747   1.623   1.207   6.327
 3616SOL    HW211748   1.768   1.146   6.283
 3617SOL     OW11749   4.449   0.529   6.020
 3617SOL    HW111750   4.464   0.494   6.113
 3617SOL    HW211751   4.512   0.483   5.957
 3618SOL     OW11752   2.681   3.613   5.339
 3618SOL    HW111753   2.644   3.706   5.335
 3618SOL    HW211754   2.607   3.549   5.360
 3619SOL     OW11755   5.433   3.498   0.477
 3619SOL    HW111756   5.370   3.551   0.534
 3619SOL    HW211757   5.524   3.539   0.481
 3620SOL     OW11758   5.949   5.612   4.751
 3620SOL    HW111759   5.999   5.525   4.757
 3620SOL    HW211760   5.953   5.647   4.658
 3621SOL     OW11761   3.283   3.182   4.331
 3621SOL    HW111762   3.207   3.230   4.375
 3621SOL    HW211763   3.366   3.238   4.338
 3622SOL     OW11764   0.907   0.592   1.009
 3622SOL    HW111765   1.004   0.572   0.993
 3622SOL    HW211766   0.860   0.599   0.921
 3623SOL     OW11767   0.367   5.382   5.102
 3623SOL    HW111768   0.434   5.413   5.170
 3623SOL    HW211769   0.277   5.418   5.126
 3624SOL     OW11770   1.474   6.888   1.968
 3624SOL    HW111771   1.562   6.842   1.960
 3624SOL    HW211772   1.476   6.974   1.916
 3625SOL     OW11773   0.217   3.012   6.807
 3625SOL    HW111774   0.178   3.053   6.725
 3625SOL    HW211775   0.199   3.070   6.886
 3626SOL     OW11776   0.787   3.499   4.330
 3626SOL    HW111777   0.783   3.404   4.359
 3626SOL    HW211778   0.844   3.551   4.394
 3627SOL     OW11779   4.993   3.331   1.672
 3627SOL    HW111780   4.924   3.379   1.726
 3627SOL    HW211781   5.037   3.261   1.729
 3628SOL     OW11782   1.491   1.098   2.471
 3628SOL    HW111783   1.540   1.179   2.438
 3628SOL    HW211784   1.557   1.032   2.508
 3629SOL     OW11785   1.440   0.683   4.128
 3629SOL    HW111786   1.482   0.745   4.195
 3629SOL    HW211787   1.467   0.710   4.036
 3630SOL     OW11788   6.739   2.765   3.329
 3630SOL    HW111789   6.672   2.712   3.276
 3630SOL    HW211790   6.742   2.730   3.422
 3631SOL     OW11791   1.801   6.579   3.696
 3631SOL    HW111792   1.895   6.613   3.689
 3631SOL    HW211793   1.791   6.496   3.640
 3632SOL     OW11794   4.688   3.897   0.894
 3632SOL    HW111795   4.710   3.862   0.985
 3632SOL    HW211796   4.750   3.973   0.873
 3633SOL     OW11797   3.763   2.079   5.616
 3633SOL    HW111798   3.704   2.024   5.556
 3633SOL    HW211799   3.712   2.107   5.697
 3634SOL     OW11800   2.063   6.213   6.319
 3634SOL    HW111801   2.072   6.243   6.414
 3634SOL    HW211802   1.967   6.217   6.292
 3635SOL     OW11803   2.181   1.689   1.139
 3635SOL    HW111804   2.095   1.639   1.139
 3635SOL    HW211805   2.214   1.699   1.233
 3636SOL     OW11806   0.117   5.718   0.912
 3636SOL    HW111807   0.051   5.779   0.955
 3636SOL    HW211808   0.070   5.653   0.853
 3637SOL     OW11809   1.139   2.285   0.458
 3637SOL    HW111810   1.146   2.382   0.481
 3637SOL    HW211811   1.056   2.269   0.403
 3638SOL     OW11812   6.924   3.840   2.534
 3638SOL    HW111813   6.940   3.785   2.617
 3638SOL    HW211814   6.826   3.843   2.515
 3639SOL     OW11815   3.815   4.409   5.638
 3639SOL    HW111816   3.860   4.326   5.671
 3639SOL    HW211817   3.719   4.409   5.667
 3640SOL     OW11818   5.344   2.595   0.416
 3640SOL    HW111819   5.361   2.497   0.413
 3640SOL    HW211820   5.401   2.637   0.487
 3641SOL     OW11821   5.210   4.911   1.121
 3641SOL    HW111822   5.202   4.889   1.024
 3641SOL    HW211823   5.177   5.004   1.137
 3642SOL     OW11824   5.402   1.983   6.370
 3642SOL    HW111825   5.405   2.083   6.359
 3642SOL    HW211826   5.364   1.961   6.460
 3643SOL     OW11827   4.274   6.850   5.915
 3643SOL    HW111828   4.260   6.779   5.984
 3643SOL    HW211829   4.368   6.883   5.920
 3644SOL     OW11830   2.931   1.278   1.536
 3644SOL    HW111831   2.951   1.186   1.502
 3644SOL    HW211832   2.835   1.299   1.518
 3645SOL     OW11833   1.697   3.684   4.442
 3645SOL    HW111834   1.731   3.601   4.486
 3645SOL    HW211835   1.601   3.698   4.464
 3646SOL     OW11836   1.835   5.010   4.620
 3646SOL    HW111837   1.899   5.035   4.548
 3646SOL    HW211838   1.885   4.964   4.694
 3647SOL     OW11839   2.803   6.931   6.771
 3647SOL    HW111840   2.790   6.833   6.787
 3647SOL    HW211841   2.729   6.964   6.713
 3648SOL     OW11842   4.964   5.747   3.135
 3648SOL    HW111843   4.992   5.802   3.057
 3648SOL    HW211844   4.988   5.794   3.220
 3649SOL     OW11845   5.728   4.275   6.984
 3649SOL    HW111846   5.665   4.199   6.998
 3649SOL    HW211847   5.819   4.249   7.015
 3650SOL     OW11848   5.610   4.238   0.819
 3650SOL    HW111849   5.665   4.307   0.867
 3650SOL    HW211850   5.530   4.282   0.778
 3651SOL     OW11851   2.210   1.423   5.643
 3651SOL    HW111852   2.243   1.502   5.592
 3651SOL    HW211853   2.112   1.409   5.625
 3652SOL     OW11854   5.856   0.272   2.424
 3652SOL    HW111855   5.767   0.314   2.446
 3652SOL    HW211856   5.881   0.208   2.496
 3653SOL     OW11857   0.773   0.790   2.737
 3653SOL    HW111858   0.862   0.833   2.722
 3653SOL    HW211859   0.751   0.791   2.834
 3654SOL     OW11860   4.329   5.917   0.450
 3654SOL    HW111861   4.373   5.918   0.360
 3654SOL    HW211862   4.392   5.953   0.519
 3655SOL     OW11863   3.083   0.897   4.453
 3655SOL    HW111864   3.125   0.909   4.363
 3655SOL    HW211865   3.118   0.814   4.496
 3656SOL     OW11866   0.627   5.027   1.109
 3656SOL    HW111867   0.694   5.095   1.079
 3656SOL    HW211868   0.545   5.033   1.051
 3657SOL     OW11869   4.720   6.047   5.516
 3657SOL    HW111870   4.752   5.995   5.437
 3657SOL    HW211871   4.749   6.001   5.600
 3658SOL     OW11872   1.273   5.118   6.535
 3658SOL    HW111873   1.242   5.112   6.440
 3658SOL    HW211874   1.314   5.208   6.552
 3659SOL     OW11875   0.462   1.512   6.181
 3659SOL    HW111876   0.404   1.431   6.171
 3659SOL    HW211877   0.475   1.533   6.278
 3660SOL     OW11878   6.176   6.408   5.783
 3660SOL    HW111879   6.083   6.444   5.771
 3660SOL    HW211880   6.202   6.356   5.702
 3661SOL     OW11881   6.747   0.958   4.461
 3661SOL    HW111882   6.818   0.888   4.468
 3661SOL    HW211883   6.742   0.992   4.368
 3662SOL     OW11884   3.823   1.142   5.206
 3662SOL    HW111885   3.806   1.121   5.110
 3662SOL    HW211886   3.870   1.230   5.213
 3663SOL     OW11887   2.574   2.029   6.326
 3663SOL    HW111888   2.532   2.059   6.412
 3663SOL    HW211889   2.628   2.104   6.287
 3664SOL     OW11890   4.402   2.015   2.089
 3664SOL    HW111891   4.397   1.960   2.006
 3664SOL    HW211892   4.321   2.074   2.095
 3665SOL     OW11893   0.242   6.304   5.787
 3665SOL    HW111894   0.286   6.296   5.697
 3665SOL    HW211895   0.282   6.382   5.837
 3666SOL     OW11896   1.539   2.456   3.311
 3666SOL    HW111897   1.525   2.497   3.220
 3666SOL    HW211898   1.635   2.429   3.320
 3667SOL     OW11899   1.198   1.738   3.460
 3667SOL    HW111900   1.165   1.690   3.378
 3667SOL    HW211901   1.231   1.828   3.435
 3668SOL     OW11902   1.167   0.319   1.877
 3668SOL    HW111903   1.237   0.259   1.915
 3668SOL    HW211904   1.077   0.283   1.898
 3669SOL     OW11905   6.174   1.490   4.474
 3669SOL    HW111906   6.155   1.395   4.498
 3669SOL    HW211907   6.145   1.508   4.380
 3670SOL     OW11908   3.391   4.927   1.328
 3670SOL    HW111909   3.414   4.838   1.367
 3670SOL    HW211910   3.346   4.983   1.397
 3671SOL     OW11911   6.756   1.148   2.682
 3671SOL    HW111912   6.842   1.164   2.731
 3671SOL    HW211913   6.776   1.129   2.586
 3672SOL     OW11914   5.683   1.313   2.482
 3672SOL    HW111915   5.701   1.335   2.386
 3672SOL    HW211916   5.769   1.306   2.531
 3673SOL     OW11917   4.117   5.761   0.106
 3673SOL    HW111918   4.170   5.684   0.140
 3673SOL    HW211919   4.020   5.735   0.101
 3674SOL     OW11920   0.811   5.872   5.970
 3674SOL    HW111921   0.782   5.783   6.007
 3674SOL    HW211922   0.856   5.925   6.041
 3675SOL     OW11923   0.045   2.304   3.454
 3675SOL    HW111924   0.136   2.265   3.441
 3675SOL    HW211925   0.022   2.302   3.552
 3676SOL     OW11926   5.103   3.278   3.082
 3676SOL    HW111927   5.081   3.351   3.147
 3676SOL    HW211928   5.202   3.278   3.064
 3677SOL     OW11929   2.123   0.700   5.290
 3677SOL    HW111930   2.046   0.667   5.344
 3677SOL    HW211931   2.182   0.756   5.349
 3678SOL     OW11932   1.402   1.030   4.192
 3678SOL    HW111933   1.318   1.033   4.246
 3678SOL    HW211934   1.475   0.986   4.244
 3679SOL     OW11935   5.729   0.234   2.671
 3679SOL    HW111936   5.711   0.165   2.741
 3679SOL    HW211937   5.642   0.268   2.636
 3680SOL     OW11938   4.886   2.229   3.483
 3680SOL    HW111939   4.834   2.155   3.442
 3680SOL    HW211940   4.845   2.317   3.458
 3681SOL     OW11941   0.916   0.440   5.799
 3681SOL    HW111942   0.943   0.369   5.864
 3681SOL    HW211943   0.986   0.511   5.797
 3682SOL     OW11944   5.313   2.405   1.354
 3682SOL    HW111945   5.231   2.414   1.411
 3682SOL    HW211946   5.289   2.358   1.269
 3683SOL     OW11947   0.061   1.031   4.500
 3683SOL    HW111948   0.118   1.043   4.582
 3683SOL    HW211949   0.006   0.949   4.509
 3684SOL     OW11950   1.784   6.236   6.274
 3684SOL    HW111951   1.738   6.261   6.360
 3684SOL    HW211952   1.753   6.146   6.245
 3685SOL     OW11953   2.663   6.120   5.531
 3685SOL    HW111954   2.579   6.094   5.484
 3685SOL    HW211955   2.738   6.126   5.465
 3686SOL     OW11956   6.880   3.989   3.794
 3686SOL    HW111957   6.969   3.961   3.756
 3686SOL    HW211958   6.822   3.909   3.807
 3687SOL     OW11959   5.153   6.671   3.276
 3687SOL    HW111960   5.061   6.633   3.273
 3687SOL    HW211961   5.219   6.598   3.257
 3688SOL     OW11962   5.682   3.859   0.201
 3688SOL    HW111963   5.767   3.875   0.252
 3688SOL    HW211964   5.636   3.779   0.238
 3689SOL     OW11965   2.326   1.483   5.147
 3689SOL    HW111966   2.247   1.459   5.203
 3689SOL    HW211967   2.343   1.582   5.154
 3690SOL     OW11968   5.150   5.318   0.727
 3690SOL    HW111969   5.078   5.370   0.681
 3690SOL    HW211970   5.218   5.381   0.764
 3691SOL     OW11971   2.280   1.946   6.118
 3691SOL    HW111972   2.367   1.972   6.160
 3691SOL    HW211973   2.284   1.965   6.020
 3692SOL     OW11974   6.757   4.012   6.287
 3692SOL    HW111975   6.784   4.096   6.240
 3692SOL    HW211976   6.836   3.951   6.294
 3693SOL     OW11977   0.889   1.913   2.838
 3693SOL    HW111978   0.939   1.956   2.763
 3693SOL    HW211979   0.835   1.982   2.886
 3694SOL     OW11980   0.864   0.271   1.881
 3694SOL    HW111981   0.821   0.361   1.885
 3694SOL    HW211982   0.793   0.201   1.878
 3695SOL     OW11983   6.738   2.224   2.132
 3695SOL    HW111984   6.737   2.233   2.032
 3695SOL    HW211985   6.736   2.315   2.173
 3696SOL     OW11986   5.490   1.087   4.923
 3696SOL    HW111987   5.563   1.036   4.969
 3696SOL    HW211988   5.442   1.143   4.989
 3697SOL     OW11989   5.891   5.771   3.567
 3697SOL    HW111990   5.930   5.680   3.575
 3697SOL    HW211991   5.811   5.778   3.628
 3698SOL     OW11992   2.248   0.559   3.696
 3698SOL    HW111993   2.311   0.620   3.745
 3698SOL    HW211994   2.184   0.519   3.761
 3699SOL     OW11995   2.432   2.184   3.643
 3699SOL    HW111996   2.505   2.139   3.592
 3699SOL    HW211997   2.374   2.115   3.686
 3700SOL     OW11998   1.441   5.318   5.378
 3700SOL    HW111999   1.403   5.352   5.464
 3700SOL    HW212000   1.540   5.332   5.378
 3701SOL     OW12001   0.547   6.298   2.024
 3701SOL    HW112002   0.636   6.277   1.983
 3701SOL    HW212003   0.479   6.308   1.953
 3702SOL     OW12004   5.500   6.698   3.873
 3702SOL    HW112005   5.547   6.611   3.861
 3702SOL    HW212006   5.436   6.712   3.797
 3703SOL     OW12007   1.027   0.803   6.216
 3703SOL    HW112008   1.083   0.862   6.274
 3703SOL    HW212009   0.997   0.854   6.136
 3704SOL     OW12010   5.207   3.374   1.286
 3704SOL    HW112011   5.210   3.276   1.305
 3704SOL    HW212012   5.176   3.423   1.367
 3705SOL     OW12013   4.951   4.892   3.577
 3705SOL    HW112014   4.949   4.847   3.487
 3705SOL    HW212015   4.863   4.937   3.593
 3706SOL     OW12016   0.430   3.720   0.233
 3706SOL    HW112017   0.472   3.705   0.143
 3706SOL    HW212018   0.338   3.681   0.232
 3707SOL     OW12019   3.608   4.948   3.868
 3707SOL    HW112020   3.582   5.021   3.805
 3707SOL    HW212021   3.529   4.922   3.924
 3708SOL     OW12022   4.394   6.952   1.383
 3708SOL    HW112023   4.336   6.955   1.302
 3708SOL    HW212024   4.338   6.937   1.464
 3709SOL     OW12025   1.665   0.059   1.615
 3709SOL    HW112026   1.634   6.993   1.654
 3709SOL    HW212027   1.764   0.066   1.625
 3710SOL     OW12028   0.293   4.776   5.727
 3710SOL    HW112029   0.260   4.682   5.730
 3710SOL    HW212030   0.301   4.805   5.632
 3711SOL     OW12031   1.853   6.484   4.977
 3711SOL    HW112032   1.901   6.511   5.061
 3711SOL    HW212033   1.860   6.385   4.965
 3712SOL     OW12034   2.317   5.498   6.392
 3712SOL    HW112035   2.388   5.559   6.425
 3712SOL    HW212036   2.332   5.478   6.295
 3713SOL     OW12037   0.275   6.818   4.898
 3713SOL    HW112038   0.287   6.910   4.934
 3713SOL    HW212039   0.182   6.785   4.919
 3714SOL     OW12040   0.876   4.794   6.682
 3714SOL    HW112041   0.885   4.694   6.685
 3714SOL    HW212042   0.966   4.836   6.695
 3715SOL     OW12043   0.828   5.942   3.297
 3715SOL    HW112044   0.741   5.939   3.247
 3715SOL    HW212045   0.812   5.916   3.393
 3716SOL     OW12046   6.178   5.243   4.171
 3716SOL    HW112047   6.086   5.281   4.180
 3716SOL    HW212048   6.178   5.171   4.102
 3717SOL     OW12049   5.040   1.586   0.100
 3717SOL    HW112050   5.088   1.588   0.188
 3717SOL    HW212051   4.956   1.532   0.109
 3718SOL     OW12052   0.565   0.224   6.897
 3718SOL    HW112053   0.594   0.155   6.963
 3718SOL    HW212054   0.546   0.179   6.809
 3719SOL     OW12055   4.471   3.061   6.191
 3719SOL    HW112056   4.495   3.096   6.100
 3719SOL    HW212057   4.372   3.052   6.199
 3720SOL     OW12058   5.268   3.806   0.984
 3720SOL    HW112059   5.269   3.902   0.956
 3720SOL    HW212060   5.302   3.799   1.078
 3721SOL     OW12061   6.363   5.490   6.825
 3721SOL    HW112062   6.359   5.582   6.786
 3721SOL    HW212063   6.276   5.470   6.870
 3722SOL     OW12064   4.432   0.206   1.118
 3722SOL    HW112065   4.403   0.120   1.075
 3722SOL    HW212066   4.481   0.186   1.202
 3723SOL     OW12067   4.237   5.182   6.985
 3723SOL    HW112068   4.185   5.102   6.955
 3723SOL    HW212069   4.182   5.235   0.029
 3724SOL     OW12070   1.873   5.109   5.336
 3724SOL    HW112071   1.904   5.197   5.370
 3724SOL    HW212072   1.950   5.045   5.333
 3725SOL     OW12073   0.278   6.104   0.263
 3725SOL    HW112074   0.347   6.050   0.311
 3725SOL    HW212075   0.278   6.198   0.298
 3726SOL     OW12076   5.130   4.566   4.801
 3726SOL    HW112077   5.085   4.551   4.889
 3726SOL    HW212078   5.112   4.487   4.741
 3727SOL     OW12079   6.909   3.680   4.766
 3727SOL    HW112080   6.821   3.725   4.786
 3727SOL    HW212081   6.947   3.717   4.681
 3728SOL     OW12082   3.052   3.253   0.119
 3728SOL    HW112083   2.983   3.208   0.062
 3728SOL    HW212084   3.037   3.352   0.116
 3729SOL     OW12085   0.548   0.186   4.340
 3729SOL    HW112086   0.592   0.098   4.362
 3729SOL    HW212087   0.492   0.215   4.417
 3730SOL     OW12088   4.503   6.356   5.837
 3730SOL    HW112089   4.519   6.340   5.934
 3730SOL    HW212090   4.534   6.447   5.812
 3731SOL     OW12091   0.701   1.316   6.993
 3731SOL    HW112092   0.783   1.326   6.937
 3731SOL    HW212093   0.620   1.322   6.934
 3732SOL     OW12094   1.404   1.854   0.878
 3732SOL    HW112095   1.363   1.820   0.794
 3732SOL    HW212096   1.491   1.899   0.858
 3733SOL     OW12097   1.798   3.216   3.276
 3733SOL    HW112098   1.753   3.186   3.360
 3733SOL    HW212099   1.736   3.273   3.223
 3734SOL     OW12100   4.169   0.570   1.102
 3734SOL    HW112101   4.146   0.499   1.035
 3734SOL    HW212102   4.087   0.622   1.125
 3735SOL     OW12103   4.283   0.036   2.310
 3735SOL    HW112104   4.320   6.977   2.356
 3735SOL    HW212105   4.359   0.091   2.274
 3736SOL     OW12106   6.685   0.673   1.084
 3736SOL    HW112107   6.662   0.614   1.161
 3736SOL    HW212108   6.644   0.763   1.099
 3737SOL     OW12109   5.885   2.643   3.908
 3737SOL    HW112110   5.810   2.693   3.865
 3737SOL    HW212111   5.927   2.700   3.978
 3738SOL     OW12112   6.360   5.875   1.366
 3738SOL    HW112113   6.307   5.924   1.297
 3738SOL    HW212114   6.430   5.819   1.322
 3739SOL     OW12115   2.880   4.533   1.581
 3739SOL    HW112116   2.928   4.620   1.578
 3739SOL    HW212117   2.876   4.499   1.675
 3740SOL     OW12118   5.831   6.016   0.361
 3740SOL    HW112119   5.826   5.931   0.308
 3740SOL    HW212120   5.779   6.087   0.314
 3741SOL     OW12121   5.151   3.184   6.696
 3741SOL    HW112122   5.174   3.123   6.772
 3741SOL    HW212123   5.190   3.275   6.715
 3742SOL     OW12124   4.733   5.459   0.376
 3742SOL    HW112125   4.784   5.506   0.303
 3742SOL    HW212126   4.683   5.381   0.337
 3743SOL     OW12127   4.678   4.347   1.698
 3743SOL    HW112128   4.700   4.425   1.757
 3743SOL    HW212129   4.595   4.302   1.733
 3744SOL     OW12130   0.878   6.493   2.160
 3744SOL    HW112131   0.889   6.509   2.258
 3744SOL    HW212132   0.831   6.570   2.119
 3745SOL     OW12133   4.949   3.580   2.564
 3745SOL    HW112134   4.942   3.596   2.466
 3745SOL    HW212135   4.896   3.649   2.613
 3746SOL     OW12136   0.105   0.662   3.654
 3746SOL    HW112137   0.189   0.607   3.651
 3746SOL    HW212138   0.118   0.745   3.599
 3747SOL     OW12139   4.658   6.389   6.108
 3747SOL    HW112140   4.660   6.391   6.208
 3747SOL    HW212141   4.749   6.366   6.073
 3748SOL     OW12142   5.868   1.077   2.296
 3748SOL    HW112143   5.788   1.122   2.257
 3748SOL    HW212144   5.857   0.978   2.288
 3749SOL     OW12145   1.309   5.694   2.602
 3749SOL    HW112146   1.213   5.717   2.588
 3749SOL    HW212147   1.354   5.769   2.651
 3750SOL     OW12148   5.760   4.927   0.905
 3750SOL    HW112149   5.722   4.970   0.823
 3750SOL    HW212150   5.699   4.942   0.982
 3751SOL     OW12151   0.502   2.733   0.803
 3751SOL    HW112152   0.450   2.770   0.726
 3751SOL    HW212153   0.538   2.808   0.859
 3752SOL     OW12154   0.623   0.034   0.065
 3752SOL    HW112155   0.714   7.020   0.087
 3752SOL    HW212156   0.581   0.071   0.148
 3753SOL     OW12157   0.220   6.280   5.156
 3753SOL    HW112158   0.242   6.183   5.149
 3753SOL    HW212159   0.281   6.334   5.099
 3754SOL     OW12160   5.265   6.534   1.682
 3754SOL    HW112161   5.351   6.541   1.631
 3754SOL    HW212162   5.225   6.443   1.668
 3755SOL     OW12163   5.805   5.609   4.235
 3755SOL    HW112164   5.833   5.691   4.184
 3755SOL    HW212165   5.713   5.621   4.270
 3756SOL     OW12166   2.092   0.460   6.237
 3756SOL    HW112167   2.074   0.491   6.143
 3756SOL    HW212168   2.024   0.391   6.262
 3757SOL     OW12169   3.751   5.956   5.776
 3757SOL    HW112170   3.763   5.867   5.733
 3757SOL    HW212171   3.796   6.026   5.720
 3758SOL     OW12172   1.888   1.773   4.708
 3758SOL    HW112173   1.971   1.723   4.735
 3758SOL    HW212174   1.814   1.750   4.772
 3759SOL     OW12175   4.468   5.396   5.532
 3759SOL    HW112176   4.378   5.405   5.576
 3759SOL    HW212177   4.495   5.300   5.530
 3760SOL     OW12178   1.186   3.850   3.309
 3760SOL    HW112179   1.199   3.810   3.218
 3760SOL    HW212180   1.239   3.935   3.316
 3761SOL     OW12181   0.741   6.865   4.844
 3761SOL    HW112182   0.761   6.928   4.918
 3761SOL    HW212183   0.674   6.797   4.875
 3762SOL     OW12184   0.765   4.353   6.845
 3762SOL    HW112185   0.810   4.267   6.822
 3762SOL    HW212186   0.703   4.340   6.922
 3763SOL     OW12187   6.684   4.588   6.489
 3763SOL    HW112188   6.585   4.574   6.485
 3763SOL    HW212189   6.722   4.583   6.397
 3764SOL     OW12190   1.988   0.751   5.055
 3764SOL    HW112191   2.040   0.725   5.136
 3764SOL    HW212192   1.929   0.675   5.027
 3765SOL     OW12193   4.787   1.100   3.029
 3765SOL    HW112194   4.747   1.190   3.049
 3765SOL    HW212195   4.731   1.028   3.069
 3766SOL     OW12196   0.917   0.611   4.059
 3766SOL    HW112197   0.887   0.606   3.964
 3766SOL    HW212198   0.840   0.639   4.116
 3767SOL     OW12199   2.317   4.433   0.394
 3767SOL    HW112200   2.307   4.530   0.376
 3767SOL    HW212201   2.308   4.416   0.492
 3768SOL     OW12202   4.039   6.474   6.081
 3768SOL    HW112203   4.068   6.381   6.105
 3768SOL    HW212204   3.955   6.470   6.026
 3769SOL     OW12205   5.432   5.745   5.235
 3769SOL    HW112206   5.461   5.797   5.315
 3769SOL    HW212207   5.376   5.803   5.176
 3770SOL     OW12208   1.900   0.686   6.797
 3770SOL    HW112209   1.987   0.675   6.748
 3770SOL    HW212210   1.897   0.623   6.875
 3771SOL     OW12211   5.471   1.899   0.952
 3771SOL    HW112212   5.489   1.801   0.956
 3771SOL    HW212213   5.383   1.915   0.906
 3772SOL     OW12214   6.489   1.480   0.950
 3772SOL    HW112215   6.399   1.465   0.909
 3772SOL    HW212216   6.533   1.558   0.905
 3773SOL     OW12217   5.507   3.507   5.873
 3773SOL    HW112218   5.462   3.419   5.888
 3773SOL    HW212219   5.456   3.579   5.920
 3774SOL     OW12220   1.214   6.665   6.446
 3774SOL    HW112221   1.175   6.651   6.537
 3774SOL    HW212222   1.152   6.723   6.392
 3775SOL     OW12223   5.141   3.966   2.245
 3775SOL    HW112224   5.130   3.872   2.212
 3775SOL    HW212225   5.135   3.966   2.345
 3776SOL     OW12226   2.785   1.266   1.784
 3776SOL    HW112227   2.707   1.219   1.742
 3776SOL    HW212228   2.843   1.303   1.712
 3777SOL     OW12229   2.663   4.678   4.485
 3777SOL    HW112230   2.660   4.695   4.584
 3777SOL    HW212231   2.713   4.593   4.468
 3778SOL     OW12232   2.152   6.071   2.945
 3778SOL    HW112233   2.053   6.087   2.940
 3778SOL    HW212234   2.174   5.986   2.896
 3779SOL     OW12235   2.807   5.108   6.758
 3779SOL    HW112236   2.751   5.183   6.791
 3779SOL    HW212237   2.798   5.101   6.659
 3780SOL     OW12238   3.498   4.983   4.502
 3780SOL    HW112239   3.566   4.995   4.575
 3780SOL    HW212240   3.418   4.936   4.539
 3781SOL     OW12241   1.931   6.157   3.761
 3781SOL    HW112242   1.959   6.066   3.791
 3781SOL    HW212243   1.871   6.149   3.681
 3782SOL     OW12244   2.550   2.355   4.322
 3782SOL    HW112245   2.620   2.289   4.349
 3782SOL    HW212246   2.466   2.339   4.375
 3783SOL     OW12247   6.858   6.790   4.774
 3783SOL    HW112248   6.946   6.813   4.730
 3783SOL    HW212249   6.821   6.707   4.732
 3784SOL     OW12250   5.156   1.808   3.052
 3784SOL    HW112251   5.201   1.798   3.141
 3784SOL    HW212252   5.141   1.905   3.033
 3785SOL     OW12253   2.038   1.152   0.050
 3785SOL    HW112254   2.032   1.189   0.143
 3785SOL    HW212255   2.063   1.056   0.054
 3786SOL     OW12256   2.905   5.454   3.287
 3786SOL    HW112257   2.826   5.484   3.340
 3786SOL    HW212258   2.882   5.452   3.190
 3787SOL     OW12259   5.718   6.667   3.462
 3787SOL    HW112260   5.626   6.638   3.491
 3787SOL    HW212261   5.761   6.594   3.410
 3788SOL     OW12262   6.358   3.121   3.748
 3788SOL    HW112263   6.438   3.178   3.769
 3788SOL    HW212264   6.388   3.029   3.724
 3789SOL     OW12265   1.734   4.270   4.363
 3789SOL    HW112266   1.769   4.243   4.452
 3789SOL    HW212267   1.771   4.210   4.293
 3790SOL     OW12268   2.148   3.534   5.096
 3790SOL    HW112269   2.093   3.451   5.091
 3790SOL    HW212270   2.157   3.574   5.005
 3791SOL     OW12271   5.767   0.121   0.681
 3791SOL    HW112272   5.750   0.027   0.652
 3791SOL    HW212273   5.824   0.167   0.613
 3792SOL     OW12274   6.916   0.573   4.969
 3792SOL    HW112275   6.942   0.532   5.056
 3792SOL    HW212276   6.984   0.551   4.899
 3793SOL     OW12277   2.582   0.643   2.909
 3793SOL    HW112278   2.556   0.709   2.980
 3793SOL    HW212279   2.507   0.577   2.896
 3794SOL     OW12280   3.946   5.352   1.646
 3794SOL    HW112281   3.880   5.423   1.671
 3794SOL    HW212282   3.902   5.263   1.651
 3795SOL     OW12283   3.829   6.795   6.380
 3795SOL    HW112284   3.864   6.833   6.465
 3795SOL    HW212285   3.851   6.857   6.305
 3796SOL     OW12286   1.902   2.171   1.754
 3796SOL    HW112287   1.856   2.211   1.674
 3796SOL    HW212288   1.919   2.242   1.822
 3797SOL     OW12289   6.591   5.457   2.534
 3797SOL    HW112290   6.492   5.441   2.541
 3797SOL    HW212291   6.622   5.512   2.611
 3798SOL     OW12292   2.428   5.310   3.128
 3798SOL    HW112293   2.474   5.238   3.077
 3798SOL    HW212294   2.392   5.379   3.064
 3799SOL     OW12295   1.251   2.640   4.219
 3799SOL    HW112296   1.185   2.714   4.203
 3799SOL    HW212297   1.218   2.556   4.177
 3800SOL     OW12298   5.254   2.254   5.068
 3800SOL    HW112299   5.211   2.333   5.111
 3800SOL    HW212300   5.233   2.172   5.120
 3801SOL     OW12301   6.450   5.813   5.603
 3801SOL    HW112302   6.439   5.901   5.650
 3801SOL    HW212303   6.375   5.752   5.627
 3802SOL     OW12304   1.267   1.891   5.118
 3802SOL    HW112305   1.243   1.959   5.048
 3802SOL    HW212306   1.190   1.829   5.131
 3803SOL     OW12307   3.789   1.046   2.338
 3803SOL    HW112308   3.749   1.061   2.247
 3803SOL    HW212309   3.869   0.986   2.329
 3804SOL     OW12310   4.764   2.448   4.685
 3804SOL    HW112311   4.810   2.376   4.632
 3804SOL    HW212312   4.831   2.496   4.741
 3805SOL     OW12313   2.873   3.988   1.762
 3805SOL    HW112314   2.964   4.006   1.797
 3805SOL    HW212315   2.858   3.889   1.757
 3806SOL     OW12316   2.665   2.712   0.032
 3806SOL    HW112317   2.765   2.712   0.029
 3806SOL    HW212318   2.634   2.719   0.127
 3807SOL     OW12319   2.192   1.367   4.617
 3807SOL    HW112320   2.288   1.377   4.640
 3807SOL    HW212321   2.173   1.419   4.533
 3808SOL     OW12322   3.002   0.567   2.252
 3808SOL    HW112323   3.089   0.600   2.290
 3808SOL    HW212324   2.942   0.645   2.234
 3809SOL     OW12325   5.844   2.271   6.979
 3809SOL    HW112326   5.933   2.232   6.956
 3809SOL    HW212327   5.786   2.200   7.019
 3810SOL     OW12328   4.047   2.925   5.283
 3810SOL    HW112329   3.978   2.873   5.232
 3810SOL    HW212330   4.032   3.023   5.267
 3811SOL     OW12331   0.813   4.428   3.815
 3811SOL    HW112332   0.876   4.407   3.740
 3811SOL    HW212333   0.728   4.466   3.778
 3812SOL     OW12334   5.539   1.435   5.261
 3812SOL    HW112335   5.486   1.370   5.316
 3812SOL    HW212336   5.622   1.390   5.228
 3813SOL     OW12337   4.402   4.011   0.874
 3813SOL    HW112338   4.472   3.950   0.838
 3813SOL    HW212339   4.439   4.060   0.954
 3814SOL     OW12340   0.040   6.513   0.997
 3814SOL    HW112341   7.016   6.496   1.084
 3814SOL    HW212342   0.116   6.450   0.986
 3815SOL     OW12343   4.877   2.398   0.615
 3815SOL    HW112344   4.779   2.395   0.633
 3815SOL    HW212345   4.908   2.307   0.588
 3816SOL     OW12346   6.858   6.428   1.685
 3816SOL    HW112347   6.848   6.451   1.782
 3816SOL    HW212348   6.931   6.484   1.645
 3817SOL     OW12349   4.881   3.092   4.208
 3817SOL    HW112350   4.819   3.017   4.229
 3817SOL    HW212351   4.959   3.058   4.156
 3818SOL     OW12352   4.486   6.462   1.560
 3818SOL    HW112353   4.393   6.427   1.547
 3818SOL    HW212354   4.506   6.530   1.490
 3819SOL     OW12355   5.744   5.331   0.417
 3819SOL    HW112356   5.649   5.363   0.421
 3819SOL    HW212357   5.771   5.323   0.321
 3820SOL     OW12358   6.240   6.125   3.420
 3820SOL    HW112359   6.337   6.102   3.406
 3820SOL    HW212360   6.200   6.060   3.485
 3821SOL     OW12361   1.357   3.082   2.013
 3821SOL    HW112362   1.380   3.009   2.078
 3821SOL    HW212363   1.441   3.126   1.982
 3822SOL     OW12364   1.195   5.309   2.130
 3822SOL    HW112365   1.126   5.382   2.121
 3822SOL    HW212366   1.181   5.242   2.057
 3823SOL     OW12367   4.029   2.221   5.111
 3823SOL    HW112368   3.976   2.216   5.196
 3823SOL    HW212369   4.087   2.302   5.112
 3824SOL     OW12370   6.256   1.693   5.257
 3824SOL    HW112371   6.218   1.679   5.348
 3824SOL    HW212372   6.271   1.790   5.241
 3825SOL     OW12373   6.812   0.435   0.076
 3825SOL    HW112374   6.828   0.503   0.005
 3825SOL    HW212375   6.865   0.352   0.056
 3826SOL     OW12376   0.120   3.628   0.273
 3826SOL    HW112377   0.153   3.556   0.334
 3826SOL    HW212378   0.032   3.601   0.234
 3827SOL     OW12379   3.929   3.895   1.113
 3827SOL    HW112380   3.866   3.901   1.190
 3827SOL    HW212381   3.899   3.957   1.040
 3828SOL     OW12382   4.317   2.273   0.609
 3828SOL    HW112383   4.358   2.323   0.532
 3828SOL    HW212384   4.364   2.186   0.620
 3829SOL     OW12385   2.397   4.902   3.941
 3829SOL    HW112386   2.369   4.912   3.846
 3829SOL    HW212387   2.317   4.916   4.001
 3830SOL     OW12388   1.373   0.128   5.378
 3830SOL    HW112389   1.468   0.157   5.378
 3830SOL    HW212390   1.337   0.130   5.471
 3831SOL     OW12391   4.528   1.728   2.289
 3831SOL    HW112392   4.507   1.691   2.199
 3831SOL    HW212393   4.557   1.653   2.350
 3832SOL     OW12394   6.453   0.902   1.598
 3832SOL    HW112395   6.495   0.899   1.689
 3832SOL    HW212396   6.363   0.944   1.604
 3833SOL     OW12397   0.654   5.107   6.842
 3833SOL    HW112398   0.593   5.028   6.851
 3833SOL    HW212399   0.749   5.076   6.837
 3834SOL     OW12400   2.633   2.042   6.966
 3834SOL    HW112401   2.719   1.998   6.992
 3834SOL    HW212402   2.563   1.972   6.951
 3835SOL     OW12403   3.736   5.704   5.665
 3835SOL    HW112404   3.766   5.621   5.618
 3835SOL    HW212405   3.664   5.748   5.613
 3836SOL     OW12406   1.764   3.718   5.781
 3836SOL    HW112407   1.763   3.634   5.728
 3836SOL    HW212408   1.858   3.738   5.810
 3837SOL     OW12409   4.546   3.478   0.504
 3837SOL    HW112410   4.495   3.523   0.578
 3837SOL    HW212411   4.582   3.548   0.442
 3838SOL     OW12412   5.511   3.167   4.725
 3838SOL    HW112413   5.580   3.149   4.795
 3838SOL    HW212414   5.421   3.138   4.759
 3839SOL     OW12415   5.095   0.323   5.177
 3839SOL    HW112416   5.154   0.316   5.097
 3839SOL    HW212417   5.129   0.263   5.249
 3840SOL     OW12418   1.344   0.559   4.947
 3840SOL    HW112419   1.267   0.551   4.884
 3840SOL    HW212420   1.419   0.502   4.914
 3841SOL     OW12421   0.521   3.844   5.067
 3841SOL    HW112422   0.473   3.908   5.006
 3841SOL    HW212423   0.578   3.782   5.012
 3842SOL     OW12424   0.784   5.470   6.931
 3842SOL    HW112425   0.775   5.566   6.957
 3842SOL    HW212426   0.748   5.457   6.839
 3843SOL     OW12427   0.060   3.430   0.512
 3843SOL    HW112428   0.128   3.402   0.445
 3843SOL    HW212429   6.991   3.432   0.470
 3844SOL     OW12430   1.357   5.234   5.797
 3844SOL    HW112431   1.441   5.232   5.743
 3844SOL    HW212432   1.293   5.299   5.756
 3845SOL     OW12433   3.248   2.971   2.794
 3845SOL    HW112434   3.172   3.031   2.768
 3845SOL    HW212435   3.313   3.022   2.851
 3846SOL     OW12436   0.001   4.982   3.990
 3846SOL    HW112437   0.084   4.939   4.026
 3846SOL    HW212438   6.979   4.921   3.924
 3847SOL     OW12439   6.189   1.203   6.644
 3847SOL    HW112440   6.263   1.144   6.612
 3847SOL    HW212441   6.102   1.154   6.638
 3848SOL     OW12442   2.203   5.335   2.372
 3848SOL    HW112443   2.148   5.254   2.347
 3848SOL    HW212444   2.219   5.334   2.470
 3849SOL     OW12445   0.788   1.311   5.751
 3849SOL    HW112446   0.722   1.364   5.698
 3849SOL    HW212447   0.834   1.371   5.816
 3850SOL     OW12448   2.761   3.265   1.809
 3850SOL    HW112449   2.791   3.246   1.903
 3850SOL    HW212450   2.827   3.325   1.765
 3851SOL     OW12451   2.367   4.331   2.892
 3851SOL    HW112452   2.400   4.261   2.828
 3851SOL    HW212453   2.356   4.290   2.983
 3852SOL     OW12454   4.522   0.479   4.802
 3852SOL    HW112455   4.580   0.559   4.786
 3852SOL    HW212456   4.541   0.411   4.731
 3853SOL     OW12457   0.581   3.083   2.894
 3853SOL    HW112458   0.612   3.150   2.962
 3853SOL    HW212459   0.481   3.078   2.895
 3854SOL     OW12460   0.942   3.805   3.418
 3854SOL    HW112461   0.949   3.815   3.518
 3854SOL    HW212462   1.030   3.824   3.376
 3855SOL     OW12463   5.920   4.971   6.029
 3855SOL    HW112464   5.855   4.974   5.952
 3855SOL    HW212465   5.930   5.062   6.067
 3856SOL     OW12466   0.653   0.243   6.014
 3856SOL    HW112467   0.622   0.296   5.936
 3856SOL    HW212468   0.614   0.151   6.011
 3857SOL     OW12469   1.649   6.799   4.915
 3857SOL    HW112470   1.631   6.842   4.827
 3857SOL    HW212471   1.745   6.812   4.940
 3858SOL     OW12472   1.057   6.229   6.296
 3858SOL    HW112473   1.131   6.197   6.237
 3858SOL    HW212474   1.038   6.325   6.275
 3859SOL     OW12475   6.633   2.419   4.020
 3859SOL    HW112476   6.593   2.331   4.044
 3859SOL    HW212477   6.666   2.465   4.102
 3860SOL     OW12478   2.228   5.519   4.933
 3860SOL    HW112479   2.129   5.515   4.951
 3860SOL    HW212480   2.243   5.552   4.840
 3861SOL     OW12481   5.520   4.879   1.068
 3861SOL    HW112482   5.432   4.893   1.113
 3861SOL    HW212483   5.574   4.813   1.120
 3862SOL     OW12484   0.362   0.163   6.313
 3862SOL    HW112485   0.336   0.131   6.222
 3862SOL    HW212486   0.312   0.247   6.335
 3863SOL     OW12487   3.343   3.760   0.786
 3863SOL    HW112488   3.384   3.713   0.708
 3863SOL    HW212489   3.315   3.852   0.759
 3864SOL     OW12490   3.638   1.727   6.805
 3864SOL    HW112491   3.638   1.660   6.731
 3864SOL    HW212492   3.685   1.688   6.884
 3865SOL     OW12493   3.810   6.969   2.103
 3865SOL    HW112494   3.791   6.872   2.090
 3865SOL    HW212495   3.855   6.983   2.191
 3866SOL     OW12496   4.008   0.238   1.048
 3866SOL    HW112497   4.002   0.333   1.017
 3866SOL    HW212498   4.103   0.216   1.070
 3867SOL     OW12499   1.918   3.875   3.202
 3867SOL    HW112500   1.963   3.810   3.262
 3867SOL    HW212501   1.891   3.829   3.117
 3868SOL     OW12502   1.994   6.416   1.647
 3868SOL    HW112503   2.004   6.326   1.604
 3868SOL    HW212504   1.901   6.449   1.630
 3869SOL     OW12505   6.897   2.416   3.281
 3869SOL    HW112506   6.947   2.363   3.349
 3869SOL    HW212507   6.955   2.430   3.200
 3870SOL     OW12508   3.149   4.867   0.128
 3870SOL    HW112509   3.205   4.841   0.050
 3870SOL    HW212510   3.112   4.959   0.114
 3871SOL     OW12511   3.442   6.970   2.683
 3871SOL    HW112512   3.433   0.017   2.756
 3871SOL    HW212513   3.371   6.901   2.694
 3872SOL     OW12514   3.996   3.394   1.367
 3872SOL    HW112515   4.091   3.408   1.339
 3872SOL    HW212516   3.972   3.298   1.354
 3873SOL     OW12517   5.116   5.463   1.059
 3873SOL    HW112518   5.090   5.538   0.999
 3873SOL    HW212519   5.132   5.497   1.152
 3874SOL     OW12520   4.044   6.391   6.918
 3874SOL    HW112521   4.044   6.484   6.955
 3874SOL    HW212522   4.128   6.377   6.865
 3875SOL     OW12523   1.579   4.673   1.760
 3875SOL    HW112524   1.486   4.651   1.789
 3875SOL    HW212525   1.645   4.620   1.814
 3876SOL     OW12526   6.036   5.108   4.800
 3876SOL    HW112527   5.948   5.154   4.804
 3876SOL    HW212528   6.030   5.030   4.738
 3877SOL     OW12529   6.068   1.184   2.424
 3877SOL    HW112530   6.065   1.283   2.412
 3877SOL    HW212531   5.983   1.144   2.390
 3878SOL     OW12532   3.976   6.901   6.186
 3878SOL    HW112533   4.068   6.936   6.168
 3878SOL    HW212534   3.938   6.864   6.101
 3879SOL     OW12535   4.439   5.743   1.658
 3879SOL    HW112536   4.421   5.839   1.678
 3879SOL    HW212537   4.355   5.690   1.668
 3880SOL     OW12538   5.748   3.564   2.438
 3880SOL    HW112539   5.709   3.635   2.379
 3880SOL    HW212540   5.811   3.507   2.386
 3881SOL     OW12541   1.289   4.848   0.986
 3881SOL    HW112542   1.377   4.800   0.988
 3881SOL    HW212543   1.280   4.897   0.899
 3882SOL     OW12544   5.994   1.377   6.117
 3882SOL    HW112545   5.989   1.463   6.067
 3882SOL    HW212546   5.982   1.301   6.053
 3883SOL     OW12547   4.505   1.596   3.812
 3883SOL    HW112548   4.460   1.666   3.756
 3883SOL    HW212549   4.493   1.507   3.769
 3884SOL     OW12550   1.595   6.089   5.036
 3884SOL    HW112551   1.556   6.091   4.944
 3884SOL    HW212552   1.622   5.996   5.059
 3885SOL     OW12553   0.178   1.347   3.947
 3885SOL    HW112554   0.089   1.302   3.950
 3885SOL    HW212555   0.172   1.437   3.988
 3886SOL     OW12556   6.688   0.451   5.330
 3886SOL    HW112557   6.762   0.460   5.264
 3886SOL    HW212558   6.648   0.541   5.348
 3887SOL     OW12559   4.079   1.793   5.421
 3887SOL    HW112560   4.032   1.818   5.505
 3887SOL    HW212561   4.149   1.724   5.441
 3888SOL     OW12562   6.302   1.749   0.720
 3888SOL    HW112563   6.235   1.710   0.783
 3888SOL    HW212564   6.394   1.725   0.751
 3889SOL     OW12565   0.652   5.661   6.139
 3889SOL    HW112566   0.591   5.589   6.106
 3889SOL    HW212567   0.665   5.650   6.238
 3890SOL     OW12568   5.513   5.298   3.158
 3890SOL    HW112569   5.607   5.266   3.148
 3890SOL    HW212570   5.454   5.246   3.096
 3891SOL     OW12571   5.358   5.301   4.638
 3891SOL    HW112572   5.368   5.319   4.736
 3891SOL    HW212573   5.298   5.223   4.624
 3892SOL     OW12574   6.095   6.552   2.837
 3892SOL    HW112575   6.100   6.488   2.760
 3892SOL    HW212576   6.016   6.612   2.825
 3893SOL     OW12577   2.934   5.360   4.413
 3893SOL    HW112578   3.025   5.401   4.423
 3893SOL    HW212579   2.942   5.261   4.420
 3894SOL     OW12580   4.397   3.304   0.317
 3894SOL    HW112581   4.303   3.274   0.330
 3894SOL    HW212582   4.423   3.365   0.392
 3895SOL     OW12583   2.277   1.297   5.881
 3895SOL    HW112584   2.340   1.318   5.956
 3895SOL    HW212585   2.302   1.351   5.801
 3896SOL     OW12586   6.950   2.837   5.107
 3896SOL    HW112587   6.904   2.899   5.170
 3896SOL    HW212588   6.921   2.857   5.013
 3897SOL     OW12589   3.461   6.817   2.037
 3897SOL    HW112590   3.476   6.915   2.040
 3897SOL    HW212591   3.545   6.771   2.010
 3898SOL     OW12592   4.018   3.841   4.428
 3898SOL    HW112593   4.004   3.777   4.352
 3898SOL    HW212594   3.959   3.921   4.415
 3899SOL     OW12595   4.549   1.481   5.901
 3899SOL    HW112596   4.528   1.398   5.954
 3899SOL    HW212597   4.600   1.545   5.959
 3900SOL     OW12598   6.339   2.705   3.078
 3900SOL    HW112599   6.283   2.642   3.023
 3900SOL    HW212600   6.359   2.787   3.025
 3901SOL     OW12601   1.034   6.929   4.951
 3901SOL    HW112602   1.111   6.993   4.949
 3901SOL    HW212603   1.042   6.864   4.875
 3902SOL     OW12604   5.105   5.118   1.858
 3902SOL    HW112605   5.097   5.048   1.930
 3902SOL    HW212606   5.183   5.097   1.800
 3903SOL     OW12607   4.284   3.015   6.812
 3903SOL    HW112608   4.316   2.960   6.735
 3903SOL    HW212609   4.330   2.985   6.895
 3904SOL     OW12610   1.356   6.101   0.894
 3904SOL    HW112611   1.450   6.075   0.914
 3904SOL    HW212612   1.351   6.199   0.874
 3905SOL     OW12613   6.671   0.533   5.839
 3905SOL    HW112614   6.745   0.554   5.903
 3905SOL    HW212615   6.709   0.484   5.760
 3906SOL     OW12616   1.598   4.891   4.263
 3906SOL    HW112617   1.571   4.840   4.181
 3906SOL    HW212618   1.599   4.829   4.342
 3907SOL     OW12619   6.914   1.462   4.009
 3907SOL    HW112620   6.913   1.390   3.939
 3907SOL    HW212621   6.964   1.541   3.974
 3908SOL     OW12622   1.552   0.364   4.897
 3908SOL    HW112623   1.642   0.371   4.855
 3908SOL    HW212624   1.484   0.345   4.826
 3909SOL     OW12625   5.520   2.918   5.820
 3909SOL    HW112626   5.530   2.993   5.754
 3909SOL    HW212627   5.491   2.835   5.772
 3910SOL     OW12628   3.690   2.409   0.405
 3910SOL    HW112629   3.685   2.500   0.444
 3910SOL    HW212630   3.605   2.359   0.424
 3911SOL     OW12631   6.166   0.654   1.579
 3911SOL    HW112632   6.175   0.632   1.481
 3911SOL    HW212633   6.159   0.753   1.590
 3912SOL     OW12634   3.984   1.969   6.958
 3912SOL    HW112635   3.916   1.986   6.887
 3912SOL    HW212636   4.065   2.025   6.942
 3913SOL     OW12637   4.373   5.544   0.671
 3913SOL    HW112638   4.405   5.501   0.755
 3913SOL    HW212639   4.336   5.634   0.692
 3914SOL     OW12640   5.581   1.013   0.913
 3914SOL    HW112641   5.602   1.070   0.834
 3914SOL    HW212642   5.560   0.920   0.882
 3915SOL     OW12643   4.456   5.149   0.174
 3915SOL    HW112644   4.387   5.163   0.103
 3915SOL    HW212645   4.532   5.096   0.138
 3916SOL     OW12646   1.816   0.594   2.500
 3916SOL    HW112647   1.733   0.635   2.462
 3916SOL    HW212648   1.816   0.605   2.599
 3917SOL     OW12649   2.750   4.959   1.023
 3917SOL    HW112650   2.698   4.985   0.942
 3917SOL    HW212651   2.814   5.032   1.047
 3918SOL     OW12652   5.505   0.773   0.793
 3918SOL    HW112653   5.417   0.770   0.745
 3918SOL    HW212654   5.524   0.683   0.831
 3919SOL     OW12655   3.856   0.229   1.642
 3919SOL    HW112656   3.838   0.213   1.740
 3919SOL    HW212657   3.824   0.320   1.617
 3920SOL     OW12658   3.250   0.965   5.766
 3920SOL    HW112659   3.265   0.998   5.673
 3920SOL    HW212660   3.217   0.871   5.763
 3921SOL     OW12661   0.827   2.609   6.524
 3921SOL    HW112662   0.900   2.622   6.591
 3921SOL    HW212663   0.782   2.697   6.507
 3922SOL     OW12664   4.815   5.009   2.693
 3922SOL    HW112665   4.907   4.983   2.722
 3922SOL    HW212666   4.806   4.994   2.594
 3923SOL     OW12667   5.165   0.708   1.554
 3923SOL    HW112668   5.111   0.625   1.566
 3923SOL    HW212669   5.115   0.772   1.495
 3924SOL     OW12670   6.377   4.434   4.248
 3924SOL    HW112671   6.464   4.466   4.211
 3924SOL    HW212672   6.383   4.337   4.271
 3925SOL     OW12673   4.558   3.681   0.767
 3925SOL    HW112674   4.509   3.614   0.823
 3925SOL    HW212675   4.591   3.755   0.826
 3926SOL     OW12676   0.315   0.223   5.355
 3926SOL    HW112677   0.248   0.218   5.429
 3926SOL    HW212678   0.404   0.193   5.388
 3927SOL     OW12679   6.345   2.871   5.249
 3927SOL    HW112680   6.418   2.936   5.269
 3927SOL    HW212681   6.294   2.852   5.332
 3928SOL     OW12682   2.081   6.175   2.658
 3928SOL    HW112683   2.143   6.118   2.712
 3928SOL    HW212684   2.072   6.265   2.700
 3929SOL     OW12685   0.667   1.853   5.486
 3929SOL    HW112686   0.654   1.779   5.420
 3929SOL    HW212687   0.672   1.940   5.438
 3930SOL     OW12688   0.898   4.054   3.621
 3930SOL    HW112689   0.906   3.967   3.670
 3930SOL    HW212690   0.967   4.057   3.549
 3931SOL     OW12691   1.288   2.220   1.368
 3931SOL    HW112692   1.341   2.233   1.284
 3931SOL    HW212693   1.276   2.308   1.413
 3932SOL     OW12694   1.559   5.652   4.144
 3932SOL    HW112695   1.479   5.656   4.084
 3932SOL    HW212696   1.640   5.628   4.090
 3933SOL     OW12697   2.246   4.814   0.580
 3933SOL    HW112698   2.251   4.764   0.493
 3933SOL    HW212699   2.260   4.750   0.656
 3934SOL     OW12700   0.439   1.509   1.882
 3934SOL    HW112701   0.514   1.575   1.881
 3934SOL    HW212702   0.416   1.486   1.976
 3935SOL     OW12703   6.046   3.562   6.656
 3935SOL    HW112704   6.135   3.551   6.611
 3935SOL    HW212705   5.975   3.566   6.586
 3936SOL     OW12706   0.482   5.256   5.727
 3936SOL    HW112707   0.478   5.192   5.650
 3936SOL    HW212708   0.487   5.350   5.693
 3937SOL     OW12709   7.008   0.339   2.221
 3937SOL    HW112710   0.065   0.344   2.159
 3937SOL    HW212711   6.983   0.244   2.235
 3938SOL     OW12712   0.673   4.265   2.961
 3938SOL    HW112713   0.658   4.279   3.059
 3938SOL    HW212714   0.625   4.337   2.910
 3939SOL     OW12715   0.958   0.816   2.223
 3939SOL    HW112716   0.884   0.872   2.260
 3939SOL    HW212717   0.979   0.846   2.130
 3940SOL     OW12718   2.941   4.778   1.247
 3940SOL    HW112719   2.966   4.873   1.267
 3940SOL    HW212720   2.962   4.757   1.151
 3941SOL     OW12721   6.252   0.002   4.261
 3941SOL    HW112722   6.312   0.022   4.184
 3941SOL    HW212723   6.177   0.068   4.263
 3942SOL     OW12724   7.020   6.047   6.013
 3942SOL    HW112725   0.016   5.963   5.963
 3942SOL    HW212726   0.085   6.085   6.047
 3943SOL     OW12727   1.469   2.876   0.380
 3943SOL    HW112728   1.466   2.890   0.479
 3943SOL    HW212729   1.480   2.778   0.361
 3944SOL     OW12730   6.020   1.956   6.597
 3944SOL    HW112731   6.101   1.906   6.629
 3944SOL    HW212732   5.938   1.902   6.615
 3945SOL     OW12733   6.999   1.275   2.854
 3945SOL    HW112734   6.947   1.334   2.792
 3945SOL    HW212735   0.045   1.330   2.903
 3946SOL     OW12736   0.939   3.037   0.783
 3946SOL    HW112737   0.901   3.109   0.841
 3946SOL    HW212738   1.029   3.064   0.751
 3947SOL     OW12739   6.037   4.940   1.495
 3947SOL    HW112740   5.985   4.869   1.448
 3947SOL    HW212741   5.987   5.026   1.490
 3948SOL     OW12742   1.403   2.297   6.610
 3948SOL    HW112743   1.479   2.244   6.573
 3948SOL    HW212744   1.381   2.372   6.548
 3949SOL     OW12745   5.902   6.404   2.359
 3949SOL    HW112746   5.908   6.477   2.427
 3949SOL    HW212747   5.989   6.356   2.355
 3950SOL     OW12748   3.114   4.613   1.387
 3950SOL    HW112749   3.083   4.697   1.342
 3950SOL    HW212750   3.057   4.536   1.355
 3951SOL     OW12751   0.944   2.157   5.655
 3951SOL    HW112752   0.995   2.082   5.613
 3951SOL    HW212753   0.951   2.239   5.599
 3952SOL     OW12754   6.393   3.851   5.355
 3952SOL    HW112755   6.329   3.779   5.329
 3952SOL    HW212756   6.462   3.812   5.417
 3953SOL     OW12757   3.662   4.434   6.057
 3953SOL    HW112758   3.628   4.410   5.966
 3953SOL    HW212759   3.714   4.357   6.094
 3954SOL     OW12760   0.860   3.294   5.450
 3954SOL    HW112761   0.888   3.370   5.393
 3954SOL    HW212762   0.799   3.327   5.522
 3955SOL     OW12763   5.745   5.003   6.859
 3955SOL    HW112764   5.727   4.972   6.765
 3955SOL    HW212765   5.777   4.925   6.914
 3956SOL     OW12766   1.127   2.666   5.607
 3956SOL    HW112767   1.181   2.610   5.671
 3956SOL    HW212768   1.187   2.730   5.560
 3957SOL     OW12769   1.747   0.266   3.266
 3957SOL    HW112770   1.769   0.216   3.182
 3957SOL    HW212771   1.654   0.303   3.259
 3958SOL     OW12772   5.665   6.444   5.267
 3958SOL    HW112773   5.645   6.387   5.187
 3958SOL    HW212774   5.762   6.467   5.268
 3959SOL     OW12775   2.462   5.107   0.096
 3959SOL    HW112776   2.528   5.149   0.159
 3959SOL    HW212777   2.454   5.010   0.116
 3960SOL     OW12778   4.156   3.183   0.323
 3960SOL    HW112779   4.110   3.155   0.408
 3960SOL    HW212780   4.090   3.186   0.249
 3961SOL     OW12781   5.018   0.906   1.433
 3961SOL    HW112782   4.957   0.909   1.512
 3961SOL    HW212783   4.963   0.913   1.349
 3962SOL     OW12784   0.564   0.434   5.800
 3962SOL    HW112785   0.632   0.507   5.804
 3962SOL    HW212786   0.514   0.438   5.714
 3963SOL     OW12787   4.605   5.471   3.135
 3963SOL    HW112788   4.701   5.499   3.129
 3963SOL    HW212789   4.564   5.509   3.218
 3964SOL     OW12790   5.372   5.932   5.042
 3964SOL    HW112791   5.399   5.997   4.971
 3964SOL    HW212792   5.278   5.952   5.070
 3965SOL     OW12793   3.604   3.460   0.392
 3965SOL    HW112794   3.674   3.409   0.442
 3965SOL    HW212795   3.645   3.538   0.346
 3966SOL     OW12796   5.983   3.933   5.308
 3966SOL    HW112797   5.994   4.026   5.272
 3966SOL    HW212798   6.020   3.868   5.242
 3967SOL     OW12799   0.456   5.461   6.101
 3967SOL    HW112800   0.388   5.493   6.035
 3967SOL    HW212801   0.425   5.374   6.140
 3968SOL     OW12802   6.094   0.893   1.952
 3968SOL    HW112803   6.067   0.863   2.043
 3968SOL    HW212804   6.184   0.937   1.957
 3969SOL     OW12805   0.461   4.984   2.373
 3969SOL    HW112806   0.526   5.013   2.444
 3969SOL    HW212807   0.387   5.051   2.366
 3970SOL     OW12808   5.393   4.500   2.767
 3970SOL    HW112809   5.411   4.402   2.764
 3970SOL    HW212810   5.429   4.538   2.853
 3971SOL     OW12811   1.545   6.208   2.942
 3971SOL    HW112812   1.636   6.189   2.904
 3971SOL    HW212813   1.554   6.231   3.039
 3972SOL     OW12814   1.250   0.019   6.974
 3972SOL    HW112815   1.323   7.004   6.917
 3972SOL    HW212816   1.173   0.048   6.917
 3973SOL     OW12817   3.191   3.477   4.354
 3973SOL    HW112818   3.222   3.468   4.448
 3973SOL    HW212819   3.091   3.471   4.351
 3974SOL     OW12820   5.909   1.753   6.940
 3974SOL    HW112821   5.888   1.690   6.865
 3974SOL    HW212822   5.878   1.712   0.005
 3975SOL     OW12823   0.129   0.583   5.783
 3975SOL    HW112824   0.201   0.555   5.846
 3975SOL    HW212825   0.153   0.555   5.690
 3976SOL     OW12826   0.755   3.144   1.007
 3976SOL    HW112827   0.764   3.204   0.927
 3976SOL    HW212828   0.678   3.082   0.993
 3977SOL     OW12829   3.466   6.039   6.454
 3977SOL    HW112830   3.522   6.038   6.371
 3977SOL    HW212831   3.370   6.025   6.430
 3978SOL     OW12832   6.275   3.094   6.239
 3978SOL    HW112833   6.228   3.181   6.254
 3978SOL    HW212834   6.288   3.048   6.327
 3979SOL     OW12835   0.934   6.858   2.366
 3979SOL    HW112836   0.852   6.903   2.400
 3979SOL    HW212837   0.958   6.781   2.425
 3980SOL     OW12838   4.954   3.412   4.539
 3980SOL    HW112839   5.050   3.416   4.566
 3980SOL    HW212840   4.917   3.321   4.560
 3981SOL     OW12841   6.860   1.704   7.003
 3981SOL    HW112842   6.788   1.643   0.016
 3981SOL    HW212843   6.820   1.769   6.938
 3982SOL     OW12844   2.159   1.858   3.778
 3982SOL    HW112845   2.163   1.842   3.679
 3982SOL    HW212846   2.091   1.929   3.798
 3983SOL     OW12847   2.959   6.025   4.500
 3983SOL    HW112848   2.960   6.037   4.400
 3983SOL    HW212849   2.889   6.085   4.539
 3984SOL     OW12850   2.365   6.527   1.172
 3984SOL    HW112851   2.312   6.503   1.253
 3984SOL    HW212852   2.303   6.537   1.094
 3985SOL     OW12853   2.292   2.876   1.568
 3985SOL    HW112854   2.283   2.884   1.469
 3985SOL    HW212855   2.381   2.911   1.596
 3986SOL     OW12856   0.372   2.008   1.854
 3986SOL    HW112857   0.467   2.011   1.884
 3986SOL    HW212858   0.326   1.929   1.894
 3987SOL     OW12859   2.757   4.762   6.461
 3987SOL    HW112860   2.672   4.798   6.500
 3987SOL    HW212861   2.833   4.787   6.521
 3988SOL     OW12862   4.014   3.111   0.553
 3988SOL    HW112863   4.004   3.012   0.541
 3988SOL    HW212864   4.082   3.129   0.624
 3989SOL     OW12865   4.901   6.564   6.796
 3989SOL    HW112866   4.939   6.625   6.866
 3989SOL    HW212867   4.886   6.616   6.712
 3990SOL     OW12868   0.946   3.459   3.271
 3990SOL    HW112869   1.018   3.508   3.320
 3990SOL    HW212870   0.858   3.473   3.317
 3991SOL     OW12871   0.236   2.235   4.150
 3991SOL    HW112872   0.315   2.268   4.202
 3991SOL    HW212873   0.268   2.189   4.067
 3992SOL     OW12874   4.421   3.591   6.238
 3992SOL    HW112875   4.490   3.522   6.260
 3992SOL    HW212876   4.342   3.580   6.298
 3993SOL     OW12877   2.787   2.356   2.951
 3993SOL    HW112878   2.807   2.322   2.859
 3993SOL    HW212879   2.771   2.454   2.948
 3994SOL     OW12880   2.199   3.117   3.698
 3994SOL    HW112881   2.191   3.199   3.641
 3994SOL    HW212882   2.204   3.145   3.795
 3995SOL     OW12883   2.142   3.938   2.979
 3995SOL    HW112884   2.090   3.874   3.037
 3995SOL    HW212885   2.114   3.927   2.884
 3996SOL     OW12886   0.221   1.195   3.020
 3996SOL    HW112887   0.188   1.120   3.076
 3996SOL    HW212888   0.157   1.272   3.025
 3997SOL     OW12889   5.578   3.877   3.016
 3997SOL    HW112890   5.532   3.790   3.033
 3997SOL    HW212891   5.665   3.860   2.970
 3998SOL     OW12892   6.105   1.893   3.292
 3998SOL    HW112893   6.103   1.900   3.192
 3998SOL    HW212894   6.024   1.937   3.330
 3999SOL     OW12895   5.707   3.203   2.451
 3999SOL    HW112896   5.804   3.182   2.444
 3999SOL    HW212897   5.656   3.155   2.380
 4000SOL     OW12898   2.191   6.064   2.165
 4000SOL    HW112899   2.291   6.053   2.157
 4000SOL    HW212900   2.152   6.080   2.075
 4001SOL     OW12901   2.572   3.860   5.312
 4001SOL    HW112902   2.658   3.875   5.263
 4001SOL    HW212903   2.504   3.927   5.281
 4002SOL     OW12904   3.585   2.881   4.514
 4002SOL    HW112905   3.665   2.861   4.458
 4002SOL    HW212906   3.502   2.856   4.463
 4003SOL     OW12907   2.529   1.072   5.678
 4003SOL    HW112908   2.622   1.052   5.710
 4003SOL    HW212909   2.498   1.000   5.616
 4004SOL     OW12910   0.507   3.790   3.247
 4004SOL    HW112911   0.535   3.856   3.177
 4004SOL    HW212912   0.531   3.826   3.338
 4005SOL     OW12913   4.617   3.646   1.535
 4005SOL    HW112914   4.594   3.613   1.443
 4005SOL    HW212915   4.540   3.629   1.596
 4006SOL     OW12916   4.871   5.513   3.009
 4006SOL    HW112917   4.923   5.596   3.028
 4006SOL    HW212918   4.787   5.537   2.960
 4007SOL     OW12919   0.660   1.590   3.067
 4007SOL    HW112920   0.617   1.538   3.141
 4007SOL    HW212921   0.619   1.564   2.979
 4008SOL     OW12922   2.387   6.993   0.341
 4008SOL    HW112923   2.301   7.007   0.389
 4008SOL    HW212924   2.417   6.898   0.352
 4009SOL     OW12925   4.616   2.103   0.953
 4009SOL    HW112926   4.560   2.036   1.001
 4009SOL    HW212927   4.657   2.166   1.020
 4010SOL     OW12928   2.963   4.308   1.446
 4010SOL    HW112929   2.973   4.340   1.352
 4010SOL    HW212930   2.919   4.378   1.501
 4011SOL     OW12931   6.064   5.932   0.777
 4011SOL    HW112932   6.157   5.951   0.809
 4011SOL    HW212933   6.060   5.941   0.678
 4012SOL     OW12934   4.435   6.423   1.843
 4012SOL    HW112935   4.453   6.411   1.746
 4012SOL    HW212936   4.464   6.514   1.872
 4013SOL     OW12937   1.487   0.998   1.271
 4013SOL    HW112938   1.429   1.064   1.318
 4013SOL    HW212939   1.431   0.941   1.211
 4014SOL     OW12940   2.491   5.679   3.666
 4014SOL    HW112941   2.489   5.644   3.572
 4014SOL    HW212942   2.506   5.778   3.665
 4015SOL     OW12943   4.664   5.500   6.190
 4015SOL    HW112944   4.741   5.437   6.202
 4015SOL    HW212945   4.617   5.479   6.105
 4016SOL     OW12946   3.715   5.774   6.053
 4016SOL    HW112947   3.632   5.724   6.028
 4016SOL    HW212948   3.744   5.831   5.976
 4017SOL     OW12949   0.500   5.488   5.604
 4017SOL    HW112950   0.548   5.479   5.517
 4017SOL    HW212951   0.487   5.586   5.624
 4018SOL     OW12952   3.640   6.129   1.875
 4018SOL    HW112953   3.635   6.029   1.881
 4018SOL    HW212954   3.722   6.155   1.824
 4019SOL     OW12955   5.385   3.373   3.040
 4019SOL    HW112956   5.344   3.359   2.950
 4019SOL    HW212957   5.484   3.384   3.030
 4020SOL     OW12958   6.637   4.097   4.057
 4020SOL    HW112959   6.681   4.011   4.083
 4020SOL    HW212960   6.699   4.149   3.998
 4021SOL     OW12961   3.506   3.541   5.996
 4021SOL    HW112962   3.410   3.566   6.007
 4021SOL    HW212963   3.513   3.442   5.979
 4022SOL     OW12964   3.130   6.937   0.417
 4022SOL    HW112965   3.096   0.008   0.431
 4022SOL    HW212966   3.209   6.939   0.356
 4023SOL     OW12967   0.300   1.854   5.763
 4023SOL    HW112968   0.387   1.806   5.748
 4023SOL    HW212969   0.308   1.947   5.727
 4024SOL     OW12970   1.320   5.152   4.245
 4024SOL    HW112971   1.349   5.079   4.306
 4024SOL    HW212972   1.231   5.128   4.204
 4025SOL     OW12973   1.315   5.989   4.076
 4025SOL    HW112974   1.341   5.989   3.979
 4025SOL    HW212975   1.397   5.998   4.132
 4026SOL     OW12976   6.853   6.448   4.018
 4026SOL    HW112977   6.906   6.425   4.100
 4026SOL    HW212978   6.868   6.378   3.948
 4027SOL     OW12979   2.495   2.088   6.583
 4027SOL    HW112980   2.544   2.166   6.622
 4027SOL    HW212981   2.415   2.068   6.639
 4028SOL     OW12982   4.825   1.523   3.579
 4028SOL    HW112983   4.921   1.552   3.570
 4028SOL    HW212984   4.822   1.430   3.616
 4029SOL     OW12985   2.798   4.035   6.651
 4029SOL    HW112986   2.889   4.077   6.648
 4029SOL    HW212987   2.751   4.052   6.564
 4030SOL     OW12988   6.869   1.047   2.047
 4030SOL    HW112989   6.843   0.968   2.102
 4030SOL    HW212990   6.961   1.078   2.072
 4031SOL     OW12991   5.644   0.471   1.908
 4031SOL    HW112992   5.713   0.517   1.853
 4031SOL    HW212993   5.554   0.512   1.890
 4032SOL     OW12994   6.274   6.420   1.347
 4032SOL    HW112995   6.310   6.423   1.440
 4032SOL    HW212996   6.347   6.435   1.281
 4033SOL     OW12997   3.034   2.177   2.973
 4033SOL    HW112998   2.946   2.151   3.013
 4033SOL    HW212999   3.095   2.208   3.045
 4034SOL     OW13000   6.700   2.818   5.581
 4034SOL    HW113001   6.759   2.883   5.533
 4034SOL    HW213002   6.673   2.857   5.669
 4035SOL     OW13003   6.703   2.255   1.399
 4035SOL    HW113004   6.719   2.310   1.481
 4035SOL    HW213005   6.744   2.164   1.411
 4036SOL     OW13006   3.686   4.915   2.529
 4036SOL    HW113007   3.726   4.852   2.461
 4036SOL    HW213008   3.752   4.930   2.603
 4037SOL     OW13009   3.357   0.586   5.804
 4037SOL    HW113010   3.397   0.550   5.719
 4037SOL    HW213011   3.262   0.612   5.789
 4038SOL     OW13012   4.399   3.261   6.860
 4038SOL    HW113013   4.332   3.189   6.841
 4038SOL    HW213014   4.439   3.246   6.951
 4039SOL     OW13015   5.276   5.917   1.197
 4039SOL    HW113016   5.369   5.954   1.202
 4039SOL    HW213017   5.231   5.931   1.285
 4040SOL     OW13018   3.197   5.615   4.927
 4040SOL    HW113019   3.157   5.701   4.961
 4040SOL    HW213020   3.295   5.627   4.914
 4041SOL     OW13021   1.987   6.338   1.186
 4041SOL    HW113022   2.058   6.361   1.251
 4041SOL    HW213023   1.961   6.242   1.196
 4042SOL     OW13024   5.692   6.316   2.919
 4042SOL    HW113025   5.717   6.385   2.851
 4042SOL    HW213026   5.773   6.268   2.950
 4043SOL     OW13027   6.249   2.215   6.733
 4043SOL    HW113028   6.187   2.143   6.702
 4043SOL    HW213029   6.199   2.301   6.739
 4044SOL     OW13030   4.847   4.662   2.819
 4044SOL    HW113031   4.771   4.718   2.853
 4044SOL    HW213032   4.881   4.702   2.734
 4045SOL     OW13033   4.667   6.673   6.338
 4045SOL    HW113034   4.650   6.695   6.242
 4045SOL    HW213035   4.640   6.579   6.356
 4046SOL     OW13036   0.669   1.226   2.744
 4046SOL    HW113037   0.709   1.308   2.704
 4046SOL    HW213038   0.625   1.172   2.672
 4047SOL     OW13039   1.835   2.774   0.069
 4047SOL    HW113040   1.831   2.684   0.025
 4047SOL    HW213041   1.750   2.824   0.051
 4048SOL     OW13042   4.927   1.285   2.088
 4048SOL    HW113043   4.837   1.288   2.044
 4048SOL    HW213044   4.998   1.309   2.022
 4049SOL     OW13045   4.459   5.962   6.901
 4049SOL    HW113046   4.522   5.891   6.933
 4049SOL    HW213047   4.441   6.026   6.975
 4050SOL     OW13048   0.919   5.590   2.349
 4050SOL    HW113049   0.946   5.600   2.445
 4050SOL    HW213050   0.821   5.603   2.341
 4051SOL     OW13051   4.861   1.354   6.355
 4051SOL    HW113052   4.858   1.349   6.455
 4051SOL    HW213053   4.887   1.447   6.328
 4052SOL     OW13054   5.947   2.111   3.372
 4052SOL    HW113055   5.933   2.206   3.400
 4052SOL    HW213056   5.956   2.053   3.453
 4053SOL     OW13057   1.507   6.095   4.766
 4053SOL    HW113058   1.527   6.000   4.744
 4053SOL    HW213059   1.413   6.102   4.801
 4054SOL     OW13060   4.859   4.419   1.280
 4054SOL    HW113061   4.914   4.478   1.221
 4054SOL    HW213062   4.864   4.325   1.247
 4055SOL     OW13063   1.296   3.911   1.765
 4055SOL    HW113064   1.240   3.925   1.684
 4055SOL    HW213065   1.365   3.984   1.772
 4056SOL     OW13066   5.037   3.939   1.150
 4056SOL    HW113067   5.037   3.853   1.200
 4056SOL    HW213068   5.099   3.932   1.071
 4057SOL     OW13069   6.207   3.270   6.560
 4057SOL    HW113070   6.271   3.347   6.563
 4057SOL    HW213071   6.151   3.277   6.477
 4058SOL     OW13072   2.818   6.185   4.919
 4058SOL    HW113073   2.835   6.235   5.004
 4058SOL    HW213074   2.745   6.119   4.934
 4059SOL     OW13075   0.253   3.276   3.758
 4059SOL    HW113076   0.335   3.329   3.737
 4059SOL    HW213077   0.278   3.180   3.768
 4060SOL     OW13078   5.989   5.360   5.078
 4060SOL    HW113079   5.960   5.365   5.174
 4060SOL    HW213080   6.000   5.452   5.042
 4061SOL     OW13081   2.455   4.633   1.944
 4061SOL    HW113082   2.531   4.611   1.882
 4061SOL    HW213083   2.488   4.691   2.018
 4062SOL     OW13084   2.894   0.265   1.853
 4062SOL    HW113085   2.949   0.292   1.932
 4062SOL    HW213086   2.908   0.167   1.835
 4063SOL     OW13087   5.699   6.655   0.791
 4063SOL    HW113088   5.713   6.728   0.858
 4063SOL    HW213089   5.786   6.610   0.772
 4064SOL     OW13090   2.941   2.060   4.738
 4064SOL    HW113091   3.032   2.019   4.746
 4064SOL    HW213092   2.913   2.096   4.827
 4065SOL     OW13093   0.701   0.192   1.252
 4065SOL    HW113094   0.603   0.192   1.268
 4065SOL    HW213095   0.747   0.141   1.326
 4066SOL     OW13096   6.688   3.672   2.958
 4066SOL    HW113097   6.683   3.572   2.962
 4066SOL    HW213098   6.746   3.705   3.033
 4067SOL     OW13099   5.722   4.253   3.376
 4067SOL    HW113100   5.739   4.164   3.420
 4067SOL    HW213101   5.807   4.305   3.374
 4068SOL     OW13102   2.281   2.343   4.368
 4068SOL    HW113103   2.270   2.330   4.270
 4068SOL    HW213104   2.278   2.441   4.390
 4069SOL     OW13105   3.405   5.955   6.963
 4069SOL    HW113106   3.457   5.871   6.980
 4069SOL    HW213107   3.317   5.933   6.923
 4070SOL     OW13108   1.169   3.108   3.036
 4070SOL    HW113109   1.125   3.103   3.126
 4070SOL    HW213110   1.226   3.190   3.032
 4071SOL     OW13111   1.826   0.525   4.988
 4071SOL    HW113112   1.906   0.484   4.946
 4071SOL    HW213113   1.759   0.548   4.917
 4072SOL     OW13114   0.890   4.715   4.975
 4072SOL    HW113115   0.986   4.688   4.966
 4072SOL    HW213116   0.859   4.694   5.068
 4073SOL     OW13117   2.389   5.363   5.916
 4073SOL    HW113118   2.410   5.287   5.977
 4073SOL    HW213119   2.469   5.382   5.858
 4074SOL     OW13120   0.658   4.819   1.316
 4074SOL    HW113121   0.730   4.846   1.380
 4074SOL    HW213122   0.652   4.886   1.242
 4075SOL     OW13123   4.845   1.739   1.238
 4075SOL    HW113124   4.791   1.685   1.303
 4075SOL    HW213125   4.938   1.748   1.273
 4076SOL     OW13126   3.517   3.406   5.697
 4076SOL    HW113127   3.448   3.464   5.654
 4076SOL    HW213128   3.608   3.435   5.670
 4077SOL     OW13129   4.148   1.493   1.307
 4077SOL    HW113130   4.109   1.498   1.215
 4077SOL    HW213131   4.233   1.440   1.305
 4078SOL     OW13132   2.418   5.188   2.245
 4078SOL    HW113133   2.342   5.237   2.287
 4078SOL    HW213134   2.410   5.091   2.265
 4079SOL     OW13135   2.224   1.593   3.539
 4079SOL    HW113136   2.252   1.687   3.520
 4079SOL    HW213137   2.272   1.559   3.619
 4080SOL     OW13138   5.267   2.239   5.565
 4080SOL    HW113139   5.184   2.267   5.517
 4080SOL    HW213140   5.288   2.305   5.637
 4081SOL     OW13141   1.730   2.967   4.100
 4081SOL    HW113142   1.715   2.887   4.159
 4081SOL    HW213143   1.810   3.018   4.131
 4082SOL     OW13144   0.939   3.557   0.809
 4082SOL    HW113145   0.902   3.511   0.728
 4082SOL    HW213146   0.880   3.538   0.887
 4083SOL     OW13147   6.261   2.929   3.398
 4083SOL    HW113148   6.254   2.830   3.403
 4083SOL    HW213149   6.299   2.964   3.484
 4084SOL     OW13150   6.094   1.582   4.245
 4084SOL    HW113151   6.136   1.648   4.184
 4084SOL    HW213152   6.001   1.610   4.267
 4085SOL     OW13153   3.889   5.697   0.860
 4085SOL    HW113154   3.934   5.784   0.840
 4085SOL    HW213155   3.914   5.667   0.952
 4086SOL     OW13156   2.368   6.180   1.408
 4086SOL    HW113157   2.308   6.260   1.418
 4086SOL    HW213158   2.317   6.097   1.429
 4087SOL     OW13159   2.575   2.413   3.414
 4087SOL    HW113160   2.478   2.394   3.397
 4087SOL    HW213161   2.600   2.499   3.369
 4088SOL     OW13162   7.017   1.486   0.770
 4088SOL    HW113163   0.050   1.537   0.837
 4088SOL    HW213164   7.012   1.390   0.798
 4089SOL     OW13165   6.511   6.177   3.445
 4089SOL    HW113166   6.579   6.179   3.372
 4089SOL    HW213167   6.546   6.225   3.525
 4090SOL     OW13168   2.592   4.014   5.847
 4090SOL    HW113169   2.633   3.927   5.873
 4090SOL    HW213170   2.586   4.020   5.747
 4091SOL     OW13171   6.365   7.001   0.570
 4091SOL    HW113172   6.453   0.025   0.555
 4091SOL    HW213173   6.378   6.902   0.566
 4092SOL     OW13174   6.565   3.018   5.337
 4092SOL    HW113175   6.537   3.010   5.433
 4092SOL    HW213176   6.662   2.995   5.328
 4093SOL     OW13177   4.870   0.510   3.767
 4093SOL    HW113178   4.952   0.454   3.753
 4093SOL    HW213179   4.897   0.602   3.797
 4094SOL     OW13180   2.242   5.224   4.707
 4094SOL    HW113181   2.212   5.211   4.802
 4094SOL    HW213182   2.261   5.135   4.666
 4095SOL     OW13183   1.254   4.277   0.021
 4095SOL    HW113184   1.178   4.218   7.015
 4095SOL    HW213185   1.330   4.220   0.052
 4096SOL     OW13186   4.107   5.593   1.122
 4096SOL    HW113187   4.117   5.509   1.068
 4096SOL    HW213188   4.114   5.571   1.219
 4097SOL     OW13189   4.048   3.859   6.281
 4097SOL    HW113190   4.039   3.845   6.183
 4097SOL    HW213191   3.986   3.798   6.330
 4098SOL     OW13192   0.095   2.993   2.319
 4098SOL    HW113193   7.021   3.022   2.311
 4098SOL    HW213194   0.101   2.894   2.303
 4099SOL     OW13195   2.689   4.810   1.387
 4099SOL    HW113196   2.642   4.858   1.313
 4099SOL    HW213197   2.770   4.764   1.351
 4100SOL     OW13198   5.928   6.025   4.875
 4100SOL    HW113199   5.887   5.939   4.904
 4100SOL    HW213200   5.995   6.007   4.803
 4101SOL     OW13201   5.409   1.061   0.177
 4101SOL    HW113202   5.507   1.042   0.186
 4101SOL    HW213203   5.358   0.993   0.229
 4102SOL     OW13204   6.990   0.528   1.653
 4102SOL    HW113205   0.066   0.520   1.676
 4102SOL    HW213206   6.965   0.625   1.651
 4103SOL     OW13207   0.405   0.445   1.919
 4103SOL    HW113208   0.468   0.517   1.892
 4103SOL    HW213209   0.369   0.465   2.010
 4104SOL     OW13210   1.438   4.526   2.404
 4104SOL    HW113211   1.485   4.463   2.465
 4104SOL    HW213212   1.340   4.505   2.402
 4105SOL     OW13213   3.992   5.335   1.096
 4105SOL    HW113214   4.074   5.279   1.102
 4105SOL    HW213215   3.920   5.285   1.048
 4106SOL     OW13216   0.260   2.506   5.445
 4106SOL    HW113217   0.299   2.489   5.354
 4106SOL    HW213218   0.323   2.473   5.515
 4107SOL     OW13219   1.068   5.765   0.531
 4107SOL    HW113220   1.130   5.711   0.474
 4107SOL    HW213221   1.107   5.774   0.623
 4108SOL     OW13222   0.067   4.674   6.079
 4108SOL    HW113223   7.021   4.683   6.152
 4108SOL    HW213224   0.118   4.760   6.069
 4109SOL     OW13225   4.983   6.563   5.002
 4109SOL    HW113226   4.898   6.578   4.951
 4109SOL    HW213227   4.975   6.603   5.093
 4110SOL     OW13228   4.686   3.328   6.567
 4110SOL    HW113229   4.691   3.336   6.666
 4110SOL    HW213230   4.627   3.251   6.542
 4111SOL     OW13231   3.566   3.022   6.628
 4111SOL    HW113232   3.565   3.081   6.547
 4111SOL    HW213233   3.640   2.955   6.619
 4112SOL     OW13234   5.199   1.414   5.787
 4112SOL    HW113235   5.199   1.474   5.707
 4112SOL    HW213236   5.265   1.340   5.772
 4113SOL     OW13237   4.512   6.087   4.963
 4113SOL    HW113238   4.592   6.085   4.902
 4113SOL    HW213239   4.538   6.127   5.051
 4114SOL     OW13240   3.878   2.159   3.382
 4114SOL    HW113241   3.811   2.085   3.378
 4114SOL    HW213242   3.875   2.211   3.296
 4115SOL     OW13243   4.666   5.936   2.067
 4115SOL    HW113244   4.710   5.851   2.098
 4115SOL    HW213245   4.573   5.941   2.104
 4116SOL     OW13246   4.423   2.526   1.757
 4116SOL    HW113247   4.370   2.442   1.763
 4116SOL    HW213248   4.474   2.540   1.842
 4117SOL     OW13249   0.237   5.107   2.026
 4117SOL    HW113250   0.251   5.082   2.122
 4117SOL    HW213251   0.243   5.024   1.970
 4118SOL     OW13252   1.919   5.664   0.495
 4118SOL    HW113253   1.896   5.756   0.465
 4118SOL    HW213254   1.836   5.617   0.524
 4119SOL     OW13255   4.191   1.395   3.096
 4119SOL    HW113256   4.265   1.395   3.163
 4119SOL    HW213257   4.229   1.411   3.005
 4120SOL     OW13258   4.301   0.528   0.732
 4120SOL    HW113259   4.300   0.448   0.792
 4120SOL    HW213260   4.358   0.510   0.652
 4121SOL     OW13261   6.325   1.103   4.705
 4121SOL    HW113262   6.357   1.197   4.715
 4121SOL    HW213263   6.318   1.061   4.795
 4122SOL     OW13264   0.502   6.908   5.457
 4122SOL    HW113265   0.509   6.865   5.367
 4122SOL    HW213266   0.478   7.004   5.446
 4123SOL     OW13267   4.904   4.891   5.526
 4123SOL    HW113268   4.832   4.943   5.572
 4123SOL    HW213269   4.954   4.837   5.594
 4124SOL     OW13270   6.200   5.622   5.615
 4124SOL    HW113271   6.260   5.559   5.566
 4124SOL    HW213272   6.110   5.623   5.571
 4125SOL     OW13273   4.597   0.799   2.279
 4125SOL    HW113274   4.526   0.774   2.344
 4125SOL    HW213275   4.634   0.889   2.302
 4126SOL     OW13276   1.306   4.711   4.259
 4126SOL    HW113277   1.312   4.717   4.358
 4126SOL    HW213278   1.262   4.625   4.233
 4127SOL     OW13279   4.927   4.412   4.323
 4127SOL    HW113280   4.971   4.395   4.235
 4127SOL    HW213281   4.890   4.327   4.359
 4128SOL     OW13282   1.818   3.668   2.127
 4128SOL    HW113283   1.775   3.692   2.214
 4128SOL    HW213284   1.916   3.660   2.139
 4129SOL     OW13285   5.687   1.336   6.178
 4129SOL    HW113286   5.697   1.301   6.271
 4129SOL    HW213287   5.749   1.413   6.164
 4130SOL     OW13288   0.063   3.656   5.724
 4130SOL    HW113289   6.997   3.609   5.710
 4130SOL    HW213290   0.052   3.753   5.702
 4131SOL     OW13291   1.193   6.048   3.669
 4131SOL    HW113292   1.275   6.011   3.713
 4131SOL    HW213293   1.113   6.023   3.723
 4132SOL     OW13294   5.225   4.360   3.830
 4132SOL    HW113295   5.129   4.335   3.815
 4132SOL    HW213296   5.238   4.457   3.808
 4133SOL     OW13297   2.964   6.611   1.589
 4133SOL    HW113298   3.021   6.654   1.519
 4133SOL    HW213299   2.897   6.551   1.545
 4134SOL     OW13300   1.713   2.607   1.070
 4134SOL    HW113301   1.635   2.662   1.041
 4134SOL    HW213302   1.680   2.519   1.106
 4135SOL     OW13303   2.124   0.875   2.559
 4135SOL    HW113304   2.213   0.920   2.570
 4135SOL    HW213305   2.137   0.776   2.558
 4136SOL     OW13306   0.663   2.095   3.484
 4136SOL    HW113307   0.735   2.146   3.530
 4136SOL    HW213308   0.623   2.151   3.412
 4137SOL     OW13309   2.180   3.528   1.156
 4137SOL    HW113310   2.248   3.587   1.199
 4137SOL    HW213311   2.182   3.437   1.199
 4138SOL     OW13312   3.844   5.734   3.660
 4138SOL    HW113313   3.816   5.648   3.617
 4138SOL    HW213314   3.864   5.717   3.757
 4139SOL     OW13315   2.325   1.845   5.719
 4139SOL    HW113316   2.236   1.864   5.759
 4139SOL    HW213317   2.387   1.809   5.789
 4140SOL     OW13318   2.978   0.395   5.117
 4140SOL    HW113319   3.027   0.369   5.201
 4140SOL    HW213320   2.989   0.324   5.048
 4141SOL     OW13321   4.754   5.528   1.090
 4141SOL    HW113322   4.764   5.618   1.049
 4141SOL    HW213323   4.793   5.459   1.029
 4142SOL     OW13324   6.604   5.838   1.093
 4142SOL    HW113325   6.609   5.908   1.021
 4142SOL    HW213326   6.519   5.787   1.084
 4143SOL     OW13327   6.850   3.218   0.248
 4143SOL    HW113328   6.856   3.302   0.195
 4143SOL    HW213329   6.942   3.181   0.262
 4144SOL     OW13330   5.942   2.736   0.678
 4144SOL    HW113331   5.997   2.691   0.607
 4144SOL    HW213332   5.864   2.781   0.635
 4145SOL     OW13333   0.330   5.902   2.070
 4145SOL    HW113334   0.322   5.923   1.972
 4145SOL    HW213335   0.262   5.833   2.094
 4146SOL     OW13336   6.143   0.617   5.025
 4146SOL    HW113337   6.232   0.573   5.022
 4146SOL    HW213338   6.090   0.590   4.945
 4147SOL     OW13339   3.595   1.770   5.668
 4147SOL    HW113340   3.539   1.689   5.651
 4147SOL    HW213341   3.594   1.829   5.587
 4148SOL     OW13342   0.641   0.084   3.927
 4148SOL    HW113343   0.579   0.015   3.890
 4148SOL    HW213344   0.689   0.048   4.006
 4149SOL     OW13345   0.869   3.358   0.205
 4149SOL    HW113346   0.842   3.324   0.295
 4149SOL    HW213347   0.793   3.408   0.164
 4150SOL     OW13348   6.187   0.777   6.139
 4150SOL    HW113349   6.265   0.719   6.160
 4150SOL    HW213350   6.188   0.858   6.197
 4151SOL     OW13351   5.243   6.102   6.737
 4151SOL    HW113352   5.259   6.012   6.695
 4151SOL    HW213353   5.145   6.121   6.736
 4152SOL     OW13354   2.766   5.457   1.582
 4152SOL    HW113355   2.752   5.545   1.536
 4152SOL    HW213356   2.831   5.402   1.530
 4153SOL     OW13357   5.295   5.471   6.108
 4153SOL    HW113358   5.273   5.496   6.014
 4153SOL    HW213359   5.250   5.535   6.171
 4154SOL     OW13360   6.787   3.962   5.336
 4154SOL    HW113361   6.707   3.943   5.279
 4154SOL    HW213362   6.758   4.004   5.422
 4155SOL     OW13363   6.586   2.990   3.249
 4155SOL    HW113364   6.648   2.924   3.292
 4155SOL    HW213365   6.553   3.053   3.319
 4156SOL     OW13366   5.470   0.002   5.203
 4156SOL    HW113367   5.426   0.067   5.264
 4156SOL    HW213368   5.554   0.042   5.166
 4157SOL     OW13369   3.811   6.931   3.347
 4157SOL    HW113370   3.726   6.983   3.358
 4157SOL    HW213371   3.855   6.921   3.437
 4158SOL     OW13372   1.353   5.400   4.378
 4158SOL    HW113373   1.368   5.319   4.320
 4158SOL    HW213374   1.305   5.470   4.326
 4159SOL     OW13375   1.717   3.467   4.117
 4159SOL    HW113376   1.737   3.565   4.116
 4159SOL    HW213377   1.775   3.421   4.050
 4160SOL     OW13378   6.395   0.528   0.691
 4160SOL    HW113379   6.350   0.458   0.635
 4160SOL    HW213380   6.473   0.488   0.738
 4161SOL     OW13381   2.298   6.484   6.358
 4161SOL    HW113382   2.395   6.462   6.356
 4161SOL    HW213383   2.263   6.474   6.451
 4162SOL     OW13384   6.397   0.382   4.899
 4162SOL    HW113385   6.355   0.465   4.864
 4162SOL    HW213386   6.495   0.396   4.911
 4163SOL     OW13387   5.790   1.679   3.466
 4163SOL    HW113388   5.812   1.582   3.466
 4163SOL    HW213389   5.764   1.707   3.374
 4164SOL     OW13390   1.662   7.012   5.993
 4164SOL    HW113391   1.569   6.978   5.982
 4164SOL    HW213392   1.705   0.001   5.903
 4165SOL     OW13393   4.777   0.411   0.720
 4165SOL    HW113394   4.787   0.333   0.659
 4165SOL    HW213395   4.721   0.481   0.675
 4166SOL     OW13396   5.434   2.507   0.849
 4166SOL    HW113397   5.511   2.470   0.797
 4166SOL    HW213398   5.466   2.540   0.937
 4167SOL     OW13399   2.613   3.344   0.554
 4167SOL    HW113400   2.706   3.379   0.562
 4167SOL    HW213401   2.614   3.262   0.495
 4168SOL     OW13402   0.374   4.839   1.200
 4168SOL    HW113403   0.382   4.938   1.207
 4168SOL    HW213404   0.432   4.796   1.270
 4169SOL     OW13405   5.442   3.861   4.298
 4169SOL    HW113406   5.501   3.830   4.224
 4169SOL    HW213407   5.351   3.823   4.286
 4170SOL     OW13408   3.794   2.972   5.138
 4170SOL    HW113409   3.764   2.940   5.049
 4170SOL    HW213410   3.859   3.048   5.127
 4171SOL     OW13411   5.480   4.610   0.872
 4171SOL    HW113412   5.481   4.702   0.912
 4171SOL    HW213413   5.455   4.544   0.943
 4172SOL     OW13414   6.906   2.215   6.502
 4172SOL    HW113415   6.829   2.183   6.447
 4172SOL    HW213416   6.876   2.289   6.562
 4173SOL     OW13417   5.698   3.025   5.003
 4173SOL    HW113418   5.708   3.098   5.070
 4173SOL    HW213419   5.783   3.014   4.952
 4174SOL     OW13420   5.546   0.757   3.620
 4174SOL    HW113421   5.603   0.737   3.700
 4174SOL    HW213422   5.593   0.727   3.537
 4175SOL     OW13423   2.891   6.444   4.814
 4175SOL    HW113424   2.969   6.397   4.774
 4175SOL    HW213425   2.827   6.376   4.850
 4176SOL     OW13426   3.498   0.278   2.395
 4176SOL    HW113427   3.492   0.190   2.348
 4176SOL    HW213428   3.410   0.298   2.438
 4177SOL     OW13429   0.536   5.438   5.282
 4177SOL    HW113430   0.491   5.524   5.307
 4177SOL    HW213431   0.629   5.456   5.252
 4178SOL     OW13432   3.479   0.719   4.549
 4178SOL    HW113433   3.577   0.701   4.557
 4178SOL    HW213434   3.466   0.815   4.523
 4179SOL     OW13435   5.237   3.378   4.534
 4179SOL    HW113436   5.298   3.418   4.466
 4179SOL    HW213437   5.284   3.304   4.582
 4180SOL     OW13438   4.995   4.317   2.505
 4180SOL    HW113439   5.047   4.403   2.508
 4180SOL    HW213440   5.054   4.242   2.535
 4181SOL     OW13441   2.164   1.590   5.926
 4181SOL    HW113442   2.252   1.548   5.903
 4181SOL    HW213443   2.143   1.573   6.023
 4182SOL     OW13444   6.970   0.406   3.226
 4182SOL    HW113445   6.995   0.345   3.150
 4182SOL    HW213446   6.950   0.497   3.190
 4183SOL     OW13447   3.140   1.623   1.622
 4183SOL    HW113448   3.125   1.538   1.673
 4183SOL    HW213449   3.184   1.690   1.681
 4184SOL     OW13450   4.049   4.576   1.196
 4184SOL    HW113451   4.102   4.509   1.145
 4184SOL    HW213452   3.992   4.529   1.264
 4185SOL     OW13453   0.805   5.492   3.503
 4185SOL    HW113454   0.775   5.419   3.564
 4185SOL    HW213455   0.876   5.546   3.549
 4186SOL     OW13456   2.098   4.336   0.268
 4186SOL    HW113457   2.092   4.400   0.191
 4186SOL    HW213458   2.174   4.363   0.328
 4187SOL     OW13459   3.562   3.265   5.937
 4187SOL    HW113460   3.567   3.288   5.840
 4187SOL    HW213461   3.654   3.248   5.973
 4188SOL     OW13462   4.910   0.373   4.209
 4188SOL    HW113463   4.844   0.420   4.269
 4188SOL    HW213464   4.962   0.441   4.158
 4189SOL     OW13465   3.301   1.787   4.308
 4189SOL    HW113466   3.242   1.749   4.237
 4189SOL    HW213467   3.288   1.886   4.313
 4190SOL     OW13468   2.527   0.120   6.381
 4190SOL    HW113469   2.471   0.065   6.319
 4190SOL    HW213470   2.600   0.164   6.328
 4191SOL     OW13471   5.836   3.463   3.089
 4191SOL    HW113472   5.805   3.372   3.115
 4191SOL    HW213473   5.919   3.486   3.140
 4192SOL     OW13474   6.616   2.018   3.484
 4192SOL    HW113475   6.698   2.045   3.434
 4192SOL    HW213476   6.535   2.052   3.437
 4193SOL     OW13477   2.196   6.387   1.392
 4193SOL    HW113478   2.194   6.471   1.446
 4193SOL    HW213479   2.119   6.329   1.417
 4194SOL     OW13480   6.734   2.077   4.930
 4194SOL    HW113481   6.812   2.139   4.934
 4194SOL    HW213482   6.765   1.983   4.947
 4195SOL     OW13483   3.891   0.852   1.532
 4195SOL    HW113484   3.851   0.934   1.493
 4195SOL    HW213485   3.863   0.843   1.628
 4196SOL     OW13486   6.084   2.597   4.546
 4196SOL    HW113487   6.034   2.674   4.505
 4196SOL    HW213488   6.023   2.546   4.606
 4197SOL     OW13489   5.225   4.632   3.803
 4197SOL    HW113490   5.285   4.688   3.746
 4197SOL    HW213491   5.224   4.669   3.896
 4198SOL     OW13492   6.306   3.936   6.832
 4198SOL    HW113493   6.241   3.859   6.836
 4198SOL    HW213494   6.255   4.022   6.824
 4199SOL     OW13495   2.791   3.022   5.979
 4199SOL    HW113496   2.888   3.022   5.955
 4199SOL    HW213497   2.769   3.108   6.026
 4200SOL     OW13498   3.171   6.423   5.994
 4200SOL    HW113499   3.265   6.390   6.001
 4200SOL    HW213500   3.114   6.352   5.952
 4201SOL     OW13501   6.102   6.737   3.486
 4201SOL    HW113502   6.161   6.740   3.566
 4201SOL    HW213503   6.009   6.766   3.511
 4202SOL     OW13504   4.675   4.714   5.736
 4202SOL    HW113505   4.711   4.621   5.728
 4202SOL    HW213506   4.748   4.775   5.767
 4203SOL     OW13507   4.144   5.864   2.548
 4203SOL    HW113508   4.101   5.943   2.591
 4203SOL    HW213509   4.232   5.846   2.593
 4204SOL     OW13510   3.275   3.073   2.117
 4204SOL    HW113511   3.202   3.085   2.050
 4204SOL    HW213512   3.274   2.979   2.151
 4205SOL     OW13513   3.693   5.086   4.066
 4205SOL    HW113514   3.662   5.036   3.985
 4205SOL    HW213515   3.692   5.025   4.145
 4206SOL     OW13516   4.859   0.907   6.348
 4206SOL    HW113517   4.770   0.862   6.349
 4206SOL    HW213518   4.872   0.958   6.433
 4207SOL     OW13519   2.016   1.325   1.875
 4207SOL    HW113520   2.061   1.236   1.871
 4207SOL    HW213521   1.982   1.350   1.784
 4208SOL     OW13522   1.298   1.892   1.107
 4208SOL    HW113523   1.342   1.899   1.017
 4208SOL    HW213524   1.214   1.839   1.099
 4209SOL     OW13525   1.431   0.970   5.289
 4209SOL    HW113526   1.518   1.004   5.253
 4209SOL    HW213527   1.372   1.047   5.311
 4210SOL     OW13528   3.122   3.495   1.922
 4210SOL    HW113529   3.053   3.506   1.994
 4210SOL    HW213530   3.093   3.546   1.841
 4211SOL     OW13531   4.895   5.692   5.543
 4211SOL    HW113532   4.798   5.693   5.518
 4211SOL    HW213533   4.940   5.773   5.506
 4212SOL     OW13534   6.940   1.487   2.072
 4212SOL    HW113535   6.856   1.501   2.125
 4212SOL    HW213536   6.927   1.523   1.980
 4213SOL     OW13537   2.473   0.944   2.611
 4213SOL    HW113538   2.564   0.985   2.625
 4213SOL    HW213539   2.484   0.848   2.586
 4214SOL     OW13540   0.704   3.825   6.394
 4214SOL    HW113541   0.696   3.924   6.380
 4214SOL    HW213542   0.717   3.806   6.491
 4215SOL     OW13543   0.264   5.612   4.364
 4215SOL    HW113544   0.318   5.659   4.294
 4215SOL    HW213545   0.281   5.654   4.453
 4216SOL     OW13546   1.265   1.986   4.329
 4216SOL    HW113547   1.259   2.061   4.395
 4216SOL    HW213548   1.191   1.922   4.344
 4217SOL     OW13549   6.964   6.690   3.045
 4217SOL    HW113550   6.881   6.635   3.055
 4217SOL    HW213551   0.006   6.643   2.983
 4218SOL     OW13552   4.703   0.008   1.878
 4218SOL    HW113553   4.741   0.068   1.948
 4218SOL    HW213554   4.769   6.958   1.856
 4219SOL     OW13555   3.063   4.693   5.291
 4219SOL    HW113556   3.026   4.767   5.347
 4219SOL    HW213557   2.988   4.637   5.255
 4220SOL     OW13558   6.705   3.400   2.963
 4220SOL    HW113559   6.803   3.398   2.984
 4220SOL    HW213560   6.664   3.311   2.983
 4221SOL     OW13561   6.118   6.006   6.765
 4221SOL    HW113562   6.204   6.004   6.816
 4221SOL    HW213563   6.105   6.096   6.724
 4222SOL     OW13564   6.247   1.596   2.434
 4222SOL    HW113565   6.324   1.532   2.429
 4222SOL    HW213566   6.162   1.548   2.411
 4223SOL     OW13567   3.432   3.205   3.004
 4223SOL    HW113568   3.389   3.268   2.939
 4223SOL    HW213569   3.523   3.180   2.971
 4224SOL     OW13570   5.145   3.221   4.293
 4224SOL    HW113571   5.054   3.180   4.299
 4224SOL    HW213572   5.153   3.293   4.362
 4225SOL     OW13573   5.736   0.944   4.920
 4225SOL    HW113574   5.763   0.891   5.000
 4225SOL    HW213575   5.817   0.983   4.877
 4226SOL     OW13576   1.821   1.612   4.143
 4226SOL    HW113577   1.869   1.529   4.112
 4226SOL    HW213578   1.821   1.680   4.070
 4227SOL     OW13579   3.977   4.783   6.773
 4227SOL    HW113580   4.039   4.745   6.704
 4227SOL    HW213581   3.938   4.709   6.828
 4228SOL     OW13582   5.857   6.542   4.185
 4228SOL    HW113583   5.908   6.574   4.265
 4228SOL    HW213584   5.806   6.459   4.209
 4229SOL     OW13585   3.957   4.886   5.814
 4229SOL    HW113586   3.864   4.910   5.839
 4229SOL    HW213587   3.959   4.795   5.774
 4230SOL     OW13588   2.567   0.258   4.963
 4230SOL    HW113589   2.499   0.239   5.034
 4230SOL    HW213590   2.538   0.217   4.877
 4231SOL     OW13591   5.159   6.523   5.271
 4231SOL    HW113592   5.203   6.569   5.195
 4231SOL    HW213593   5.173   6.576   5.355
 4232SOL     OW13594   1.082   5.538   1.959
 4232SOL    HW113595   1.073   5.520   1.861
 4232SOL    HW213596   1.005   5.496   2.008
 4233SOL     OW13597   6.201   0.772   7.013
 4233SOL    HW113598   6.200   0.737   0.085
 4233SOL    HW213599   6.250   0.708   6.954
 4234SOL     OW13600   2.108   5.169   5.622
 4234SOL    HW113601   2.038   5.156   5.691
 4234SOL    HW213602   2.160   5.253   5.643
 4235SOL     OW13603   6.231   4.399   5.496
 4235SOL    HW113604   6.172   4.420   5.418
 4235SOL    HW213605   6.265   4.305   5.488
 4236SOL     OW13606   0.186   2.728   3.997
 4236SOL    HW113607   0.099   2.742   4.044
 4236SOL    HW213608   0.199   2.631   3.979
 4237SOL     OW13609   6.127   3.747   4.495
 4237SOL    HW113610   6.035   3.738   4.534
 4237SOL    HW213611   6.120   3.780   4.401
 4238SOL     OW13612   4.300   4.738   3.494
 4238SOL    HW113613   4.293   4.690   3.581
 4238SOL    HW213614   4.234   4.813   3.492
 4239SOL     OW13615   4.687   6.921   4.458
 4239SOL    HW113616   4.767   6.869   4.426
 4239SOL    HW213617   4.670   6.899   4.554
 4240SOL     OW13618   2.654   5.949   6.366
 4240SOL    HW113619   2.695   5.984   6.450
 4240SOL    HW213620   2.558   5.927   6.383
 4241SOL     OW13621   5.275   0.471   1.316
 4241SOL    HW113622   5.197   0.489   1.376
 4241SOL    HW213623   5.352   0.530   1.343
 4242SOL     OW13624   2.432   6.473   2.847
 4242SOL    HW113625   2.439   6.558   2.901
 4242SOL    HW213626   2.396   6.494   2.756
 4243SOL     OW13627   0.330   3.966   2.186
 4243SOL    HW113628   0.403   4.026   2.151
 4243SOL    HW213629   0.360   3.925   2.272
 4244SOL     OW13630   4.803   6.223   0.437
 4244SOL    HW113631   4.759   6.142   0.396
 4244SOL    HW213632   4.894   6.235   0.397
 4245SOL     OW13633   6.501   3.032   0.673
 4245SOL    HW113634   6.563   3.089   0.619
 4245SOL    HW213635   6.551   2.994   0.751
 4246SOL     OW13636   5.667   2.634   3.060
 4246SOL    HW113637   5.714   2.584   3.133
 4246SOL    HW213638   5.636   2.571   2.990
 4247SOL     OW13639   2.525   5.585   4.625
 4247SOL    HW113640   2.499   5.508   4.567
 4247SOL    HW213641   2.619   5.572   4.657
 4248SOL     OW13642   1.881   0.673   3.027
 4248SOL    HW113643   1.799   0.724   3.054
 4248SOL    HW213644   1.961   0.715   3.070
 4249SOL     OW13645   0.434   1.926   4.167
 4249SOL    HW113646   0.485   1.969   4.241
 4249SOL    HW213647   0.336   1.929   4.186
 4250SOL     OW13648   0.593   5.638   3.878
 4250SOL    HW113649   0.514   5.580   3.862
 4250SOL    HW213650   0.677   5.584   3.869
 4251SOL     OW13651   5.445   3.133   6.830
 4251SOL    HW113652   5.388   3.073   6.887
 4251SOL    HW213653   5.538   3.098   6.827
 4252SOL     OW13654   6.054   5.601   5.292
 4252SOL    HW113655   6.110   5.539   5.347
 4252SOL    HW213656   6.110   5.677   5.260
 4253SOL     OW13657   3.783   6.144   2.155
 4253SOL    HW113658   3.741   6.111   2.071
 4253SOL    HW213659   3.869   6.096   2.170
 4254SOL     OW13660   2.297   3.492   0.238
 4254SOL    HW113661   2.381   3.494   0.293
 4254SOL    HW213662   2.261   3.399   0.237
 4255SOL     OW13663   1.059   4.515   3.464
 4255SOL    HW113664   1.011   4.441   3.511
 4255SOL    HW213665   1.006   4.543   3.384
 4256SOL     OW13666   0.431   4.895   1.504
 4256SOL    HW113667   0.399   4.802   1.525
 4256SOL    HW213668   0.376   4.961   1.556
 4257SOL     OW13669   6.084   1.590   5.035
 4257SOL    HW113670   5.989   1.609   5.060
 4257SOL    HW213671   6.142   1.599   5.116
 4258SOL     OW13672   3.237   5.392   1.061
 4258SOL    HW113673   3.171   5.354   1.126
 4258SOL    HW213674   3.265   5.483   1.092
 4259SOL     OW13675   1.750   6.880   1.424
 4259SOL    HW113676   1.774   6.783   1.417
 4259SOL    HW213677   1.782   6.929   1.343
 4260SOL     OW13678   4.778   0.133   4.221
 4260SOL    HW113679   4.825   0.197   4.159
 4260SOL    HW213680   4.829   0.047   4.225
 4261SOL     OW13681   2.028   0.384   4.863
 4261SOL    HW113682   2.108   0.442   4.845
 4261SOL    HW213683   1.972   0.378   4.780
 4262SOL     OW13684   1.181   4.870   6.177
 4262SOL    HW113685   1.238   4.828   6.247
 4262SOL    HW213686   1.125   4.800   6.133
 4263SOL     OW13687   2.730   2.189   3.432
 4263SOL    HW113688   2.677   2.105   3.426
 4263SOL    HW213689   2.672   2.267   3.408
 4264SOL     OW13690   5.512   1.215   4.236
 4264SOL    HW113691   5.439   1.147   4.241
 4264SOL    HW213692   5.573   1.205   4.315
 4265SOL     OW13693   2.895   0.205   1.181
 4265SOL    HW113694   2.976   0.171   1.132
 4265SOL    HW213695   2.817   0.147   1.160
 4266SOL     OW13696   1.123   6.836   0.506
 4266SOL    HW113697   1.036   6.792   0.529
 4266SOL    HW213698   1.106   6.923   0.461
 4267SOL     OW13699   2.256   4.170   3.744
 4267SOL    HW113700   2.325   4.108   3.782
 4267SOL    HW213701   2.280   4.192   3.649
 4268SOL     OW13702   1.255   5.021   0.082
 4268SOL    HW113703   1.284   5.049   7.012
 4268SOL    HW213704   1.257   5.101   0.143
 4269SOL     OW13705   3.520   1.663   3.819
 4269SOL    HW113706   3.485   1.683   3.911
 4269SOL    HW213707   3.609   1.707   3.807
 4270SOL     OW13708   3.501   2.922   1.199
 4270SOL    HW113709   3.455   2.896   1.114
 4270SOL    HW213710   3.593   2.955   1.178
 4271SOL     OW13711   6.328   0.585   1.267
 4271SOL    HW113712   6.317   0.684   1.275
 4271SOL    HW213713   6.239   0.540   1.275
 4272SOL     OW13714   0.133   3.292   5.639
 4272SOL    HW113715   0.130   3.284   5.739
 4272SOL    HW213716   0.060   3.354   5.608
 4273SOL     OW13717   4.547   6.422   4.888
 4273SOL    HW113718   4.551   6.380   4.798
 4273SOL    HW213719   4.626   6.393   4.942
 4274SOL     OW13720   0.149   6.568   2.034
 4274SOL    HW113721   0.142   6.613   2.123
 4274SOL    HW213722   0.059   6.569   1.989
 4275SOL     OW13723   1.019   2.773   3.850
 4275SOL    HW113724   1.012   2.730   3.760
 4275SOL    HW213725   1.008   2.703   3.921
 4276SOL     OW13726   2.947   5.031   3.963
 4276SOL    HW113727   2.945   5.088   3.881
 4276SOL    HW213728   3.023   4.967   3.957
 4277SOL     OW13729   6.674   4.807   3.938
 4277SOL    HW113730   6.686   4.798   4.037
 4277SOL    HW213731   6.755   4.774   3.892
 4278SOL     OW13732   6.625   6.278   2.671
 4278SOL    HW113733   6.682   6.359   2.683
 4278SOL    HW213734   6.528   6.305   2.672
 4279SOL     OW13735   1.062   1.599   2.616
 4279SOL    HW113736   1.031   1.554   2.533
 4279SOL    HW213737   1.062   1.698   2.601
 4280SOL     OW13738   6.350   6.628   6.610
 4280SOL    HW113739   6.363   6.529   6.614
 4280SOL    HW213740   6.260   6.651   6.645
 4281SOL     OW13741   4.334   5.580   3.988
 4281SOL    HW113742   4.321   5.670   4.031
 4281SOL    HW213743   4.367   5.593   3.894
 4282SOL     OW13744   3.105   3.942   0.776
 4282SOL    HW113745   3.044   3.918   0.852
 4282SOL    HW213746   3.051   3.982   0.702
 4283SOL     OW13747   4.877   0.685   2.953
 4283SOL    HW113748   4.835   0.623   3.020
 4283SOL    HW213749   4.881   0.777   2.992
 4284SOL     OW13750   4.192   5.411   0.465
 4284SOL    HW113751   4.213   5.481   0.533
 4284SOL    HW213752   4.275   5.363   0.439
 4285SOL     OW13753   3.344   0.480   6.279
 4285SOL    HW113754   3.359   0.482   6.180
 4285SOL    HW213755   3.382   0.396   6.318
 4286SOL     OW13756   6.412   1.374   0.014
 4286SOL    HW113757   6.319   1.357   7.003
 4286SOL    HW213758   6.430   1.317   0.094
 4287SOL     OW13759   4.419   0.319   0.074
 4287SOL    HW113760   4.348   0.352   0.137
 4287SOL    HW213761   4.455   0.232   0.107
 4288SOL     OW13762   6.148   6.050   1.886
 4288SOL    HW113763   6.082   6.035   1.813
 4288SOL    HW213764   6.238   6.018   1.857
 4289SOL     OW13765   0.500   2.403   5.622
 4289SOL    HW113766   0.540   2.494   5.631
 4289SOL    HW213767   0.554   2.349   5.557
 4290SOL     OW13768   0.223   0.450   3.277
 4290SOL    HW113769   0.250   0.529   3.222
 4290SOL    HW213770   0.126   0.429   3.261
 4291SOL     OW13771   4.783   2.943   5.920
 4291SOL    HW113772   4.844   2.877   5.964
 4291SOL    HW213773   4.755   2.908   5.831
 4292SOL     OW13774   4.711   1.930   0.203
 4292SOL    HW113775   4.777   2.000   0.175
 4292SOL    HW213776   4.653   1.966   0.276
 4293SOL     OW13777   5.180   4.125   6.778
 4293SOL    HW113778   5.122   4.134   6.697
 4293SOL    HW213779   5.124   4.093   6.855
 4294SOL     OW13780   2.928   2.250   6.031
 4294SOL    HW113781   2.982   2.263   6.114
 4294SOL    HW213782   2.988   2.248   5.951
 4295SOL     OW13783   4.203   6.581   2.277
 4295SOL    HW113784   4.214   6.628   2.189
 4295SOL    HW213785   4.128   6.624   2.328
 4296SOL     OW13786   2.939   6.372   1.093
 4296SOL    HW113787   2.864   6.310   1.070
 4296SOL    HW213788   2.902   6.460   1.124
 4297SOL     OW13789   6.683   5.255   1.187
 4297SOL    HW113790   6.645   5.212   1.106
 4297SOL    HW213791   6.783   5.247   1.185
 4298SOL     OW13792   3.464   6.420   1.320
 4298SOL    HW113793   3.466   6.498   1.257
 4298SOL    HW213794   3.489   6.336   1.270
 4299SOL     OW13795   0.363   2.567   6.708
 4299SOL    HW113796   0.316   2.483   6.733
 4299SOL    HW213797   0.461   2.549   6.697
 4300SOL     OW13798   3.603   0.683   1.017
 4300SOL    HW113799   3.517   0.637   1.039
 4300SOL    HW213800   3.628   0.744   1.092
 4301SOL     OW13801   3.185   5.846   1.362
 4301SOL    HW113802   3.270   5.812   1.402
 4301SOL    HW213803   3.160   5.932   1.407
 4302SOL     OW13804   0.619   6.933   6.744
 4302SOL    HW113805   0.636   6.835   6.731
 4302SOL    HW213806   0.702   6.976   6.780
 4303SOL     OW13807   6.613   4.535   4.154
 4303SOL    HW113808   6.678   4.471   4.195
 4303SOL    HW213809   6.655   4.625   4.148
 4304SOL     OW13810   3.101   3.591   1.629
 4304SOL    HW113811   3.165   3.522   1.595
 4304SOL    HW213812   3.152   3.665   1.673
 4305SOL     OW13813   0.179   6.818   5.748
 4305SOL    HW113814   0.149   6.806   5.842
 4305SOL    HW213815   0.279   6.825   5.746
 4306SOL     OW13816   4.922   3.891   4.392
 4306SOL    HW113817   4.928   3.793   4.373
 4306SOL    HW213818   4.964   3.910   4.480
 4307SOL     OW13819   6.290   3.029   5.620
 4307SOL    HW113820   6.243   2.955   5.572
 4307SOL    HW213821   6.229   3.107   5.628
 4308SOL     OW13822   5.189   5.141   1.466
 4308SOL    HW113823   5.099   5.185   1.465
 4308SOL    HW213824   5.224   5.138   1.560
 4309SOL     OW13825   1.032   3.186   0.028
 4309SOL    HW113826   1.109   3.196   0.091
 4309SOL    HW213827   0.957   3.246   0.058
 4310SOL     OW13828   0.997   2.091   2.644
 4310SOL    HW113829   0.934   2.132   2.577
 4310SOL    HW213830   1.027   2.160   2.708
 4311SOL     OW13831   1.007   6.257   2.164
 4311SOL    HW113832   0.967   6.223   2.249
 4311SOL    HW213833   0.969   6.347   2.143
 4312SOL     OW13834   0.863   4.654   1.922
 4312SOL    HW113835   0.865   4.708   1.838
 4312SOL    HW213836   0.808   4.702   1.991
 4313SOL     OW13837   5.159   1.962   0.585
 4313SOL    HW113838   5.141   1.922   0.675
 4313SOL    HW213839   5.214   1.899   0.530
 4314SOL     OW13840   6.655   2.858   5.854
 4314SOL    HW113841   6.663   2.768   5.896
 4314SOL    HW213842   6.746   2.895   5.837
 4315SOL     OW13843   2.013   1.384   3.175
 4315SOL    HW113844   2.091   1.347   3.225
 4315SOL    HW213845   2.017   1.484   3.176
 4316SOL     OW13846   5.304   0.764   2.185
 4316SOL    HW113847   5.222   0.821   2.190
 4316SOL    HW213848   5.280   0.669   2.206
 4317SOL     OW13849   4.258   0.726   5.354
 4317SOL    HW113850   4.206   0.768   5.280
 4317SOL    HW213851   4.287   0.797   5.419
 4318SOL     OW13852   0.569   0.889   4.194
 4318SOL    HW113853   0.605   0.977   4.226
 4318SOL    HW213854   0.580   0.882   4.095
 4319SOL     OW13855   1.365   2.806   1.607
 4319SOL    HW113856   1.369   2.793   1.706
 4319SOL    HW213857   1.270   2.797   1.576
 4320SOL     OW13858   3.713   6.220   0.676
 4320SOL    HW113859   3.791   6.159   0.659
 4320SOL    HW213860   3.701   6.281   0.598
 4321SOL     OW13861   7.011   5.938   2.681
 4321SOL    HW113862   6.936   5.989   2.724
 4321SOL    HW213863   0.076   5.962   2.727
 4322SOL     OW13864   0.650   2.253   5.434
 4322SOL    HW113865   0.714   2.328   5.417
 4322SOL    HW213866   0.675   2.175   5.376
 4323SOL     OW13867   3.943   5.460   0.023
 4323SOL    HW113868   3.883   5.537   0.045
 4323SOL    HW213869   3.897   5.401   6.977
 4324SOL     OW13870   0.710   3.663   5.570
 4324SOL    HW113871   0.766   3.719   5.509
 4324SOL    HW213872   0.675   3.719   5.644
 4325SOL     OW13873   2.979   0.451   3.270
 4325SOL    HW113874   2.929   0.517   3.214
 4325SOL    HW213875   2.956   0.465   3.366
 4326SOL     OW13876   5.085   2.963   2.590
 4326SOL    HW113877   5.117   3.057   2.578
 4326SOL    HW213878   5.017   2.942   2.520
 4327SOL     OW13879   3.433   5.492   3.616
 4327SOL    HW113880   3.525   5.480   3.654
 4327SOL    HW213881   3.372   5.421   3.654
 4328SOL     OW13882   6.281   5.128   4.917
 4328SOL    HW113883   6.193   5.109   4.874
 4328SOL    HW213884   6.334   5.044   4.925
 4329SOL     OW13885   5.508   3.037   5.420
 4329SOL    HW113886   5.496   3.098   5.341
 4329SOL    HW213887   5.550   2.952   5.390
 4330SOL     OW13888   2.448   6.246   5.174
 4330SOL    HW113889   2.392   6.276   5.251
 4330SOL    HW213890   2.418   6.156   5.145
 4331SOL     OW13891   6.666   0.387   1.617
 4331SOL    HW113892   6.580   0.343   1.642
 4331SOL    HW213893   6.654   0.486   1.615
 4332SOL     OW13894   6.275   3.697   2.985
 4332SOL    HW113895   6.210   3.638   2.936
 4332SOL    HW213896   6.306   3.650   3.068
 4333SOL     OW13897   4.704   2.165   5.246
 4333SOL    HW113898   4.696   2.166   5.345
 4333SOL    HW213899   4.733   2.074   5.216
 4334SOL     OW13900   1.131   2.542   3.155
 4334SOL    HW113901   1.041   2.508   3.128
 4334SOL    HW213902   1.147   2.630   3.110
 4335SOL     OW13903   3.257   2.924   0.675
 4335SOL    HW113904   3.244   2.964   0.584
 4335SOL    HW213905   3.171   2.882   0.705
 4336SOL     OW13906   1.667   5.306   6.063
 4336SOL    HW113907   1.585   5.363   6.076
 4336SOL    HW213908   1.744   5.365   6.039
 4337SOL     OW13909   1.139   5.952   2.391
 4337SOL    HW113910   1.073   5.909   2.329
 4337SOL    HW213911   1.223   5.971   2.342
 4338SOL     OW13912   6.468   7.008   5.857
 4338SOL    HW113913   6.488   0.084   5.843
 4338SOL    HW213914   6.513   6.955   5.785
 4339SOL     OW13915   3.900   2.159   6.532
 4339SOL    HW113916   3.972   2.156   6.462
 4339SOL    HW213917   3.836   2.084   6.517
 4340SOL     OW13918   6.334   3.739   0.790
 4340SOL    HW113919   6.321   3.700   0.881
 4340SOL    HW213920   6.429   3.769   0.780
 4341SOL     OW13921   0.878   5.795   1.442
 4341SOL    HW113922   0.788   5.754   1.454
 4341SOL    HW213923   0.944   5.723   1.417
 4342SOL     OW13924   5.395   3.791   2.769
 4342SOL    HW113925   5.427   3.719   2.708
 4342SOL    HW213926   5.470   3.822   2.827
 4343SOL     OW13927   4.160   0.543   5.628
 4343SOL    HW113928   4.167   0.497   5.540
 4343SOL    HW213929   4.248   0.540   5.675
 4344SOL     OW13930   0.624   3.192   4.080
 4344SOL    HW113931   0.687   3.209   4.003
 4344SOL    HW213932   0.605   3.094   4.086
 4345SOL     OW13933   2.913   3.377   2.763
 4345SOL    HW113934   2.860   3.427   2.831
 4345SOL    HW213935   2.934   3.438   2.686
 4346SOL     OW13936   2.365   2.659   2.955
 4346SOL    HW113937   2.316   2.720   3.018
 4346SOL    HW213938   2.299   2.614   2.895
 4347SOL     OW13939   6.228   5.235   1.576
 4347SOL    HW113940   6.247   5.206   1.482
 4347SOL    HW213941   6.314   5.243   1.626
 4348SOL     OW13942   6.403   5.894   3.752
 4348SOL    HW113943   6.359   5.902   3.662
 4348SOL    HW213944   6.440   5.983   3.779
 4349SOL     OW13945   0.157   4.149   3.447
 4349SOL    HW113946   0.182   4.176   3.540
 4349SOL    HW213947   0.066   4.107   3.448
 4350SOL     OW13948   5.895   1.608   4.590
 4350SOL    HW113949   5.980   1.649   4.622
 4350SOL    HW213950   5.817   1.662   4.621
 4351SOL     OW13951   1.124   6.446   1.340
 4351SOL    HW113952   1.150   6.480   1.250
 4351SOL    HW213953   1.095   6.522   1.398
 4352SOL     OW13954   5.436   4.414   1.071
 4352SOL    HW113955   5.426   4.433   1.169
 4352SOL    HW213956   5.500   4.338   1.059
 4353SOL     OW13957   3.219   3.387   6.720
 4353SOL    HW113958   3.280   3.420   6.793
 4353SOL    HW213959   3.126   3.381   6.755
 4354SOL     OW13960   0.014   0.609   4.143
 4354SOL    HW113961   0.098   0.613   4.196
 4354SOL    HW213962   7.019   0.697   4.099
 4355SOL     OW13963   1.425   0.311   4.007
 4355SOL    HW113964   1.504   0.253   3.987
 4355SOL    HW213965   1.342   0.257   4.006
 4356SOL     OW13966   5.126   2.725   5.852
 4356SOL    HW113967   5.062   2.767   5.917
 4356SOL    HW213968   5.211   2.703   5.899
 4357SOL     OW13969   6.237   1.425   2.136
 4357SOL    HW113970   6.244   1.337   2.090
 4357SOL    HW213971   6.302   1.428   2.213
 4358SOL     OW13972   0.557   1.325   0.230
 4358SOL    HW113973   0.566   1.423   0.245
 4358SOL    HW213974   0.605   1.299   0.147
 4359SOL     OW13975   2.135   0.624   6.699
 4359SOL    HW113976   2.214   0.665   6.652
 4359SOL    HW213977   2.156   0.528   6.719
 4360SOL     OW13978   1.151   2.645   3.412
 4360SOL    HW113979   1.126   2.741   3.403
 4360SOL    HW213980   1.137   2.598   3.325
 4361SOL     OW13981   1.349   2.342   1.093
 4361SOL    HW113982   1.302   2.280   1.031
 4361SOL    HW213983   1.287   2.414   1.122
 4362SOL     OW13984   0.812   6.233   4.134
 4362SOL    HW113985   0.879   6.164   4.107
 4362SOL    HW213986   0.843   6.323   4.103
 4363SOL     OW13987   4.478   0.706   3.019
 4363SOL    HW113988   4.458   0.771   3.092
 4363SOL    HW213989   4.401   0.703   2.955
 4364SOL     OW13990   2.938   3.842   2.564
 4364SOL    HW113991   2.945   3.914   2.634
 4364SOL    HW213992   2.980   3.873   2.479
 4365SOL     OW13993   3.222   2.141   1.880
 4365SOL    HW113994   3.230   2.226   1.828
 4365SOL    HW213995   3.305   2.127   1.934
 4366SOL     OW13996   5.304   5.518   5.101
 4366SOL    HW113997   5.373   5.548   5.167
 4366SOL    HW213998   5.241   5.455   5.145
 4367SOL     OW13999   3.133   5.244   3.232
 4367SOL    HW114000   3.071   5.321   3.249
 4367SOL    HW214001   3.097   5.189   3.157
 4368SOL     OW14002   4.967   5.915   2.490
 4368SOL    HW114003   5.064   5.933   2.505
 4368SOL    HW214004   4.930   5.983   2.426
 4369SOL     OW14005   4.949   5.257   2.818
 4369SOL    HW114006   4.939   5.224   2.724
 4369SOL    HW214007   4.859   5.274   2.857
 4370SOL     OW14008   3.670   4.302   1.545
 4370SOL    HW114009   3.741   4.248   1.501
 4370SOL    HW214010   3.679   4.398   1.516
 4371SOL     OW14011   2.650   1.034   1.938
 4371SOL    HW114012   2.741   1.016   1.976
 4371SOL    HW214013   2.655   1.032   1.838
 4372SOL     OW14014   1.738   2.333   5.012
 4372SOL    HW114015   1.641   2.318   5.030
 4372SOL    HW214016   1.750   2.422   4.966
 4373SOL     OW14017   4.694   1.078   6.173
 4373SOL    HW114018   4.701   1.027   6.259
 4373SOL    HW214019   4.772   1.140   6.165
 4374SOL     OW14020   2.275   1.937   1.535
 4374SOL    HW114021   2.335   1.892   1.602
 4374SOL    HW214022   2.328   2.005   1.484
 4375SOL     OW14023   3.751   0.334   3.617
 4375SOL    HW114024   3.834   0.384   3.643
 4375SOL    HW214025   3.748   0.322   3.518
 4376SOL     OW14026   6.319   6.199   1.583
 4376SOL    HW114027   6.222   6.183   1.605
 4376SOL    HW214028   6.331   6.201   1.484
 4377SOL     OW14029   5.645   6.326   0.486
 4377SOL    HW114030   5.596   6.370   0.561
 4377SOL    HW214031   5.736   6.367   0.478
 4378SOL     OW14032   1.782   5.337   2.234
 4378SOL    HW114033   1.862   5.277   2.222
 4378SOL    HW214034   1.810   5.432   2.220
 4379SOL     OW14035   1.736   0.670   1.757
 4379SOL    HW114036   1.657   0.724   1.728
 4379SOL    HW214037   1.803   0.729   1.802
 4380SOL     OW14038   2.055   5.849   5.040
 4380SOL    HW114039   2.066   5.756   5.005
 4380SOL    HW214040   1.980   5.851   5.107
 4381SOL     OW14041   3.965   5.925   4.572
 4381SOL    HW114042   3.951   5.985   4.494
 4381SOL    HW214043   4.046   5.868   4.557
 4382SOL     OW14044   4.793   4.175   4.387
 4382SOL    HW114045   4.720   4.194   4.453
 4382SOL    HW214046   4.832   4.085   4.407
 4383SOL     OW14047   1.283   2.002   6.075
 4383SOL    HW114048   1.281   2.021   6.173
 4383SOL    HW214049   1.274   1.904   6.060
 4384SOL     OW14050   3.960   6.958   1.219
 4384SOL    HW114051   3.901   6.968   1.139
 4384SOL    HW214052   3.946   0.014   1.281
 4385SOL     OW14053   0.162   1.860   3.801
 4385SOL    HW114054   0.133   1.844   3.895
 4385SOL    HW214055   0.185   1.773   3.758
 4386SOL     OW14056   0.909   4.122   6.795
 4386SOL    HW114057   0.928   4.135   6.698
 4386SOL    HW214058   0.916   4.024   6.817
 4387SOL     OW14059   6.527   3.011   1.291
 4387SOL    HW114060   6.612   2.962   1.312
 4387SOL    HW214061   6.450   2.948   1.299
 4388SOL     OW14062   3.874   0.394   6.553
 4388SOL    HW114063   3.903   0.480   6.510
 4388SOL    HW214064   3.874   0.321   6.485
 4389SOL     OW14065   5.623   2.764   1.338
 4389SOL    HW114066   5.555   2.822   1.385
 4389SOL    HW214067   5.714   2.783   1.376
 4390SOL     OW14068   4.784   2.025   1.568
 4390SOL    HW114069   4.806   1.928   1.581
 4390SOL    HW214070   4.869   2.076   1.551
 4391SOL     OW14071   0.775   6.066   6.924
 4391SOL    HW114072   0.769   6.119   6.839
 4391SOL    HW214073   0.846   6.104   6.983
 4392SOL     OW14074   4.833   3.145   4.494
 4392SOL    HW114075   4.824   3.153   4.394
 4392SOL    HW214076   4.754   3.095   4.530
 4393SOL     OW14077   5.299   0.114   3.857
 4393SOL    HW114078   5.268   0.207   3.842
 4393SOL    HW214079   5.385   0.099   3.809
 4394SOL     OW14080   5.793   6.129   3.293
 4394SOL    HW114081   5.797   6.152   3.196
 4394SOL    HW214082   5.859   6.184   3.343
 4395SOL     OW14083   4.333   1.522   1.602
 4395SOL    HW114084   4.315   1.606   1.551
 4395SOL    HW214085   4.246   1.479   1.627
 4396SOL     OW14086   1.494   1.550   4.568
 4396SOL    HW114087   1.572   1.518   4.622
 4396SOL    HW214088   1.527   1.588   4.481
 4397SOL     OW14089   0.416   1.584   4.443
 4397SOL    HW114090   0.424   1.679   4.471
 4397SOL    HW214091   0.319   1.561   4.431
 4398SOL     OW14092   1.176   3.939   4.574
 4398SOL    HW114093   1.099   3.989   4.614
 4398SOL    HW214094   1.261   3.968   4.618
 4399SOL     OW14095   2.304   0.193   0.709
 4399SOL    HW114096   2.374   0.246   0.757
 4399SOL    HW214097   2.324   0.095   0.720
 4400SOL     OW14098   2.346   6.581   4.209
 4400SOL    HW114099   2.376   6.673   4.184
 4400SOL    HW214100   2.268   6.555   4.153
 4401SOL     OW14101   5.434   6.366   5.400
 4401SOL    HW114102   5.499   6.422   5.349
 4401SOL    HW214103   5.352   6.419   5.420
 4402SOL     OW14104   0.990   5.649   2.602
 4402SOL    HW114105   0.946   5.602   2.678
 4402SOL    HW214106   1.028   5.736   2.634
 4403SOL     OW14107   6.799   0.160   3.245
 4403SOL    HW114108   6.843   0.080   3.204
 4403SOL    HW214109   6.844   0.243   3.211
 4404SOL     OW14110   1.043   4.292   4.127
 4404SOL    HW114111   1.073   4.257   4.038
 4404SOL    HW214112   0.974   4.231   4.165
 4405SOL     OW14113   3.196   4.445   5.790
 4405SOL    HW114114   3.196   4.430   5.691
 4405SOL    HW214115   3.220   4.359   5.837
 4406SOL     OW14116   4.825   4.798   1.455
 4406SOL    HW114117   4.826   4.699   1.471
 4406SOL    HW214118   4.884   4.819   1.377
 4407SOL     OW14119   7.014   6.148   0.652
 4407SOL    HW114120   6.954   6.116   0.578
 4407SOL    HW214121   0.069   6.198   0.613
 4408SOL     OW14122   4.475   0.229   0.674
 4408SOL    HW114123   4.473   0.317   0.627
 4408SOL    HW214124   4.555   0.177   0.644
 4409SOL     OW14125   4.305   1.825   1.891
 4409SOL    HW114126   4.259   1.835   1.803
 4409SOL    HW214127   4.249   1.770   1.952
 4410SOL     OW14128   2.478   4.248   0.223
 4410SOL    HW114129   2.415   4.172   0.239
 4410SOL    HW214130   2.463   4.318   0.292
 4411SOL     OW14131   3.719   3.553   2.936
 4411SOL    HW114132   3.693   3.524   3.028
 4411SOL    HW214133   3.669   3.637   2.912
 4412SOL     OW14134   4.278   1.227   5.571
 4412SOL    HW114135   4.334   1.152   5.606
 4412SOL    HW214136   4.218   1.193   5.498
 4413SOL     OW14137   3.986   5.722   4.150
 4413SOL    HW114138   3.907   5.783   4.140
 4413SOL    HW214139   3.987   5.685   4.243
 4414SOL     OW14140   4.394   4.965   2.366
 4414SOL    HW114141   4.297   4.939   2.372
 4414SOL    HW214142   4.404   5.061   2.394
 4415SOL     OW14143   5.763   3.918   5.979
 4415SOL    HW114144   5.757   3.857   6.059
 4415SOL    HW214145   5.840   3.889   5.921
 4416SOL     OW14146   2.944   1.557   4.138
 4416SOL    HW114147   2.917   1.468   4.103
 4416SOL    HW214148   2.886   1.581   4.216
 4417SOL     OW14149   6.721   4.848   2.299
 4417SOL    HW114150   6.678   4.828   2.387
 4417SOL    HW214151   6.651   4.867   2.231
 4418SOL     OW14152   4.900   6.349   3.749
 4418SOL    HW114153   4.810   6.324   3.715
 4418SOL    HW214154   4.911   6.316   3.842
 4419SOL     OW14155   5.775   5.501   0.768
 4419SOL    HW114156   5.860   5.532   0.726
 4419SOL    HW214157   5.769   5.401   0.761
 4420SOL     OW14158   4.753   0.807   0.865
 4420SOL    HW114159   4.841   0.799   0.911
 4420SOL    HW214160   4.680   0.780   0.929
 4421SOL     OW14161   2.633   1.410   2.550
 4421SOL    HW114162   2.619   1.492   2.494
 4421SOL    HW214163   2.717   1.364   2.520
 4422SOL     OW14164   3.269   3.294   5.890
 4422SOL    HW114165   3.360   3.273   5.924
 4422SOL    HW214166   3.260   3.259   5.796
 4423SOL     OW14167   1.528   1.760   5.934
 4423SOL    HW114168   1.544   1.843   5.988
 4423SOL    HW214169   1.597   1.753   5.862
 4424SOL     OW14170   5.110   6.270   2.790
 4424SOL    HW114171   5.125   6.256   2.888
 4424SOL    HW214172   5.198   6.279   2.744
 4425SOL     OW14173   3.608   5.116   6.091
 4425SOL    HW114174   3.684   5.175   6.119
 4425SOL    HW214175   3.521   5.157   6.119
 4426SOL     OW14176   6.964   0.809   5.760
 4426SOL    HW114177   7.007   0.719   5.765
 4426SOL    HW214178   7.018   0.868   5.701
 4427SOL     OW14179   0.749   0.775   3.335
 4427SOL    HW114180   0.693   0.708   3.287
 4427SOL    HW214181   0.810   0.820   3.270
 4428SOL     OW14182   2.965   4.786   4.261
 4428SOL    HW114183   2.922   4.784   4.171
 4428SOL    HW214184   2.918   4.853   4.319
 4429SOL     OW14185   2.839   0.139   3.561
 4429SOL    HW114186   2.756   0.105   3.516
 4429SOL    HW214187   2.906   0.164   3.491
 4430SOL     OW14188   4.466   2.469   3.209
 4430SOL    HW114189   4.515   2.556   3.202
 4430SOL    HW214190   4.419   2.450   3.123
 4431SOL     OW14191   2.803   1.639   2.997
 4431SOL    HW114192   2.803   1.658   2.899
 4431SOL    HW214193   2.895   1.613   3.026
 4432SOL     OW14194   3.586   2.903   3.253
 4432SOL    HW114195   3.551   2.877   3.163
 4432SOL    HW214196   3.682   2.930   3.244
 4433SOL     OW14197   6.056   0.042   3.499
 4433SOL    HW114198   6.124   0.106   3.536
 4433SOL    HW214199   6.003   0.002   3.574
 4434SOL     OW14200   5.221   1.568   4.003
 4434SOL    HW114201   5.139   1.600   3.957
 4434SOL    HW214202   5.302   1.591   3.948
 4435SOL     OW14203   3.738   3.125   1.111
 4435SOL    HW114204   3.783   3.127   1.201
 4435SOL    HW214205   3.788   3.184   1.048
 4436SOL     OW14206   2.903   1.989   0.071
 4436SOL    HW114207   2.971   1.942   0.015
 4436SOL    HW214208   2.898   1.944   0.160
 4437SOL     OW14209   4.233   0.856   4.602
 4437SOL    HW114210   4.236   0.757   4.604
 4437SOL    HW214211   4.290   0.890   4.527
 4438SOL     OW14212   4.249   2.092   0.362
 4438SOL    HW114213   4.338   2.136   0.376
 4438SOL    HW214214   4.184   2.158   0.324
 4439SOL     OW14215   0.648   4.862   1.666
 4439SOL    HW114216   0.630   4.918   1.747
 4439SOL    HW214217   0.569   4.863   1.605
 4440SOL     OW14218   2.001   5.442   0.352
 4440SOL    HW114219   1.970   5.528   0.392
 4440SOL    HW214220   2.100   5.445   0.340
 4441SOL     OW14221   6.489   2.164   2.212
 4441SOL    HW114222   6.454   2.229   2.279
 4441SOL    HW214223   6.588   2.178   2.200
 4442SOL     OW14224   3.729   6.176   3.267
 4442SOL    HW114225   3.766   6.083   3.262
 4442SOL    HW214226   3.797   6.241   3.236
 4443SOL     OW14227   2.073   1.853   6.489
 4443SOL    HW114228   2.163   1.817   6.515
 4443SOL    HW214229   2.049   1.928   6.550
 4444SOL     OW14230   4.508   6.044   0.261
 4444SOL    HW114231   4.458   6.082   0.183
 4444SOL    HW214232   4.596   6.009   0.230
 4445SOL     OW14233   1.367   0.575   6.297
 4445SOL    HW114234   1.369   0.616   6.206
 4445SOL    HW214235   1.448   0.605   6.349
 4446SOL     OW14236   5.859   1.220   1.597
 4446SOL    HW114237   5.776   1.169   1.620
 4446SOL    HW214238   5.901   1.179   1.516
 4447SOL     OW14239   5.273   3.366   5.381
 4447SOL    HW114240   5.206   3.333   5.446
 4447SOL    HW214241   5.322   3.445   5.420
 4448SOL     OW14242   2.834   3.735   0.385
 4448SOL    HW114243   2.868   3.777   0.301
 4448SOL    HW214244   2.911   3.704   0.441
 4449SOL     OW14245   3.495   0.379   5.728
 4449SOL    HW114246   3.494   0.324   5.811
 4449SOL    HW214247   3.538   0.328   5.654
 4450SOL     OW14248   3.005   3.344   3.094
 4450SOL    HW114249   3.091   3.365   3.047
 4450SOL    HW214250   3.004   3.246   3.117
 4451SOL     OW14251   6.188   4.324   2.656
 4451SOL    HW114252   6.129   4.355   2.730
 4451SOL    HW214253   6.283   4.320   2.689
 4452SOL     OW14254   6.305   6.968   5.264
 4452SOL    HW114255   6.374   6.898   5.284
 4452SOL    HW214256   6.273   7.009   5.349
 4453SOL     OW14257   6.191   3.031   1.612
 4453SOL    HW114258   6.266   3.082   1.569
 4453SOL    HW214259   6.222   2.937   1.630
 4454SOL     OW14260   5.223   2.514   1.052
 4454SOL    HW114261   5.274   2.575   1.113
 4454SOL    HW214262   5.287   2.452   1.006
 4455SOL     OW14263   3.439   5.980   1.649
 4455SOL    HW114264   3.505   5.979   1.724
 4455SOL    HW214265   3.439   6.070   1.605
 4456SOL     OW14266   2.189   5.576   2.234
 4456SOL    HW114267   2.200   5.499   2.297
 4456SOL    HW214268   2.198   5.545   2.140
 4457SOL     OW14269   4.259   2.342   6.194
 4457SOL    HW114270   4.189   2.345   6.123
 4457SOL    HW214271   4.258   2.428   6.245
 4458SOL     OW14272   2.256   3.228   6.343
 4458SOL    HW114273   2.275   3.243   6.440
 4458SOL    HW214274   2.249   3.130   6.325
 4459SOL     OW14275   5.340   0.568   3.866
 4459SOL    HW114276   5.400   0.523   3.800
 4459SOL    HW214277   5.358   0.667   3.866
 4460SOL     OW14278   2.190   3.320   6.688
 4460SOL    HW114279   2.168   3.417   6.672
 4460SOL    HW214280   2.195   3.303   6.786
 4461SOL     OW14281   1.164   6.918   2.236
 4461SOL    HW114282   1.210   6.830   2.228
 4461SOL    HW214283   1.075   6.906   2.280
 4462SOL     OW14284   6.365   4.664   0.850
 4462SOL    HW114285   6.284   4.651   0.793
 4462SOL    HW214286   6.370   4.592   0.919
 4463SOL     OW14287   1.647   2.694   6.800
 4463SOL    HW114288   1.648   2.605   6.845
 4463SOL    HW214289   1.723   2.700   6.735
 4464SOL     OW14290   6.065   4.746   6.990
 4464SOL    HW114291   6.092   4.827   6.938
 4464SOL    HW214292   6.130   4.672   6.975
 4465SOL     OW14293   2.101   6.769   2.283
 4465SOL    HW114294   2.022   6.748   2.340
 4465SOL    HW214295   2.075   6.762   2.186
 4466SOL     OW14296   0.849   1.061   2.549
 4466SOL    HW114297   0.898   0.974   2.544
 4466SOL    HW214298   0.915   1.136   2.546
 4467SOL     OW14299   1.479   6.648   3.568
 4467SOL    HW114300   1.522   6.722   3.516
 4467SOL    HW214301   1.505   6.655   3.664
 4468SOL     OW14302   1.031   2.087   0.194
 4468SOL    HW114303   1.003   2.081   0.099
 4468SOL    HW214304   0.974   2.154   0.242
 4469SOL     OW14305   2.895   0.112   2.141
 4469SOL    HW114306   2.829   0.183   2.165
 4469SOL    HW214307   2.851   0.022   2.148
 4470SOL     OW14308   5.278   3.984   1.612
 4470SOL    HW114309   5.278   4.064   1.672
 4470SOL    HW214310   5.367   3.975   1.568
 4471SOL     OW14311   0.359   2.919   0.252
 4471SOL    HW114312   0.418   2.862   0.195
 4471SOL    HW214313   0.298   2.861   0.306
 4472SOL     OW14314   1.688   4.018   2.516
 4472SOL    HW114315   1.745   4.009   2.597
 4472SOL    HW214316   1.608   4.074   2.537
 4473SOL     OW14317   0.112   0.628   4.569
 4473SOL    HW114318   0.156   0.655   4.655
 4473SOL    HW214319   0.182   0.618   4.498
 4474SOL     OW14320   3.109   0.334   2.672
 4474SOL    HW114321   3.193   0.317   2.620
 4474SOL    HW214322   3.058   0.408   2.629
 4475SOL     OW14323   1.222   3.931   1.509
 4475SOL    HW114324   1.187   4.002   1.447
 4475SOL    HW214325   1.274   3.864   1.456
 4476SOL     OW14326   4.880   6.367   2.643
 4476SOL    HW114327   4.907   6.451   2.597
 4476SOL    HW214328   4.950   6.343   2.711
 4477SOL     OW14329   2.194   0.005   6.834
 4477SOL    HW114330   2.215   0.049   6.746
 4477SOL    HW214331   2.114   0.050   6.875
 4478SOL     OW14332   2.541   6.761   2.157
 4478SOL    HW114333   2.599   6.682   2.136
 4478SOL    HW214334   2.446   6.730   2.166
 4479SOL     OW14335   1.186   0.086   6.207
 4479SOL    HW114336   1.285   0.103   6.215
 4479SOL    HW214337   1.147   0.076   6.298
 4480SOL     OW14338   2.128   3.774   4.555
 4480SOL    HW114339   2.169   3.722   4.630
 4480SOL    HW214340   2.130   3.720   4.471
 4481SOL     OW14341   1.879   6.195   4.520
 4481SOL    HW114342   1.949   6.210   4.590
 4481SOL    HW214343   1.906   6.241   4.435
 4482SOL     OW14344   0.946   4.053   4.689
 4482SOL    HW114345   0.878   4.050   4.616
 4482SOL    HW214346   0.942   4.141   4.735
 4483SOL     OW14347   0.142   3.265   1.201
 4483SOL    HW114348   0.062   3.206   1.214
 4483SOL    HW214349   0.123   3.333   1.131
 4484SOL     OW14350   3.763   2.406   5.353
 4484SOL    HW114351   3.731   2.318   5.318
 4484SOL    HW214352   3.852   2.394   5.397
 4485SOL     OW14353   4.968   2.620   6.630
 4485SOL    HW114354   4.957   2.521   6.643
 4485SOL    HW214355   4.976   2.665   6.719
 4486SOL     OW14356   0.200   4.044   5.120
 4486SOL    HW114357   0.194   3.975   5.191
 4486SOL    HW214358   0.111   4.086   5.106
 4487SOL     OW14359   2.500   3.724   6.685
 4487SOL    HW114360   2.420   3.724   6.625
 4487SOL    HW214361   2.487   3.790   6.759
 4488SOL     OW14362   5.508   2.483   6.162
 4488SOL    HW114363   5.439   2.416   6.191
 4488SOL    HW214364   5.554   2.451   6.080
 4489SOL     OW14365   5.381   5.873   4.607
 4489SOL    HW114366   5.313   5.852   4.678
 4489SOL    HW214367   5.343   5.851   4.517
 4490SOL     OW14368   5.822   1.900   1.690
 4490SOL    HW114369   5.792   1.978   1.635
 4490SOL    HW214370   5.919   1.912   1.715
 4491SOL     OW14371   1.204   3.778   2.573
 4491SOL    HW114372   1.109   3.748   2.583
 4491SOL    HW214373   1.230   3.832   2.653
 4492SOL     OW14374   5.258   2.255   0.027
 4492SOL    HW114375   5.203   2.174   0.006
 4492SOL    HW214376   5.200   2.336   0.021
 4493SOL     OW14377   4.357   5.296   4.690
 4493SOL    HW114378   4.309   5.229   4.745
 4493SOL    HW214379   4.388   5.253   4.605
 4494SOL     OW14380   0.015   2.704   5.950
 4494SOL    HW114381   0.001   2.786   6.006
 4494SOL    HW214382   0.095   2.717   5.892
 4495SOL     OW14383   5.255   6.959   2.765
 4495SOL    HW114384   5.303   0.020   2.795
 4495SOL    HW214385   5.249   6.957   2.666
 4496SOL     OW14386   5.020   4.856   0.161
 4496SOL    HW114387   5.110   4.872   0.201
 4496SOL    HW214388   5.022   4.770   0.110
 4497SOL     OW14389   5.666   6.032   6.849
 4497SOL    HW114390   5.593   6.100   6.862
 4497SOL    HW214391   5.626   5.940   6.847
 4498SOL     OW14392   0.147   3.872   6.700
 4498SOL    HW114393   0.175   3.956   6.745
 4498SOL    HW214394   0.121   3.891   6.605
 4499SOL     OW14395   6.572   2.894   4.752
 4499SOL    HW114396   6.571   2.827   4.826
 4499SOL    HW214397   6.487   2.887   4.700
 4500SOL     OW14398   3.061   3.898   3.804
 4500SOL    HW114399   3.058   3.977   3.865
 4500SOL    HW214400   3.104   3.925   3.717
 4501SOL     OW14401   1.004   3.656   5.842
 4501SOL    HW114402   1.040   3.722   5.908
 4501SOL    HW214403   0.963   3.579   5.891
 4502SOL     OW14404   1.741   2.543   6.164
 4502SOL    HW114405   1.775   2.500   6.080
 4502SOL    HW214406   1.778   2.495   6.243
 4503SOL     OW14407   2.465   1.059   3.337
 4503SOL    HW114408   2.552   1.054   3.386
 4503SOL    HW214409   2.475   1.119   3.257
 4504SOL     OW14410   6.532   2.375   5.654
 4504SOL    HW114411   6.490   2.466   5.649
 4504SOL    HW214412   6.623   2.378   5.613
 4505SOL     OW14413   0.499   6.107   4.920
 4505SOL    HW114414   0.476   6.021   4.964
 4505SOL    HW214415   0.467   6.183   4.977
 4506SOL     OW14416   3.660   1.805   4.774
 4506SOL    HW114417   3.573   1.757   4.790
 4506SOL    HW214418   3.736   1.740   4.783
 4507SOL     OW14419   5.294   5.292   1.693
 4507SOL    HW114420   5.371   5.229   1.696
 4507SOL    HW214421   5.321   5.374   1.642
 4508SOL     OW14422   1.380   4.265   0.368
 4508SOL    HW114423   1.326   4.329   0.423
 4508SOL    HW214424   1.320   4.193   0.333
 4509SOL     OW14425   4.462   2.074   4.376
 4509SOL    HW114426   4.434   2.170   4.374
 4509SOL    HW214427   4.457   2.036   4.284
 4510SOL     OW14428   5.841   0.791   5.137
 4510SOL    HW114429   5.931   0.834   5.132
 4510SOL    HW214430   5.799   0.813   5.225
 4511SOL     OW14431   0.388   3.373   0.041
 4511SOL    HW114432   0.445   3.313   0.097
 4511SOL    HW214433   0.409   3.358   6.966
 4512SOL     OW14434   2.571   6.615   6.762
 4512SOL    HW114435   2.550   6.560   6.682
 4512SOL    HW214436   2.526   6.704   6.754
 4513SOL     OW14437   4.549   6.658   1.360
 4513SOL    HW114438   4.494   6.739   1.343
 4513SOL    HW214439   4.644   6.686   1.379
 4514SOL     OW14440   3.662   1.317   4.859
 4514SOL    HW114441   3.644   1.406   4.901
 4514SOL    HW214442   3.666   1.327   4.759
 4515SOL     OW14443   6.493   4.516   6.708
 4515SOL    HW114444   6.456   4.587   6.767
 4515SOL    HW214445   6.589   4.500   6.730
 4516SOL     OW14446   1.202   0.933   5.543
 4516SOL    HW114447   1.179   0.884   5.627
 4516SOL    HW214448   1.152   0.892   5.466
 4517SOL     OW14449   2.824   6.547   6.236
 4517SOL    HW114450   2.898   6.513   6.293
 4517SOL    HW214451   2.807   6.643   6.258
 4518SOL     OW14452   1.041   2.568   4.049
 4518SOL    HW114453   1.115   2.501   4.047
 4518SOL    HW214454   0.962   2.528   4.096
 4519SOL     OW14455   0.305   2.145   3.399
 4519SOL    HW114456   0.286   2.122   3.495
 4519SOL    HW214457   0.265   2.076   3.340
 4520SOL     OW14458   6.010   4.436   2.848
 4520SOL    HW114459   5.943   4.479   2.787
 4520SOL    HW214460   5.966   4.413   2.934
 4521SOL     OW14461   4.735   1.950   6.280
 4521SOL    HW114462   4.806   1.880   6.287
 4521SOL    HW214463   4.778   2.038   6.256
 4522SOL     OW14464   5.382   6.815   3.635
 4522SOL    HW114465   5.375   6.831   3.536
 4522SOL    HW214466   5.412   6.898   3.681
 4523SOL     OW14467   2.717   4.316   6.916
 4523SOL    HW114468   2.737   4.367   7.000
 4523SOL    HW214469   2.619   4.318   6.898
 4524SOL     OW14470   5.238   1.410   5.508
 4524SOL    HW114471   5.296   1.333   5.483
 4524SOL    HW214472   5.148   1.400   5.464
 4525SOL     OW14473   6.499   1.914   4.242
 4525SOL    HW114474   6.529   1.820   4.256
 4525SOL    HW214475   6.536   1.972   4.315
 4526SOL     OW14476   5.114   0.139   1.255
 4526SOL    HW114477   5.128   0.059   1.197
 4526SOL    HW214478   5.055   0.205   1.207
 4527SOL     OW14479   4.171   0.472   3.590
 4527SOL    HW114480   4.144   0.395   3.648
 4527SOL    HW214481   4.158   0.557   3.640
 4528SOL     OW14482   4.808   6.850   0.178
 4528SOL    HW114483   4.823   6.760   0.137
 4528SOL    HW214484   4.891   6.879   0.225
 4529SOL     OW14485   2.907   1.353   3.261
 4529SOL    HW114486   2.976   1.425   3.264
 4529SOL    HW214487   2.938   1.275   3.315
 4530SOL     OW14488   0.395   3.397   5.609
 4530SOL    HW114489   0.300   3.367   5.612
 4530SOL    HW214490   0.407   3.476   5.669
 4531SOL     OW14491   1.480   4.027   3.004
 4531SOL    HW114492   1.405   4.078   3.046
 4531SOL    HW214493   1.544   3.997   3.076
 4532SOL     OW14494   6.671   1.209   1.200
 4532SOL    HW114495   6.677   1.240   1.106
 4532SOL    HW214496   6.761   1.183   1.233
 4533SOL     OW14497   1.655   0.524   3.749
 4533SOL    HW114498   1.556   0.526   3.761
 4533SOL    HW214499   1.683   0.598   3.687
 4534SOL     OW14500   6.460   3.815   4.748
 4534SOL    HW114501   6.426   3.868   4.670
 4534SOL    HW214502   6.436   3.718   4.735
 4535SOL     OW14503   4.507   2.184   2.467
 4535SOL    HW114504   4.576   2.230   2.412
 4535SOL    HW214505   4.450   2.126   2.408
 4536SOL     OW14506   4.623   1.474   4.230
 4536SOL    HW114507   4.610   1.450   4.327
 4536SOL    HW214508   4.617   1.573   4.219
 4537SOL     OW14509   3.556   3.196   6.396
 4537SOL    HW114510   3.640   3.248   6.384
 4537SOL    HW214511   3.479   3.259   6.408
 4538SOL     OW14512   3.300   2.078   3.899
 4538SOL    HW114513   3.295   2.129   3.813
 4538SOL    HW214514   3.382   2.107   3.949
 4539SOL     OW14515   2.684   2.320   4.060
 4539SOL    HW114516   2.607   2.322   4.125
 4539SOL    HW214517   2.651   2.344   3.969
 4540SOL     OW14518   3.370   3.446   3.651
 4540SOL    HW114519   3.291   3.486   3.697
 4540SOL    HW214520   3.339   3.389   3.575
 4541SOL     OW14521   4.955   0.772   0.207
 4541SOL    HW114522   4.997   0.855   0.169
 4541SOL    HW214523   5.027   0.705   0.227
 4542SOL     OW14524   6.064   6.102   1.604
 4542SOL    HW114525   6.070   6.005   1.578
 4542SOL    HW214526   5.969   6.132   1.595
 4543SOL     OW14527   4.590   1.792   7.008
 4543SOL    HW114528   4.666   1.806   0.051
 4543SOL    HW214529   4.544   1.879   6.991
 4544SOL     OW14530   2.316   5.944   6.668
 4544SOL    HW114531   2.413   5.940   6.694
 4544SOL    HW214532   2.275   6.027   6.706
 4545SOL     OW14533   4.440   2.155   5.187
 4545SOL    HW114534   4.399   2.065   5.203
 4545SOL    HW214535   4.535   2.155   5.218
 4546SOL     OW14536   0.966   0.285   6.035
 4546SOL    HW114537   0.867   0.275   6.039
 4546SOL    HW214538   1.004   0.282   6.128
 4547SOL     OW14539   5.475   2.967   1.799
 4547SOL    HW114540   5.491   2.919   1.713
 4547SOL    HW214541   5.394   2.928   1.844
 4548SOL     OW14542   0.700   4.917   4.240
 4548SOL    HW114543   0.798   4.902   4.255
 4548SOL    HW214544   0.688   4.974   4.159
 4549SOL     OW14545   6.682   3.392   3.491
 4549SOL    HW114546   6.655   3.473   3.438
 4549SOL    HW214547   6.762   3.350   3.447
 4550SOL     OW14548   0.843   6.199   3.655
 4550SOL    HW114549   0.883   6.213   3.564
 4550SOL    HW214550   0.895   6.251   3.722
 4551SOL     OW14551   0.025   1.917   5.454
 4551SOL    HW114552   0.113   1.964   5.443
 4551SOL    HW214553   6.988   1.937   5.376
 4552SOL     OW14554   0.675   3.075   5.772
 4552SOL    HW114555   0.586   3.089   5.730
 4552SOL    HW214556   0.685   3.135   5.851
 4553SOL     OW14557   4.143   4.875   0.012
 4553SOL    HW114558   4.172   4.836   0.100
 4553SOL    HW214559   4.174   4.816   6.959
 4554SOL     OW14560   3.800   0.700   2.365
 4554SOL    HW114561   3.837   0.672   2.454
 4554SOL    HW214562   3.716   0.649   2.347
 4555SOL     OW14563   4.281   1.866   6.832
 4555SOL    HW114564   4.292   1.767   6.827
 4555SOL    HW214565   4.352   1.904   6.892
 4556SOL     OW14566   4.024   1.004   3.476
 4556SOL    HW114567   4.063   1.045   3.394
 4556SOL    HW214568   3.952   0.939   3.450
 4557SOL     OW14569   5.340   0.528   4.827
 4557SOL    HW114570   5.363   0.614   4.873
 4557SOL    HW214571   5.346   0.453   4.892
 4558SOL     OW14572   6.018   3.720   6.314
 4558SOL    HW114573   6.070   3.770   6.383
 4558SOL    HW214574   6.079   3.659   6.264
 4559SOL     OW14575   1.712   6.569   1.363
 4559SOL    HW114576   1.781   6.591   1.294
 4559SOL    HW214577   1.621   6.592   1.329
 4560SOL     OW14578   4.878   3.942   3.149
 4560SOL    HW114579   4.942   3.866   3.156
 4560SOL    HW214580   4.895   4.007   3.223
 4561SOL     OW14581   2.625   0.823   0.702
 4561SOL    HW114582   2.714   0.779   0.701
 4561SOL    HW214583   2.613   0.872   0.789
 4562SOL     OW14584   3.057   5.818   5.567
 4562SOL    HW114585   2.963   5.841   5.594
 4562SOL    HW214586   3.058   5.729   5.522
 4563SOL     OW14587   5.507   2.870   0.382
 4563SOL    HW114588   5.509   2.965   0.352
 4563SOL    HW214589   5.412   2.841   0.395
 4564SOL     OW14590   0.671   5.505   0.490
 4564SOL    HW114591   0.759   5.525   0.533
 4564SOL    HW214592   0.601   5.562   0.531
 4565SOL     OW14593   0.489   1.533   5.545
 4565SOL    HW114594   0.454   1.550   5.453
 4565SOL    HW214595   0.586   1.509   5.540
 4566SOL     OW14596   6.689   0.759   6.857
 4566SOL    HW114597   6.702   0.687   6.789
 4566SOL    HW214598   6.770   0.767   6.914
 4567SOL     OW14599   0.110   0.621   1.005
 4567SOL    HW114600   0.182   0.576   0.953
 4567SOL    HW214601   0.024   0.571   0.992
 4568SOL     OW14602   2.053   4.389   5.296
 4568SOL    HW114603   1.978   4.339   5.339
 4568SOL    HW214604   2.090   4.335   5.220
 4569SOL     OW14605   1.379   2.490   3.964
 4569SOL    HW114606   1.416   2.582   3.967
 4569SOL    HW214607   1.454   2.424   3.953
 4570SOL     OW14608   6.939   6.034   3.323
 4570SOL    HW114609   0.002   6.044   3.271
 4570SOL    HW214610   6.952   5.967   3.396
 4571SOL     OW14611   3.164   3.669   4.917
 4571SOL    HW114612   3.235   3.615   4.962
 4571SOL    HW214613   3.201   3.711   4.835
 4572SOL     OW14614   0.051   6.993   0.577
 4572SOL    HW114615   7.014   6.974   0.656
 4572SOL    HW214616   0.104   6.912   0.554
 4573SOL     OW14617   5.399   6.221   1.036
 4573SOL    HW114618   5.447   6.305   1.011
 4573SOL    HW214619   5.383   6.165   0.955
 4574SOL     OW14620   6.988   4.832   1.040
 4574SOL    HW114621   6.982   4.928   1.067
 4574SOL    HW214622   6.912   4.809   0.978
 4575SOL     OW14623   6.737   2.317   0.656
 4575SOL    HW114624   6.673   2.394   0.657
 4575SOL    HW214625   6.812   2.337   0.593
 4576SOL     OW14626   3.080   5.829   6.141
 4576SOL    HW114627   3.105   5.803   6.048
 4576SOL    HW214628   2.981   5.822   6.152
 4577SOL     OW14629   0.827   3.714   2.831
 4577SOL    HW114630   0.827   3.809   2.799
 4577SOL    HW214631   0.820   3.712   2.930
 4578SOL     OW14632   1.081   3.509   3.015
 4578SOL    HW114633   1.131   3.436   2.969
 4578SOL    HW214634   1.025   3.471   3.088
 4579SOL     OW14635   4.736   1.537   2.861
 4579SOL    HW114636   4.743   1.587   2.948
 4579SOL    HW214637   4.789   1.584   2.791
 4580SOL     OW14638   6.273   5.110   0.542
 4580SOL    HW114639   6.369   5.099   0.516
 4580SOL    HW214640   6.220   5.034   0.505
 4581SOL     OW14641   3.167   4.859   2.792
 4581SOL    HW114642   3.223   4.847   2.874
 4581SOL    HW214643   3.227   4.867   2.712
 4582SOL     OW14644   5.739   6.886   4.422
 4582SOL    HW114645   5.753   6.859   4.326
 4582SOL    HW214646   5.644   6.868   4.447
 4583SOL     OW14647   3.025   2.025   5.072
 4583SOL    HW114648   2.933   1.988   5.059
 4583SOL    HW214649   3.021   2.125   5.074
 4584SOL     OW14650   0.222   5.575   5.975
 4584SOL    HW114651   0.172   5.623   6.047
 4584SOL    HW214652   0.195   5.611   5.886
 4585SOL     OW14653   3.032   6.813   2.904
 4585SOL    HW114654   2.978   6.743   2.856
 4585SOL    HW214655   2.980   6.898   2.909
 4586SOL     OW14656   3.435   4.404   1.032
 4586SOL    HW114657   3.441   4.305   1.034
 4586SOL    HW214658   3.527   4.443   1.040
 4587SOL     OW14659   4.163   3.495   1.768
 4587SOL    HW114660   4.097   3.547   1.823
 4587SOL    HW214661   4.122   3.408   1.740
 4588SOL     OW14662   3.648   3.846   5.375
 4588SOL    HW114663   3.618   3.922   5.432
 4588SOL    HW214664   3.693   3.881   5.293
 4589SOL     OW14665   5.882   2.259   2.616
 4589SOL    HW114666   5.960   2.253   2.678
 4589SOL    HW214667   5.878   2.177   2.559
 4590SOL     OW14668   4.670   6.227   2.050
 4590SOL    HW114669   4.583   6.271   2.030
 4590SOL    HW214670   4.662   6.129   2.035
 4591SOL     OW14671   6.890   5.859   5.609
 4591SOL    HW114672   6.908   5.847   5.706
 4591SOL    HW214673   6.844   5.778   5.573
 4592SOL     OW14674   3.960   3.134   1.307
 4592SOL    HW114675   4.050   3.111   1.269
 4592SOL    HW214676   3.943   3.077   1.387
 4593SOL     OW14677   4.280   5.518   3.120
 4593SOL    HW114678   4.325   5.607   3.115
 4593SOL    HW214679   4.268   5.491   3.215
 4594SOL     OW14680   3.743   1.422   2.260
 4594SOL    HW114681   3.759   1.445   2.356
 4594SOL    HW214682   3.677   1.487   2.220
 4595SOL     OW14683   3.715   2.710   6.905
 4595SOL    HW114684   3.675   2.799   6.882
 4595SOL    HW214685   3.694   2.645   6.832
 4596SOL     OW14686   6.079   6.284   2.012
 4596SOL    HW114687   6.114   6.207   1.959
 4596SOL    HW214688   6.037   6.350   1.951
 4597SOL     OW14689   5.447   5.381   6.491
 4597SOL    HW114690   5.494   5.302   6.530
 4597SOL    HW214691   5.473   5.391   6.395
 4598SOL     OW14692   1.336   5.097   6.103
 4598SOL    HW114693   1.301   5.123   6.013
 4598SOL    HW214694   1.285   5.019   6.138
 4599SOL     OW14695   1.392   3.780   1.358
 4599SOL    HW114696   1.403   3.794   1.259
 4599SOL    HW214697   1.435   3.694   1.384
 4600SOL     OW14698   2.904   5.287   6.115
 4600SOL    HW114699   2.915   5.324   6.208
 4600SOL    HW214700   2.960   5.204   6.106
 4601SOL     OW14701   1.627   0.818   5.593
 4601SOL    HW114702   1.625   0.824   5.493
 4601SOL    HW214703   1.564   0.746   5.624
 4602SOL     OW14704   1.461   6.639   1.247
 4602SOL    HW114705   1.437   6.560   1.191
 4602SOL    HW214706   1.396   6.646   1.323
 4603SOL     OW14707   3.667   6.293   1.524
 4603SOL    HW114708   3.627   6.331   1.442
 4603SOL    HW214709   3.646   6.352   1.602
 4604SOL     OW14710   4.072   0.806   1.340
 4604SOL    HW114711   4.131   0.877   1.303
 4604SOL    HW214712   4.016   0.843   1.414
 4605SOL     OW14713   4.898   0.951   4.003
 4605SOL    HW114714   4.855   0.957   4.093
 4605SOL    HW214715   4.854   1.014   3.940
 4606SOL     OW14716   0.050   6.591   3.464
 4606SOL    HW114717   0.089   6.527   3.398
 4606SOL    HW214718   6.989   6.551   3.505
 4607SOL     OW14719   2.671   2.357   0.855
 4607SOL    HW114720   2.612   2.436   0.839
 4607SOL    HW214721   2.615   2.277   0.878
 4608SOL     OW14722   1.138   5.314   5.373
 4608SOL    HW114723   1.232   5.287   5.391
 4608SOL    HW214724   1.076   5.258   5.429
 4609SOL     OW14725   4.281   5.697   6.382
 4609SOL    HW114726   4.258   5.790   6.410
 4609SOL    HW214727   4.367   5.699   6.329
 4610SOL     OW14728   0.075   2.356   0.273
 4610SOL    HW114729   0.097   2.412   0.352
 4610SOL    HW214730   7.019   2.296   0.295
 4611SOL     OW14731   6.303   4.344   0.316
 4611SOL    HW114732   6.220   4.338   0.371
 4611SOL    HW214733   6.315   4.439   0.286
 4612SOL     OW14734   1.793   5.865   6.631
 4612SOL    HW114735   1.717   5.917   6.592
 4612SOL    HW214736   1.761   5.810   6.708
 4613SOL     OW14737   2.309   5.790   3.261
 4613SOL    HW114738   2.349   5.876   3.293
 4613SOL    HW214739   2.332   5.775   3.165
 4614SOL     OW14740   1.589   5.120   6.572
 4614SOL    HW114741   1.537   5.035   6.564
 4614SOL    HW214742   1.620   5.149   6.482
 4615SOL     OW14743   1.644   1.389   0.804
 4615SOL    HW114744   1.705   1.329   0.752
 4615SOL    HW214745   1.681   1.482   0.804
 4616SOL     OW14746   6.719   0.557   6.671
 4616SOL    HW114747   6.804   0.505   6.659
 4616SOL    HW214748   6.673   0.566   6.583
 4617SOL     OW14749   1.078   2.831   2.605
 4617SOL    HW114750   1.024   2.907   2.567
 4617SOL    HW214751   1.152   2.808   2.542
 4618SOL     OW14752   1.217   1.756   5.670
 4618SOL    HW114753   1.302   1.802   5.643
 4618SOL    HW214754   1.229   1.716   5.761
 4619SOL     OW14755   4.453   6.942   3.629
 4619SOL    HW114756   4.394   6.880   3.576
 4619SOL    HW214757   4.398   7.020   3.660
 4620SOL     OW14758   3.725   4.290   6.979
 4620SOL    HW114759   3.633   4.278   6.942
 4620SOL    HW214760   3.769   4.367   6.933
 4621SOL     OW14761   6.499   2.112   4.794
 4621SOL    HW114762   6.587   2.131   4.838
 4621SOL    HW214763   6.455   2.035   4.840
 4622SOL     OW14764   1.273   2.735   0.812
 4622SOL    HW114765   1.347   2.794   0.843
 4622SOL    HW214766   1.311   2.659   0.759
 4623SOL     OW14767   0.294   5.279   0.996
 4623SOL    HW114768   0.268   5.332   1.076
 4623SOL    HW214769   0.219   5.217   0.970
 4624SOL     OW14770   4.660   0.864   3.819
 4624SOL    HW114771   4.694   0.824   3.734
 4624SOL    HW214772   4.577   0.815   3.847
 4625SOL     OW14773   1.537   4.386   0.164
 4625SOL    HW114774   1.530   4.485   0.178
 4625SOL    HW214775   1.478   4.339   0.230
 4626SOL     OW14776   6.300   4.491   1.663
 4626SOL    HW114777   6.242   4.547   1.603
 4626SOL    HW214778   6.262   4.490   1.755
 4627SOL     OW14779   4.058   5.796   6.055
 4627SOL    HW114780   4.038   5.748   5.969
 4627SOL    HW214781   3.980   5.789   6.116
 4628SOL     OW14782   5.780   4.614   2.729
 4628SOL    HW114783   5.751   4.692   2.674
 4628SOL    HW214784   5.816   4.645   2.817
 4629SOL     OW14785   2.046   4.722   6.292
 4629SOL    HW114786   2.112   4.711   6.366
 4629SOL    HW214787   1.955   4.735   6.331
 4630SOL     OW14788   2.602   5.828   4.090
 4630SOL    HW114789   2.521   5.799   4.039
 4630SOL    HW214790   2.679   5.767   4.068
 4631SOL     OW14791   2.349   6.637   3.600
 4631SOL    HW114792   2.355   6.606   3.505
 4631SOL    HW214793   2.438   6.672   3.629
 4632SOL     OW14794   4.211   5.065   3.731
 4632SOL    HW114795   4.124   5.105   3.701
 4632SOL    HW214796   4.257   5.127   3.795
 4633SOL     OW14797   6.898   1.828   5.094
 4633SOL    HW114798   6.897   1.802   4.997
 4633SOL    HW214799   6.988   1.863   5.118
 4634SOL     OW14800   2.753   4.615   0.029
 4634SOL    HW114801   2.831   4.655   0.077
 4634SOL    HW214802   2.755   4.641   6.954
 4635SOL     OW14803   5.991   3.018   2.093
 4635SOL    HW114804   5.964   3.040   2.000
 4635SOL    HW214805   5.961   2.925   2.116
 4636SOL     OW14806   2.902   5.458   6.671
 4636SOL    HW114807   2.943   5.439   6.582
 4636SOL    HW214808   2.818   5.404   6.681
 4637SOL     OW14809   1.047   0.675   6.603
 4637SOL    HW114810   1.133   0.708   6.564
 4637SOL    HW214811   0.975   0.679   6.533
 4638SOL     OW14812   3.797   2.876   6.557
 4638SOL    HW114813   3.820   2.883   6.460
 4638SOL    HW214814   3.874   2.906   6.612
 4639SOL     OW14815   1.344   4.250   5.960
 4639SOL    HW114816   1.318   4.219   6.051
 4639SOL    HW214817   1.273   4.227   5.894
 4640SOL     OW14818   5.012   4.892   3.849
 4640SOL    HW114819   5.026   4.870   3.752
 4640SOL    HW214820   4.928   4.849   3.881
 4641SOL     OW14821   2.651   4.876   4.294
 4641SOL    HW114822   2.661   4.811   4.370
 4641SOL    HW214823   2.665   4.828   4.207
 4642SOL     OW14824   6.326   5.603   4.749
 4642SOL    HW114825   6.413   5.632   4.710
 4642SOL    HW214826   6.315   5.645   4.840
 4643SOL     OW14827   4.626   2.394   0.192
 4643SOL    HW114828   4.676   2.461   0.246
 4643SOL    HW214829   4.601   2.433   0.104
 4644SOL     OW14830   1.278   5.493   4.977
 4644SOL    HW114831   1.279   5.588   4.945
 4644SOL    HW214832   1.361   5.474   5.028
 4645SOL     OW14833   1.948   6.760   4.344
 4645SOL    HW114834   2.007   6.681   4.327
 4645SOL    HW214835   1.869   6.732   4.398
 4646SOL     OW14836   2.741   0.265   2.490
 4646SOL    HW114837   2.797   0.343   2.517
 4646SOL    HW214838   2.785   0.180   2.519
 4647SOL     OW14839   1.264   6.699   3.336
 4647SOL    HW114840   1.259   6.772   3.404
 4647SOL    HW214841   1.216   6.619   3.370
 4648SOL     OW14842   3.659   6.524   1.673
 4648SOL    HW114843   3.619   6.504   1.762
 4648SOL    HW214844   3.650   6.621   1.653
 4649SOL     OW14845   5.047   0.980   5.803
 4649SOL    HW114846   4.990   0.932   5.869
 4649SOL    HW214847   4.997   1.057   5.764
 4650SOL     OW14848   3.800   5.969   2.918
 4650SOL    HW114849   3.704   5.954   2.938
 4650SOL    HW214850   3.817   5.952   2.821
 4651SOL     OW14851   0.643   2.185   1.974
 4651SOL    HW114852   0.636   2.204   1.876
 4651SOL    HW214853   0.591   2.252   2.025
 4652SOL     OW14854   0.852   6.600   3.773
 4652SOL    HW114855   0.780   6.585   3.841
 4652SOL    HW214856   0.820   6.567   3.684
 4653SOL     OW14857   6.785   6.238   0.442
 4653SOL    HW114858   6.687   6.224   0.448
 4653SOL    HW214859   6.823   6.184   0.367
 4654SOL     OW14860   0.815   0.207   0.418
 4654SOL    HW114861   0.816   0.136   0.488
 4654SOL    HW214862   0.735   0.194   0.359
 4655SOL     OW14863   0.598   5.089   2.595
 4655SOL    HW114864   0.698   5.093   2.589
 4655SOL    HW214865   0.566   5.162   2.656
 4656SOL     OW14866   0.968   6.936   3.263
 4656SOL    HW114867   1.022   6.948   3.346
 4656SOL    HW214868   0.974   7.018   3.207
 4657SOL     OW14869   5.417   6.996   1.809
 4657SOL    HW114870   5.502   0.020   1.783
 4657SOL    HW214871   5.372   6.959   1.727
 4658SOL     OW14872   4.172   0.231   2.996
 4658SOL    HW114873   4.114   0.302   3.036
 4658SOL    HW214874   4.132   0.200   2.910
 4659SOL     OW14875   1.815   3.048   5.275
 4659SOL    HW114876   1.865   3.024   5.192
 4659SOL    HW214877   1.717   3.040   5.258
 4660SOL     OW14878   1.596   1.555   5.049
 4660SOL    HW114879   1.641   1.509   5.125
 4660SOL    HW214880   1.515   1.503   5.021
 4661SOL     OW14881   3.708   3.752   4.993
 4661SOL    HW114882   3.636   3.685   4.975
 4661SOL    HW214883   3.689   3.799   5.079
 4662SOL     OW14884   4.526   0.610   5.422
 4662SOL    HW114885   4.538   0.655   5.511
 4662SOL    HW214886   4.431   0.622   5.392
 4663SOL     OW14887   0.145   1.941   2.459
 4663SOL    HW114888   0.153   2.027   2.409
 4663SOL    HW214889   0.048   1.916   2.467
 4664SOL     OW14890   2.165   2.419   6.662
 4664SOL    HW114891   2.070   2.387   6.666
 4664SOL    HW214892   2.196   2.420   6.567
 4665SOL     OW14893   4.758   6.859   6.897
 4665SOL    HW114894   4.851   6.829   6.920
 4665SOL    HW214895   4.751   6.958   6.908
 4666SOL     OW14896   2.188   0.960   0.396
 4666SOL    HW114897   2.107   0.928   0.446
 4666SOL    HW214898   2.162   0.982   0.302
 4667SOL     OW14899   6.817   4.639   6.194
 4667SOL    HW114900   6.721   4.630   6.167
 4667SOL    HW214901   6.870   4.562   6.156
 4668SOL     OW14902   0.532   1.558   4.775
 4668SOL    HW114903   0.629   1.574   4.793
 4668SOL    HW214904   0.510   1.589   4.682
 4669SOL     OW14905   2.331   6.189   0.408
 4669SOL    HW114906   2.376   6.268   0.366
 4669SOL    HW214907   2.235   6.211   0.425
 4670SOL     OW14908   3.163   1.142   4.874
 4670SOL    HW114909   3.216   1.227   4.883
 4670SOL    HW214910   3.226   1.066   4.860
 4671SOL     OW14911   5.894   3.325   1.482
 4671SOL    HW114912   5.817   3.377   1.519
 4671SOL    HW214913   5.926   3.369   1.398
 4672SOL     OW14914   2.603   4.281   6.224
 4672SOL    HW114915   2.508   4.310   6.229
 4672SOL    HW214916   2.633   4.282   6.129
 4673SOL     OW14917   3.645   6.775   1.403
 4673SOL    HW114918   3.698   6.857   1.425
 4673SOL    HW214919   3.616   6.780   1.307
 4674SOL     OW14920   5.676   6.381   5.898
 4674SOL    HW114921   5.596   6.354   5.844
 4674SOL    HW214922   5.691   6.314   5.971
 4675SOL     OW14923   1.350   3.497   0.954
 4675SOL    HW114924   1.254   3.467   0.954
 4675SOL    HW214925   1.409   3.420   0.976
 4676SOL     OW14926   1.064   5.656   3.519
 4676SOL    HW114927   1.153   5.610   3.515
 4676SOL    HW214928   1.055   5.720   3.443
 4677SOL     OW14929   1.772   1.712   1.006
 4677SOL    HW114930   1.696   1.703   1.070
 4677SOL    HW214931   1.763   1.798   0.956
 4678SOL     OW14932   2.102   4.317   2.782
 4678SOL    HW114933   2.102   4.230   2.732
 4678SOL    HW214934   2.187   4.327   2.832
 4679SOL     OW14935   4.815   6.535   1.706
 4679SOL    HW114936   4.881   6.470   1.743
 4679SOL    HW214937   4.731   6.486   1.681
 4680SOL     OW14938   3.906   0.174   1.402
 4680SOL    HW114939   3.909   0.185   1.501
 4680SOL    HW214940   3.932   0.260   1.358
 4681SOL     OW14941   4.853   4.826   6.891
 4681SOL    HW114942   4.915   4.901   6.915
 4681SOL    HW214943   4.878   4.744   6.942
 4682SOL     OW14944   5.508   3.482   6.251
 4682SOL    HW114945   5.559   3.424   6.186
 4682SOL    HW214946   5.416   3.499   6.215
 4683SOL     OW14947   6.142   4.906   2.924
 4683SOL    HW114948   6.187   4.951   2.847
 4683SOL    HW214949   6.195   4.826   2.952
 4684SOL     OW14950   4.294   5.954   6.532
 4684SOL    HW114951   4.244   5.927   6.614
 4684SOL    HW214952   4.229   5.975   6.458
 4685SOL     OW14953   1.832   3.863   6.155
 4685SOL    HW114954   1.883   3.925   6.094
 4685SOL    HW214955   1.735   3.886   6.152
 4686SOL     OW14956   3.466   5.580   0.365
 4686SOL    HW114957   3.562   5.564   0.387
 4686SOL    HW214958   3.441   5.528   0.284
 4687SOL     OW14959   3.802   1.507   3.590
 4687SOL    HW114960   3.849   1.584   3.634
 4687SOL    HW214961   3.853   1.423   3.605
 4688SOL     OW14962   5.784   2.648   6.035
 4688SOL    HW114963   5.714   2.711   6.069
 4688SOL    HW214964   5.773   2.559   6.079
 4689SOL     OW14965   5.493   0.267   1.408
 4689SOL    HW114966   5.570   0.330   1.400
 4689SOL    HW214967   5.412   0.307   1.365
 4690SOL     OW14968   1.902   0.880   1.173
 4690SOL    HW114969   1.841   0.874   1.252
 4690SOL    HW214970   1.959   0.961   1.182
 4691SOL     OW14971   4.606   4.501   0.623
 4691SOL    HW114972   4.638   4.596   0.627
 4691SOL    HW214973   4.553   4.487   0.539
 4692SOL     OW14974   6.398   4.299   2.814
 4692SOL    HW114975   6.462   4.223   2.803
 4692SOL    HW214976   6.335   4.280   2.889
 4693SOL     OW14977   1.639   1.133   4.375
 4693SOL    HW114978   1.736   1.135   4.401
 4693SOL    HW214979   1.618   1.211   4.316
 4694SOL     OW14980   2.530   2.013   0.415
 4694SOL    HW114981   2.525   1.955   0.334
 4694SOL    HW214982   2.590   1.970   0.483
 4695SOL     OW14983   1.741   5.522   0.643
 4695SOL    HW114984   1.736   5.424   0.624
 4695SOL    HW214985   1.679   5.545   0.717
 4696SOL     OW14986   0.358   5.263   6.267
 4696SOL    HW114987   0.347   5.164   6.265
 4696SOL    HW214988   0.270   5.306   6.284
 4697SOL     OW14989   1.232   3.327   2.162
 4697SOL    HW114990   1.229   3.260   2.087
 4697SOL    HW214991   1.186   3.290   2.242
 4698SOL     OW14992   4.105   0.290   3.353
 4698SOL    HW114993   4.181   0.350   3.329
 4698SOL    HW214994   4.069   0.316   3.443
 4699SOL     OW14995   0.524   6.788   2.241
 4699SOL    HW114996   0.592   6.842   2.290
 4699SOL    HW214997   0.454   6.757   2.305
 4700SOL     OW14998   6.957   1.606   2.510
 4700SOL    HW114999   6.930   1.653   2.426
 4700SOL    HW215000   0.033   1.583   2.506
 4701SOL     OW15001   3.377   1.806   2.346
 4701SOL    HW115002   3.416   1.896   2.367
 4701SOL    HW215003   3.295   1.818   2.290
 4702SOL     OW15004   4.951   5.083   0.281
 4702SOL    HW115005   4.948   4.991   0.243
 4702SOL    HW215006   5.022   5.089   0.351
 4703SOL     OW15007   1.390   5.643   2.334
 4703SOL    HW115008   1.412   5.731   2.376
 4703SOL    HW215009   1.326   5.658   2.258
 4704SOL     OW15010   0.266   6.294   5.434
 4704SOL    HW115011   0.351   6.344   5.450
 4704SOL    HW215012   0.242   6.299   5.338
 4705SOL     OW15013   3.115   2.382   0.673
 4705SOL    HW115014   3.175   2.358   0.749
 4705SOL    HW215015   3.076   2.299   0.633
 4706SOL     OW15016   1.085   0.364   0.958
 4706SOL    HW115017   1.006   0.397   0.907
 4706SOL    HW215018   1.054   0.330   1.047
 4707SOL     OW15019   1.435   6.244   1.655
 4707SOL    HW115020   1.535   6.251   1.658
 4707SOL    HW215021   1.404   6.253   1.560
 4708SOL     OW15022   1.245   2.118   5.417
 4708SOL    HW115023   1.333   2.104   5.371
 4708SOL    HW215024   1.261   2.162   5.506
 4709SOL     OW15025   4.762   5.112   4.927
 4709SOL    HW115026   4.691   5.097   4.996
 4709SOL    HW215027   4.737   5.190   4.870
 4710SOL     OW15028   6.123   6.838   4.410
 4710SOL    HW115029   6.123   6.894   4.493
 4710SOL    HW215030   6.157   6.892   4.334
 4711SOL     OW15031   6.433   2.866   3.643
 4711SOL    HW115032   6.519   2.821   3.621
 4711SOL    HW215033   6.372   2.801   3.688
 4712SOL     OW15034   4.547   4.796   5.968
 4712SOL    HW115035   4.468   4.857   5.975
 4712SOL    HW215036   4.560   4.771   5.872
 4713SOL     OW15037   5.177   5.865   0.968
 4713SOL    HW115038   5.206   5.879   1.063
 4713SOL    HW215039   5.115   5.939   0.941
 4714SOL     OW15040   6.683   1.601   6.458
 4714SOL    HW115041   6.652   1.690   6.492
 4714SOL    HW215042   6.666   1.596   6.359
 4715SOL     OW15043   5.969   2.332   1.390
 4715SOL    HW115044   6.015   2.275   1.321
 4715SOL    HW215045   5.981   2.428   1.366
 4716SOL     OW15046   4.867   5.639   5.826
 4716SOL    HW115047   4.916   5.637   5.739
 4716SOL    HW215048   4.773   5.609   5.813
 4717SOL     OW15049   2.211   5.762   5.463
 4717SOL    HW115050   2.297   5.718   5.489
 4717SOL    HW215051   2.231   5.851   5.421
 4718SOL     OW15052   5.081   2.855   1.014
 4718SOL    HW115053   5.038   2.769   0.987
 4718SOL    HW215054   5.092   2.914   0.934
 4719SOL     OW15055   5.478   3.423   3.480
 4719SOL    HW115056   5.466   3.345   3.419
 4719SOL    HW215057   5.545   3.401   3.550
 4720SOL     OW15058   3.028   4.581   6.444
 4720SOL    HW115059   3.110   4.580   6.387
 4720SOL    HW215060   2.957   4.525   6.401
 4721SOL     OW15061   6.025   3.009   1.408
 4721SOL    HW115062   6.110   3.029   1.458
 4721SOL    HW215063   5.998   3.090   1.356
 4722SOL     OW15064   0.970   5.230   0.346
 4722SOL    HW115065   0.881   5.237   0.303
 4722SOL    HW215066   0.987   5.135   0.374
 4723SOL     OW15067   3.444   4.182   5.300
 4723SOL    HW115068   3.374   4.115   5.276
 4723SOL    HW215069   3.504   4.144   5.371
 4724SOL     OW15070   6.900   6.712   4.112
 4724SOL    HW115071   6.884   6.621   4.075
 4724SOL    HW215072   6.820   6.770   4.094
 4725SOL     OW15073   6.088   4.917   0.415
 4725SOL    HW115074   6.074   4.935   0.318
 4725SOL    HW215075   6.003   4.934   0.465
 4726SOL     OW15076   1.748   3.080   5.778
 4726SOL    HW115077   1.842   3.056   5.752
 4726SOL    HW215078   1.736   3.062   5.875
 4727SOL     OW15079   0.505   5.940   0.195
 4727SOL    HW115080   0.560   5.905   0.119
 4727SOL    HW215081   0.429   5.878   0.213
 4728SOL     OW15082   6.576   1.871   2.774
 4728SOL    HW115083   6.621   1.812   2.707
 4728SOL    HW215084   6.497   1.916   2.732
 4729SOL     OW15085   4.985   0.229   0.027
 4729SOL    HW115086   5.066   0.261   6.999
 4729SOL    HW215087   5.007   0.144   0.075
 4730SOL     OW15088   3.668   6.383   5.016
 4730SOL    HW115089   3.724   6.465   5.010
 4730SOL    HW215090   3.726   6.305   5.040
 4731SOL     OW15091   3.168   0.729   1.064
 4731SOL    HW115092   3.138   0.634   1.055
 4731SOL    HW215093   3.231   0.752   0.990
 4732SOL     OW15094   1.005   4.033   5.335
 4732SOL    HW115095   0.925   4.009   5.280
 4732SOL    HW215096   1.042   3.951   5.378
 4733SOL     OW15097   1.878   4.482   3.054
 4733SOL    HW115098   1.863   4.440   2.964
 4733SOL    HW215099   1.973   4.511   3.062
 4734SOL     OW15100   5.252   3.490   6.670
 4734SOL    HW115101   5.322   3.548   6.712
 4734SOL    HW215102   5.175   3.547   6.640
 4735SOL     OW15103   6.737   5.916   3.627
 4735SOL    HW115104   6.647   5.894   3.664
 4735SOL    HW215105   6.787   5.831   3.610
 4736SOL     OW15106   6.029   2.041   4.279
 4736SOL    HW115107   6.096   1.998   4.339
 4736SOL    HW215108   5.946   1.984   4.277
 4737SOL     OW15109   2.145   4.049   0.666
 4737SOL    HW115110   2.158   4.068   0.569
 4737SOL    HW215111   2.231   4.064   0.715
 4738SOL     OW15112   3.496   6.670   3.826
 4738SOL    HW115113   3.422   6.646   3.889
 4738SOL    HW215114   3.486   6.766   3.799
 4739SOL     OW15115   5.774   2.405   3.790
 4739SOL    HW115116   5.675   2.405   3.795
 4739SOL    HW215117   5.809   2.493   3.823
 4740SOL     OW15118   0.196   0.533   1.280
 4740SOL    HW115119   0.103   0.535   1.244
 4740SOL    HW215120   0.260   0.522   1.204
 4741SOL     OW15121   4.571   4.914   1.415
 4741SOL    HW115122   4.524   4.849   1.356
 4741SOL    HW215123   4.667   4.887   1.426
 4742SOL     OW15124   2.660   5.198   1.432
 4742SOL    HW115125   2.689   5.289   1.404
 4742SOL    HW215126   2.603   5.205   1.514
 4743SOL     OW15127   2.668   1.042   6.057
 4743SOL    HW115128   2.661   0.963   5.995
 4743SOL    HW215129   2.610   1.116   6.023
 4744SOL     OW15130   2.524   2.555   5.343
 4744SOL    HW115131   2.533   2.651   5.373
 4744SOL    HW215132   2.477   2.552   5.255
 4745SOL     OW15133   3.034   4.881   5.880
 4745SOL    HW115134   2.964   4.923   5.822
 4745SOL    HW215135   3.123   4.921   5.860
 4746SOL     OW15136   5.711   5.645   1.005
 4746SOL    HW115137   5.729   5.609   0.914
 4746SOL    HW215138   5.730   5.743   1.008
 4747SOL     OW15139   0.768   3.083   6.827
 4747SOL    HW115140   0.833   3.124   6.891
 4747SOL    HW215141   0.791   3.109   6.733
 4748SOL     OW15142   1.213   0.256   1.602
 4748SOL    HW115143   1.232   0.334   1.542
 4748SOL    HW215144   1.192   0.289   1.694
 4749SOL     OW15145   2.962   6.111   6.267
 4749SOL    HW115146   3.035   6.082   6.329
 4749SOL    HW215147   2.950   6.043   6.195
 4750SOL     OW15148   0.141   1.747   4.570
 4750SOL    HW115149   0.225   1.770   4.619
 4750SOL    HW215150   0.084   1.829   4.563
 4751SOL     OW15151   1.883   3.606   6.894
 4751SOL    HW115152   1.945   3.593   6.972
 4751SOL    HW215153   1.898   3.532   6.828
 4752SOL     OW15154   2.599   6.289   0.366
 4752SOL    HW115155   2.649   6.372   0.389
 4752SOL    HW215156   2.605   6.224   0.442
 4753SOL     OW15157   5.908   0.088   4.481
 4753SOL    HW115158   5.980   0.054   4.541
 4753SOL    HW215159   5.864   0.011   4.435
 4754SOL     OW15160   5.916   0.613   6.105
 4754SOL    HW115161   6.009   0.650   6.099
 4754SOL    HW215162   5.860   0.652   6.032
 4755SOL     OW15163   2.300   0.271   6.165
 4755SOL    HW115164   2.297   0.281   6.265
 4755SOL    HW215165   2.236   0.335   6.123
 4756SOL     OW15166   5.886   2.678   1.892
 4756SOL    HW115167   5.806   2.618   1.893
 4756SOL    HW215168   5.901   2.712   1.799
 4757SOL     OW15169   2.294   2.321   2.137
 4757SOL    HW115170   2.379   2.348   2.183
 4757SOL    HW215171   2.317   2.281   2.048
 4758SOL     OW15172   3.849   6.169   4.915
 4758SOL    HW115173   3.926   6.203   4.968
 4758SOL    HW215174   3.868   6.075   4.885
 4759SOL     OW15175   5.028   5.445   4.689
 4759SOL    HW115176   5.119   5.426   4.725
 4759SOL    HW215177   5.015   5.396   4.602
 4760SOL     OW15178   2.792   1.490   1.271
 4760SOL    HW115179   2.852   1.562   1.236
 4760SOL    HW215180   2.810   1.405   1.223
 4761SOL     OW15181   6.513   0.389   6.823
 4761SOL    HW115182   6.581   0.451   6.785
 4761SOL    HW215183   6.491   0.318   6.756
 4762SOL     OW15184   2.283   4.716   2.935
 4762SOL    HW115185   2.255   4.812   2.941
 4762SOL    HW215186   2.293   4.690   2.839
 4763SOL     OW15187   5.794   5.692   3.086
 4763SOL    HW115188   5.823   5.739   3.169
 4763SOL    HW215189   5.870   5.690   3.021
 4764SOL     OW15190   4.659   4.230   5.232
 4764SOL    HW115191   4.645   4.136   5.201
 4764SOL    HW215192   4.757   4.250   5.234
 4765SOL     OW15193   4.816   6.391   4.643
 4765SOL    HW115194   4.895   6.453   4.642
 4765SOL    HW215195   4.732   6.443   4.658
 4766SOL     OW15196   3.612   0.627   3.821
 4766SOL    HW115197   3.513   0.624   3.835
 4766SOL    HW215198   3.636   0.704   3.763
 4767SOL     OW15199   4.039   6.279   0.515
 4767SOL    HW115200   4.059   6.376   0.501
 4767SOL    HW215201   4.086   6.225   0.444
 4768SOL     OW15202   5.487   1.931   4.601
 4768SOL    HW115203   5.487   1.977   4.689
 4768SOL    HW215204   5.529   1.840   4.610
 4769SOL     OW15205   4.092   5.041   1.355
 4769SOL    HW115206   4.135   4.951   1.363
 4769SOL    HW215207   3.994   5.030   1.343
 4770SOL     OW15208   2.188   0.452   3.248
 4770SOL    HW115209   2.203   0.353   3.248
 4770SOL    HW215210   2.095   0.472   3.217
 4771SOL     OW15211   3.278   5.018   5.886
 4771SOL    HW115212   3.348   4.948   5.884
 4771SOL    HW215213   3.314   5.103   5.848
 4772SOL     OW15214   2.588   6.611   1.005
 4772SOL    HW115215   2.583   6.536   0.940
 4772SOL    HW215216   2.535   6.588   1.087
 4773SOL     OW15217   6.954   5.763   4.655
 4773SOL    HW115218   7.018   5.786   4.581
 4773SOL    HW215219   6.865   5.803   4.636
 4774SOL     OW15220   0.544   2.764   2.784
 4774SOL    HW115221   0.460   2.748   2.837
 4774SOL    HW215222   0.567   2.861   2.787
 4775SOL     OW15223   5.843   0.171   3.003
 4775SOL    HW115224   5.851   0.171   3.103
 4775SOL    HW215225   5.761   0.119   2.976
 4776SOL     OW15226   2.726   6.822   2.927
 4776SOL    HW115227   2.750   6.824   3.024
 4776SOL    HW215228   2.747   6.732   2.889
 4777SOL     OW15229   2.546   4.191   1.075
 4777SOL    HW115230   2.458   4.224   1.041
 4777SOL    HW215231   2.551   4.207   1.174
 4778SOL     OW15232   5.632   2.535   1.930
 4778SOL    HW115233   5.567   2.465   1.901
 4778SOL    HW215234   5.594   2.587   2.007
 4779SOL     OW15235   6.419   0.017   2.154
 4779SOL    HW115236   6.487   6.974   2.119
 4779SOL    HW215237   6.465   0.098   2.190
 4780SOL     OW15238   0.753   0.139   6.523
 4780SOL    HW115239   0.758   0.238   6.535
 4780SOL    HW215240   0.683   0.118   6.454
 4781SOL     OW15241   2.580   5.628   1.070
 4781SOL    HW115242   2.678   5.638   1.057
 4781SOL    HW215243   2.534   5.715   1.051
 4782SOL     OW15244   4.541   0.083   0.106
 4782SOL    HW115245   4.563   0.055   0.200
 4782SOL    HW215246   4.624   0.083   0.051
 4783SOL     OW15247   4.556   4.169   0.020
 4783SOL    HW115248   4.512   4.182   6.953
 4783SOL    HW215249   4.490   4.134   0.086
 4784SOL     OW15250   6.210   5.092   6.279
 4784SOL    HW115251   6.234   5.150   6.357
 4784SOL    HW215252   6.274   5.109   6.204
 4785SOL     OW15253   6.464   6.425   1.161
 4785SOL    HW115254   6.550   6.393   1.200
 4785SOL    HW215255   6.471   6.524   1.143
 4786SOL     OW15256   1.909   2.051   2.198
 4786SOL    HW115257   1.928   2.041   2.101
 4786SOL    HW215258   1.988   2.093   2.243
 4787SOL     OW15259   3.602   2.108   3.721
 4787SOL    HW115260   3.590   2.115   3.820
 4787SOL    HW215261   3.686   2.156   3.694
 4788SOL     OW15262   1.662   5.052   5.981
 4788SOL    HW115263   1.650   5.149   6.005
 4788SOL    HW215264   1.594   5.027   5.913
 4789SOL     OW15265   5.284   0.575   6.962
 4789SOL    HW115266   5.226   0.653   6.938
 4789SOL    HW215267   5.365   0.607   7.011
 4790SOL     OW15268   5.938   3.373   6.834
 4790SOL    HW115269   5.975   3.298   6.779
 4790SOL    HW215270   5.939   3.458   6.780
 4791SOL     OW15271   5.858   1.768   2.022
 4791SOL    HW115272   5.824   1.853   1.981
 4791SOL    HW215273   5.828   1.690   1.967
 4792SOL     OW15274   1.712   3.122   2.278
 4792SOL    HW115275   1.618   3.090   2.262
 4792SOL    HW215276   1.709   3.215   2.314
 4793SOL     OW15277   1.467   1.865   5.583
 4793SOL    HW115278   1.555   1.836   5.619
 4793SOL    HW215279   1.478   1.892   5.487
 4794SOL     OW15280   3.734   0.565   3.267
 4794SOL    HW115281   3.685   0.644   3.229
 4794SOL    HW215282   3.827   0.592   3.289
 4795SOL     OW15283   6.745   2.506   4.269
 4795SOL    HW115284   6.836   2.464   4.270
 4795SOL    HW215285   6.681   2.449   4.319
 4796SOL     OW15286   5.084   2.050   6.993
 4796SOL    HW115287   5.115   2.094   6.908
 4796SOL    HW215288   5.071   1.952   6.976
 4797SOL     OW15289   1.324   6.022   5.244
 4797SOL    HW115290   1.402   6.062   5.291
 4797SOL    HW215291   1.240   6.043   5.295
 4798SOL     OW15292   0.549   3.968   5.512
 4798SOL    HW115293   0.452   3.991   5.502
 4798SOL    HW215294   0.563   3.921   5.599
 4799SOL     OW15295   5.094   1.661   5.309
 4799SOL    HW115296   5.160   1.586   5.297
 4799SOL    HW215297   5.032   1.638   5.384
 4800SOL     OW15298   3.151   3.507   6.020
 4800SOL    HW115299   3.194   3.437   5.963
 4800SOL    HW215300   3.074   3.547   5.970
 4801SOL     OW15301   2.488   1.857   0.203
 4801SOL    HW115302   2.519   1.879   0.111
 4801SOL    HW215303   2.416   1.788   0.199
 4802SOL     OW15304   1.236   6.427   2.058
 4802SOL    HW115305   1.159   6.364   2.064
 4802SOL    HW215306   1.311   6.383   2.009
 4803SOL     OW15307   1.158   6.299   0.521
 4803SOL    HW115308   1.241   6.259   0.482
 4803SOL    HW215309   1.086   6.229   0.525
 4804SOL     OW15310   4.206   5.284   6.491
 4804SOL    HW115311   4.150   5.223   6.434
 4804SOL    HW215312   4.159   5.299   6.578
 4805SOL     OW15313   6.666   6.720   0.794
 4805SOL    HW115314   6.650   6.742   0.890
 4805SOL    HW215315   6.585   6.677   0.755
 4806SOL     OW15316   6.654   3.772   3.927
 4806SOL    HW115317   6.570   3.728   3.957
 4806SOL    HW215318   6.671   3.749   3.831
 4807SOL     OW15319   1.298   5.138   1.104
 4807SOL    HW115320   1.236   5.095   1.038
 4807SOL    HW215321   1.372   5.074   1.127
 4808SOL     OW15322   5.861   3.804   0.672
 4808SOL    HW115323   5.771   3.759   0.670
 4808SOL    HW215324   5.876   3.844   0.762
 4809SOL     OW15325   3.752   3.995   6.934
 4809SOL    HW115326   3.832   3.936   6.946
 4809SOL    HW215327   3.781   4.091   6.930
 4810SOL     OW15328   1.529   5.007   1.235
 4810SOL    HW115329   1.541   4.912   1.205
 4810SOL    HW215330   1.505   5.009   1.332
 4811SOL     OW15331   2.569   4.784   2.147
 4811SOL    HW115332   2.649   4.776   2.207
 4811SOL    HW215333   2.503   4.848   2.188
 4812SOL     OW15334   6.674   4.950   5.593
 4812SOL    HW115335   6.759   4.968   5.543
 4812SOL    HW215336   6.695   4.940   5.690
 4813SOL     OW15337   4.624   1.275   1.999
 4813SOL    HW115338   4.623   1.212   2.077
 4813SOL    HW215339   4.533   1.279   1.959
 4814SOL     OW15340   5.961   5.026   0.192
 4814SOL    HW115341   5.882   4.966   0.198
 4814SOL    HW215342   5.931   5.121   0.188
 4815SOL     OW15343   5.605   4.823   2.286
 4815SOL    HW115344   5.537   4.873   2.234
 4815SOL    HW215345   5.579   4.726   2.291
 4816SOL     OW15346   6.064   5.527   3.081
 4816SOL    HW115347   6.043   5.538   2.984
 4816SOL    HW215348   6.132   5.454   3.093
 4817SOL     OW15349   0.380   2.026   6.479
 4817SOL    HW115350   0.354   2.048   6.386
 4817SOL    HW215351   0.303   1.986   6.527
 4818SOL     OW15352   1.132   6.706   4.141
 4818SOL    HW115353   1.164   6.794   4.177
 4818SOL    HW215354   1.171   6.690   4.051
 4819SOL     OW15355   1.708   2.952   0.550
 4819SOL    HW115356   1.763   3.012   0.609
 4819SOL    HW215357   1.612   2.956   0.578
 4820SOL     OW15358   0.154   2.899   2.003
 4820SOL    HW115359   0.068   2.934   1.965
 4820SOL    HW215360   0.139   2.864   2.095
 4821SOL     OW15361   0.979   5.825   2.227
 4821SOL    HW115362   0.917   5.821   2.150
 4821SOL    HW215363   0.975   5.740   2.279
 4822SOL     OW15364   1.468   3.998   4.334
 4822SOL    HW115365   1.553   4.011   4.384
 4822SOL    HW215366   1.470   3.909   4.288
 4823SOL     OW15367   1.595   1.952   2.520
 4823SOL    HW115368   1.685   1.950   2.562
 4823SOL    HW215369   1.531   2.002   2.580
 4824SOL     OW15370   5.135   2.068   5.224
 4824SOL    HW115371   5.084   2.127   5.286
 4824SOL    HW215372   5.213   2.027   5.272
 4825SOL     OW15373   0.898   1.237   4.485
 4825SOL    HW115374   0.950   1.223   4.570
 4825SOL    HW215375   0.896   1.334   4.463
 4826SOL     OW15376   5.105   0.500   0.700
 4826SOL    HW115377   5.036   0.478   0.631
 4826SOL    HW215378   5.080   0.458   0.787
 4827SOL     OW15379   6.595   1.771   0.341
 4827SOL    HW115380   6.519   1.823   0.379
 4827SOL    HW215381   6.563   1.719   0.261
 4828SOL     OW15382   4.330   0.409   1.542
 4828SOL    HW115383   4.250   0.386   1.596
 4828SOL    HW215384   4.312   0.389   1.445
 4829SOL     OW15385   3.807   6.570   6.218
 4829SOL    HW115386   3.897   6.561   6.174
 4829SOL    HW215387   3.812   6.639   6.290
 4830SOL     OW15388   4.018   5.874   3.474
 4830SOL    HW115389   3.958   5.912   3.404
 4830SOL    HW215390   3.965   5.814   3.534
 4831SOL     OW15391   2.906   5.063   5.718
 4831SOL    HW115392   2.899   5.024   5.626
 4831SOL    HW215393   2.960   5.147   5.714
 4832SOL     OW15394   3.947   3.538   4.470
 4832SOL    HW115395   4.000   3.607   4.519
 4832SOL    HW215396   3.958   3.551   4.372
 4833SOL     OW15397   5.509   2.137   3.714
 4833SOL    HW115398   5.562   2.070   3.767
 4833SOL    HW215399   5.489   2.100   3.624
 4834SOL     OW15400   2.653   5.836   2.386
 4834SOL    HW115401   2.713   5.812   2.462
 4834SOL    HW215402   2.586   5.764   2.371
 4835SOL     OW15403   6.231   3.588   6.167
 4835SOL    HW115404   6.296   3.658   6.140
 4835SOL    HW215405   6.151   3.591   6.107
 4836SOL     OW15406   4.587   1.271   5.205
 4836SOL    HW115407   4.623   1.298   5.294
 4836SOL    HW215408   4.652   1.210   5.160
 4837SOL     OW15409   6.915   3.326   3.351
 4837SOL    HW115410   6.904   3.251   3.286
 4837SOL    HW215411   7.008   3.362   3.345
 4838SOL     OW15412   1.192   5.369   6.315
 4838SOL    HW115413   1.106   5.321   6.298
 4838SOL    HW215414   1.247   5.369   6.232
 4839SOL     OW15415   1.679   3.271   0.137
 4839SOL    HW115416   1.626   3.186   0.143
 4839SOL    HW215417   1.617   3.348   0.124
 4840SOL     OW15418   5.354   4.216   5.295
 4840SOL    HW115419   5.454   4.225   5.295
 4840SOL    HW215420   5.330   4.121   5.315
 4841SOL     OW15421   3.022   5.384   2.837
 4841SOL    HW115422   2.943   5.361   2.893
 4841SOL    HW215423   3.066   5.466   2.874
 4842SOL     OW15424   2.298   5.401   3.573
 4842SOL    HW115425   2.359   5.473   3.541
 4842SOL    HW215426   2.341   5.351   3.649
 4843SOL     OW15427   6.615   2.684   2.146
 4843SOL    HW115428   6.613   2.755   2.216
 4843SOL    HW215429   6.640   2.597   2.188
 4844SOL     OW15430   1.210   4.125   5.769
 4844SOL    HW115431   1.272   4.052   5.742
 4844SOL    HW215432   1.116   4.089   5.774
 4845SOL     OW15433   4.595   4.740   5.050
 4845SOL    HW115434   4.616   4.644   5.036
 4845SOL    HW215435   4.644   4.795   4.983
 4846SOL     OW15436   0.495   2.433   3.638
 4846SOL    HW115437   0.550   2.516   3.640
 4846SOL    HW215438   0.534   2.367   3.703
 4847SOL     OW15439   2.553   0.369   5.655
 4847SOL    HW115440   2.558   0.345   5.558
 4847SOL    HW215441   2.597   0.458   5.670
 4848SOL     OW15442   2.075   1.294   3.711
 4848SOL    HW115443   2.044   1.265   3.801
 4848SOL    HW215444   2.171   1.320   3.715
 4849SOL     OW15445   1.764   0.060   0.434
 4849SOL    HW115446   1.683   0.046   0.376
 4849SOL    HW215447   1.735   0.070   0.529
 4850SOL     OW15448   4.394   0.722   1.238
 4850SOL    HW115449   4.310   0.668   1.240
 4850SOL    HW215450   4.447   0.704   1.321
 4851SOL     OW15451   3.781   5.307   6.874
 4851SOL    HW115452   3.804   5.217   6.911
 4851SOL    HW215453   3.695   5.339   6.913
 4852SOL     OW15454   3.751   5.668   4.597
 4852SOL    HW115455   3.746   5.767   4.610
 4852SOL    HW215456   3.753   5.647   4.499
 4853SOL     OW15457   3.428   0.850   2.906
 4853SOL    HW115458   3.499   0.887   2.846
 4853SOL    HW215459   3.356   0.808   2.850
 4854SOL     OW15460   5.645   6.483   1.769
 4854SOL    HW115461   5.676   6.578   1.773
 4854SOL    HW215462   5.587   6.471   1.688
 4855SOL     OW15463   0.220   3.776   4.785
 4855SOL    HW115464   0.246   3.869   4.811
 4855SOL    HW215465   0.167   3.734   4.858
 4856SOL     OW15466   0.519   3.668   2.905
 4856SOL    HW115467   0.448   3.737   2.889
 4856SOL    HW215468   0.602   3.693   2.854
 4857SOL     OW15469   3.497   2.112   4.267
 4857SOL    HW115470   3.567   2.133   4.336
 4857SOL    HW215471   3.407   2.121   4.309
 4858SOL     OW15472   0.528   0.485   5.082
 4858SOL    HW115473   0.505   0.523   4.993
 4858SOL    HW215474   0.492   0.392   5.089
 4859SOL     OW15475   0.900   5.370   2.093
 4859SOL    HW115476   0.860   5.378   2.184
 4859SOL    HW215477   0.827   5.353   2.026
 4860SOL     OW15478   3.947   5.014   0.190
 4860SOL    HW115479   4.008   4.984   0.116
 4860SOL    HW215480   3.938   5.114   0.186
 4861SOL     OW15481   6.526   4.716   5.206
 4861SOL    HW115482   6.446   4.704   5.147
 4861SOL    HW215483   6.541   4.633   5.259
 4862SOL     OW15484   2.716   4.734   4.758
 4862SOL    HW115485   2.755   4.682   4.833
 4862SOL    HW215486   2.742   4.830   4.767
 4863SOL     OW15487   5.078   3.538   2.805
 4863SOL    HW115488   5.000   3.547   2.867
 4863SOL    HW215489   5.046   3.548   2.710
 4864SOL     OW15490   3.382   1.432   1.894
 4864SOL    HW115491   3.410   1.408   1.801
 4864SOL    HW215492   3.430   1.374   1.960
 4865SOL     OW15493   3.500   5.195   5.812
 4865SOL    HW115494   3.511   5.286   5.852
 4865SOL    HW215495   3.563   5.131   5.856
 4866SOL     OW15496   6.390   4.694   1.997
 4866SOL    HW115497   6.323   4.622   1.985
 4866SOL    HW215498   6.373   4.767   1.930
 4867SOL     OW15499   4.863   5.283   3.130
 4867SOL    HW115500   4.853   5.295   3.229
 4867SOL    HW215501   4.876   5.373   3.087
 4868SOL     OW15502   0.628   5.509   1.438
 4868SOL    HW115503   0.635   5.410   1.435
 4868SOL    HW215504   0.667   5.548   1.355
 4869SOL     OW15505   0.179   2.018   0.500
 4869SOL    HW115506   0.157   2.061   0.413
 4869SOL    HW215507   0.156   2.081   0.575
 4870SOL     OW15508   4.178   5.892   1.858
 4870SOL    HW115509   4.106   5.844   1.808
 4870SOL    HW215510   4.225   5.956   1.797
 4871SOL     OW15511   1.559   1.677   3.241
 4871SOL    HW115512   1.596   1.659   3.150
 4871SOL    HW215513   1.460   1.665   3.240
 4872SOL     OW15514   0.889   6.807   2.794
 4872SOL    HW115515   0.857   6.864   2.870
 4872SOL    HW215516   0.934   6.866   2.726
 4873SOL     OW15517   0.315   5.013   5.314
 4873SOL    HW115518   0.331   5.056   5.226
 4873SOL    HW215519   0.216   5.002   5.328
 4874SOL     OW15520   5.217   3.853   2.519
 4874SOL    HW115521   5.137   3.834   2.576
 4874SOL    HW215522   5.300   3.830   2.570
 4875SOL     OW15523   5.851   1.363   1.239
 4875SOL    HW115524   5.883   1.364   1.334
 4875SOL    HW215525   5.905   1.297   1.186
 4876SOL     OW15526   5.913   0.283   6.010
 4876SOL    HW115527   6.000   0.258   6.053
 4876SOL    HW215528   5.843   0.293   6.080
 4877SOL     OW15529   6.319   2.176   1.025
 4877SOL    HW115530   6.415   2.156   1.044
 4877SOL    HW215531   6.288   2.121   0.948
 4878SOL     OW15532   0.187   1.501   1.749
 4878SOL    HW115533   0.184   1.429   1.679
 4878SOL    HW215534   0.260   1.481   1.814
 4879SOL     OW15535   4.079   4.729   2.858
 4879SOL    HW115536   4.143   4.664   2.817
 4879SOL    HW215537   4.015   4.763   2.789
 4880SOL     OW15538   5.294   1.331   0.209
 4880SOL    HW115539   5.363   1.262   0.187
 4880SOL    HW215540   5.332   1.422   0.191
 4881SOL     OW15541   2.817   6.172   5.970
 4881SOL    HW115542   2.904   6.198   5.929
 4881SOL    HW215543   2.813   6.206   6.065
 4882SOL     OW15544   6.656   1.801   4.951
 4882SOL    HW115545   6.565   1.829   4.920
 4882SOL    HW215546   6.646   1.731   5.022
 4883SOL     OW15547   6.073   4.028   2.137
 4883SOL    HW115548   6.172   4.034   2.151
 4883SOL    HW215549   6.052   4.039   2.040
 4884SOL     OW15550   4.560   0.322   1.710
 4884SOL    HW115551   4.565   0.236   1.658
 4884SOL    HW215552   4.497   0.385   1.664
 4885SOL     OW15553   1.887   6.604   1.122
 4885SOL    HW115554   1.922   6.511   1.124
 4885SOL    HW215555   1.960   6.667   1.095
 4886SOL     OW15556   6.727   0.006   6.715
 4886SOL    HW115557   6.688   0.025   6.805
 4886SOL    HW215558   6.822   6.998   6.725
 4887SOL     OW15559   6.789   2.067   4.060
 4887SOL    HW115560   6.735   2.066   3.976
 4887SOL    HW215561   6.814   2.162   4.082
 4888SOL     OW15562   1.892   6.355   3.134
 4888SOL    HW115563   1.931   6.445   3.118
 4888SOL    HW215564   1.945   6.308   3.206
 4889SOL     OW15565   1.177   1.974   0.438
 4889SOL    HW115566   1.153   2.031   0.516
 4889SOL    HW215567   1.168   2.027   0.354
 4890SOL     OW15568   0.560   1.549   4.077
 4890SOL    HW115569   0.597   1.466   4.037
 4890SOL    HW215570   0.587   1.554   4.173
 4891SOL     OW15571   0.725   4.551   0.613
 4891SOL    HW115572   0.669   4.634   0.608
 4891SOL    HW215573   0.793   4.561   0.686
 4892SOL     OW15574   1.499   5.861   1.734
 4892SOL    HW115575   1.470   5.863   1.638
 4892SOL    HW215576   1.421   5.885   1.792
 4893SOL     OW15577   6.870   4.345   6.494
 4893SOL    HW115578   6.927   4.299   6.563
 4893SOL    HW215579   6.790   4.386   6.539
 4894SOL     OW15580   1.931   0.073   3.356
 4894SOL    HW115581   1.851   0.132   3.357
 4894SOL    HW215582   1.937   0.026   3.268
 4895SOL     OW15583   1.091   3.253   0.536
 4895SOL    HW115584   1.087   3.337   0.481
 4895SOL    HW215585   1.102   3.174   0.475
 4896SOL     OW15586   3.126   5.127   4.246
 4896SOL    HW115587   3.061   5.177   4.189
 4896SOL    HW215588   3.121   5.029   4.223
 4897SOL     OW15589   3.565   4.899   6.805
 4897SOL    HW115590   3.616   4.871   6.886
 4897SOL    HW215591   3.579   4.833   6.732
 4898SOL     OW15592   5.950   2.521   5.494
 4898SOL    HW115593   5.997   2.576   5.562
 4898SOL    HW215594   5.989   2.429   5.493
 4899SOL     OW15595   6.249   5.022   2.706
 4899SOL    HW115596   6.230   5.015   2.608
 4899SOL    HW215597   6.347   5.012   2.721
 4900SOL     OW15598   0.239   6.641   5.463
 4900SOL    HW115599   0.172   6.709   5.492
 4900SOL    HW215600   0.287   6.605   5.543
 4901SOL     OW15601   1.520   0.208   4.307
 4901SOL    HW115602   1.453   0.280   4.291
 4901SOL    HW215603   1.586   0.207   4.233
 4902SOL     OW15604   1.773   4.542   1.911
 4902SOL    HW115605   1.714   4.465   1.936
 4902SOL    HW215606   1.863   4.507   1.883
 4903SOL     OW15607   3.490   6.893   6.556
 4903SOL    HW115608   3.400   6.874   6.596
 4903SOL    HW215609   3.543   6.808   6.553
 4904SOL     OW15610   1.900   5.824   4.710
 4904SOL    HW115611   1.902   5.766   4.629
 4904SOL    HW215612   1.958   5.904   4.695
 4905SOL     OW15613   4.679   2.665   2.103
 4905SOL    HW115614   4.600   2.616   2.066
 4905SOL    HW215615   4.714   2.729   2.035
 4906SOL     OW15616   4.717   0.086   0.726
 4906SOL    HW115617   4.753   0.103   0.817
 4906SOL    HW215618   4.791   0.094   0.659
 4907SOL     OW15619   4.375   6.526   3.654
 4907SOL    HW115620   4.326   6.503   3.738
 4907SOL    HW215621   4.342   6.469   3.579
 4908SOL     OW15622   3.879   5.639   6.738
 4908SOL    HW115623   3.963   5.610   6.692
 4908SOL    HW215624   3.803   5.636   6.672
 4909SOL     OW15625   6.123   6.902   5.070
 4909SOL    HW115626   6.175   6.922   5.154
 4909SOL    HW215627   6.186   6.883   4.995
 4910SOL     OW15628   5.247   0.555   5.248
 4910SOL    HW115629   5.185   0.490   5.203
 4910SOL    HW215630   5.247   0.538   5.346
 4911SOL     OW15631   0.031   1.994   5.908
 4911SOL    HW115632   0.017   2.049   5.991
 4911SOL    HW215633   0.031   2.054   5.828
 4912SOL     OW15634   4.012   1.918   2.208
 4912SOL    HW115635   4.047   2.007   2.179
 4912SOL    HW215636   4.039   1.901   2.303
 4913SOL     OW15637   3.363   4.158   3.692
 4913SOL    HW115638   3.273   4.145   3.651
 4913SOL    HW215639   3.353   4.191   3.786
 4914SOL     OW15640   2.896   0.677   4.164
 4914SOL    HW115641   2.992   0.689   4.190
 4914SOL    HW215642   2.837   0.723   4.230
 4915SOL     OW15643   4.386   6.621   4.397
 4915SOL    HW115644   4.287   6.635   4.385
 4915SOL    HW215645   4.435   6.703   4.366
 4916SOL     OW15646   2.818   2.170   3.167
 4916SOL    HW115647   2.790   2.242   3.104
 4916SOL    HW215648   2.805   2.202   3.261
 4917SOL     OW15649   1.597   3.891   0.990
 4917SOL    HW115650   1.682   3.841   1.010
 4917SOL    HW215651   1.594   3.916   0.894
 4918SOL     OW15652   2.823   0.715   2.661
 4918SOL    HW115653   2.727   0.714   2.633
 4918SOL    HW215654   2.829   0.729   2.760
 4919SOL     OW15655   1.603   1.700   2.723
 4919SOL    HW115656   1.534   1.710   2.794
 4919SOL    HW215657   1.589   1.770   2.652
 4920SOL     OW15658   4.477   0.573   0.228
 4920SOL    HW115659   4.546   0.505   0.201
 4920SOL    HW215660   4.387   0.543   0.195
 4921SOL     OW15661   2.298   3.580   1.652
 4921SOL    HW115662   2.203   3.608   1.659
 4921SOL    HW215663   2.326   3.534   1.736
 4922SOL     OW15664   1.381   3.419   5.572
 4922SOL    HW115665   1.433   3.418   5.658
 4922SOL    HW215666   1.406   3.340   5.517
 4923SOL     OW15667   5.170   6.780   2.025
 4923SOL    HW115668   5.196   6.684   2.017
 4923SOL    HW215669   5.236   6.828   2.082
 4924SOL     OW15670   1.830   3.817   4.216
 4924SOL    HW115671   1.837   3.771   4.127
 4924SOL    HW215672   1.767   3.767   4.275
 4925SOL     OW15673   5.141   6.662   1.075
 4925SOL    HW115674   5.111   6.757   1.075
 4925SOL    HW215675   5.115   6.618   1.161
 4926SOL     OW15676   5.688   3.145   1.508
 4926SOL    HW115677   5.709   3.083   1.584
 4926SOL    HW215678   5.772   3.187   1.475
 4927SOL     OW15679   3.587   2.902   2.572
 4927SOL    HW115680   3.620   2.901   2.478
 4927SOL    HW215681   3.491   2.929   2.574
 4928SOL     OW15682   0.381   7.008   6.525
 4928SOL    HW115683   0.343   0.040   6.449
 4928SOL    HW215684   0.467   0.027   6.554
 4929SOL     OW15685   1.060   4.290   5.380
 4929SOL    HW115686   0.971   4.331   5.359
 4929SOL    HW215687   1.051   4.190   5.380
 4930SOL     OW15688   1.105   1.353   0.602
 4930SOL    HW115689   1.086   1.428   0.539
 4930SOL    HW215690   1.116   1.390   0.695
 4931SOL     OW15691   0.632   0.487   6.972
 4931SOL    HW115692   0.644   0.543   6.890
 4931SOL    HW215693   0.602   0.395   6.945
 4932SOL     OW15694   2.620   2.733   1.715
 4932SOL    HW115695   2.714   2.724   1.680
 4932SOL    HW215696   2.594   2.829   1.715
 4933SOL     OW15697   2.471   1.161   4.257
 4933SOL    HW115698   2.454   1.162   4.355
 4933SOL    HW215699   2.390   1.193   4.209
 4934SOL     OW15700   0.703   5.081   4.040
 4934SOL    HW115701   0.778   5.049   3.981
 4934SOL    HW215702   0.719   5.177   4.064
 4935SOL     OW15703   1.804   1.157   6.607
 4935SOL    HW115704   1.772   1.150   6.513
 4935SOL    HW215705   1.758   1.233   6.653
 4936SOL     OW15706   2.775   5.696   1.480
 4936SOL    HW115707   2.779   5.790   1.514
 4936SOL    HW215708   2.804   5.694   1.384
 4937SOL     OW15709   0.855   3.751   6.157
 4937SOL    HW115710   0.779   3.784   6.213
 4937SOL    HW215711   0.910   3.686   6.210
 4938SOL     OW15712   3.222   4.129   1.419
 4938SOL    HW115713   3.137   4.101   1.463
 4938SOL    HW215714   3.205   4.210   1.363
 4939SOL     OW15715   1.943   1.739   1.664
 4939SOL    HW115716   1.996   1.817   1.630
 4939SOL    HW215717   1.846   1.762   1.665
 4940SOL     OW15718   6.758   2.536   5.050
 4940SOL    HW115719   6.813   2.596   5.108
 4940SOL    HW215720   6.718   2.463   5.106
 4941SOL     OW15721   4.027   2.386   5.414
 4941SOL    HW115722   4.074   2.431   5.490
 4941SOL    HW215723   4.047   2.434   5.329
 4942SOL     OW15724   5.518   3.286   4.113
 4942SOL    HW115725   5.546   3.217   4.046
 4942SOL    HW215726   5.598   3.317   4.164
 4943SOL     OW15727   5.693   3.797   6.879
 4943SOL    HW115728   5.711   3.729   6.950
 4943SOL    HW215729   5.598   3.828   6.885
 4944SOL     OW15730   2.097   4.709   0.828
 4944SOL    HW115731   2.060   4.719   0.920
 4944SOL    HW215732   2.088   4.614   0.798
 4945SOL     OW15733   2.100   1.096   5.227
 4945SOL    HW115734   2.129   1.113   5.133
 4945SOL    HW215735   2.150   1.018   5.264
 4946SOL     OW15736   1.181   4.540   0.022
 4946SOL    HW115737   1.084   4.527   0.040
 4946SOL    HW215738   1.226   4.452   0.012
 4947SOL     OW15739   2.503   0.678   2.504
 4947SOL    HW115740   2.419   0.694   2.453
 4947SOL    HW215741   2.510   0.580   2.525
 4948SOL     OW15742   2.158   2.507   2.276
 4948SOL    HW115743   2.075   2.489   2.328
 4948SOL    HW215744   2.160   2.447   2.196
 4949SOL     OW15745   6.704   3.318   6.025
 4949SOL    HW115746   6.646   3.252   6.074
 4949SOL    HW215747   6.649   3.396   5.997
 4950SOL     OW15748   2.377   4.392   5.206
 4950SOL    HW115749   2.396   4.427   5.298
 4950SOL    HW215750   2.306   4.322   5.211
 4951SOL     OW15751   6.151   6.231   3.699
 4951SOL    HW115752   6.230   6.265   3.751
 4951SOL    HW215753   6.162   6.255   3.603
 4952SOL     OW15754   0.079   0.558   6.550
 4952SOL    HW115755   0.128   0.627   6.604
 4952SOL    HW215756   0.026   0.499   6.612
 4953SOL     OW15757   1.295   1.693   4.706
 4953SOL    HW115758   1.243   1.765   4.661
 4953SOL    HW215759   1.376   1.670   4.652
 4954SOL     OW15760   2.374   4.291   5.755
 4954SOL    HW115761   2.439   4.300   5.679
 4954SOL    HW215762   2.402   4.215   5.814
 4955SOL     OW15763   2.907   5.102   0.234
 4955SOL    HW115764   2.984   5.163   0.254
 4955SOL    HW215765   2.917   5.063   0.143
 4956SOL     OW15766   2.694   0.644   5.289
 4956SOL    HW115767   2.744   0.676   5.208
 4956SOL    HW215768   2.612   0.594   5.260
 4957SOL     OW15769   6.241   4.229   6.791
 4957SOL    HW115770   6.330   4.217   6.746
 4957SOL    HW215771   6.185   4.293   6.738
 4958SOL     OW15772   1.905   6.423   5.750
 4958SOL    HW115773   1.993   6.461   5.778
 4958SOL    HW215774   1.919   6.363   5.671
 4959SOL     OW15775   6.875   2.045   1.363
 4959SOL    HW115776   6.947   2.111   1.344
 4959SOL    HW215777   6.913   1.966   1.411
 4960SOL     OW15778   4.010   5.179   3.422
 4960SOL    HW115779   3.949   5.173   3.501
 4960SOL    HW215780   3.970   5.240   3.354
 4961SOL     OW15781   2.923   0.937   6.968
 4961SOL    HW115782   2.881   1.022   7.002
 4961SOL    HW215783   2.875   0.859   7.006
 4962SOL     OW15784   6.458   2.677   0.862
 4962SOL    HW115785   6.438   2.580   0.871
 4962SOL    HW215786   6.384   2.722   0.812
 4963SOL     OW15787   0.957   5.098   0.861
 4963SOL    HW115788   1.040   5.153   0.857
 4963SOL    HW215789   0.899   5.131   0.936
 4964SOL     OW15790   2.434   6.625   4.752
 4964SOL    HW115791   2.460   6.559   4.682
 4964SOL    HW215792   2.400   6.709   4.708
 4965SOL     OW15793   1.394   6.939   2.906
 4965SOL    HW115794   1.384   6.862   2.969
 4965SOL    HW215795   1.491   6.962   2.897
 4966SOL     OW15796   2.750   5.750   4.421
 4966SOL    HW115797   2.810   5.754   4.500
 4966SOL    HW215798   2.655   5.757   4.451
 4967SOL     OW15799   3.764   4.775   5.538
 4967SOL    HW115800   3.795   4.702   5.476
 4967SOL    HW215801   3.800   4.758   5.630
 4968SOL     OW15802   0.215   0.977   4.285
 4968SOL    HW115803   0.137   1.008   4.340
 4968SOL    HW215804   0.262   0.903   4.332
 4969SOL     OW15805   0.318   6.498   2.388
 4969SOL    HW115806   0.394   6.439   2.362
 4969SOL    HW215807   0.234   6.464   2.346
 4970SOL     OW15808   1.664   0.989   1.620
 4970SOL    HW115809   1.732   0.969   1.690
 4970SOL    HW215810   1.598   0.914   1.615
 4971SOL     OW15811   6.302   6.117   2.911
 4971SOL    HW115812   6.370   6.132   2.984
 4971SOL    HW215813   6.211   6.114   2.951
 4972SOL     OW15814   1.212   3.949   1.043
 4972SOL    HW115815   1.256   4.037   1.063
 4972SOL    HW215816   1.276   3.875   1.063
 4973SOL     OW15817   0.004   0.310   1.872
 4973SOL    HW115818   6.954   0.260   1.823
 4973SOL    HW215819   0.000   0.407   1.846
 4974SOL     OW15820   4.723   4.109   6.400
 4974SOL    HW115821   4.816   4.089   6.428
 4974SOL    HW215822   4.676   4.160   6.472
 4975SOL     OW15823   5.058   3.575   0.958
 4975SOL    HW115824   5.111   3.491   0.947
 4975SOL    HW215825   5.119   3.649   0.986
 4976SOL     OW15826   0.503   0.796   4.648
 4976SOL    HW115827   0.544   0.873   4.697
 4976SOL    HW215828   0.435   0.752   4.706
 4977SOL     OW15829   3.662   3.819   6.728
 4977SOL    HW115830   3.698   3.874   6.804
 4977SOL    HW215831   3.581   3.864   6.690
 4978SOL     OW15832   4.831   4.714   5.320
 4978SOL    HW115833   4.856   4.772   5.397
 4978SOL    HW215834   4.890   4.735   5.242
 4979SOL     OW15835   0.900   0.036   0.033
 4979SOL    HW115836   0.973   0.103   0.044
 4979SOL    HW215837   0.867   0.038   6.960
 4980SOL     OW15838   6.610   4.470   2.905
 4980SOL    HW115839   6.524   4.451   2.859
 4980SOL    HW215840   6.685   4.422   2.859
 4981SOL     OW15841   3.601   5.028   1.923
 4981SOL    HW115842   3.574   5.101   1.986
 4981SOL    HW215843   3.621   4.945   1.974
 4982SOL     OW15844   3.948   1.597   6.748
 4982SOL    HW115845   3.908   1.653   6.821
 4982SOL    HW215846   3.910   1.505   6.752
 4983SOL     OW15847   6.176   5.015   4.005
 4983SOL    HW115848   6.253   4.954   3.987
 4983SOL    HW215849   6.117   4.974   4.075
 4984SOL     OW15850   4.748   4.188   2.875
 4984SOL    HW115851   4.720   4.196   2.779
 4984SOL    HW215852   4.790   4.098   2.889
 4985SOL     OW15853   5.243   5.976   2.591
 4985SOL    HW115854   5.257   5.987   2.689
 4985SOL    HW215855   5.312   6.029   2.542
 4986SOL     OW15856   6.718   4.681   1.511
 4986SOL    HW115857   6.660   4.646   1.585
 4986SOL    HW215858   6.713   4.781   1.510
 4987SOL     OW15859   1.092   6.441   2.803
 4987SOL    HW115860   1.017   6.504   2.820
 4987SOL    HW215861   1.115   6.394   2.888
 4988SOL     OW15862   6.266   1.220   3.351
 4988SOL    HW115863   6.221   1.191   3.266
 4988SOL    HW215864   6.213   1.187   3.429
 4989SOL     OW15865   4.664   0.654   1.702
 4989SOL    HW115866   4.682   0.559   1.729
 4989SOL    HW215867   4.624   0.703   1.779
 4990SOL     OW15868   3.681   1.881   0.104
 4990SOL    HW115869   3.748   1.830   0.049
 4990SOL    HW215870   3.725   1.917   0.186
 4991SOL     OW15871   0.075   5.763   4.141
 4991SOL    HW115872   0.153   5.815   4.105
 4991SOL    HW215873   0.051   5.798   4.232
 4992SOL     OW15874   6.400   1.828   2.978
 4992SOL    HW115875   6.475   1.827   2.912
 4992SOL    HW215876   6.313   1.828   2.930
 4993SOL     OW15877   4.321   6.896   4.834
 4993SOL    HW115878   4.371   6.883   4.920
 4993SOL    HW215879   4.296   6.808   4.796
 4994SOL     OW15880   2.084   5.295   5.171
 4994SOL    HW115881   1.999   5.289   5.118
 4994SOL    HW215882   2.088   5.382   5.219
 4995SOL     OW15883   0.297   0.681   4.776
 4995SOL    HW115884   0.349   0.595   4.779
 4995SOL    HW215885   0.254   0.696   4.865
 4996SOL     OW15886   0.396   1.542   3.720
 4996SOL    HW115887   0.436   1.607   3.786
 4996SOL    HW215888   0.443   1.454   3.728
 4997SOL     OW15889   3.772   2.528   1.415
 4997SOL    HW115890   3.730   2.616   1.394
 4997SOL    HW215891   3.762   2.509   1.513
 4998SOL     OW15892   1.560   3.696   3.290
 4998SOL    HW115893   1.519   3.708   3.201
 4998SOL    HW215894   1.489   3.696   3.361
 4999SOL     OW15895   0.728   3.534   5.242
 4999SOL    HW115896   0.789   3.601   5.284
 4999SOL    HW215897   0.635   3.548   5.275
 5000SOL     OW15898   2.971   6.466   3.603
 5000SOL    HW115899   3.057   6.507   3.633
 5000SOL    HW215900   2.949   6.496   3.511
 5001SOL     OW15901   0.249   5.743   2.425
 5001SOL    HW115902   0.224   5.837   2.403
 5001SOL    HW215903   0.289   5.740   2.517
 5002SOL     OW15904   0.810   4.623   2.633
 5002SOL    HW115905   0.866   4.542   2.654
 5002SOL    HW215906   0.764   4.654   2.716
 5003SOL     OW15907   4.117   6.245   3.034
 5003SOL    HW115908   4.110   6.297   2.950
 5003SOL    HW215909   4.031   6.253   3.086
 5004SOL     OW15910   2.702   5.564   5.455
 5004SOL    HW115911   2.753   5.529   5.534
 5004SOL    HW215912   2.730   5.515   5.373
 5005SOL     OW15913   2.350   3.363   6.051
 5005SOL    HW115914   2.299   3.322   5.975
 5005SOL    HW215915   2.334   3.311   6.135
 5006SOL     OW15916   5.261   1.168   2.259
 5006SOL    HW115917   5.162   1.169   2.274
 5006SOL    HW215918   5.308   1.199   2.342
 5007SOL     OW15919   6.601   0.488   0.857
 5007SOL    HW115920   6.625   0.550   0.931
 5007SOL    HW215921   6.665   0.502   0.781
 5008SOL     OW15922   6.620   5.478   1.362
 5008SOL    HW115923   6.626   5.576   1.381
 5008SOL    HW215924   6.686   5.454   1.292
 5009SOL     OW15925   1.159   2.773   0.338
 5009SOL    HW115926   1.113   2.810   0.419
 5009SOL    HW215927   1.232   2.836   0.310
 5010SOL     OW15928   3.915   2.332   0.566
 5010SOL    HW115929   3.828   2.325   0.517
 5010SOL    HW215930   3.985   2.365   0.504
 5011SOL     OW15931   2.134   4.089   1.223
 5011SOL    HW115932   2.189   4.009   1.250
 5011SOL    HW215933   2.121   4.088   1.124
 5012SOL     OW15934   5.902   2.956   5.364
 5012SOL    HW115935   5.935   3.033   5.309
 5012SOL    HW215936   5.887   2.987   5.458
 5013SOL     OW15937   5.736   0.511   5.813
 5013SOL    HW115938   5.703   0.494   5.720
 5013SOL    HW215939   5.789   0.432   5.845
 5014SOL     OW15940   6.721   4.410   6.830
 5014SOL    HW115941   6.709   4.423   6.929
 5014SOL    HW215942   6.755   4.318   6.813
 5015SOL     OW15943   5.296   0.920   4.531
 5015SOL    HW115944   5.373   0.901   4.469
 5015SOL    HW215945   5.228   0.848   4.521
 5016SOL     OW15946   1.235   2.829   5.106
 5016SOL    HW115947   1.135   2.835   5.106
 5016SOL    HW215948   1.262   2.735   5.128
 5017SOL     OW15949   1.031   2.336   1.313
 5017SOL    HW115950   1.053   2.249   1.270
 5017SOL    HW215951   1.082   2.409   1.266
 5018SOL     OW15952   1.369   4.994   2.284
 5018SOL    HW115953   1.402   4.902   2.264
 5018SOL    HW215954   1.435   5.061   2.249
 5019SOL     OW15955   2.165   5.901   5.722
 5019SOL    HW115956   2.145   5.925   5.627
 5019SOL    HW215957   2.262   5.915   5.740
 5020SOL     OW15958   0.039   6.687   5.040
 5020SOL    HW115959   6.986   6.624   5.020
 5020SOL    HW215960   0.030   6.722   5.133
 5021SOL     OW15961   1.299   0.502   1.499
 5021SOL    HW115962   1.222   0.565   1.493
 5021SOL    HW215963   1.369   0.527   1.431
 5022SOL     OW15964   1.029   2.682   1.362
 5022SOL    HW115965   1.053   2.762   1.418
 5022SOL    HW215966   0.939   2.696   1.321
 5023SOL     OW15967   0.016   4.368   1.599
 5023SOL    HW115968   0.108   4.334   1.579
 5023SOL    HW215969   6.973   4.333   1.530
 5024SOL     OW15970   5.889   5.160   0.904
 5024SOL    HW115971   5.907   5.063   0.889
 5024SOL    HW215972   5.868   5.204   0.817
 5025SOL     OW15973   3.807   1.817   3.620
 5025SOL    HW115974   3.781   1.899   3.569
 5025SOL    HW215975   3.900   1.827   3.654
 5026SOL     OW15976   0.037   5.254   4.807
 5026SOL    HW115977   0.046   5.243   4.906
 5026SOL    HW215978   0.010   5.348   4.786
 5027SOL     OW15979   6.069   0.476   1.366
 5027SOL    HW115980   6.014   0.409   1.317
 5027SOL    HW215981   6.009   0.538   1.417
 5028SOL     OW15982   6.687   2.076   3.803
 5028SOL    HW115983   6.682   2.032   3.714
 5028SOL    HW215984   6.663   2.173   3.794
 5029SOL     OW15985   6.358   2.399   2.329
 5029SOL    HW115986   6.276   2.390   2.386
 5029SOL    HW215987   6.333   2.437   2.241
 5030SOL     OW15988   6.866   6.099   6.457
 5030SOL    HW115989   6.821   6.142   6.379
 5030SOL    HW215990   6.965   6.105   6.445
 5031SOL     OW15991   0.109   0.918   5.578
 5031SOL    HW115992   0.173   0.987   5.612
 5031SOL    HW215993   0.051   0.958   5.507
 5032SOL     OW15994   2.497   1.763   5.919
 5032SOL    HW115995   2.513   1.743   6.016
 5032SOL    HW215996   2.581   1.797   5.878
 5033SOL     OW15997   2.029   0.385   0.252
 5033SOL    HW115998   2.121   0.392   0.290
 5033SOL    HW215999   1.962   0.405   0.323
 5034SOL     OW16000   5.232   6.990   4.072
 5034SOL    HW116001   5.267   0.036   4.007
 5034SOL    HW216002   5.301   6.919   4.088
 5035SOL     OW16003   0.953   3.542   5.598
 5035SOL    HW116004   0.993   3.613   5.655
 5035SOL    HW216005   0.858   3.566   5.576
 5036SOL     OW16006   6.269   5.276   6.490
 5036SOL    HW116007   6.190   5.293   6.549
 5036SOL    HW216008   6.353   5.281   6.544
 5037SOL     OW16009   4.474   4.670   1.484
 5037SOL    HW116010   4.557   4.628   1.521
 5037SOL    HW216011   4.428   4.723   1.556
 5038SOL     OW16012   4.042   3.468   4.071
 5038SOL    HW116013   4.020   3.394   4.135
 5038SOL    HW216014   4.065   3.429   3.982
 5039SOL     OW16015   2.379   3.047   5.646
 5039SOL    HW116016   2.377   2.948   5.633
 5039SOL    HW216017   2.380   3.093   5.557
 5040SOL     OW16018   1.043   5.991   5.081
 5040SOL    HW116019   0.945   6.007   5.092
 5040SOL    HW216020   1.060   5.894   5.064
 5041SOL     OW16021   1.291   1.994   2.135
 5041SOL    HW116022   1.269   2.045   2.052
 5041SOL    HW216023   1.367   2.038   2.182
 5042SOL     OW16024   6.964   2.811   0.564
 5042SOL    HW116025   6.971   2.827   0.662
 5042SOL    HW216026   6.878   2.764   0.544
 5043SOL     OW16027   4.522   0.563   6.839
 5043SOL    HW116028   4.542   0.603   6.750
 5043SOL    HW216029   4.535   0.464   6.835
 5044SOL     OW16030   0.683   5.668   1.192
 5044SOL    HW116031   0.729   5.756   1.185
 5044SOL    HW216032   0.592   5.674   1.153
 5045SOL     OW16033   6.592   5.877   5.933
 5045SOL    HW116034   6.661   5.827   5.880
 5045SOL    HW216035   6.628   5.967   5.959
 5046SOL     OW16036   3.750   4.121   3.898
 5046SOL    HW116037   3.823   4.067   3.940
 5046SOL    HW216038   3.759   4.116   3.799
 5047SOL     OW16039   2.355   4.299   3.172
 5047SOL    HW116040   2.390   4.335   3.259
 5047SOL    HW216041   2.280   4.235   3.191
 5048SOL     OW16042   1.389   0.779   4.560
 5048SOL    HW116043   1.364   0.818   4.649
 5048SOL    HW216044   1.311   0.727   4.524
 5049SOL     OW16045   4.795   1.096   0.191
 5049SOL    HW116046   4.704   1.120   0.223
 5049SOL    HW216047   4.791   1.010   0.140
 5050SOL     OW16048   1.461   1.149   6.839
 5050SOL    HW116049   1.483   1.078   6.907
 5050SOL    HW216050   1.531   1.220   6.842
 5051SOL     OW16051   4.547   4.238   1.328
 5051SOL    HW116052   4.633   4.193   1.348
 5051SOL    HW216053   4.508   4.275   1.412
 5052SOL     OW16054   3.218   2.069   6.199
 5052SOL    HW116055   3.158   2.049   6.277
 5052SOL    HW216056   3.181   2.027   6.117
 5053SOL     OW16057   1.081   5.251   3.137
 5053SOL    HW116058   1.165   5.237   3.085
 5053SOL    HW216059   1.013   5.298   3.080
 5054SOL     OW16060   2.788   4.837   5.223
 5054SOL    HW116061   2.817   4.798   5.135
 5054SOL    HW216062   2.693   4.814   5.240
 5055SOL     OW16063   1.147   2.254   5.851
 5055SOL    HW116064   1.217   2.185   5.838
 5055SOL    HW216065   1.066   2.230   5.798
 5056SOL     OW16066   5.181   3.939   5.543
 5056SOL    HW116067   5.268   3.972   5.506
 5056SOL    HW216068   5.199   3.873   5.616
 5057SOL     OW16069   0.301   6.814   2.957
 5057SOL    HW116070   0.254   6.751   3.019
 5057SOL    HW216071   0.381   6.853   3.003
 5058SOL     OW16072   3.468   4.218   6.846
 5058SOL    HW116073   3.476   4.240   6.749
 5058SOL    HW216074   3.383   4.169   6.863
 5059SOL     OW16075   0.074   0.847   3.415
 5059SOL    HW116076   0.113   0.909   3.347
 5059SOL    HW216077   6.996   0.857   3.416
 5060SOL     OW16078   0.201   2.433   6.512
 5060SOL    HW116079   0.279   2.442   6.573
 5060SOL    HW216080   0.164   2.341   6.518
 5061SOL     OW16081   4.765   2.531   0.364
 5061SOL    HW116082   4.734   2.624   0.384
 5061SOL    HW216083   4.767   2.478   0.448
 5062SOL     OW16084   6.141   0.131   2.303
 5062SOL    HW116085   6.170   0.207   2.360
 5062SOL    HW216086   6.218   0.103   2.244
 5063SOL     OW16087   0.121   6.783   2.243
 5063SOL    HW116088   0.175   6.712   2.289
 5063SOL    HW216089   0.182   6.853   2.207
 5064SOL     OW16090   4.882   2.863   0.678
 5064SOL    HW116091   4.947   2.788   0.685
 5064SOL    HW216092   4.818   2.860   0.754
 5065SOL     OW16093   3.140   0.583   5.450
 5065SOL    HW116094   3.126   0.623   5.541
 5065SOL    HW216095   3.238   0.581   5.430
 5066SOL     OW16096   5.125   4.524   2.198
 5066SOL    HW116097   5.170   4.434   2.201
 5066SOL    HW216098   5.027   4.512   2.209
 5067SOL     OW16099   5.195   1.810   0.838
 5067SOL    HW116100   5.113   1.821   0.894
 5067SOL    HW216101   5.230   1.717   0.848
 5068SOL     OW16102   2.201   4.638   1.139
 5068SOL    HW116103   2.225   4.543   1.156
 5068SOL    HW216104   2.283   4.690   1.117
 5069SOL     OW16105   1.910   4.393   3.308
 5069SOL    HW116106   1.982   4.436   3.362
 5069SOL    HW216107   1.907   4.434   3.217
 5070SOL     OW16108   4.998   3.498   3.787
 5070SOL    HW116109   4.930   3.444   3.737
 5070SOL    HW216110   5.078   3.512   3.729
 5071SOL     OW16111   4.418   2.392   4.842
 5071SOL    HW116112   4.482   2.469   4.838
 5071SOL    HW216113   4.344   2.414   4.906
 5072SOL     OW16114   0.628   5.928   0.575
 5072SOL    HW116115   0.703   5.878   0.532
 5072SOL    HW216116   0.663   5.983   0.650
 5073SOL     OW16117   6.551   6.326   2.965
 5073SOL    HW116118   6.474   6.385   2.940
 5073SOL    HW216119   6.573   6.266   2.888
 5074SOL     OW16120   3.438   3.497   6.836
 5074SOL    HW116121   3.450   3.449   6.923
 5074SOL    HW216122   3.524   3.493   6.784
 5075SOL     OW16123   0.554   1.017   5.815
 5075SOL    HW116124   0.574   1.099   5.868
 5075SOL    HW216125   0.603   1.022   5.727
 5076SOL     OW16126   4.246   1.045   1.142
 5076SOL    HW116127   4.338   1.040   1.182
 5076SOL    HW216128   4.183   1.087   1.208
 5077SOL     OW16129   1.268   2.499   3.694
 5077SOL    HW116130   1.294   2.487   3.790
 5077SOL    HW216131   1.349   2.521   3.640
 5078SOL     OW16132   0.963   1.845   3.241
 5078SOL    HW116133   1.045   1.891   3.207
 5078SOL    HW216134   0.950   1.760   3.191
 5079SOL     OW16135   2.723   4.922   6.218
 5079SOL    HW116136   2.645   4.880   6.171
 5079SOL    HW216137   2.743   4.871   6.301
 5080SOL     OW16138   5.737   6.711   4.936
 5080SOL    HW116139   5.790   6.627   4.950
 5080SOL    HW216140   5.777   6.763   4.861
 5081SOL     OW16141   3.650   3.460   3.185
 5081SOL    HW116142   3.705   3.539   3.213
 5081SOL    HW216143   3.700   3.376   3.206
 5082SOL     OW16144   5.639   6.292   5.016
 5082SOL    HW116145   5.602   6.246   4.936
 5082SOL    HW216146   5.706   6.233   5.061
 5083SOL     OW16147   1.901   6.648   2.387
 5083SOL    HW116148   1.841   6.616   2.460
 5083SOL    HW216149   1.847   6.690   2.314
 5084SOL     OW16150   1.350   4.755   4.596
 5084SOL    HW116151   1.278   4.800   4.648
 5084SOL    HW216152   1.403   4.696   4.657
 5085SOL     OW16153   5.345   2.244   6.349
 5085SOL    HW116154   5.262   2.240   6.293
 5085SOL    HW216155   5.332   2.309   6.424
 5086SOL     OW16156   6.446   5.269   3.888
 5086SOL    HW116157   6.518   5.200   3.887
 5086SOL    HW216158   6.425   5.296   3.794
 5087SOL     OW16159   6.886   6.240   3.862
 5087SOL    HW116160   6.830   6.174   3.912
 5087SOL    HW216161   6.874   6.227   3.764
 5088SOL     OW16162   6.022   1.354   5.541
 5088SOL    HW116163   6.094   1.317   5.483
 5088SOL    HW216164   5.934   1.347   5.494
 5089SOL     OW16165   6.539   3.158   3.483
 5089SOL    HW116166   6.600   3.233   3.510
 5089SOL    HW216167   6.517   3.102   3.562
 5090SOL     OW16168   1.935   3.777   1.341
 5090SOL    HW116169   2.017   3.780   1.284
 5090SOL    HW216170   1.961   3.768   1.437
 5091SOL     OW16171   1.320   6.005   2.929
 5091SOL    HW116172   1.234   6.042   2.965
 5091SOL    HW216173   1.390   6.076   2.930
 5092SOL     OW16174   3.575   2.759   1.395
 5092SOL    HW116175   3.560   2.834   1.331
 5092SOL    HW216176   3.495   2.699   1.395
 5093SOL     OW16177   1.174   1.826   1.775
 5093SOL    HW116178   1.086   1.784   1.798
 5093SOL    HW216179   1.161   1.924   1.759
 5094SOL     OW16180   1.158   0.357   5.359
 5094SOL    HW116181   1.102   0.282   5.324
 5094SOL    HW216182   1.243   0.321   5.396
 5095SOL     OW16183   1.148   0.690   4.459
 5095SOL    HW116184   1.152   0.608   4.401
 5095SOL    HW216185   1.053   0.709   4.483
 5096SOL     OW16186   4.156   3.817   0.645
 5096SOL    HW116187   4.238   3.820   0.587
 5096SOL    HW216188   4.183   3.795   0.739
 5097SOL     OW16189   1.427   0.186   6.239
 5097SOL    HW116190   1.474   0.249   6.177
 5097SOL    HW216191   1.473   0.186   6.328
 5098SOL     OW16192   0.245   0.538   1.701
 5098SOL    HW116193   0.265   0.483   1.782
 5098SOL    HW216194   0.317   0.606   1.689
 5099SOL     OW16195   1.124   0.119   5.885
 5099SOL    HW116196   1.085   0.174   5.958
 5099SOL    HW216197   1.142   0.026   5.919
 5100SOL     OW16198   4.617   6.734   6.085
 5100SOL    HW116199   4.552   6.809   6.076
 5100SOL    HW216200   4.602   6.668   6.012
 5101SOL     OW16201   5.434   6.332   0.109
 5101SOL    HW116202   5.457   6.417   0.062
 5101SOL    HW216203   5.384   6.352   0.193
 5102SOL     OW16204   5.983   0.704   5.651
 5102SOL    HW116205   5.917   0.640   5.613
 5102SOL    HW216206   6.048   0.655   5.708
 5103SOL     OW16207   6.788   1.341   4.217
 5103SOL    HW116208   6.836   1.403   4.155
 5103SOL    HW216209   6.841   1.329   4.301
 5104SOL     OW16210   1.828   6.919   1.139
 5104SOL    HW116211   1.796   7.009   1.109
 5104SOL    HW216212   1.863   6.868   1.060
 5105SOL     OW16213   4.405   3.779   6.771
 5105SOL    HW116214   4.492   3.753   6.812
 5105SOL    HW216215   4.421   3.821   6.682
 5106SOL     OW16216   3.784   0.202   2.540
 5106SOL    HW116217   3.695   0.241   2.516
 5106SOL    HW216218   3.774   0.148   2.624
 5107SOL     OW16219   3.023   0.593   0.217
 5107SOL    HW116220   2.954   0.634   0.276
 5107SOL    HW216221   3.042   0.654   0.140
 5108SOL     OW16222   3.183   3.957   3.558
 5108SOL    HW116223   3.265   3.934   3.506
 5108SOL    HW216224   3.104   3.908   3.521
 5109SOL     OW16225   1.050   1.759   1.086
 5109SOL    HW116226   1.056   1.754   0.986
 5109SOL    HW216227   0.977   1.699   1.118
 5110SOL     OW16228   1.223   6.480   6.237
 5110SOL    HW116229   1.314   6.441   6.221
 5110SOL    HW216230   1.225   6.536   6.320
 5111SOL     OW16231   0.799   0.845   5.774
 5111SOL    HW116232   0.820   0.937   5.742
 5111SOL    HW216233   0.701   0.839   5.794
 5112SOL     OW16234   0.301   6.622   3.621
 5112SOL    HW116235   0.262   6.619   3.529
 5112SOL    HW216236   0.394   6.659   3.616
 5113SOL     OW16237   0.718   0.595   1.284
 5113SOL    HW116238   0.787   0.572   1.215
 5113SOL    HW216239   0.758   0.585   1.375
 5114SOL     OW16240   3.581   3.381   0.073
 5114SOL    HW116241   3.564   3.368   0.171
 5114SOL    HW216242   3.665   3.434   0.061
 5115SOL     OW16243   1.671   4.566   5.692
 5115SOL    HW116244   1.699   4.534   5.783
 5115SOL    HW216245   1.572   4.554   5.682
 5116SOL     OW16246   5.307   5.538   5.790
 5116SOL    HW116247   5.280   5.538   5.694
 5116SOL    HW216248   5.260   5.612   5.838
 5117SOL     OW16249   2.032   4.791   4.091
 5117SOL    HW116250   2.021   4.692   4.080
 5117SOL    HW216251   2.023   4.836   4.002
 5118SOL     OW16252   4.485   6.756   0.408
 5118SOL    HW116253   4.388   6.734   0.409
 5118SOL    HW216254   4.506   6.813   0.488
 5119SOL     OW16255   5.020   0.217   1.821
 5119SOL    HW116256   5.120   0.217   1.814
 5119SOL    HW216257   4.981   0.180   1.736
 5120SOL     OW16258   6.071   1.531   2.897
 5120SOL    HW116259   6.027   1.526   2.987
 5120SOL    HW216260   6.168   1.508   2.906
 5121SOL     OW16261   1.223   3.075   6.362
 5121SOL    HW116262   1.195   2.991   6.409
 5121SOL    HW216263   1.187   3.154   6.413
 5122SOL     OW16264   2.730   0.596   3.794
 5122SOL    HW116265   2.730   0.501   3.823
 5122SOL    HW216266   2.640   0.637   3.812
 5123SOL     OW16267   5.333   3.462   4.247
 5123SOL    HW116268   5.349   3.484   4.151
 5123SOL    HW216269   5.358   3.367   4.264
 5124SOL     OW16270   2.500   5.705   6.117
 5124SOL    HW116271   2.418   5.650   6.106
 5124SOL    HW216272   2.475   5.802   6.118
 5125SOL     OW16273   0.626   3.716   4.465
 5125SOL    HW116274   0.687   3.641   4.491
 5125SOL    HW216275   0.545   3.714   4.524
 5126SOL     OW16276   6.263   5.031   5.546
 5126SOL    HW116277   6.279   4.946   5.596
 5126SOL    HW216278   6.202   5.013   5.469
 5127SOL     OW16279   5.668   4.042   0.639
 5127SOL    HW116280   5.764   4.045   0.613
 5127SOL    HW216281   5.650   4.109   0.710
 5128SOL     OW16282   0.850   0.376   0.056
 5128SOL    HW116283   0.768   0.431   0.038
 5128SOL    HW216284   0.826   0.279   0.049
 5129SOL     OW16285   5.381   0.435   2.933
 5129SOL    HW116286   5.378   0.389   3.021
 5129SOL    HW216287   5.460   0.496   2.930
 5130SOL     OW16288   0.842   5.468   4.494
 5130SOL    HW116289   0.865   5.490   4.588
 5130SOL    HW216290   0.757   5.513   4.468
 5131SOL     OW16291   3.639   4.889   3.472
 5131SOL    HW116292   3.545   4.884   3.506
 5131SOL    HW216293   3.660   4.984   3.448
 5132SOL     OW16294   3.117   1.628   6.707
 5132SOL    HW116295   3.183   1.587   6.643
 5132SOL    HW216296   3.029   1.639   6.661
 5133SOL     OW16297   3.555   5.464   6.056
 5133SOL    HW116298   3.495   5.392   6.091
 5133SOL    HW216299   3.519   5.498   5.969
 5134SOL     OW16300   6.484   6.895   1.598
 5134SOL    HW116301   6.489   6.876   1.500
 5134SOL    HW216302   6.459   6.812   1.648
 5135SOL     OW16303   6.469   3.532   3.112
 5135SOL    HW116304   6.522   3.447   3.121
 5135SOL    HW216305   6.510   3.603   3.170
 5136SOL     OW16306   0.167   1.006   6.089
 5136SOL    HW116307   0.080   0.965   6.116
 5136SOL    HW216308   0.160   1.041   5.996
 5137SOL     OW16309   4.756   2.653   5.393
 5137SOL    HW116310   4.678   2.629   5.452
 5137SOL    HW216311   4.735   2.738   5.344
 5138SOL     OW16312   3.461   4.079   3.983
 5138SOL    HW116313   3.456   4.095   4.081
 5138SOL    HW216314   3.554   4.097   3.951
 5139SOL     OW16315   1.500   0.429   4.501
 5139SOL    HW116316   1.568   0.357   4.490
 5139SOL    HW216317   1.511   0.496   4.428
 5140SOL     OW16318   3.810   1.671   6.394
 5140SOL    HW116319   3.789   1.652   6.298
 5140SOL    HW216320   3.882   1.609   6.426
 5141SOL     OW16321   6.158   3.250   1.124
 5141SOL    HW116322   6.068   3.213   1.147
 5141SOL    HW216323   6.163   3.268   1.026
 5142SOL     OW16324   5.714   6.858   3.829
 5142SOL    HW116325   5.793   6.800   3.850
 5142SOL    HW216326   5.630   6.804   3.838
 5143SOL     OW16327   0.834   4.292   4.819
 5143SOL    HW116328   0.838   4.213   4.881
 5143SOL    HW216329   0.760   4.352   4.847
 5144SOL     OW16330   2.067   3.586   6.633
 5144SOL    HW116331   2.144   3.611   6.574
 5144SOL    HW216332   2.024   3.669   6.669
 5145SOL     OW16333   3.626   6.067   6.231
 5145SOL    HW116334   3.720   6.032   6.235
 5145SOL    HW216335   3.592   6.061   6.137
 5146SOL     OW16336   4.117   4.419   5.612
 5146SOL    HW116337   4.156   4.504   5.576
 5146SOL    HW216338   4.018   4.417   5.596
 5147SOL     OW16339   5.125   3.803   3.165
 5147SOL    HW116340   5.212   3.777   3.207
 5147SOL    HW216341   5.139   3.823   3.068
 5148SOL     OW16342   0.629   0.099   1.847
 5148SOL    HW116343   0.562   0.044   1.897
 5148SOL    HW216344   0.608   0.097   1.750
 5149SOL     OW16345   6.013   4.813   3.678
 5149SOL    HW116346   5.981   4.836   3.770
 5149SOL    HW216347   6.029   4.715   3.672
 5150SOL     OW16348   1.198   5.274   3.412
 5150SOL    HW116349   1.111   5.253   3.367
 5150SOL    HW216350   1.273   5.232   3.362
 5151SOL     OW16351   6.052   4.738   1.156
 5151SOL    HW116352   6.062   4.837   1.145
 5151SOL    HW216353   6.018   4.719   1.248
 5152SOL     OW16354   1.782   6.355   6.541
 5152SOL    HW116355   1.781   6.448   6.503
 5152SOL    HW216356   1.876   6.326   6.556
 5153SOL     OW16357   1.738   1.027   0.615
 5153SOL    HW116358   1.717   0.980   0.530
 5153SOL    HW216359   1.660   1.019   0.677
 5154SOL     OW16360   0.654   2.422   6.594
 5154SOL    HW116361   0.629   2.343   6.538
 5154SOL    HW216362   0.722   2.477   6.545
 5155SOL     OW16363   2.390   1.626   0.625
 5155SOL    HW116364   2.296   1.593   0.627
 5155SOL    HW216365   2.405   1.689   0.702
 5156SOL     OW16366   5.074   5.164   4.933
 5156SOL    HW116367   4.987   5.173   4.981
 5156SOL    HW216368   5.146   5.142   4.999
 5157SOL     OW16369   4.143   1.559   1.979
 5157SOL    HW116370   4.089   1.517   1.906
 5157SOL    HW216371   4.093   1.551   2.066
 5158SOL     OW16372   3.673   1.598   1.331
 5158SOL    HW116373   3.589   1.548   1.352
 5158SOL    HW216374   3.748   1.560   1.385
 5159SOL     OW16375   5.913   3.826   6.679
 5159SOL    HW116376   5.860   3.797   6.759
 5159SOL    HW216377   5.904   3.757   6.607
 5160SOL     OW16378   6.331   6.817   3.365
 5160SOL    HW116379   6.252   6.807   3.426
 5160SOL    HW216380   6.410   6.849   3.417
 5161SOL     OW16381   1.374   3.227   6.872
 5161SOL    HW116382   1.468   3.208   6.844
 5161SOL    HW216383   1.311   3.183   6.808
 5162SOL     OW16384   0.061   5.456   2.756
 5162SOL    HW116385   0.128   5.518   2.795
 5162SOL    HW216386   0.010   5.410   2.829
 5163SOL     OW16387   3.204   6.035   1.862
 5163SOL    HW116388   3.237   5.942   1.873
 5163SOL    HW216389   3.254   6.079   1.787
 5164SOL     OW16390   2.905   2.921   0.435
 5164SOL    HW116391   2.853   2.854   0.488
 5164SOL    HW216392   2.987   2.947   0.486
 5165SOL     OW16393   1.444   4.849   0.200
 5165SOL    HW116394   1.386   4.768   0.210
 5165SOL    HW216395   1.407   4.908   0.129
 5166SOL     OW16396   1.817   5.555   1.741
 5166SOL    HW116397   1.868   5.621   1.686
 5166SOL    HW216398   1.764   5.602   1.811
 5167SOL     OW16399   5.596   3.835   5.591
 5167SOL    HW116400   5.513   3.785   5.566
 5167SOL    HW216401   5.580   3.887   5.674
 5168SOL     OW16402   4.761   2.442   2.496
 5168SOL    HW116403   4.739   2.400   2.408
 5168SOL    HW216404   4.753   2.541   2.488
 5169SOL     OW16405   3.990   1.108   3.893
 5169SOL    HW116406   4.072   1.153   3.929
 5169SOL    HW216407   3.909   1.161   3.916
 5170SOL     OW16408   1.381   3.470   6.310
 5170SOL    HW116409   1.406   3.406   6.237
 5170SOL    HW216410   1.384   3.423   6.398
 5171SOL     OW16411   1.553   5.118   5.630
 5171SOL    HW116412   1.631   5.056   5.636
 5171SOL    HW216413   1.470   5.066   5.610
 5172SOL     OW16414   1.049   5.092   4.107
 5172SOL    HW116415   1.057   5.034   4.026
 5172SOL    HW216416   0.980   5.054   4.169
 5173SOL     OW16417   4.604   3.823   6.308
 5173SOL    HW116418   4.534   3.773   6.258
 5173SOL    HW216419   4.619   3.912   6.265
 5174SOL     OW16420   1.359   6.991   3.889
 5174SOL    HW116421   1.455   6.978   3.868
 5174SOL    HW216422   1.327   0.056   3.849
 5175SOL     OW16423   3.159   4.189   6.640
 5175SOL    HW116424   3.110   4.149   6.563
 5175SOL    HW216425   3.093   4.225   6.707
 5176SOL     OW16426   5.555   5.471   6.237
 5176SOL    HW116427   5.475   5.449   6.180
 5176SOL    HW216428   5.615   5.534   6.186
 5177SOL     OW16429   5.001   0.407   0.922
 5177SOL    HW116430   4.921   0.408   0.860
 5177SOL    HW216431   4.976   0.362   1.007
 5178SOL     OW16432   1.072   4.125   1.884
 5178SOL    HW116433   1.160   4.097   1.846
 5178SOL    HW216434   0.998   4.088   1.828
 5179SOL     OW16435   5.178   4.118   2.840
 5179SOL    HW116436   5.142   4.169   2.919
 5179SOL    HW216437   5.148   4.023   2.846
 5180SOL     OW16438   2.774   6.525   1.261
 5180SOL    HW116439   2.721   6.574   1.330
 5180SOL    HW216440   2.756   6.565   1.171
 5181SOL     OW16441   6.885   1.023   6.628
 5181SOL    HW116442   6.848   0.968   6.553
 5181SOL    HW216443   6.972   1.064   6.599
 5182SOL     OW16444   4.254   4.724   2.577
 5182SOL    HW116445   4.318   4.668   2.524
 5182SOL    HW216446   4.192   4.773   2.515
 5183SOL     OW16447   4.191   1.975   3.177
 5183SOL    HW116448   4.228   1.944   3.090
 5183SOL    HW216449   4.162   2.071   3.169
 5184SOL     OW16450   2.029   2.560   3.792
 5184SOL    HW116451   2.020   2.461   3.808
 5184SOL    HW216452   2.126   2.586   3.799
 5185SOL     OW16453   4.768   0.351   2.564
 5185SOL    HW116454   4.866   0.353   2.584
 5185SOL    HW216455   4.728   0.268   2.602
 5186SOL     OW16456   6.412   3.259   5.830
 5186SOL    HW116457   6.447   3.173   5.866
 5186SOL    HW216458   6.327   3.283   5.878
 5187SOL     OW16459   2.385   4.998   4.548
 5187SOL    HW116460   2.315   4.933   4.575
 5187SOL    HW216461   2.384   5.008   4.448
 5188SOL     OW16462   6.650   6.312   1.542
 5188SOL    HW116463   6.725   6.361   1.586
 5188SOL    HW216464   6.570   6.312   1.603
 5189SOL     OW16465   5.872   0.096   6.332
 5189SOL    HW116466   5.937   0.055   6.268
 5189SOL    HW216467   5.816   0.163   6.283
 5190SOL     OW16468   1.667   2.883   1.907
 5190SOL    HW116469   1.703   2.901   1.816
 5190SOL    HW216470   1.729   2.923   1.975
 5191SOL     OW16471   2.981   6.033   2.358
 5191SOL    HW116472   2.907   6.010   2.421
 5191SOL    HW216473   3.068   6.024   2.405
 5192SOL     OW16474   1.786   5.708   1.359
 5192SOL    HW116475   1.806   5.634   1.294
 5192SOL    HW216476   1.867   5.724   1.416
 5193SOL     OW16477   5.448   0.608   6.699
 5193SOL    HW116478   5.531   0.620   6.754
 5193SOL    HW216479   5.369   0.594   6.760
 5194SOL     OW16480   3.412   1.709   6.528
 5194SOL    HW116481   3.337   1.643   6.520
 5194SOL    HW216482   3.414   1.768   6.448
 5195SOL     OW16483   0.763   0.504   3.482
 5195SOL    HW116484   0.825   0.426   3.490
 5195SOL    HW216485   0.780   0.552   3.396
 5196SOL     OW16486   4.695   6.578   2.863
 5196SOL    HW116487   4.632   6.589   2.940
 5196SOL    HW216488   4.780   6.627   2.882
 5197SOL     OW16489   1.778   3.796   6.430
 5197SOL    HW116490   1.808   3.815   6.336
 5197SOL    HW216491   1.853   3.814   6.493
 5198SOL     OW16492   4.397   5.766   3.177
 5198SOL    HW116493   4.338   5.846   3.163
 5198SOL    HW216494   4.475   5.790   3.234
 5199SOL     OW16495   6.832   5.522   1.015
 5199SOL    HW116496   6.887   5.476   1.085
 5199SOL    HW216497   6.843   5.621   1.024
 5200SOL     OW16498   0.720   3.923   5.306
 5200SOL    HW116499   0.682   3.928   5.213
 5200SOL    HW216500   0.646   3.931   5.373
 5201SOL     OW16501   0.861   6.424   4.371
 5201SOL    HW116502   0.890   6.330   4.388
 5201SOL    HW216503   0.863   6.442   4.272
 5202SOL     OW16504   6.946   3.236   6.779
 5202SOL    HW116505   6.912   3.161   6.722
 5202SOL    HW216506   6.932   3.323   6.732
 5203SOL     OW16507   1.048   2.343   6.938
 5203SOL    HW116508   0.950   2.358   6.955
 5203SOL    HW216509   1.085   2.283   7.008
 5204SOL     OW16510   3.819   5.052   0.559
 5204SOL    HW116511   3.760   5.033   0.481
 5204SOL    HW216512   3.771   5.027   0.644
 5205SOL     OW16513   1.663   0.383   1.592
 5205SOL    HW116514   1.760   0.402   1.599
 5205SOL    HW216515   1.649   0.284   1.588
 5206SOL     OW16516   0.184   4.367   6.679
 5206SOL    HW116517   0.194   4.336   6.584
 5206SOL    HW216518   0.144   4.459   6.679
 5207SOL     OW16519   1.312   5.591   4.654
 5207SOL    HW116520   1.326   5.639   4.567
 5207SOL    HW216521   1.379   5.518   4.662
 5208SOL     OW16522   3.797   1.040   0.494
 5208SOL    HW116523   3.709   1.069   0.531
 5208SOL    HW216524   3.817   0.947   0.524
 5209SOL     OW16525   5.766   6.269   3.574
 5209SOL    HW116526   5.827   6.283   3.651
 5209SOL    HW216527   5.803   6.315   3.493
 5210SOL     OW16528   5.325   3.519   4.919
 5210SOL    HW116529   5.231   3.546   4.898
 5210SOL    HW216530   5.350   3.552   5.010
 5211SOL     OW16531   3.795   2.932   4.281
 5211SOL    HW116532   3.773   2.882   4.197
 5211SOL    HW216533   3.764   3.027   4.272
 5212SOL     OW16534   0.049   2.485   0.513
 5212SOL    HW116535   0.105   2.559   0.475
 5212SOL    HW216536   6.981   2.521   0.540
 5213SOL     OW16537   4.807   2.191   6.180
 5213SOL    HW116538   4.784   2.180   6.084
 5213SOL    HW216539   4.773   2.279   6.213
 5214SOL     OW16540   5.447   1.476   6.215
 5214SOL    HW116541   5.496   1.389   6.210
 5214SOL    HW216542   5.513   1.551   6.210
 5215SOL     OW16543   5.770   5.198   3.134
 5215SOL    HW116544   5.857   5.211   3.086
 5215SOL    HW216545   5.789   5.177   3.230
 5216SOL     OW16546   4.711   5.585   1.380
 5216SOL    HW116547   4.614   5.563   1.386
 5216SOL    HW216548   4.748   5.550   1.294
 5217SOL     OW16549   2.992   5.087   3.658
 5217SOL    HW116550   2.957   5.176   3.629
 5217SOL    HW216551   2.965   5.017   3.592
 5218SOL     OW16552   2.062   0.480   3.887
 5218SOL    HW116553   1.987   0.419   3.863
 5218SOL    HW216554   2.030   0.548   3.953
 5219SOL     OW16555   3.674   0.118   6.519
 5219SOL    HW116556   3.704   0.071   6.602
 5219SOL    HW216557   3.754   0.139   6.462
 5220SOL     OW16558   1.046   5.273   2.377
 5220SOL    HW116559   0.951   5.284   2.346
 5220SOL    HW216560   1.107   5.321   2.315
 5221SOL     OW16561   5.574   2.092   4.394
 5221SOL    HW116562   5.543   2.024   4.461
 5221SOL    HW216563   5.498   2.152   4.370
 5222SOL     OW16564   2.770   6.981   4.045
 5222SOL    HW116565   2.802   6.886   4.034
 5222SOL    HW216566   2.848   0.019   4.063
 5223SOL     OW16567   4.499   0.753   0.972
 5223SOL    HW116568   4.447   0.728   0.890
 5223SOL    HW216569   4.445   0.733   1.053
 5224SOL     OW16570   6.522   2.101   3.180
 5224SOL    HW116571   6.547   2.120   3.085
 5224SOL    HW216572   6.604   2.079   3.233
 5225SOL     OW16573   6.512   0.391   3.180
 5225SOL    HW116574   6.522   0.294   3.156
 5225SOL    HW216575   6.589   0.419   3.237
 5226SOL     OW16576   0.297   6.540   4.956
 5226SOL    HW116577   0.221   6.495   4.909
 5226SOL    HW216578   0.288   6.639   4.948
 5227SOL     OW16579   0.203   4.739   3.778
 5227SOL    HW116580   0.215   4.679   3.857
 5227SOL    HW216581   0.140   4.813   3.802
 5228SOL     OW16582   6.601   2.759   0.137
 5228SOL    HW116583   6.677   2.698   0.117
 5228SOL    HW216584   6.518   2.724   0.093
 5229SOL     OW16585   2.010   4.560   6.652
 5229SOL    HW116586   1.932   4.513   6.695
 5229SOL    HW216587   2.094   4.539   6.703
 5230SOL     OW16588   0.511   0.122   0.784
 5230SOL    HW116589   0.413   0.125   0.806
 5230SOL    HW216590   0.532   0.192   0.716
 5231SOL     OW16591   3.206   2.948   4.514
 5231SOL    HW116592   3.248   2.862   4.487
 5231SOL    HW216593   3.269   3.024   4.495
 5232SOL     OW16594   3.261   2.498   6.091
 5232SOL    HW116595   3.291   2.403   6.093
 5232SOL    HW216596   3.318   2.549   6.026
 5233SOL     OW16597   6.890   6.493   1.208
 5233SOL    HW116598   6.794   6.466   1.207
 5233SOL    HW216599   6.912   6.535   1.296
 5234SOL     OW16600   3.267   0.334   0.195
 5234SOL    HW116601   3.167   0.323   0.198
 5234SOL    HW216602   3.308   0.251   0.157
 5235SOL     OW16603   1.181   2.855   1.157
 5235SOL    HW116604   1.219   2.763   1.145
 5235SOL    HW216605   1.084   2.854   1.135
 5236SOL     OW16606   5.460   3.287   1.516
 5236SOL    HW116607   5.402   3.226   1.462
 5236SOL    HW216608   5.553   3.251   1.519
 5237SOL     OW16609   3.094   1.970   5.332
 5237SOL    HW116610   3.035   1.899   5.369
 5237SOL    HW216611   3.067   1.990   5.237
 5238SOL     OW16612   1.243   4.927   0.456
 5238SOL    HW116613   1.250   4.847   0.396
 5238SOL    HW216614   1.289   5.005   0.413
 5239SOL     OW16615   3.401   3.962   4.451
 5239SOL    HW116616   3.308   3.983   4.483
 5239SOL    HW216617   3.438   3.887   4.506
 5240SOL     OW16618   3.060   1.930   5.700
 5240SOL    HW116619   3.094   1.917   5.793
 5240SOL    HW216620   2.966   1.965   5.702
 5241SOL     OW16621   1.049   5.843   6.344
 5241SOL    HW116622   1.148   5.857   6.341
 5241SOL    HW216623   1.003   5.928   6.320
 5242SOL     OW16624   5.819   0.502   5.492
 5242SOL    HW116625   5.893   0.438   5.474
 5242SOL    HW216626   5.734   0.468   5.451
 5243SOL     OW16627   0.750   5.838   0.874
 5243SOL    HW116628   0.728   5.844   0.972
 5243SOL    HW216629   0.702   5.760   0.834
 5244SOL     OW16630   4.407   3.876   5.554
 5244SOL    HW116631   4.449   3.890   5.464
 5244SOL    HW216632   4.341   3.801   5.548
 5245SOL     OW16633   4.468   3.901   5.971
 5245SOL    HW116634   4.512   3.941   6.051
 5245SOL    HW216635   4.442   3.974   5.907
 5246SOL     OW16636   6.754   4.200   2.447
 5246SOL    HW116637   6.789   4.233   2.359
 5246SOL    HW216638   6.814   4.230   2.520
 5247SOL     OW16639   0.949   6.420   0.022
 5247SOL    HW116640   1.024   6.397   0.085
 5247SOL    HW216641   0.862   6.416   0.071
 5248SOL     OW16642   5.400   0.493   5.740
 5248SOL    HW116643   5.437   0.572   5.787
 5248SOL    HW216644   5.365   0.427   5.807
 5249SOL     OW16645   0.779   4.986   4.981
 5249SOL    HW116646   0.836   4.905   4.969
 5249SOL    HW216647   0.692   4.960   5.023
 5250SOL     OW16648   0.327   1.282   6.186
 5250SOL    HW116649   0.344   1.185   6.171
 5250SOL    HW216650   0.233   1.304   6.157
 5251SOL     OW16651   0.559   3.109   1.358
 5251SOL    HW116652   0.491   3.141   1.424
 5251SOL    HW216653   0.558   3.170   1.278
 5252SOL     OW16654   1.902   5.307   0.936
 5252SOL    HW116655   1.815   5.279   0.897
 5252SOL    HW216656   1.936   5.235   0.997
 5253SOL     OW16657   5.903   3.763   4.651
 5253SOL    HW116658   5.823   3.706   4.630
 5253SOL    HW216659   5.873   3.855   4.674
 5254SOL     OW16660   5.274   1.640   3.278
 5254SOL    HW116661   5.359   1.621   3.326
 5254SOL    HW216662   5.230   1.553   3.252
 5255SOL     OW16663   4.176   0.248   4.229
 5255SOL    HW116664   4.255   0.309   4.228
 5255SOL    HW216665   4.183   0.186   4.307
 5256SOL     OW16666   5.373   1.007   3.142
 5256SOL    HW116667   5.316   0.991   3.223
 5256SOL    HW216668   5.365   0.929   3.080
 5257SOL     OW16669   4.481   0.075   1.999
 5257SOL    HW116670   4.567   0.058   1.951
 5257SOL    HW216671   4.408   0.092   1.932
 5258SOL     OW16672   5.332   4.462   1.917
 5258SOL    HW116673   5.294   4.547   1.881
 5258SOL    HW216674   5.365   4.476   2.010
 5259SOL     OW16675   4.798   6.133   1.511
 5259SOL    HW116676   4.827   6.150   1.605
 5259SOL    HW216677   4.770   6.037   1.501
 5260SOL     OW16678   4.710   3.261   0.534
 5260SOL    HW116679   4.646   3.336   0.515
 5260SOL    HW216680   4.680   3.179   0.486
 5261SOL     OW16681   1.329   2.586   5.179
 5261SOL    HW116682   1.399   2.553   5.115
 5261SOL    HW216683   1.289   2.509   5.228
 5262SOL     OW16684   2.553   6.783   2.606
 5262SOL    HW116685   2.588   6.844   2.535
 5262SOL    HW216686   2.464   6.816   2.637
 5263SOL     OW16687   1.248   6.731   6.057
 5263SOL    HW116688   1.154   6.736   6.023
 5263SOL    HW216689   1.250   6.755   6.154
 5264SOL     OW16690   6.287   1.231   1.520
 5264SOL    HW116691   6.366   1.285   1.547
 5264SOL    HW216692   6.233   1.207   1.601
 5265SOL     OW16693   5.117   4.238   2.243
 5265SOL    HW116694   5.117   4.144   2.208
 5265SOL    HW216695   5.028   4.259   2.283
 5266SOL     OW16696   2.741   6.362   1.567
 5266SOL    HW116697   2.780   6.386   1.656
 5266SOL    HW216698   2.708   6.267   1.570
 5267SOL     OW16699   4.731   5.041   5.687
 5267SOL    HW116700   4.780   4.979   5.749
 5267SOL    HW216701   4.647   5.073   5.731
 5268SOL     OW16702   6.196   5.701   4.987
 5268SOL    HW116703   6.169   5.735   4.897
 5268SOL    HW216704   6.175   5.769   5.057
 5269SOL     OW16705   2.116   6.531   4.021
 5269SOL    HW116706   2.167   6.597   3.966
 5269SOL    HW216707   2.026   6.570   4.044
 5270SOL     OW16708   4.534   1.896   1.510
 5270SOL    HW116709   4.556   1.800   1.491
 5270SOL    HW216710   4.618   1.946   1.530
 5271SOL     OW16711   4.255   5.240   4.207
 5271SOL    HW116712   4.170   5.189   4.197
 5271SOL    HW216713   4.295   5.255   4.116
 5272SOL     OW16714   0.663   6.194   3.873
 5272SOL    HW116715   0.726   6.222   3.802
 5272SOL    HW216716   0.713   6.180   3.959
 5273SOL     OW16717   1.137   3.102   3.646
 5273SOL    HW116718   1.162   3.006   3.637
 5273SOL    HW216719   1.148   3.148   3.557
 5274SOL     OW16720   6.332   5.253   2.807
 5274SOL    HW116721   6.351   5.336   2.755
 5274SOL    HW216722   6.295   5.183   2.746
 5275SOL     OW16723   3.196   0.533   6.497
 5275SOL    HW116724   3.248   0.490   6.423
 5275SOL    HW216725   3.230   0.500   6.585
 5276SOL     OW16726   0.341   6.408   0.277
 5276SOL    HW116727   0.415   6.441   0.220
 5276SOL    HW216728   0.254   6.448   0.247
 5277SOL     OW16729   2.054   1.883   2.971
 5277SOL    HW116730   2.029   1.880   2.874
 5277SOL    HW216731   2.152   1.901   2.980
 5278SOL     OW16732   5.666   6.725   5.741
 5278SOL    HW116733   5.648   6.664   5.663
 5278SOL    HW216734   5.586   6.726   5.801
 5279SOL     OW16735   0.973   6.215   6.582
 5279SOL    HW116736   1.001   6.218   6.486
 5279SOL    HW216737   0.996   6.302   6.626
 5280SOL     OW16738   3.866   6.017   5.394
 5280SOL    HW116739   3.851   5.943   5.329
 5280SOL    HW216740   3.929   5.988   5.465
 5281SOL     OW16741   0.926   1.516   3.995
 5281SOL    HW116742   0.998   1.513   4.064
 5281SOL    HW216743   0.961   1.556   3.911
 5282SOL     OW16744   2.200   0.211   2.465
 5282SOL    HW116745   2.229   0.213   2.561
 5282SOL    HW216746   2.137   0.286   2.448
 5283SOL     OW16747   1.558   0.719   3.379
 5283SOL    HW116748   1.473   0.709   3.432
 5283SOL    HW216749   1.636   0.722   3.442
 5284SOL     OW16750   4.646   2.498   2.986
 5284SOL    HW116751   4.722   2.439   3.014
 5284SOL    HW216752   4.565   2.442   2.972
 5285SOL     OW16753   1.034   3.750   4.450
 5285SOL    HW116754   0.977   3.722   4.528
 5285SOL    HW216755   1.098   3.821   4.479
 5286SOL     OW16756   6.234   3.009   0.742
 5286SOL    HW116757   6.329   2.998   0.712
 5286SOL    HW216758   6.224   3.098   0.788
 5287SOL     OW16759   2.979   5.031   1.383
 5287SOL    HW116760   2.915   5.007   1.456
 5287SOL    HW216761   3.069   5.053   1.422
 5288SOL     OW16762   4.685   0.537   3.084
 5288SOL    HW116763   4.670   0.447   3.125
 5288SOL    HW216764   4.597   0.575   3.056
 5289SOL     OW16765   2.690   5.079   6.484
 5289SOL    HW116766   2.622   5.010   6.508
 5289SOL    HW216767   2.700   5.082   6.385
 5290SOL     OW16768   1.342   3.898   5.720
 5290SOL    HW116769   1.328   3.820   5.659
 5290SOL    HW216770   1.424   3.882   5.775
 5291SOL     OW16771   2.938   4.364   6.109
 5291SOL    HW116772   3.005   4.408   6.048
 5291SOL    HW216773   2.903   4.432   6.174
 5292SOL     OW16774   5.814   4.810   6.214
 5292SOL    HW116775   5.837   4.864   6.133
 5292SOL    HW216776   5.893   4.755   6.241
 5293SOL     OW16777   2.031   6.690   5.164
 5293SOL    HW116778   2.003   6.656   5.254
 5293SOL    HW216779   2.130   6.688   5.156
 5294SOL     OW16780   4.692   1.940   5.620
 5294SOL    HW116781   4.609   1.946   5.676
 5294SOL    HW216782   4.668   1.910   5.528
 5295SOL     OW16783   3.573   0.754   3.128
 5295SOL    HW116784   3.539   0.725   3.038
 5295SOL    HW216785   3.649   0.818   3.116
 5296SOL     OW16786   3.730   3.936   0.308
 5296SOL    HW116787   3.651   3.958   0.365
 5296SOL    HW216788   3.746   4.009   0.243
 5297SOL     OW16789   1.857   3.320   0.349
 5297SOL    HW116790   1.805   3.362   0.423
 5297SOL    HW216791   1.797   3.306   0.270
 5298SOL     OW16792   1.741   5.973   6.159
 5298SOL    HW116793   1.705   5.938   6.073
 5298SOL    HW216794   1.841   5.961   6.161
 5299SOL     OW16795   3.019   2.817   0.742
 5299SOL    HW116796   2.930   2.811   0.787
 5299SOL    HW216797   3.035   2.734   0.688
 5300SOL     OW16798   0.752   5.241   0.988
 5300SOL    HW116799   0.693   5.280   0.916
 5300SOL    HW216800   0.803   5.314   1.032
 5301SOL     OW16801   4.015   1.225   5.955
 5301SOL    HW116802   4.028   1.283   5.874
 5301SOL    HW216803   4.040   1.131   5.932
 5302SOL     OW16804   5.602   6.043   3.578
 5302SOL    HW116805   5.681   6.100   3.558
 5302SOL    HW216806   5.620   5.986   3.658
 5303SOL     OW16807   0.051   5.183   5.079
 5303SOL    HW116808   0.149   5.173   5.096
 5303SOL    HW216809   0.003   5.105   5.119
 5304SOL     OW16810   5.971   1.177   0.618
 5304SOL    HW116811   5.966   1.087   0.576
 5304SOL    HW216812   6.067   1.201   0.635
 5305SOL     OW16813   0.834   5.303   2.638
 5305SOL    HW116814   0.818   5.302   2.539
 5305SOL    HW216815   0.772   5.369   2.681
 5306SOL     OW16816   0.584   4.469   5.648
 5306SOL    HW116817   0.602   4.394   5.585
 5306SOL    HW216818   0.557   4.433   5.737
 5307SOL     OW16819   3.575   1.931   0.458
 5307SOL    HW116820   3.655   1.914   0.401
 5307SOL    HW216821   3.500   1.870   0.430
 5308SOL     OW16822   1.437   4.245   2.062
 5308SOL    HW116823   1.349   4.290   2.048
 5308SOL    HW216824   1.507   4.291   2.007
 5309SOL     OW16825   4.045   4.910   2.081
 5309SOL    HW116826   3.965   4.902   2.140
 5309SOL    HW216827   4.117   4.848   2.113
 5310SOL     OW16828   6.262   3.600   1.400
 5310SOL    HW116829   6.314   3.658   1.337
 5310SOL    HW216830   6.293   3.618   1.494
 5311SOL     OW16831   5.840   6.690   0.323
 5311SOL    HW116832   5.780   6.673   0.245
 5311SOL    HW216833   5.832   6.786   0.351
 5312SOL     OW16834   0.797   5.351   1.629
 5312SOL    HW116835   0.737   5.430   1.640
 5312SOL    HW216836   0.752   5.269   1.664
 5313SOL     OW16837   1.298   3.303   6.084
 5313SOL    HW116838   1.208   3.296   6.126
 5313SOL    HW216839   1.339   3.212   6.076
 5314SOL     OW16840   3.792   6.711   0.237
 5314SOL    HW116841   3.748   6.694   0.148
 5314SOL    HW216842   3.817   6.624   0.279
 5315SOL     OW16843   5.079   3.432   2.136
 5315SOL    HW116844   5.139   3.457   2.061
 5315SOL    HW216845   5.052   3.337   2.127
 5316SOL     OW16846   0.899   3.105   5.257
 5316SOL    HW116847   0.879   3.172   5.328
 5316SOL    HW216848   0.867   3.015   5.286
 5317SOL     OW16849   6.051   2.272   5.509
 5317SOL    HW116850   6.059   2.213   5.428
 5317SOL    HW216851   6.137   2.269   5.560
 5318SOL     OW16852   0.707   2.605   0.633
 5318SOL    HW116853   0.672   2.632   0.544
 5318SOL    HW216854   0.642   2.631   0.704
 5319SOL     OW16855   4.242   6.035   0.735
 5319SOL    HW116856   4.296   6.066   0.656
 5319SOL    HW216857   4.215   6.114   0.790
 5320SOL     OW16858   4.129   4.974   0.680
 5320SOL    HW116859   4.112   5.072   0.675
 5320SOL    HW216860   4.137   4.936   0.587
 5321SOL     OW16861   1.955   4.471   4.480
 5321SOL    HW116862   1.911   4.390   4.518
 5321SOL    HW216863   2.054   4.464   4.493
 5322SOL     OW16864   5.110   6.005   0.379
 5322SOL    HW116865   5.203   6.005   0.343
 5322SOL    HW216866   5.074   6.098   0.377
 5323SOL     OW16867   3.280   1.685   5.982
 5323SOL    HW116868   3.365   1.641   6.010
 5323SOL    HW216869   3.249   1.647   5.895
 5324SOL     OW16870   3.258   2.038   0.882
 5324SOL    HW116871   3.273   2.137   0.884
 5324SOL    HW216872   3.318   1.997   0.813
 5325SOL     OW16873   4.370   0.436   4.205
 5325SOL    HW116874   4.386   0.485   4.290
 5325SOL    HW216875   4.450   0.446   4.145
 5326SOL     OW16876   6.676   5.684   3.100
 5326SOL    HW116877   6.615   5.755   3.136
 5326SOL    HW216878   6.732   5.723   3.026
 5327SOL     OW16879   5.894   3.267   5.420
 5327SOL    HW116880   5.992   3.273   5.437
 5327SOL    HW216881   5.844   3.273   5.506
 5328SOL     OW16882   3.701   4.030   6.294
 5328SOL    HW116883   3.745   3.941   6.279
 5328SOL    HW216884   3.617   4.016   6.346
 5329SOL     OW16885   0.399   5.093   6.558
 5329SOL    HW116886   0.398   4.996   6.579
 5329SOL    HW216887   0.484   5.117   6.511
 5330SOL     OW16888   4.560   3.752   0.051
 5330SOL    HW116889   4.605   3.838   0.076
 5330SOL    HW216890   4.509   3.717   0.129
 5331SOL     OW16891   6.348   1.421   5.808
 5331SOL    HW116892   6.258   1.453   5.779
 5331SOL    HW216893   6.343   1.323   5.830
 5332SOL     OW16894   0.756   3.217   1.600
 5332SOL    HW116895   0.823   3.214   1.674
 5332SOL    HW216896   0.711   3.307   1.600
 5333SOL     OW16897   0.925   0.878   3.124
 5333SOL    HW116898   1.019   0.897   3.098
 5333SOL    HW216899   0.871   0.962   3.124
 5334SOL     OW16900   3.338   0.066   4.372
 5334SOL    HW116901   3.354   0.153   4.326
 5334SOL    HW216902   3.309   7.019   4.305
 5335SOL     OW16903   0.261   6.093   0.862
 5335SOL    HW116904   0.249   6.055   0.771
 5335SOL    HW216905   0.310   6.028   0.920
 5336SOL     OW16906   1.868   3.330   2.629
 5336SOL    HW116907   1.945   3.314   2.568
 5336SOL    HW216908   1.809   3.401   2.591
 5337SOL     OW16909   5.003   4.574   1.121
 5337SOL    HW116910   5.010   4.591   1.022
 5337SOL    HW216911   4.997   4.661   1.169
 5338SOL     OW16912   5.850   1.818   0.346
 5338SOL    HW116913   5.767   1.830   0.292
 5338SOL    HW216914   5.864   1.897   0.405
 5339SOL     OW16915   7.006   1.777   4.050
 5339SOL    HW116916   6.979   1.844   4.119
 5339SOL    HW216917   6.938   1.775   3.976
 5340SOL     OW16918   4.675   4.639   1.133
 5340SOL    HW116919   4.608   4.603   1.198
 5340SOL    HW216920   4.738   4.566   1.107
 5341SOL     OW16921   4.007   2.630   6.791
 5341SOL    HW116922   3.955   2.621   6.706
 5341SOL    HW216923   3.944   2.620   6.869
 5342SOL     OW16924   3.933   6.882   4.074
 5342SOL    HW116925   3.949   6.811   4.005
 5342SOL    HW216926   3.850   6.861   4.124
 5343SOL     OW16927   3.247   4.107   4.785
 5343SOL    HW116928   3.184   4.075   4.856
 5343SOL    HW216929   3.297   4.188   4.819
 5344SOL     OW16930   1.790   2.666   1.995
 5344SOL    HW116931   1.885   2.700   2.001
 5344SOL    HW216932   1.729   2.743   1.975
 5345SOL     OW16933   4.179   5.822   1.520
 5345SOL    HW116934   4.203   5.730   1.490
 5345SOL    HW216935   4.103   5.818   1.585
 5346SOL     OW16936   3.294   5.875   4.109
 5346SOL    HW116937   3.364   5.923   4.161
 5346SOL    HW216938   3.258   5.799   4.164
 5347SOL     OW16939   0.765   2.484   2.348
 5347SOL    HW116940   0.830   2.505   2.422
 5347SOL    HW216941   0.676   2.464   2.388
 5348SOL     OW16942   6.783   1.498   1.036
 5348SOL    HW116943   6.745   1.422   0.983
 5348SOL    HW216944   6.877   1.474   1.064
 5349SOL     OW16945   1.325   2.668   0.079
 5349SOL    HW116946   1.248   2.639   0.136
 5349SOL    HW216947   1.406   2.679   0.136
 5350SOL     OW16948   1.453   0.208   5.847
 5350SOL    HW116949   1.412   0.123   5.879
 5350SOL    HW216950   1.518   0.188   5.774
 5351SOL     OW16951   5.864   5.477   1.762
 5351SOL    HW116952   5.934   5.406   1.759
 5351SOL    HW216953   5.890   5.547   1.828
 5352SOL     OW16954   1.757   5.531   4.404
 5352SOL    HW116955   1.720   5.624   4.402
 5352SOL    HW216956   1.764   5.496   4.311
 5353SOL     OW16957   3.678   5.764   3.992
 5353SOL    HW116958   3.636   5.699   4.055
 5353SOL    HW216959   3.639   5.752   3.901
 5354SOL     OW16960   2.024   5.114   1.673
 5354SOL    HW116961   2.024   5.015   1.657
 5354SOL    HW216962   1.931   5.145   1.691
 5355SOL     OW16963   4.993   2.589   3.621
 5355SOL    HW116964   4.910   2.644   3.617
 5355SOL    HW216965   4.987   2.515   3.555
 5356SOL     OW16966   5.889   4.702   1.377
 5356SOL    HW116967   5.875   4.610   1.416
 5356SOL    HW216968   5.828   4.715   1.300
 5357SOL     OW16969   3.288   6.858   0.086
 5357SOL    HW116970   3.197   6.838   0.119
 5357SOL    HW216971   3.356   6.805   0.137
 5358SOL     OW16972   4.196   1.376   0.421
 5358SOL    HW116973   4.277   1.366   0.478
 5358SOL    HW216974   4.201   1.312   0.344
 5359SOL     OW16975   2.145   1.734   0.229
 5359SOL    HW116976   2.089   1.679   0.168
 5359SOL    HW216977   2.090   1.763   0.308
 5360SOL     OW16978   4.642   6.661   5.295
 5360SOL    HW116979   4.584   6.739   5.274
 5360SOL    HW216980   4.697   6.638   5.215
 5361SOL     OW16981   2.040   6.867   4.662
 5361SOL    HW116982   2.118   6.817   4.698
 5361SOL    HW216983   2.059   6.895   4.568
 5362SOL     OW16984   5.327   5.034   3.530
 5362SOL    HW116985   5.228   5.047   3.526
 5362SOL    HW216986   5.348   4.955   3.588
 5363SOL     OW16987   0.611   0.034   6.309
 5363SOL    HW116988   0.629   6.993   6.234
 5363SOL    HW216989   0.519   0.071   6.301
 5364SOL     OW16990   6.849   5.826   1.505
 5364SOL    HW116991   6.862   5.925   1.509
 5364SOL    HW216992   6.831   5.791   1.597
 5365SOL     OW16993   3.674   2.987   6.890
 5365SOL    HW116994   3.646   3.016   6.798
 5365SOL    HW216995   3.613   3.029   6.958
 5366SOL     OW16996   5.155   5.978   1.421
 5366SOL    HW116997   5.175   5.959   1.517
 5366SOL    HW216998   5.153   6.077   1.406
 5367SOL     OW16999   0.481   5.702   0.536
 5367SOL    HW117000   0.522   5.793   0.538
 5367SOL    HW217001   0.422   5.693   0.456
 5368SOL     OW17002   5.123   0.652   2.817
 5368SOL    HW117003   5.118   0.718   2.743
 5368SOL    HW217004   5.033   0.644   2.861
 5369SOL     OW17005   3.453   0.030   2.292
 5369SOL    HW117006   3.357   0.044   2.269
 5369SOL    HW217007   3.464   6.961   2.334
 5370SOL     OW17008   4.466   2.871   1.317
 5370SOL    HW117009   4.469   2.828   1.407
 5370SOL    HW217010   4.539   2.834   1.260
 5371SOL     OW17011   1.867   3.864   4.552
 5371SOL    HW117012   1.815   3.821   4.478
 5371SOL    HW217013   1.959   3.826   4.554
 5372SOL     OW17014   2.338   6.024   3.881
 5372SOL    HW117015   2.277   6.086   3.932
 5372SOL    HW217016   2.416   6.075   3.846
 5373SOL     OW17017   3.144   5.443   3.981
 5373SOL    HW117018   3.213   5.461   4.051
 5373SOL    HW217019   3.053   5.447   4.022
 5374SOL     OW17020   0.802   4.199   0.353
 5374SOL    HW117021   0.823   4.283   0.403
 5374SOL    HW217022   0.841   4.205   0.261
 5375SOL     OW17023   1.669   4.032   4.568
 5375SOL    HW117024   1.748   3.981   4.534
 5375SOL    HW217025   1.700   4.115   4.614
 5376SOL     OW17026   2.109   3.234   0.708
 5376SOL    HW117027   2.110   3.318   0.761
 5376SOL    HW217028   2.123   3.156   0.769
 5377SOL     OW17029   6.999   6.997   1.680
 5377SOL    HW117030   6.949   0.058   1.707
 5377SOL    HW217031   0.013   6.952   1.762
 5378SOL     OW17032   7.006   0.520   2.406
 5378SOL    HW117033   7.003   0.479   2.497
 5378SOL    HW217034   7.004   0.448   2.337
 5379SOL     OW17035   1.327   5.597   5.273
 5379SOL    HW117036   1.380   5.522   5.232
 5379SOL    HW217037   1.339   5.679   5.217
 5380SOL     OW17038   1.729   1.351   3.787
 5380SOL    HW117039   1.670   1.431   3.799
 5380SOL    HW217040   1.777   1.358   3.699
 5381SOL     OW17041   6.422   4.091   0.795
 5381SOL    HW117042   6.322   4.091   0.801
 5381SOL    HW217043   6.453   4.009   0.748
 5382SOL     OW17044   3.227   0.674   2.351
 5382SOL    HW117045   3.229   0.693   2.449
 5382SOL    HW217046   3.289   0.736   2.303
 5383SOL     OW17047   2.630   2.374   5.510
 5383SOL    HW117048   2.590   2.284   5.496
 5383SOL    HW217049   2.577   2.442   5.459
 5384SOL     OW17050   6.036   0.474   4.217
 5384SOL    HW117051   5.962   0.541   4.229
 5384SOL    HW217052   6.123   0.516   4.241
 5385SOL     OW17053   2.896   3.564   3.845
 5385SOL    HW117054   2.885   3.644   3.905
 5385SOL    HW217055   2.879   3.481   3.897
 5386SOL     OW17056   4.642   0.159   4.462
 5386SOL    HW117057   4.695   0.184   4.382
 5386SOL    HW217058   4.631   0.060   4.466
 5387SOL     OW17059   3.003   6.038   3.868
 5387SOL    HW117060   2.906   6.023   3.884
 5387SOL    HW217061   3.053   5.953   3.885
 5388SOL     OW17062   6.222   0.427   3.420
 5388SOL    HW117063   6.148   0.400   3.357
 5388SOL    HW217064   6.274   0.346   3.446
 5389SOL     OW17065   5.124   0.776   1.832
 5389SOL    HW117066   5.145   0.747   1.739
 5389SOL    HW217067   5.036   0.739   1.860
 5390SOL     OW17068   4.762   4.178   3.411
 5390SOL    HW117069   4.720   4.178   3.320
 5390SOL    HW217070   4.744   4.266   3.456
 5391SOL     OW17071   1.545   2.437   1.436
 5391SOL    HW117072   1.466   2.397   1.483
 5391SOL    HW217073   1.536   2.425   1.338
 5392SOL     OW17074   5.909   3.186   0.760
 5392SOL    HW117075   5.861   3.098   0.768
 5392SOL    HW217076   6.007   3.171   0.773
 5393SOL     OW17077   5.482   0.149   6.113
 5393SOL    HW117078   5.509   0.071   6.057
 5393SOL    HW217079   5.400   0.127   6.166
 5394SOL     OW17080   6.461   4.245   6.643
 5394SOL    HW117081   6.481   4.343   6.645
 5394SOL    HW217082   6.544   4.194   6.619
 5395SOL     OW17083   4.755   1.115   1.767
 5395SOL    HW117084   4.718   1.191   1.820
 5395SOL    HW217085   4.831   1.073   1.816
 5396SOL     OW17086   5.055   4.328   2.981
 5396SOL    HW117087   5.007   4.340   2.895
 5396SOL    HW217088   5.104   4.412   3.005
 5397SOL     OW17089   6.948   3.057   1.978
 5397SOL    HW117090   6.873   3.047   1.913
 5397SOL    HW217091   6.911   3.059   2.071
 5398SOL     OW17092   3.273   1.560   2.509
 5398SOL    HW117093   3.292   1.564   2.607
 5398SOL    HW217094   3.313   1.640   2.464
 5399SOL     OW17095   2.284   5.687   6.750
 5399SOL    HW117096   2.196   5.652   6.715
 5399SOL    HW217097   2.297   5.781   6.719
 5400SOL     OW17098   2.643   3.743   0.723
 5400SOL    HW117099   2.710   3.687   0.770
 5400SOL    HW217100   2.567   3.686   0.691
 5401SOL     OW17101   5.917   3.593   1.623
 5401SOL    HW117102   5.823   3.562   1.633
 5401SOL    HW217103   5.972   3.556   1.698
 5402SOL     OW17104   2.130   4.418   1.621
 5402SOL    HW117105   2.063   4.432   1.694
 5402SOL    HW217106   2.094   4.350   1.557
 5403SOL     OW17107   6.493   2.492   6.392
 5403SOL    HW117108   6.425   2.495   6.318
 5403SOL    HW217109   6.449   2.518   6.478
 5404SOL     OW17110   1.111   1.448   2.872
 5404SOL    HW117111   1.113   1.496   2.785
 5404SOL    HW217112   1.074   1.356   2.858
 5405SOL     OW17113   5.902   6.120   6.971
 5405SOL    HW117114   5.899   6.209   6.925
 5405SOL    HW217115   5.835   6.059   6.930
 5406SOL     OW17116   2.318   0.442   0.037
 5406SOL    HW117117   2.303   0.347   0.067
 5406SOL    HW217118   2.391   0.482   0.092
 5407SOL     OW17119   4.203   3.093   1.212
 5407SOL    HW117120   4.246   3.007   1.184
 5407SOL    HW217121   4.271   3.166   1.210
 5408SOL     OW17122   3.268   1.238   6.796
 5408SOL    HW117123   3.245   1.286   6.881
 5408SOL    HW217124   3.184   1.203   6.754
 5409SOL     OW17125   5.930   0.941   3.491
 5409SOL    HW117126   6.027   0.956   3.513
 5409SOL    HW217127   5.873   1.001   3.547
 5410SOL     OW17128   2.548   2.305   1.387
 5410SOL    HW117129   2.570   2.393   1.430
 5410SOL    HW217130   2.591   2.301   1.297
 5411SOL     OW17131   6.266   5.473   5.386
 5411SOL    HW117132   6.348   5.421   5.409
 5411SOL    HW217133   6.268   5.499   5.290
 5412SOL     OW17134   3.979   0.958   6.822
 5412SOL    HW117135   3.886   0.922   6.829
 5412SOL    HW217136   3.992   1.030   6.890
 5413SOL     OW17137   1.965   1.580   1.397
 5413SOL    HW117138   1.878   1.622   1.422
 5413SOL    HW217139   2.041   1.640   1.424
 5414SOL     OW17140   4.988   2.307   4.944
 5414SOL    HW117141   4.977   2.399   4.907
 5414SOL    HW217142   5.086   2.287   4.955
 5415SOL     OW17143   1.561   5.541   0.916
 5415SOL    HW117144   1.540   5.443   0.922
 5415SOL    HW217145   1.505   5.591   0.981
 5416SOL     OW17146   4.737   5.278   5.941
 5416SOL    HW117147   4.779   5.283   5.850
 5416SOL    HW217148   4.808   5.260   6.009
 5417SOL     OW17149   3.900   6.595   5.373
 5417SOL    HW117150   3.983   6.624   5.325
 5417SOL    HW217151   3.921   6.579   5.469
 5418SOL     OW17152   3.468   6.425   3.703
 5418SOL    HW117153   3.505   6.353   3.762
 5418SOL    HW217154   3.469   6.512   3.752
 5419SOL     OW17155   3.024   5.202   0.799
 5419SOL    HW117156   3.123   5.199   0.811
 5419SOL    HW217157   2.998   5.293   0.765
 5420SOL     OW17158   1.108   2.088   2.337
 5420SOL    HW117159   1.145   2.064   2.248
 5420SOL    HW217160   1.163   2.160   2.378
 5421SOL     OW17161   2.131   3.038   2.624
 5421SOL    HW117162   2.187   2.955   2.618
 5421SOL    HW217163   2.098   3.062   2.533
 5422SOL     OW17164   0.427   5.562   0.085
 5422SOL    HW117165   0.450   5.569   7.009
 5422SOL    HW217166   0.373   5.480   0.101
 5423SOL     OW17167   6.024   2.758   0.084
 5423SOL    HW117168   5.994   2.853   0.097
 5423SOL    HW217169   5.955   2.710   0.030
 5424SOL     OW17170   5.317   3.046   4.194
 5424SOL    HW117171   5.247   3.117   4.205
 5424SOL    HW217172   5.380   3.049   4.271
 5425SOL     OW17173   4.016   1.405   3.792
 5425SOL    HW117174   4.092   1.344   3.812
 5425SOL    HW217175   4.051   1.497   3.775
 5426SOL     OW17176   6.673   5.089   3.855
 5426SOL    HW117177   6.667   4.991   3.838
 5426SOL    HW217178   6.717   5.105   3.944
 5427SOL     OW17179   4.470   4.773   0.053
 5427SOL    HW117180   4.453   4.772   6.976
 5427SOL    HW217181   4.530   4.850   0.075
 5428SOL     OW17182   0.065   0.032   1.967
 5428SOL    HW117183   0.151   0.083   1.963
 5428SOL    HW217184   0.081   6.959   1.939
 5429SOL     OW17185   1.710   1.921   6.648
 5429SOL    HW117186   1.809   1.923   6.664
 5429SOL    HW217187   1.664   1.891   6.731
 5430SOL     OW17188   0.470   3.162   6.225
 5430SOL    HW117189   0.452   3.260   6.218
 5430SOL    HW217190   0.566   3.147   6.250
 5431SOL     OW17191   3.364   5.719   0.590
 5431SOL    HW117192   3.408   5.683   0.507
 5431SOL    HW217193   3.271   5.685   0.596
 5432SOL     OW17194   5.242   6.506   6.808
 5432SOL    HW117195   5.203   6.440   6.744
 5432SOL    HW217196   5.330   6.538   6.774
 5433SOL     OW17197   0.456   1.756   3.952
 5433SOL    HW117198   0.521   1.683   3.977
 5433SOL    HW217199   0.445   1.818   4.030
 5434SOL     OW17200   3.856   0.847   5.210
 5434SOL    HW117201   3.842   0.944   5.188
 5434SOL    HW217202   3.953   0.824   5.200
 5435SOL     OW17203   4.930   0.956   1.912
 5435SOL    HW117204   4.952   0.983   2.006
 5435SOL    HW217205   5.009   0.908   1.872
 5436SOL     OW17206   5.303   3.887   4.012
 5436SOL    HW117207   5.228   3.946   3.982
 5436SOL    HW217208   5.286   3.857   4.106
 5437SOL     OW17209   3.190   4.715   6.047
 5437SOL    HW117210   3.274   4.770   6.054
 5437SOL    HW217211   3.130   4.754   5.977
 5438SOL     OW17212   6.551   3.493   2.572
 5438SOL    HW117213   6.479   3.462   2.633
 5438SOL    HW217214   6.594   3.575   2.610
 5439SOL     OW17215   0.887   2.387   0.669
 5439SOL    HW117216   0.853   2.298   0.639
 5439SOL    HW217217   0.821   2.458   0.647
 5440SOL     OW17218   0.771   1.237   1.846
 5440SOL    HW117219   0.854   1.182   1.849
 5440SOL    HW217220   0.761   1.277   1.754
 5441SOL     OW17221   5.163   2.525   2.775
 5441SOL    HW117222   5.070   2.490   2.768
 5441SOL    HW217223   5.177   2.595   2.705
 5442SOL     OW17224   3.134   6.033   3.410
 5442SOL    HW117225   3.074   6.065   3.483
 5442SOL    HW217226   3.079   5.991   3.337
 5443SOL     OW17227   2.474   0.729   3.804
 5443SOL    HW117228   2.461   0.824   3.832
 5443SOL    HW217229   2.479   0.723   3.704
 5444SOL     OW17230   1.899   0.432   4.615
 5444SOL    HW117231   1.887   0.517   4.565
 5444SOL    HW217232   1.817   0.375   4.605
 5445SOL     OW17233   5.956   3.892   3.698
 5445SOL    HW117234   5.933   3.955   3.624
 5445SOL    HW217235   6.014   3.938   3.765
 5446SOL     OW17236   6.690   5.192   4.944
 5446SOL    HW117237   6.703   5.164   5.039
 5446SOL    HW217238   6.746   5.134   4.885
 5447SOL     OW17239   2.492   1.465   6.503
 5447SOL    HW117240   2.516   1.440   6.409
 5447SOL    HW217241   2.531   1.554   6.524
 5448SOL     OW17242   4.644   2.833   5.227
 5448SOL    HW117243   4.679   2.811   5.136
 5448SOL    HW217244   4.610   2.927   5.228
 5449SOL     OW17245   1.874   2.693   6.622
 5449SOL    HW117246   1.943   2.753   6.662
 5449SOL    HW217247   1.848   2.727   6.532
 5450SOL     OW17248   1.451   0.559   2.009
 5450SOL    HW117249   1.466   0.528   1.915
 5450SOL    HW217250   1.356   0.586   2.020
 5451SOL     OW17251   1.301   6.446   3.169
 5451SOL    HW117252   1.331   6.424   3.262
 5451SOL    HW217253   1.315   6.544   3.153
 5452SOL     OW17254   2.094   4.480   0.028
 5452SOL    HW117255   2.109   4.543   6.973
 5452SOL    HW217256   1.996   4.476   0.049
 5453SOL     OW17257   5.641   4.710   1.572
 5453SOL    HW117258   5.560   4.673   1.527
 5453SOL    HW217259   5.621   4.726   1.669
 5454SOL     OW17260   0.021   4.012   6.449
 5454SOL    HW117261   0.064   4.087   6.499
 5454SOL    HW217262   6.965   3.976   6.501
 5455SOL     OW17263   6.204   3.578   0.453
 5455SOL    HW117264   6.135   3.583   0.381
 5455SOL    HW217265   6.160   3.585   0.542
 5456SOL     OW17266   3.573   0.279   0.050
 5456SOL    HW117267   3.496   0.217   0.039
 5456SOL    HW217268   3.644   0.235   0.104
 5457SOL     OW17269   6.128   2.463   6.862
 5457SOL    HW117270   6.145   2.458   6.961
 5457SOL    HW217271   6.114   2.559   6.836
 5458SOL     OW17272   0.691   4.690   0.139
 5458SOL    HW117273   0.662   4.605   0.183
 5458SOL    HW217274   0.648   4.698   0.050
 5459SOL     OW17275   2.450   4.263   6.790
 5459SOL    HW117276   2.408   4.315   6.864
 5459SOL    HW217277   2.378   4.222   6.733
 5460SOL     OW17278   3.731   0.364   2.908
 5460SOL    HW117279   3.640   0.364   2.948
 5460SOL    HW217280   3.726   0.393   2.813
 5461SOL     OW17281   5.915   6.759   5.166
 5461SOL    HW117282   5.995   6.813   5.141
 5461SOL    HW217283   5.852   6.754   5.088
 5462SOL     OW17284   1.150   0.169   6.740
 5462SOL    HW117285   1.082   0.226   6.786
 5462SOL    HW217286   1.241   0.211   6.751
 5463SOL     OW17287   6.734   2.306   0.086
 5463SOL    HW117288   6.705   2.367   0.013
 5463SOL    HW217289   6.668   2.231   0.095
 5464SOL     OW17290   1.165   1.192   3.981
 5464SOL    HW117291   1.184   1.203   4.079
 5464SOL    HW217292   1.225   1.252   3.929
 5465SOL     OW17293   4.226   6.021   3.151
 5465SOL    HW117294   4.196   6.102   3.101
 5465SOL    HW217295   4.258   6.047   3.242
 5466SOL     OW17296   5.652   4.239   5.312
 5466SOL    HW117297   5.695   4.149   5.316
 5466SOL    HW217298   5.660   4.284   5.400
 5467SOL     OW17299   5.428   2.773   3.087
 5467SOL    HW117300   5.349   2.728   3.047
 5467SOL    HW217301   5.507   2.712   3.081
 5468SOL     OW17302   5.427   2.389   4.605
 5468SOL    HW117303   5.336   2.404   4.566
 5468SOL    HW217304   5.418   2.354   4.698
 5469SOL     OW17305   3.560   5.394   6.522
 5469SOL    HW117306   3.642   5.352   6.559
 5469SOL    HW217307   3.503   5.323   6.479
 5470SOL     OW17308   3.197   6.007   2.504
 5470SOL    HW117309   3.289   5.967   2.513
 5470SOL    HW217310   3.170   6.047   2.591
 5471SOL     OW17311   4.973   0.131   2.250
 5471SOL    HW117312   4.933   0.180   2.173
 5471SOL    HW217313   4.966   0.032   2.233
 5472SOL     OW17314   4.046   3.798   6.012
 5472SOL    HW117315   4.122   3.734   6.015
 5472SOL    HW217316   4.078   3.887   5.979
 5473SOL     OW17317   0.066   3.520   3.257
 5473SOL    HW117318   0.050   3.490   3.162
 5473SOL    HW217319   0.149   3.576   3.261
 5474SOL     OW17320   1.749   4.276   4.673
 5474SOL    HW117321   1.839   4.283   4.715
 5474SOL    HW217322   1.699   4.362   4.686
 5475SOL     OW17323   2.290   2.392   1.564
 5475SOL    HW117324   2.377   2.346   1.542
 5475SOL    HW217325   2.297   2.437   1.653
 5476SOL     OW17326   1.829   4.341   5.538
 5476SOL    HW117327   1.768   4.273   5.578
 5476SOL    HW217328   1.894   4.374   5.607
 5477SOL     OW17329   2.438   4.430   3.385
 5477SOL    HW117330   2.467   4.436   3.481
 5477SOL    HW217331   2.477   4.507   3.334
 5478SOL     OW17332   4.104   5.281   5.245
 5478SOL    HW117333   4.021   5.234   5.273
 5478SOL    HW217334   4.081   5.352   5.178
 5479SOL     OW17335   4.578   1.454   6.358
 5479SOL    HW117336   4.589   1.471   6.260
 5479SOL    HW217337   4.658   1.406   6.393
 5480SOL     OW17338   6.996   3.787   3.560
 5480SOL    HW117339   6.966   3.722   3.489
 5480SOL    HW217340   0.065   3.760   3.593
 5481SOL     OW17341   4.271   1.221   3.886
 5481SOL    HW117342   4.329   1.251   3.810
 5481SOL    HW217343   4.317   1.240   3.972
 5482SOL     OW17344   3.806   4.617   1.640
 5482SOL    HW117345   3.891   4.661   1.670
 5482SOL    HW217346   3.731   4.643   1.701
 5483SOL     OW17347   6.991   2.129   5.672
 5483SOL    HW117348   6.960   2.051   5.617
 5483SOL    HW217349   0.066   2.146   5.654
 5484SOL     OW17350   4.701   0.710   4.754
 5484SOL    HW117351   4.649   0.795   4.751
 5484SOL    HW217352   4.784   0.723   4.807
 5485SOL     OW17353   4.143   0.330   5.380
 5485SOL    HW117354   4.111   0.380   5.300
 5485SOL    HW217355   4.205   0.257   5.350
 5486SOL     OW17356   2.811   5.897   5.650
 5486SOL    HW117357   2.756   5.909   5.732
 5486SOL    HW217358   2.800   5.976   5.590
 5487SOL     OW17359   3.988   3.435   6.638
 5487SOL    HW117360   3.979   3.338   6.617
 5487SOL    HW217361   4.077   3.451   6.682
 5488SOL     OW17362   6.273   0.858   1.234
 5488SOL    HW117363   6.188   0.911   1.236
 5488SOL    HW217364   6.351   0.921   1.228
 5489SOL     OW17365   6.805   3.419   1.491
 5489SOL    HW117366   6.705   3.431   1.494
 5489SOL    HW217367   6.827   3.321   1.496
 5490SOL     OW17368   2.335   0.071   2.278
 5490SOL    HW117369   2.268   0.105   2.343
 5490SOL    HW217370   2.321   0.116   2.190
 5491SOL     OW17371   0.554   3.114   0.197
 5491SOL    HW117372   0.491   3.042   0.225
 5491SOL    HW217373   0.583   3.098   0.102
 5492SOL     OW17374   0.865   2.920   5.642
 5492SOL    HW117375   0.792   2.968   5.691
 5492SOL    HW217376   0.941   2.984   5.625
 5493SOL     OW17377   3.862   3.668   3.216
 5493SOL    HW117378   3.924   3.599   3.177
 5493SOL    HW217379   3.904   3.708   3.297
 5494SOL     OW17380   6.953   4.096   5.161
 5494SOL    HW117381   6.899   4.073   5.242
 5494SOL    HW217382   6.941   4.024   5.092
 5495SOL     OW17383   5.743   0.921   1.132
 5495SOL    HW117384   5.686   0.962   1.062
 5495SOL    HW217385   5.837   0.916   1.100
 5496SOL     OW17386   4.326   0.757   3.473
 5496SOL    HW117387   4.316   0.821   3.550
 5496SOL    HW217388   4.379   0.678   3.503
 5497SOL     OW17389   0.460   1.270   5.507
 5497SOL    HW117390   0.467   1.369   5.520
 5497SOL    HW217391   0.488   1.247   5.414
 5498SOL     OW17392   6.991   5.014   2.252
 5498SOL    HW117393   0.008   4.946   2.190
 5498SOL    HW217394   6.892   5.021   2.236
 5499SOL     OW17395   0.827   0.551   3.802
 5499SOL    HW117396   0.764   0.475   3.819
 5499SOL    HW217397   0.809   0.590   3.712
 5500SOL     OW17398   1.293   0.369   6.962
 5500SOL    HW117399   1.353   0.293   6.937
 5500SOL    HW217400   1.333   0.455   6.930
 5501SOL     OW17401   3.862   1.784   0.812
 5501SOL    HW117402   3.793   1.725   0.854
 5501SOL    HW217403   3.821   1.833   0.735
 5502SOL     OW17404   5.572   3.665   6.443
 5502SOL    HW117405   5.577   3.591   6.375
 5502SOL    HW217406   5.531   3.630   6.527
 5503SOL     OW17407   0.272   4.416   1.033
 5503SOL    HW117408   0.359   4.441   0.989
 5503SOL    HW217409   0.196   4.453   0.980
 5504SOL     OW17410   4.213   1.030   5.206
 5504SOL    HW117411   4.145   1.085   5.255
 5504SOL    HW217412   4.301   1.039   5.251
 5505SOL     OW17413   2.348   4.966   3.327
 5505SOL    HW117414   2.346   5.064   3.344
 5505SOL    HW217415   2.256   4.928   3.337
 5506SOL     OW17416   0.082   3.158   0.255
 5506SOL    HW117417   0.111   3.063   0.268
 5506SOL    HW217418   0.105   3.187   0.162
 5507SOL     OW17419   3.769   0.612   5.017
 5507SOL    HW117420   3.768   0.636   4.920
 5507SOL    HW217421   3.762   0.695   5.072
 5508SOL     OW17422   1.011   0.536   0.207
 5508SOL    HW117423   0.986   0.536   0.304
 5508SOL    HW217424   0.950   0.474   0.157
 5509SOL     OW17425   0.287   5.744   0.302
 5509SOL    HW117426   0.201   5.788   0.274
 5509SOL    HW217427   0.324   5.693   0.225
 5510SOL     OW17428   4.912   5.077   6.647
 5510SOL    HW117429   4.827   5.040   6.611
 5510SOL    HW217430   4.927   5.040   6.739
 5511SOL     OW17431   1.025   1.216   4.850
 5511SOL    HW117432   0.931   1.223   4.886
 5511SOL    HW217433   1.059   1.308   4.827
 5512SOL     OW17434   3.162   1.276   0.789
 5512SOL    HW117435   3.088   1.342   0.770
 5512SOL    HW217436   3.124   1.198   0.838
 5513SOL     OW17437   3.432   5.332   5.501
 5513SOL    HW117438   3.487   5.327   5.583
 5513SOL    HW217439   3.413   5.239   5.467
 5514SOL     OW17440   3.457   0.271   5.225
 5514SOL    HW117441   3.492   0.285   5.132
 5514SOL    HW217442   3.503   0.192   5.267
 5515SOL     OW17443   1.657   5.680   1.912
 5515SOL    HW117444   1.597   5.623   1.967
 5515SOL    HW217445   1.604   5.726   1.841
 5516SOL     OW17446   2.326   2.832   4.902
 5516SOL    HW117447   2.349   2.878   4.987
 5516SOL    HW217448   2.269   2.892   4.846
 5517SOL     OW17449   2.049   3.607   1.865
 5517SOL    HW117450   1.952   3.590   1.882
 5517SOL    HW217451   2.103   3.542   1.918
 5518SOL     OW17452   6.562   4.681   5.584
 5518SOL    HW117453   6.615   4.758   5.550
 5518SOL    HW217454   6.624   4.614   5.626
 5519SOL     OW17455   5.633   3.112   3.421
 5519SOL    HW117456   5.558   3.162   3.378
 5519SOL    HW217457   5.682   3.172   3.484
 5520SOL     OW17458   5.535   6.454   2.277
 5520SOL    HW117459   5.556   6.502   2.192
 5520SOL    HW217460   5.519   6.521   2.350
 5521SOL     OW17461   5.619   5.896   1.401
 5521SOL    HW117462   5.591   5.970   1.339
 5521SOL    HW217463   5.718   5.881   1.390
 5522SOL     OW17464   6.832   5.297   1.480
 5522SOL    HW117465   6.743   5.329   1.446
 5522SOL    HW217466   6.818   5.216   1.538
 5523SOL     OW17467   5.001   0.694   2.525
 5523SOL    HW117468   4.951   0.707   2.439
 5523SOL    HW217469   5.065   0.770   2.538
 5524SOL     OW17470   3.515   6.644   4.975
 5524SOL    HW117471   3.549   6.594   5.055
 5524SOL    HW217472   3.592   6.688   4.928
 5525SOL     OW17473   0.435   2.500   0.289
 5525SOL    HW117474   0.413   2.404   0.307
 5525SOL    HW217475   0.438   2.514   0.190
 5526SOL     OW17476   4.526   4.491   2.940
 5526SOL    HW117477   4.607   4.550   2.935
 5526SOL    HW217478   4.533   4.432   3.020
 5527SOL     OW17479   4.883   3.786   3.470
 5527SOL    HW117480   4.852   3.800   3.377
 5527SOL    HW217481   4.865   3.691   3.498
 5528SOL     OW17482   1.444   1.451   1.546
 5528SOL    HW117483   1.432   1.535   1.600
 5528SOL    HW217484   1.487   1.381   1.603
 5529SOL     OW17485   2.810   6.856   3.645
 5529SOL    HW117486   2.909   6.861   3.638
 5529SOL    HW217487   2.769   6.924   3.583
 5530SOL     OW17488   6.654   2.397   1.727
 5530SOL    HW117489   6.724   2.343   1.773
 5530SOL    HW217490   6.600   2.446   1.794
 5531SOL     OW17491   3.866   3.719   1.719
 5531SOL    HW117492   3.818   3.649   1.772
 5531SOL    HW217493   3.857   3.808   1.764
 5532SOL     OW17494   1.964   2.857   0.725
 5532SOL    HW117495   2.022   2.858   0.644
 5532SOL    HW217496   1.960   2.765   0.762
 5533SOL     OW17497   5.006   1.707   3.849
 5533SOL    HW117498   4.935   1.653   3.894
 5533SOL    HW217499   4.978   1.803   3.847
 5534SOL     OW17500   1.120   1.448   6.253
 5534SOL    HW117501   1.170   1.373   6.211
 5534SOL    HW217502   1.180   1.528   6.259
 5535SOL     OW17503   0.787   1.451   2.605
 5535SOL    HW117504   0.768   1.541   2.644
 5535SOL    HW217505   0.741   1.443   2.517
 5536SOL     OW17506   3.916   0.405   4.283
 5536SOL    HW117507   3.993   0.343   4.267
 5536SOL    HW217508   3.835   0.371   4.235
 5537SOL     OW17509   3.693   1.653   2.683
 5537SOL    HW117510   3.703   1.564   2.639
 5537SOL    HW217511   3.598   1.665   2.713
 5538SOL     OW17512   4.313   6.032   4.561
 5538SOL    HW117513   4.278   5.957   4.617
 5538SOL    HW217514   4.259   6.114   4.576
 5539SOL     OW17515   1.674   3.399   1.127
 5539SOL    HW117516   1.594   3.417   1.185
 5539SOL    HW217517   1.756   3.437   1.170
 5540SOL     OW17518   4.439   4.958   3.633
 5540SOL    HW117519   4.427   4.860   3.645
 5540SOL    HW217520   4.350   5.004   3.639
 5541SOL     OW17521   4.202   1.388   6.072
 5541SOL    HW117522   4.167   1.445   6.147
 5541SOL    HW217523   4.130   1.326   6.041
 5542SOL     OW17524   4.047   3.408   6.129
 5542SOL    HW117525   4.092   3.329   6.171
 5542SOL    HW217526   4.059   3.488   6.187
 5543SOL     OW17527   5.446   3.885   6.853
 5543SOL    HW117528   5.422   3.959   6.791
 5543SOL    HW217529   5.372   3.817   6.854
 5544SOL     OW17530   5.583   0.884   6.232
 5544SOL    HW117531   5.632   0.798   6.245
 5544SOL    HW217532   5.495   0.866   6.188
 5545SOL     OW17533   4.307   1.952   2.923
 5545SOL    HW117534   4.309   1.887   2.847
 5545SOL    HW217535   4.399   1.988   2.939
 5546SOL     OW17536   1.340   5.489   5.553
 5546SOL    HW117537   1.381   5.545   5.624
 5546SOL    HW217538   1.347   5.536   5.465
 5547SOL     OW17539   3.125   5.874   5.016
 5547SOL    HW117540   3.086   5.940   4.952
 5547SOL    HW217541   3.224   5.872   5.005
 5548SOL     OW17542   6.229   3.539   5.584
 5548SOL    HW117543   6.139   3.556   5.624
 5548SOL    HW217544   6.300   3.582   5.639
 5549SOL     OW17545   3.312   4.820   6.945
 5549SOL    HW117546   3.385   4.888   6.935
 5549SOL    HW217547   3.319   4.753   6.871
 5550SOL     OW17548   2.484   5.876   1.514
 5550SOL    HW117549   2.391   5.885   1.477
 5550SOL    HW217550   2.490   5.791   1.566
 5551SOL     OW17551   1.514   0.428   3.264
 5551SOL    HW117552   1.562   0.510   3.296
 5551SOL    HW217553   1.419   0.450   3.245
 5552SOL     OW17554   0.268   1.255   0.900
 5552SOL    HW117555   0.175   1.225   0.921
 5552SOL    HW217556   0.313   1.284   0.985
 5553SOL     OW17557   4.311   6.708   7.008
 5553SOL    HW117558   4.327   6.688   6.912
 5553SOL    HW217559   4.397   6.734   0.030
 5554SOL     OW17560   2.962   2.406   5.290
 5554SOL    HW117561   2.962   2.497   5.331
 5554SOL    HW217562   3.051   2.388   5.248
 5555SOL     OW17563   0.183   5.519   3.302
 5555SOL    HW117564   0.171   5.432   3.253
 5555SOL    HW217565   0.101   5.539   3.354
 5556SOL     OW17566   1.165   2.079   4.947
 5556SOL    HW117567   1.111   2.162   4.961
 5556SOL    HW217568   1.249   2.101   4.899
 5557SOL     OW17569   2.248   6.318   3.910
 5557SOL    HW117570   2.215   6.391   3.970
 5557SOL    HW217571   2.256   6.353   3.817
 5558SOL     OW17572   4.995   3.109   5.403
 5558SOL    HW117573   5.089   3.077   5.409
 5558SOL    HW217574   4.972   3.127   5.308
 5559SOL     OW17575   2.561   6.879   0.831
 5559SOL    HW117576   2.478   6.923   0.797
 5559SOL    HW217577   2.545   6.781   0.842
 5560SOL     OW17578   0.394   0.850   2.904
 5560SOL    HW117579   0.492   0.860   2.919
 5560SOL    HW217580   0.361   0.929   2.852
 5561SOL     OW17581   1.412   3.379   3.646
 5561SOL    HW117582   1.316   3.355   3.655
 5561SOL    HW217583   1.420   3.469   3.602
 5562SOL     OW17584   1.960   2.815   6.222
 5562SOL    HW117585   1.891   2.812   6.293
 5562SOL    HW217586   1.971   2.724   6.181
 5563SOL     OW17587   4.344   6.223   2.364
 5563SOL    HW117588   4.438   6.239   2.394
 5563SOL    HW217589   4.339   6.235   2.264
 5564SOL     OW17590   4.911   4.209   1.634
 5564SOL    HW117591   4.902   4.128   1.576
 5564SOL    HW217592   4.821   4.234   1.670
 5565SOL     OW17593   4.074   2.212   5.676
 5565SOL    HW117594   3.998   2.277   5.674
 5565SOL    HW217595   4.047   2.129   5.724
 5566SOL     OW17596   2.134   5.232   0.637
 5566SOL    HW117597   2.074   5.159   0.605
 5566SOL    HW217598   2.080   5.301   0.685
 5567SOL     OW17599   1.781   5.524   1.137
 5567SOL    HW117600   1.843   5.447   1.149
 5567SOL    HW217601   1.727   5.511   1.054
 5568SOL     OW17602   4.378   1.290   1.268
 5568SOL    HW117603   4.470   1.283   1.307
 5568SOL    HW217604   4.385   1.290   1.168
 5569SOL     OW17605   4.273   1.735   1.441
 5569SOL    HW117606   4.345   1.728   1.372
 5569SOL    HW217607   4.185   1.709   1.401
 5570SOL     OW17608   6.479   4.485   4.964
 5570SOL    HW117609   6.493   4.548   4.887
 5570SOL    HW217610   6.489   4.391   4.932
 5571SOL     OW17611   6.821   5.915   0.647
 5571SOL    HW117612   6.739   5.928   0.703
 5571SOL    HW217613   6.896   5.969   0.685
 5572SOL     OW17614   4.094   2.383   5.958
 5572SOL    HW117615   4.044   2.300   5.933
 5572SOL    HW217616   4.041   2.463   5.932
 5573SOL     OW17617   1.272   3.566   0.648
 5573SOL    HW117618   1.193   3.590   0.705
 5573SOL    HW217619   1.247   3.576   0.552
 5574SOL     OW17620   0.164   6.505   4.635
 5574SOL    HW117621   0.231   6.508   4.561
 5574SOL    HW217622   0.109   6.589   4.634
 5575SOL     OW17623   1.231   1.244   1.027
 5575SOL    HW117624   1.275   1.242   0.937
 5575SOL    HW217625   1.292   1.204   1.095
 5576SOL     OW17626   5.496   5.967   0.543
 5576SOL    HW117627   5.495   5.872   0.576
 5576SOL    HW217628   5.589   5.992   0.518
 5577SOL     OW17629   2.152   3.607   5.446
 5577SOL    HW117630   2.128   3.654   5.361
 5577SOL    HW217631   2.106   3.518   5.449
 5578SOL     OW17632   4.186   2.554   0.335
 5578SOL    HW117633   4.102   2.581   0.287
 5578SOL    HW217634   4.173   2.564   0.433
 5579SOL     OW17635   5.202   3.738   6.857
 5579SOL    HW117636   5.203   3.655   6.912
 5579SOL    HW217637   5.149   3.809   6.903
 5580SOL     OW17638   5.099   0.991   0.610
 5580SOL    HW117639   5.150   1.051   0.672
 5580SOL    HW217640   5.001   1.006   0.622
 5581SOL     OW17641   1.965   0.711   6.452
 5581SOL    HW117642   1.905   0.632   6.463
 5581SOL    HW217643   2.048   0.697   6.506
 5582SOL     OW17644   3.592   3.381   3.818
 5582SOL    HW117645   3.511   3.401   3.762
 5582SOL    HW217646   3.587   3.433   3.903
 5583SOL     OW17647   3.303   6.825   1.823
 5583SOL    HW117648   3.230   6.891   1.842
 5583SOL    HW217649   3.372   6.831   1.895
 5584SOL     OW17650   6.579   4.094   2.789
 5584SOL    HW117651   6.666   4.090   2.838
 5584SOL    HW217652   6.526   4.011   2.808
 5585SOL     OW17653   6.686   0.456   3.965
 5585SOL    HW117654   6.649   0.372   3.925
 5585SOL    HW217655   6.746   0.501   3.899
 5586SOL     OW17656   2.603   1.356   5.995
 5586SOL    HW117657   2.686   1.338   5.942
 5586SOL    HW217658   2.542   1.414   5.941
 5587SOL     OW17659   4.055   0.216   3.671
 5587SOL    HW117660   3.960   0.189   3.655
 5587SOL    HW217661   4.065   0.254   3.763
 5588SOL     OW17662   2.598   0.245   5.415
 5588SOL    HW117663   2.553   0.158   5.435
 5588SOL    HW217664   2.691   0.228   5.382
 5589SOL     OW17665   5.158   2.683   6.259
 5589SOL    HW117666   5.097   2.604   6.259
 5589SOL    HW217667   5.200   2.692   6.349
 5590SOL     OW17668   0.079   5.801   4.892
 5590SOL    HW117669   0.008   5.768   4.830
 5590SOL    HW217670   0.041   5.806   4.985
 5591SOL     OW17671   5.496   0.654   0.101
 5591SOL    HW117672   5.591   0.651   0.069
 5591SOL    HW217673   5.494   0.647   0.201
 5592SOL     OW17674   1.751   3.756   2.386
 5592SOL    HW117675   1.748   3.699   2.468
 5592SOL    HW217676   1.699   3.840   2.401
 5593SOL     OW17677   1.628   2.771   6.098
 5593SOL    HW117678   1.671   2.688   6.133
 5593SOL    HW217679   1.579   2.750   6.013
 5594SOL     OW17680   1.986   6.970   0.320
 5594SOL    HW117681   2.058   7.009   0.377
 5594SOL    HW217682   1.897   6.984   0.365
 5595SOL     OW17683   6.786   1.486   5.799
 5595SOL    HW117684   6.801   1.563   5.862
 5595SOL    HW217685   6.874   1.449   5.769
 5596SOL     OW17686   5.208   0.438   2.301
 5596SOL    HW117687   5.185   0.479   2.390
 5596SOL    HW217688   5.260   0.354   2.316
 5597SOL     OW17689   6.364   1.454   6.364
 5597SOL    HW117690   6.266   1.440   6.347
 5597SOL    HW217691   6.397   1.382   6.425
 5598SOL     OW17692   6.058   1.620   3.937
 5598SOL    HW117693   6.017   1.545   3.989
 5598SOL    HW217694   6.028   1.707   3.974
 5599SOL     OW17695   4.774   4.182   2.171
 5599SOL    HW117696   4.807   4.274   2.193
 5599SOL    HW217697   4.702   4.188   2.102
 5600SOL     OW17698   2.451   1.270   2.735
 5600SOL    HW117699   2.451   1.358   2.781
 5600SOL    HW217700   2.532   1.262   2.677
 5601SOL     OW17701   5.330   3.274   5.760
 5601SOL    HW117702   5.274   3.280   5.678
 5601SOL    HW217703   5.420   3.237   5.737
 5602SOL     OW17704   0.306   2.478   3.444
 5602SOL    HW117705   0.372   2.440   3.508
 5602SOL    HW217706   0.217   2.434   3.458
 5603SOL     OW17707   4.239   2.216   4.656
 5603SOL    HW117708   4.292   2.294   4.690
 5603SOL    HW217709   4.275   2.131   4.696
 5604SOL     OW17710   0.720   0.069   3.677
 5604SOL    HW117711   0.800   0.016   3.649
 5604SOL    HW217712   0.706   0.058   3.775
 5605SOL     OW17713   2.518   5.853   4.555
 5605SOL    HW117714   2.491   5.925   4.619
 5605SOL    HW217715   2.516   5.765   4.601
 5606SOL     OW17716   4.437   2.404   0.388
 5606SOL    HW117717   4.496   2.408   0.307
 5606SOL    HW217718   4.367   2.475   0.382
 5607SOL     OW17719   5.900   3.090   1.861
 5607SOL    HW117720   5.959   3.158   1.819
 5607SOL    HW217721   5.881   3.017   1.795
 5608SOL     OW17722   4.672   1.128   3.703
 5608SOL    HW117723   4.755   1.170   3.737
 5608SOL    HW217724   4.657   1.040   3.748
 5609SOL     OW17725   6.410   6.604   0.785
 5609SOL    HW117726   6.385   6.518   0.739
 5609SOL    HW217727   6.356   6.614   0.868
 5610SOL     OW17728   5.246   4.593   0.248
 5610SOL    HW117729   5.340   4.607   0.218
 5610SOL    HW217730   5.241   4.514   0.308
 5611SOL     OW17731   0.066   5.307   1.913
 5611SOL    HW117732   0.128   5.242   1.958
 5611SOL    HW217733   0.069   5.394   1.962
 5612SOL     OW17734   2.866   0.867   0.942
 5612SOL    HW117735   2.842   0.813   1.022
 5612SOL    HW217736   2.882   0.806   0.864
 5613SOL     OW17737   6.560   5.425   5.019
 5613SOL    HW117738   6.635   5.485   5.048
 5613SOL    HW217739   6.595   5.332   5.006
 5614SOL     OW17740   5.884   2.105   4.588
 5614SOL    HW117741   5.832   2.183   4.624
 5614SOL    HW217742   5.903   2.120   4.491
 5615SOL     OW17743   6.898   3.367   2.678
 5615SOL    HW117744   6.852   3.293   2.728
 5615SOL    HW217745   6.997   3.358   2.689
 5616SOL     OW17746   1.597   3.401   3.030
 5616SOL    HW117747   1.590   3.306   3.000
 5616SOL    HW217748   1.669   3.447   2.977
 5617SOL     OW17749   1.846   4.980   6.585
 5617SOL    HW117750   1.763   5.027   6.613
 5617SOL    HW217751   1.893   5.032   6.514
 5618SOL     OW17752   6.754   6.054   4.014
 5618SOL    HW117753   6.702   6.042   4.099
 5618SOL    HW217754   6.806   5.971   3.995
 5619SOL     OW17755   3.474   3.139   4.606
 5619SOL    HW117756   3.523   3.060   4.568
 5619SOL    HW217757   3.534   3.188   4.669
 5620SOL     OW17758   4.884   4.462   5.654
 5620SOL    HW117759   4.839   4.416   5.578
 5620SOL    HW217760   4.926   4.394   5.714
 5621SOL     OW17761   2.098   2.304   5.011
 5621SOL    HW117762   2.064   2.398   5.012
 5621SOL    HW217763   2.136   2.281   5.101
 5622SOL     OW17764   4.820   5.572   4.847
 5622SOL    HW117765   4.844   5.669   4.858
 5622SOL    HW217766   4.894   5.525   4.798
 5623SOL     OW17767   5.143   6.160   4.112
 5623SOL    HW117768   5.084   6.240   4.105
 5623SOL    HW217769   5.087   6.077   4.108
 5624SOL     OW17770   6.738   5.187   4.372
 5624SOL    HW117771   6.722   5.266   4.432
 5624SOL    HW217772   6.664   5.121   4.385
 5625SOL     OW17773   1.042   5.518   4.759
 5625SOL    HW117774   1.128   5.545   4.715
 5625SOL    HW217775   1.060   5.447   4.827
 5626SOL     OW17776   2.193   4.042   4.447
 5626SOL    HW117777   2.176   3.960   4.501
 5626SOL    HW217778   2.214   4.118   4.508
 5627SOL     OW17779   0.975   5.719   0.026
 5627SOL    HW117780   1.068   5.735   0.060
 5627SOL    HW217781   0.921   5.676   0.098
 5628SOL     OW17782   2.573   2.954   0.761
 5628SOL    HW117783   2.521   2.936   0.844
 5628SOL    HW217784   2.662   2.993   0.786
 5629SOL     OW17785   5.070   4.212   1.242
 5629SOL    HW117786   5.045   4.115   1.231
 5629SOL    HW217787   5.089   4.231   1.338
 5630SOL     OW17788   1.981   3.877   6.575
 5630SOL    HW117789   1.941   3.966   6.595
 5630SOL    HW217790   2.054   3.888   6.507
 5631SOL     OW17791   4.341   0.568   2.400
 5631SOL    HW117792   4.342   0.539   2.304
 5631SOL    HW217793   4.429   0.547   2.442
 5632SOL     OW17794   5.922   6.781   5.690
 5632SOL    HW117795   5.840   6.786   5.746
 5632SOL    HW217796   5.909   6.834   5.606
 5633SOL     OW17797   0.081   4.580   5.684
 5633SOL    HW117798   0.160   4.541   5.636
 5633SOL    HW217799   0.042   4.653   5.628
 5634SOL     OW17800   3.109   6.084   6.533
 5634SOL    HW117801   3.035   6.127   6.584
 5634SOL    HW217802   3.197   6.117   6.568
 5635SOL     OW17803   2.581   7.004   6.615
 5635SOL    HW117804   2.588   0.045   6.537
 5635SOL    HW217805   2.527   6.924   6.589
 5636SOL     OW17806   6.759   1.101   5.615
 5636SOL    HW117807   6.701   1.133   5.539
 5636SOL    HW217808   6.795   1.180   5.664
 5637SOL     OW17809   5.315   6.200   4.602
 5637SOL    HW117810   5.228   6.156   4.622
 5637SOL    HW217811   5.307   6.255   4.519
 5638SOL     OW17812   4.882   5.321   0.919
 5638SOL    HW117813   4.968   5.321   0.869
 5638SOL    HW217814   4.884   5.252   0.991
 5639SOL     OW17815   0.798   7.008   1.419
 5639SOL    HW117816   0.804   6.926   1.361
 5639SOL    HW217817   0.779   6.980   1.513
 5640SOL     OW17818   3.194   5.864   2.967
 5640SOL    HW117819   3.132   5.939   2.988
 5640SOL    HW217820   3.256   5.849   3.043
 5641SOL     OW17821   0.967   4.924   4.314
 5641SOL    HW117822   1.011   4.835   4.330
 5641SOL    HW217823   1.003   4.991   4.380
 5642SOL     OW17824   1.269   4.657   0.258
 5642SOL    HW117825   1.276   4.596   0.337
 5642SOL    HW217826   1.243   4.604   0.177
 5643SOL     OW17827   4.434   2.409   4.485
 5643SOL    HW117828   4.495   2.378   4.558
 5643SOL    HW217829   4.488   2.455   4.413
 5644SOL     OW17830   5.075   1.295   5.067
 5644SOL    HW117831   5.021   1.372   5.035
 5644SOL    HW217832   5.170   1.306   5.038
 5645SOL     OW17833   5.257   5.977   2.881
 5645SOL    HW117834   5.244   5.893   2.934
 5645SOL    HW217835   5.233   6.056   2.938
 5646SOL     OW17836   0.136   6.128   3.576
 5646SOL    HW117837   0.211   6.147   3.639
 5646SOL    HW217838   0.146   6.035   3.540
 5647SOL     OW17839   5.766   6.402   0.052
 5647SOL    HW117840   5.813   6.384   6.987
 5647SOL    HW217841   5.763   6.319   0.106
 5648SOL     OW17842   1.946   1.584   3.582
 5648SOL    HW117843   1.919   1.492   3.554
 5648SOL    HW217844   2.046   1.593   3.577
 5649SOL     OW17845   0.892   0.774   4.453
 5649SOL    HW117846   0.894   0.848   4.385
 5649SOL    HW217847   0.819   0.710   4.430
 5650SOL     OW17848   6.697   4.788   6.715
 5650SOL    HW117849   6.606   4.795   6.754
 5650SOL    HW217850   6.704   4.705   6.660
 5651SOL     OW17851   0.044   1.174   1.858
 5651SOL    HW117852   0.024   1.077   1.846
 5651SOL    HW217853   0.133   1.185   1.901
 5652SOL     OW17854   5.133   5.625   1.611
 5652SOL    HW117855   5.046   5.667   1.585
 5652SOL    HW217856   5.185   5.602   1.529
 5653SOL     OW17857   7.013   5.424   5.460
 5653SOL    HW117858   6.976   5.381   5.543
 5653SOL    HW217859   6.958   5.396   5.381
 5654SOL     OW17860   0.046   0.450   5.353
 5654SOL    HW117861   0.144   0.467   5.357
 5654SOL    HW217862   7.018   0.537   5.361
 5655SOL     OW17863   0.954   3.769   3.693
 5655SOL    HW117864   1.026   3.776   3.762
 5655SOL    HW217865   0.896   3.689   3.713
 5656SOL     OW17866   3.286   3.387   0.701
 5656SOL    HW117867   3.219   3.320   0.731
 5656SOL    HW217868   3.368   3.379   0.758
 5657SOL     OW17869   4.248   0.152   1.859
 5657SOL    HW117870   4.212   0.240   1.827
 5657SOL    HW217871   4.177   0.105   1.912
 5658SOL     OW17872   3.594   7.017   5.244
 5658SOL    HW117873   3.690   0.012   5.219
 5658SOL    HW217874   3.551   6.960   5.175
 5659SOL     OW17875   2.982   3.679   2.831
 5659SOL    HW117876   3.049   3.610   2.857
 5659SOL    HW217877   2.960   3.668   2.734
 5660SOL     OW17878   5.178   0.337   6.893
 5660SOL    HW117879   5.128   0.353   6.808
 5660SOL    HW217880   5.229   0.420   6.917
 5661SOL     OW17881   0.212   5.983   5.300
 5661SOL    HW117882   0.118   5.991   5.331
 5661SOL    HW217883   0.272   5.960   5.377
 5662SOL     OW17884   2.563   4.638   3.615
 5662SOL    HW117885   2.495   4.689   3.563
 5662SOL    HW217886   2.645   4.693   3.627
 5663SOL     OW17887   0.833   3.849   0.625
 5663SOL    HW117888   0.853   3.891   0.537
 5663SOL    HW217889   0.901   3.879   0.692
 5664SOL     OW17890   0.187   4.821   2.672
 5664SOL    HW117891   0.173   4.742   2.732
 5664SOL    HW217892   0.126   4.815   2.593
 5665SOL     OW17893   2.278   2.497   6.407
 5665SOL    HW117894   2.306   2.527   6.316
 5665SOL    HW217895   2.260   2.577   6.464
 5666SOL     OW17896   4.546   5.848   0.634
 5666SOL    HW117897   4.596   5.848   0.547
 5666SOL    HW217898   4.454   5.814   0.619
 5667SOL     OW17899   6.987   5.103   3.227
 5667SOL    HW117900   6.967   5.005   3.224
 5667SOL    HW217901   6.908   5.151   3.266
 5668SOL     OW17902   4.508   2.015   6.100
 5668SOL    HW117903   4.525   2.112   6.115
 5668SOL    HW217904   4.517   1.966   6.186
 5669SOL     OW17905   0.205   4.916   6.048
 5669SOL    HW117906   0.157   5.001   6.030
 5669SOL    HW217907   0.266   4.894   5.972
 5670SOL     OW17908   0.297   3.558   4.044
 5670SOL    HW117909   0.330   3.628   4.108
 5670SOL    HW217910   0.295   3.597   3.952
 5671SOL     OW17911   2.099   6.693   6.562
 5671SOL    HW117912   2.091   6.773   6.503
 5671SOL    HW217913   2.019   6.633   6.549
 5672SOL     OW17914   5.251   3.929   5.961
 5672SOL    HW117915   5.192   3.963   5.888
 5672SOL    HW217916   5.227   3.975   6.047
 5673SOL     OW17917   0.504   0.418   2.379
 5673SOL    HW117918   0.488   0.516   2.365
 5673SOL    HW217919   0.597   0.405   2.414
 5674SOL     OW17920   0.024   3.526   1.444
 5674SOL    HW117921   0.089   3.453   1.465
 5674SOL    HW217922   6.952   3.492   1.454
 5675SOL     OW17923   4.463   2.427   5.541
 5675SOL    HW117924   4.448   2.514   5.495
 5675SOL    HW217925   4.384   2.367   5.526
 5676SOL     OW17926   1.486   0.760   1.653
 5676SOL    HW117927   1.435   0.840   1.684
 5676SOL    HW217928   1.441   0.677   1.686
 5677SOL     OW17929   6.360   1.911   3.744
 5677SOL    HW117930   6.455   1.886   3.723
 5677SOL    HW217931   6.358   1.965   3.828
 5678SOL     OW17932   3.880   6.368   3.123
 5678SOL    HW117933   3.817   6.345   3.050
 5678SOL    HW217934   3.910   6.463   3.113
 5679SOL     OW17935   1.601   6.565   5.049
 5679SOL    HW117936   1.690   6.523   5.028
 5679SOL    HW217937   1.593   6.652   5.001
 5680SOL     OW17938   1.326   5.403   6.567
 5680SOL    HW117939   1.308   5.424   6.471
 5680SOL    HW217940   1.418   5.432   6.592
 5681SOL     OW17941   1.150   2.207   6.694
 5681SOL    HW117942   1.243   2.239   6.674
 5681SOL    HW217943   1.111   2.262   6.768
 5682SOL     OW17944   1.474   2.680   5.882
 5682SOL    HW117945   1.393   2.738   5.889
 5682SOL    HW217946   1.496   2.665   5.786
 5683SOL     OW17947   3.868   2.587   6.532
 5683SOL    HW117948   3.828   2.677   6.549
 5683SOL    HW217949   3.866   2.567   6.434
 5684SOL     OW17950   3.624   3.746   4.457
 5684SOL    HW117951   3.562   3.681   4.502
 5684SOL    HW217952   3.664   3.703   4.376
 5685SOL     OW17953   0.563   5.280   2.815
 5685SOL    HW117954   0.589   5.375   2.796
 5685SOL    HW217955   0.472   5.278   2.858
 5686SOL     OW17956   4.083   0.237   0.695
 5686SOL    HW117957   4.015   0.301   0.729
 5686SOL    HW217958   4.152   0.220   0.765
 5687SOL     OW17959   5.987   4.605   4.784
 5687SOL    HW117960   6.008   4.566   4.693
 5687SOL    HW217961   5.938   4.691   4.773
 5688SOL     OW17962   5.610   2.698   1.707
 5688SOL    HW117963   5.604   2.650   1.795
 5688SOL    HW217964   5.570   2.641   1.635
 5689SOL     OW17965   4.825   1.416   0.708
 5689SOL    HW117966   4.784   1.398   0.619
 5689SOL    HW217967   4.754   1.424   0.777
 5690SOL     OW17968   4.137   6.113   0.338
 5690SOL    HW117969   4.122   6.123   0.240
 5690SOL    HW217970   4.224   6.066   0.354
 5691SOL     OW17971   2.986   6.524   2.287
 5691SOL    HW117972   3.028   6.571   2.209
 5691SOL    HW217973   3.026   6.433   2.296
 5692SOL     OW17974   6.518   1.509   5.630
 5692SOL    HW117975   6.597   1.533   5.687
 5692SOL    HW217976   6.442   1.482   5.689
 5693SOL     OW17977   5.114   2.979   2.249
 5693SOL    HW117978   5.182   3.041   2.288
 5693SOL    HW217979   5.028   3.027   2.237
 5694SOL     OW17980   0.352   1.209   3.373
 5694SOL    HW117981   0.390   1.230   3.464
 5694SOL    HW217982   0.257   1.239   3.370
 5695SOL     OW17983   1.241   2.293   4.073
 5695SOL    HW117984   1.296   2.368   4.036
 5695SOL    HW217985   1.287   2.206   4.055
 5696SOL     OW17986   2.783   1.675   4.861
 5696SOL    HW117987   2.719   1.745   4.830
 5696SOL    HW217988   2.862   1.719   4.905
 5697SOL     OW17989   0.083   2.237   0.651
 5697SOL    HW117990   0.027   2.234   0.734
 5697SOL    HW217991   0.068   2.323   0.603
 5698SOL     OW17992   0.596   2.600   2.108
 5698SOL    HW117993   0.686   2.630   2.140
 5698SOL    HW217994   0.525   2.651   2.156
 5699SOL     OW17995   6.347   1.107   4.030
 5699SOL    HW117996   6.387   1.198   4.021
 5699SOL    HW217997   6.289   1.104   4.112
 5700SOL     OW17998   1.205   6.134   4.735
 5700SOL    HW117999   1.231   6.209   4.675
 5700SOL    HW218000   1.214   6.162   4.830
 5701SOL     OW18001   0.505   6.170   2.615
 5701SOL    HW118002   0.414   6.156   2.654
 5701SOL    HW218003   0.537   6.262   2.637
 5702SOL     OW18004   1.465   6.707   5.672
 5702SOL    HW118005   1.528   6.783   5.654
 5702SOL    HW218006   1.493   6.660   5.756
 5703SOL     OW18007   4.625   4.965   6.821
 5703SOL    HW118008   4.714   4.940   6.859
 5703SOL    HW218009   4.616   4.927   6.729
 5704SOL     OW18010   4.460   5.231   3.268
 5704SOL    HW118011   4.491   5.147   3.313
 5704SOL    HW218012   4.535   5.272   3.218
 5705SOL     OW18013   5.833   0.552   0.965
 5705SOL    HW118014   5.766   0.513   1.028
 5705SOL    HW218015   5.873   0.480   0.910
 5706SOL     OW18016   1.901   1.805   0.371
 5706SOL    HW118017   1.888   1.904   0.365
 5706SOL    HW218018   1.872   1.773   0.460
 5707SOL     OW18019   1.595   0.154   6.575
 5707SOL    HW118020   1.650   0.139   6.657
 5707SOL    HW218021   1.525   0.083   6.568
 5708SOL     OW18022   4.832   6.570   2.293
 5708SOL    HW118023   4.894   6.564   2.372
 5708SOL    HW218024   4.766   6.644   2.309
 5709SOL     OW18025   0.785   6.492   3.539
 5709SOL    HW118026   0.829   6.523   3.454
 5709SOL    HW218027   0.713   6.427   3.517
 5710SOL     OW18028   2.918   3.561   5.853
 5710SOL    HW118029   2.842   3.518   5.903
 5710SOL    HW218030   2.890   3.652   5.823
 5711SOL     OW18031   4.913   1.288   3.789
 5711SOL    HW118032   4.860   1.308   3.871
 5711SOL    HW218033   5.010   1.299   3.809
 5712SOL     OW18034   6.603   0.203   5.328
 5712SOL    HW118035   6.635   0.298   5.331
 5712SOL    HW218036   6.537   0.193   5.254
 5713SOL     OW18037   0.481   2.368   2.071
 5713SOL    HW118038   0.402   2.397   2.017
 5713SOL    HW218039   0.531   2.449   2.104
 5714SOL     OW18040   1.454   6.955   6.805
 5714SOL    HW118041   1.443   6.957   6.706
 5714SOL    HW218042   1.474   6.862   6.835
 5715SOL     OW18043   1.257   6.403   2.590
 5715SOL    HW118044   1.190   6.404   2.664
 5715SOL    HW218045   1.343   6.364   2.622
 5716SOL     OW18046   1.561   3.873   5.878
 5716SOL    HW118047   1.571   3.932   5.958
 5716SOL    HW218048   1.651   3.837   5.852
 5717SOL     OW18049   1.118   4.636   1.156
 5717SOL    HW118050   1.168   4.719   1.133
 5717SOL    HW218051   1.025   4.641   1.121
 5718SOL     OW18052   1.731   4.868   6.931
 5718SOL    HW118053   1.778   4.944   6.886
 5718SOL    HW218054   1.638   4.860   6.896
 5719SOL     OW18055   3.412   0.925   6.224
 5719SOL    HW118056   3.501   0.930   6.180
 5719SOL    HW218057   3.414   0.855   6.295
 5720SOL     OW18058   0.308   5.126   5.076
 5720SOL    HW118059   0.354   5.215   5.075
 5720SOL    HW218060   0.361   5.061   5.020
 5721SOL     OW18061   0.966   2.892   0.004
 5721SOL    HW118062   0.993   2.976   0.050
 5721SOL    HW218063   1.047   2.837   7.005
 5722SOL     OW18064   5.303   1.124   4.728
 5722SOL    HW118065   5.364   1.120   4.807
 5722SOL    HW218066   5.317   1.044   4.670
 5723SOL     OW18067   3.433   5.136   0.560
 5723SOL    HW118068   3.511   5.137   0.498
 5723SOL    HW218069   3.427   5.223   0.608
 5724SOL     OW18070   4.494   2.256   6.715
 5724SOL    HW118071   4.543   2.192   6.656
 5724SOL    HW218072   4.558   2.322   6.754
 5725SOL     OW18073   5.242   5.330   3.855
 5725SOL    HW118074   5.317   5.353   3.918
 5725SOL    HW218075   5.251   5.384   3.772
 5726SOL     OW18076   6.355   3.469   5.199
 5726SOL    HW118077   6.310   3.536   5.259
 5726SOL    HW218078   6.326   3.484   5.105
 5727SOL     OW18079   6.158   2.709   2.818
 5727SOL    HW118080   6.102   2.767   2.876
 5727SOL    HW218081   6.212   2.765   2.755
 5728SOL     OW18082   6.079   1.111   5.693
 5728SOL    HW118083   6.048   1.197   5.653
 5728SOL    HW218084   6.154   1.128   5.756
 5729SOL     OW18085   0.149   2.029   0.191
 5729SOL    HW118086   0.235   1.990   0.160
 5729SOL    HW218087   0.103   2.074   0.115
 5730SOL     OW18088   4.122   5.926   5.098
 5730SOL    HW118089   4.076   5.853   5.148
 5730SOL    HW218090   4.221   5.914   5.104
 5731SOL     OW18091   1.618   6.695   4.117
 5731SOL    HW118092   1.616   6.617   4.180
 5731SOL    HW218093   1.606   6.779   4.169
 5732SOL     OW18094   6.011   4.874   4.202
 5732SOL    HW118095   6.003   4.785   4.158
 5732SOL    HW218096   5.931   4.891   4.260
 5733SOL     OW18097   3.937   0.654   0.182
 5733SOL    HW118098   3.862   0.590   0.199
 5733SOL    HW218099   3.955   0.661   0.084
 5734SOL     OW18100   1.548   6.828   5.319
 5734SOL    HW118101   1.570   6.898   5.252
 5734SOL    HW218102   1.569   6.862   5.411
 5735SOL     OW18103   3.922   0.926   2.749
 5735SOL    HW118104   3.990   0.943   2.820
 5735SOL    HW218105   3.956   0.960   2.662
 5736SOL     OW18106   5.009   4.440   6.193
 5736SOL    HW118107   4.981   4.394   6.109
 5736SOL    HW218108   5.005   4.539   6.180
 5737SOL     OW18109   5.141   6.285   1.112
 5737SOL    HW118110   5.234   6.248   1.112
 5737SOL    HW218111   5.106   6.287   1.206
 5738SOL     OW18112   3.534   1.046   6.950
 5738SOL    HW118113   3.564   1.128   6.997
 5738SOL    HW218114   3.613   0.988   6.930
 5739SOL     OW18115   1.776   6.586   5.908
 5739SOL    HW118116   1.827   6.526   5.846
 5739SOL    HW218117   1.781   6.549   6.001
 5740SOL     OW18118   4.686   3.229   0.823
 5740SOL    HW118119   4.620   3.303   0.835
 5740SOL    HW218120   4.733   3.240   0.736
 5741SOL     OW18121   0.809   3.926   4.484
 5741SOL    HW118122   0.745   3.848   4.479
 5741SOL    HW218123   0.896   3.899   4.445
 5742SOL     OW18124   3.740   6.603   3.638
 5742SOL    HW118125   3.720   6.685   3.693
 5742SOL    HW218126   3.657   6.548   3.630
 5743SOL     OW18127   3.922   4.633   5.752
 5743SOL    HW118128   3.912   4.626   5.851
 5743SOL    HW218129   3.892   4.549   5.709
 5744SOL     OW18130   6.039   0.361   3.217
 5744SOL    HW118131   6.081   0.273   3.193
 5744SOL    HW218132   6.023   0.414   3.135
 5745SOL     OW18133   2.328   2.725   3.770
 5745SOL    HW118134   2.272   2.803   3.741
 5745SOL    HW218135   2.391   2.700   3.696
 5746SOL     OW18136   3.984   6.952   3.576
 5746SOL    HW118137   4.074   6.910   3.586
 5746SOL    HW218138   3.918   6.902   3.633
 5747SOL     OW18139   1.040   6.053   1.947
 5747SOL    HW118140   1.040   6.129   2.012
 5747SOL    HW218141   1.123   6.055   1.892
 5748SOL     OW18142   0.568   6.443   0.535
 5748SOL    HW118143   0.536   6.348   0.540
 5748SOL    HW218144   0.658   6.445   0.493
 5749SOL     OW18145   1.960   6.871   4.987
 5749SOL    HW118146   1.972   6.795   5.052
 5749SOL    HW218147   2.022   6.858   4.909
 5750SOL     OW18148   6.546   4.199   4.845
 5750SOL    HW118149   6.482   4.122   4.839
 5750SOL    HW218150   6.545   4.250   4.759
 5751SOL     OW18151   2.110   3.608   4.338
 5751SOL    HW118152   2.044   3.535   4.358
 5751SOL    HW218153   2.136   3.604   4.242
 5752SOL     OW18154   5.489   0.508   0.911
 5752SOL    HW118155   5.545   0.463   0.980
 5752SOL    HW218156   5.393   0.485   0.925
 5753SOL     OW18157   2.808   3.925   5.255
 5753SOL    HW118158   2.848   4.000   5.201
 5753SOL    HW218159   2.880   3.863   5.284
 5754SOL     OW18160   1.772   6.556   1.627
 5754SOL    HW118161   1.763   6.644   1.674
 5754SOL    HW218162   1.748   6.568   1.531
 5755SOL     OW18163   2.153   1.757   6.843
 5755SOL    HW118164   2.195   1.717   6.762
 5755SOL    HW218165   2.120   1.685   6.903
 5756SOL     OW18166   6.732   0.239   2.470
 5756SOL    HW118167   6.794   0.298   2.521
 5756SOL    HW218168   6.690   0.172   2.531
 5757SOL     OW18169   6.872   5.817   3.987
 5757SOL    HW118170   6.793   5.759   3.966
 5757SOL    HW218171   6.935   5.767   4.047
 5758SOL     OW18172   1.938   6.936   3.134
 5758SOL    HW118173   1.957   6.910   3.039
 5758SOL    HW218174   1.987   6.874   3.196
 5759SOL     OW18175   4.455   6.790   1.638
 5759SOL    HW118176   4.419   6.721   1.574
 5759SOL    HW218177   4.380   6.845   1.673
 5760SOL     OW18178   6.846   3.494   2.174
 5760SOL    HW118179   6.858   3.577   2.229
 5760SOL    HW218180   6.934   3.463   2.141
 5761SOL     OW18181   5.098   6.068   4.641
 5761SOL    HW118182   5.091   5.978   4.684
 5761SOL    HW218183   5.038   6.133   4.689
 5762SOL     OW18184   4.855   4.531   0.858
 5762SOL    HW118185   4.800   4.456   0.894
 5762SOL    HW218186   4.798   4.614   0.851
 5763SOL     OW18187   5.193   6.805   0.148
 5763SOL    HW118188   5.260   6.851   0.090
 5763SOL    HW218189   5.240   6.741   0.209
 5764SOL     OW18190   4.115   5.236   3.054
 5764SOL    HW118191   4.163   5.320   3.080
 5764SOL    HW218192   4.182   5.162   3.042
 5765SOL     OW18193   6.246   4.360   0.659
 5765SOL    HW118194   6.185   4.384   0.584
 5765SOL    HW218195   6.341   4.365   0.628
 5766SOL     OW18196   1.526   1.868   4.658
 5766SOL    HW118197   1.527   1.840   4.562
 5766SOL    HW218198   1.578   1.802   4.712
 5767SOL     OW18199   1.946   0.142   0.106
 5767SOL    HW118200   1.976   0.074   0.172
 5767SOL    HW218201   1.974   0.233   0.137
 5768SOL     OW18202   0.056   6.850   3.378
 5768SOL    HW118203   0.110   6.895   3.449
 5768SOL    HW218204   0.024   6.761   3.410
 5769SOL     OW18205   2.127   5.082   6.060
 5769SOL    HW118206   2.206   5.088   6.121
 5769SOL    HW218207   2.126   4.993   6.014
 5770SOL     OW18208   0.779   6.685   6.760
 5770SOL    HW118209   0.769   6.586   6.762
 5770SOL    HW218210   0.764   6.722   6.851
 5771SOL     OW18211   2.049   6.684   3.685
 5771SOL    HW118212   2.115   6.667   3.611
 5771SOL    HW218213   2.099   6.701   3.770
 5772SOL     OW18214   4.378   1.320   1.855
 5772SOL    HW118215   4.312   1.389   1.826
 5772SOL    HW218216   4.337   1.229   1.847
 5773SOL     OW18217   4.408   1.544   2.113
 5773SOL    HW118218   4.317   1.546   2.072
 5773SOL    HW218219   4.402   1.509   2.207
 5774SOL     OW18220   1.871   0.384   5.219
 5774SOL    HW118221   1.837   0.423   5.134
 5774SOL    HW218222   1.946   0.321   5.199
 5775SOL     OW18223   1.037   6.180   2.694
 5775SOL    HW118224   1.070   6.254   2.753
 5775SOL    HW218225   1.035   6.212   2.599
 5776SOL     OW18226   1.123   0.271   3.106
 5776SOL    HW118227   1.184   0.225   3.041
 5776SOL    HW218228   1.033   0.228   3.103
 5777SOL     OW18229   1.375   0.559   3.856
 5777SOL    HW118230   1.279   0.588   3.858
 5777SOL    HW218231   1.386   0.478   3.913
 5778SOL     OW18232   1.285   0.640   0.413
 5778SOL    HW118233   1.281   0.667   0.316
 5778SOL    HW218234   1.209   0.683   0.462
 5779SOL     OW18235   4.946   2.970   6.511
 5779SOL    HW118236   5.012   3.014   6.572
 5779SOL    HW218237   4.951   2.871   6.522
 5780SOL     OW18238   5.648   5.851   4.700
 5780SOL    HW118239   5.554   5.884   4.715
 5780SOL    HW218240   5.694   5.842   4.789
 5781SOL     OW18241   6.459   4.931   4.959
 5781SOL    HW118242   6.484   4.869   4.884
 5781SOL    HW218243   6.542   4.966   5.002
 5782SOL     OW18244   1.163   1.068   0.617
 5782SOL    HW118245   1.082   1.009   0.611
 5782SOL    HW218246   1.134   1.163   0.628
 5783SOL     OW18247   1.155   1.080   2.343
 5783SOL    HW118248   1.142   0.991   2.387
 5783SOL    HW218249   1.194   1.144   2.408
 5784SOL     OW18250   0.172   6.158   0.027
 5784SOL    HW118251   0.118   6.086   7.006
 5784SOL    HW218252   0.212   6.125   0.113
 5785SOL     OW18253   2.341   1.579   0.255
 5785SOL    HW118254   2.274   1.653   0.245
 5785SOL    HW218255   2.315   1.521   0.332
 5786SOL     OW18256   6.537   4.180   0.298
 5786SOL    HW118257   6.526   4.083   0.273
 5786SOL    HW218258   6.448   4.219   0.319
 5787SOL     OW18259   2.299   1.669   5.520
 5787SOL    HW118260   2.260   1.728   5.450
 5787SOL    HW218261   2.310   1.721   5.605
 5788SOL     OW18262   2.714   1.666   2.694
 5788SOL    HW118263   2.709   1.570   2.667
 5788SOL    HW218264   2.622   1.698   2.716
 5789SOL     OW18265   3.466   5.109   6.670
 5789SOL    HW118266   3.518   5.033   6.709
 5789SOL    HW218267   3.475   5.189   6.729
 5790SOL     OW18268   1.269   3.661   4.723
 5790SOL    HW118269   1.210   3.739   4.743
 5790SOL    HW218270   1.274   3.602   4.804
 5791SOL     OW18271   4.119   0.401   2.167
 5791SOL    HW118272   4.111   0.337   2.091
 5791SOL    HW218273   4.038   0.394   2.225
 5792SOL     OW18274   6.952   2.427   2.894
 5792SOL    HW118275   6.935   2.330   2.878
 5792SOL    HW218276   7.012   2.438   2.973
 5793SOL     OW18277   5.405   1.254   3.236
 5793SOL    HW118278   5.315   1.297   3.242
 5793SOL    HW218279   5.402   1.179   3.170
 5794SOL     OW18280   3.729   2.055   0.659
 5794SOL    HW118281   3.674   2.015   0.585
 5794SOL    HW218282   3.802   2.111   0.619
 5795SOL     OW18283   6.241   5.537   5.880
 5795SOL    HW118284   6.204   5.444   5.882
 5795SOL    HW218285   6.228   5.576   5.789
 5796SOL     OW18286   4.188   0.788   0.141
 5796SOL    HW118287   4.099   0.744   0.155
 5796SOL    HW218288   4.206   0.851   0.216
 5797SOL     OW18289   4.057   1.898   5.171
 5797SOL    HW118290   4.076   1.862   5.262
 5797SOL    HW218291   4.013   1.988   5.179
 5798SOL     OW18292   1.254   4.306   5.555
 5798SOL    HW118293   1.245   4.266   5.646
 5798SOL    HW218294   1.167   4.300   5.507
 5799SOL     OW18295   5.468   1.675   3.720
 5799SOL    HW118296   5.488   1.616   3.798
 5799SOL    HW218297   5.410   1.751   3.749
 5800SOL     OW18298   5.174   6.060   0.655
 5800SOL    HW118299   5.255   6.035   0.708
 5800SOL    HW218300   5.187   6.032   0.560
 5801SOL     OW18301   1.050   2.428   4.689
 5801SOL    HW118302   0.998   2.512   4.703
 5801SOL    HW218303   1.107   2.436   4.608
 5802SOL     OW18304   0.899   4.461   0.443
 5802SOL    HW118305   0.837   4.497   0.512
 5802SOL    HW218306   0.966   4.531   0.419
 5803SOL     OW18307   1.166   4.318   2.023
 5803SOL    HW118308   1.111   4.244   1.984
 5803SOL    HW218309   1.105   4.381   2.072
 5804SOL     OW18310   6.232   4.360   3.432
 5804SOL    HW118311   6.318   4.402   3.459
 5804SOL    HW218312   6.213   4.282   3.492
 5805SOL     OW18313   3.457   4.062   6.445
 5805SOL    HW118314   3.402   3.994   6.493
 5805SOL    HW218315   3.463   4.146   6.499
 5806SOL     OW18316   0.076   6.421   6.372
 5806SOL    HW118317   0.080   6.323   6.396
 5806SOL    HW218318   0.126   6.474   6.440
 5807SOL     OW18319   1.517   3.754   1.846
 5807SOL    HW118320   1.428   3.756   1.801
 5807SOL    HW218321   1.505   3.761   1.945
 5808SOL     OW18322   6.011   4.019   3.392
 5808SOL    HW118323   5.967   4.059   3.312
 5808SOL    HW218324   6.089   3.963   3.362
 5809SOL     OW18325   0.291   2.197   5.085
 5809SOL    HW118326   0.358   2.237   5.149
 5809SOL    HW218327   0.334   2.186   4.995
 5810SOL     OW18328   3.185   1.025   4.024
 5810SOL    HW118329   3.258   1.054   3.962
 5810SOL    HW218330   3.105   0.997   3.970
 5811SOL     OW18331   2.754   0.094   5.009
 5811SOL    HW118332   2.688   0.168   4.994
 5811SOL    HW218333   2.708   0.006   5.001
 5812SOL     OW18334   5.688   0.469   4.113
 5812SOL    HW118335   5.747   0.549   4.108
 5812SOL    HW218336   5.593   0.498   4.117
 5813SOL     OW18337   1.259   0.935   0.315
 5813SOL    HW118338   1.298   0.919   0.406
 5813SOL    HW218339   1.185   1.001   0.321
 5814SOL     OW18340   6.132   4.476   1.158
 5814SOL    HW118341   6.091   4.567   1.153
 5814SOL    HW218342   6.218   4.475   1.106
 5815SOL     OW18343   4.555   2.609   4.055
 5815SOL    HW118344   4.546   2.607   4.155
 5815SOL    HW218345   4.464   2.605   4.014
 5816SOL     OW18346   4.859   5.565   0.120
 5816SOL    HW118347   4.783   5.628   0.135
 5816SOL    HW218348   4.916   5.598   0.045
 5817SOL     OW18349   5.075   3.300   5.571
 5817SOL    HW118350   5.035   3.217   5.533
 5817SOL    HW218351   5.039   3.315   5.663
 5818SOL     OW18352   6.505   6.284   5.179
 5818SOL    HW118353   6.439   6.350   5.214
 5818SOL    HW218354   6.592   6.329   5.161
 5819SOL     OW18355   4.559   0.294   6.821
 5819SOL    HW118356   4.503   0.217   6.792
 5819SOL    HW218357   4.557   0.300   6.921
 5820SOL     OW18358   4.517   6.555   3.946
 5820SOL    HW118359   4.554   6.467   3.915
 5820SOL    HW218360   4.592   6.611   3.984
 5821SOL     OW18361   0.845   6.911   2.116
 5821SOL    HW118362   0.897   6.857   2.182
 5821SOL    HW218363   0.844   7.007   2.146
 5822SOL     OW18364   0.542   2.484   2.526
 5822SOL    HW118365   0.508   2.475   2.619
 5822SOL    HW218366   0.471   2.525   2.469
 5823SOL     OW18367   0.875   0.940   6.034
 5823SOL    HW118368   0.812   0.993   6.092
 5823SOL    HW218369   0.827   0.910   5.952
 5824SOL     OW18370   6.763   6.034   2.771
 5824SOL    HW118371   6.700   6.096   2.723
 5824SOL    HW218372   6.750   6.043   2.869
 5825SOL     OW18373   2.312   1.748   5.039
 5825SOL    HW118374   2.333   1.711   4.948
 5825SOL    HW218375   2.378   1.820   5.061
 5826SOL     OW18376   6.907   5.343   5.233
 5826SOL    HW118377   6.855   5.414   5.188
 5826SOL    HW218378   6.965   5.296   5.166
 5827SOL     OW18379   1.772   4.893   5.001
 5827SOL    HW118380   1.779   4.865   5.097
 5827SOL    HW218381   1.719   4.826   4.951
 5828SOL     OW18382   6.784   3.140   1.419
 5828SOL    HW118383   6.701   3.130   1.364
 5828SOL    HW218384   6.776   3.084   1.502
 5829SOL     OW18385   2.836   1.989   2.737
 5829SOL    HW118386   2.915   2.049   2.726
 5829SOL    HW218387   2.862   1.895   2.718
 5830SOL     OW18388   4.013   0.236   5.598
 5830SOL    HW118389   4.056   0.152   5.631
 5830SOL    HW218390   4.062   0.269   5.518
 5831SOL     OW18391   6.836   0.471   3.734
 5831SOL    HW118392   6.868   0.498   3.643
 5831SOL    HW218393   6.838   0.372   3.742
 5832SOL     OW18394   3.683   4.411   5.320
 5832SOL    HW118395   3.584   4.411   5.336
 5832SOL    HW218396   3.729   4.373   5.400
 5833SOL     OW18397   3.998   3.221   4.894
 5833SOL    HW118398   4.043   3.294   4.842
 5833SOL    HW218399   3.937   3.170   4.834
 5834SOL     OW18400   6.085   2.552   0.531
 5834SOL    HW118401   6.059   2.480   0.596
 5834SOL    HW218402   6.045   2.533   0.442
 5835SOL     OW18403   4.930   3.214   2.880
 5835SOL    HW118404   4.918   3.261   2.792
 5835SOL    HW218405   5.012   3.250   2.926
 5836SOL     OW18406   3.229   6.876   3.151
 5836SOL    HW118407   3.320   6.835   3.150
 5836SOL    HW218408   3.163   6.811   3.114
 5837SOL     OW18409   4.502   5.135   5.821
 5837SOL    HW118410   4.405   5.139   5.847
 5837SOL    HW218411   4.556   5.185   5.888
 5838SOL     OW18412   2.440   1.515   5.841
 5838SOL    HW118413   2.469   1.601   5.883
 5838SOL    HW218414   2.477   1.509   5.749
 5839SOL     OW18415   0.329   2.659   2.935
 5839SOL    HW118416   0.362   2.623   3.022
 5839SOL    HW218417   0.235   2.691   2.945
 5840SOL     OW18418   1.554   5.335   0.079
 5840SOL    HW118419   1.578   5.308   7.008
 5840SOL    HW218420   1.636   5.364   0.128
 5841SOL     OW18421   5.560   2.062   2.409
 5841SOL    HW118422   5.567   2.157   2.439
 5841SOL    HW218423   5.624   2.046   2.333
 5842SOL     OW18424   4.108   3.127   1.712
 5842SOL    HW118425   4.088   3.048   1.655
 5842SOL    HW218426   4.039   3.198   1.695
 5843SOL     OW18427   2.077   3.643   2.184
 5843SOL    HW118428   2.138   3.580   2.136
 5843SOL    HW218429   2.129   3.724   2.213
 5844SOL     OW18430   0.502   0.018   5.854
 5844SOL    HW118431   0.590   0.050   5.819
 5844SOL    HW218432   0.477   6.954   5.808
 5845SOL     OW18433   1.518   0.301   2.946
 5845SOL    HW118434   1.429   0.254   2.942
 5845SOL    HW218435   1.584   0.242   2.993
 5846SOL     OW18436   6.436   3.285   4.698
 5846SOL    HW118437   6.523   3.259   4.740
 5846SOL    HW218438   6.428   3.242   4.608
 5847SOL     OW18439   2.150   1.875   2.254
 5847SOL    HW118440   2.249   1.872   2.271
 5847SOL    HW218441   2.119   1.970   2.253
 5848SOL     OW18442   2.294   5.529   2.950
 5848SOL    HW118443   2.320   5.468   2.875
 5848SOL    HW218444   2.195   5.542   2.951
 5849SOL     OW18445   6.749   0.882   6.342
 5849SOL    HW118446   6.680   0.862   6.411
 5849SOL    HW218447   6.706   0.895   6.253
 5850SOL     OW18448   0.698   3.382   2.393
 5850SOL    HW118449   0.774   3.317   2.399
 5850SOL    HW218450   0.683   3.407   2.298
 5851SOL     OW18451   5.297   3.401   2.776
 5851SOL    HW118452   5.210   3.449   2.790
 5851SOL    HW218453   5.348   3.445   2.703
 5852SOL     OW18454   4.879   6.625   3.219
 5852SOL    HW118455   4.827   6.547   3.255
 5852SOL    HW218456   4.821   6.706   3.217
 5853SOL     OW18457   2.921   5.760   5.168
 5853SOL    HW118458   2.983   5.823   5.120
 5853SOL    HW218459   2.972   5.680   5.200
 5854SOL     OW18460   6.184   3.673   5.324
 5854SOL    HW118461   6.121   3.660   5.248
 5854SOL    HW218462   6.144   3.636   5.408
 5855SOL     OW18463   0.273   0.594   4.306
 5855SOL    HW118464   0.317   0.680   4.332
 5855SOL    HW218465   0.339   0.536   4.258
 5856SOL     OW18466   2.083   6.304   3.567
 5856SOL    HW118467   2.025   6.276   3.644
 5856SOL    HW218468   2.179   6.295   3.592
 5857SOL     OW18469   6.188   2.815   5.486
 5857SOL    HW118470   6.113   2.850   5.430
 5857SOL    HW218471   6.155   2.739   5.542
 5858SOL     OW18472   2.640   2.308   2.165
 5858SOL    HW118473   2.596   2.395   2.186
 5858SOL    HW218474   2.739   2.321   2.158
 5859SOL     OW18475   5.268   6.991   0.823
 5859SOL    HW118476   5.278   6.907   0.770
 5859SOL    HW218477   5.316   6.982   0.910
 5860SOL     OW18478   2.231   3.816   1.850
 5860SOL    HW118479   2.232   3.878   1.929
 5860SOL    HW218480   2.170   3.740   1.868
 5861SOL     OW18481   5.068   1.530   4.239
 5861SOL    HW118482   5.036   1.624   4.246
 5861SOL    HW218483   5.148   1.526   4.179
 5862SOL     OW18484   5.017   4.774   3.339
 5862SOL    HW118485   4.944   4.792   3.273
 5862SOL    HW218486   5.105   4.796   3.297
 5863SOL     OW18487   3.182   0.672   4.603
 5863SOL    HW118488   3.133   0.731   4.667
 5863SOL    HW218489   3.275   0.656   4.636
 5864SOL     OW18490   4.275   3.791   1.655
 5864SOL    HW118491   4.181   3.761   1.640
 5864SOL    HW218492   4.330   3.714   1.685
 5865SOL     OW18493   5.634   0.201   4.480
 5865SOL    HW118494   5.663   0.136   4.410
 5865SOL    HW218495   5.689   0.187   4.563
 5866SOL     OW18496   3.471   5.828   6.643
 5866SOL    HW118497   3.468   5.889   6.564
 5866SOL    HW218498   3.509   5.876   6.722
 5867SOL     OW18499   0.387   3.499   0.923
 5867SOL    HW118500   0.418   3.525   0.832
 5867SOL    HW218501   0.288   3.483   0.922
 5868SOL     OW18502   6.971   1.025   5.398
 5868SOL    HW118503   6.895   0.998   5.456
 5868SOL    HW218504   6.935   1.054   5.308
 5869SOL     OW18505   2.037   5.453   3.405
 5869SOL    HW118506   2.031   5.550   3.386
 5869SOL    HW218507   2.126   5.432   3.445
 5870SOL     OW18508   4.687   5.657   4.620
 5870SOL    HW118509   4.743   5.739   4.611
 5870SOL    HW218510   4.722   5.600   4.695
 5871SOL     OW18511   4.172   3.575   0.177
 5871SOL    HW118512   4.114   3.511   0.228
 5871SOL    HW218513   4.174   3.548   0.080
 5872SOL     OW18514   3.840   4.982   6.583
 5872SOL    HW118515   3.756   4.927   6.587
 5872SOL    HW218516   3.911   4.937   6.637
 5873SOL     OW18517   2.206   2.570   0.870
 5873SOL    HW118518   2.107   2.574   0.887
 5873SOL    HW218519   2.255   2.607   0.949
 5874SOL     OW18520   2.721   2.714   1.278
 5874SOL    HW118521   2.766   2.680   1.196
 5874SOL    HW218522   2.749   2.808   1.295
 5875SOL     OW18523   3.510   1.351   1.047
 5875SOL    HW118524   3.422   1.395   1.026
 5875SOL    HW218525   3.584   1.401   1.002
 5876SOL     OW18526   3.035   2.957   6.955
 5876SOL    HW118527   3.125   2.917   6.975
 5876SOL    HW218528   2.970   2.930   0.004
 5877SOL     OW18529   6.301   0.083   0.842
 5877SOL    HW118530   6.384   0.128   0.878
 5877SOL    HW218531   6.320   0.047   0.751
 5878SOL     OW18532   5.310   5.107   3.052
 5878SOL    HW118533   5.227   5.090   3.105
 5878SOL    HW218534   5.290   5.095   2.955
 5879SOL     OW18535   2.775   3.251   6.207
 5879SOL    HW118536   2.861   3.300   6.190
 5879SOL    HW218537   2.777   3.210   6.297
 5880SOL     OW18538   4.517   4.380   6.338
 5880SOL    HW118539   4.544   4.292   6.376
 5880SOL    HW218540   4.580   4.451   6.370
 5881SOL     OW18541   1.204   6.999   2.566
 5881SOL    HW118542   1.196   0.022   2.477
 5881SOL    HW218543   1.250   6.911   2.556
 5882SOL     OW18544   0.476   6.809   5.728
 5882SOL    HW118545   0.537   6.753   5.784
 5882SOL    HW218546   0.489   6.787   5.631
 5883SOL     OW18547   0.398   1.574   0.282
 5883SOL    HW118548   0.400   1.535   0.374
 5883SOL    HW218549   0.472   1.640   0.271
 5884SOL     OW18550   6.532   0.911   4.807
 5884SOL    HW118551   6.589   0.843   4.762
 5884SOL    HW218552   6.475   0.958   4.739
 5885SOL     OW18553   0.549   5.616   0.809
 5885SOL    HW118554   0.504   5.620   0.720
 5885SOL    HW218555   0.574   5.521   0.829
 5886SOL     OW18556   1.376   3.575   3.458
 5886SOL    HW118557   1.286   3.615   3.472
 5886SOL    HW218558   1.384   3.540   3.365
 5887SOL     OW18559   3.025   1.889   2.016
 5887SOL    HW118560   3.077   1.861   2.096
 5887SOL    HW218561   3.006   1.987   2.021
 5888SOL     OW18562   2.847   6.721   1.005
 5888SOL    HW118563   2.891   6.709   0.916
 5888SOL    HW218564   2.748   6.718   0.994
 5889SOL     OW18565   6.709   1.245   0.912
 5889SOL    HW118566   6.718   1.147   0.928
 5889SOL    HW218567   6.676   1.261   0.818
 5890SOL     OW18568   1.767   6.799   2.633
 5890SOL    HW118569   1.697   6.800   2.561
 5890SOL    HW218570   1.843   6.858   2.607
 5891SOL     OW18571   2.726   3.625   0.081
 5891SOL    HW118572   2.668   3.692   0.035
 5891SOL    HW218573   2.671   3.547   0.110
 5892SOL     OW18574   0.302   4.664   1.558
 5892SOL    HW118575   0.349   4.582   1.591
 5892SOL    HW218576   0.231   4.638   1.494
 5893SOL     OW18577   1.458   5.029   1.517
 5893SOL    HW118578   1.370   5.003   1.557
 5893SOL    HW218579   1.531   4.978   1.562
 5894SOL     OW18580   0.709   5.732   5.321
 5894SOL    HW118581   0.613   5.761   5.314
 5894SOL    HW218582   0.746   5.715   5.230
 5895SOL     OW18583   6.443   3.188   4.185
 5895SOL    HW118584   6.500   3.106   4.191
 5895SOL    HW218585   6.498   3.264   4.149
 5896SOL     OW18586   4.876   1.446   1.752
 5896SOL    HW118587   4.901   1.469   1.657
 5896SOL    HW218588   4.777   1.446   1.760
 5897SOL     OW18589   3.988   1.444   1.769
 5897SOL    HW118590   3.939   1.376   1.715
 5897SOL    HW218591   3.958   1.536   1.744
 5898SOL     OW18592   2.808   1.264   5.829
 5898SOL    HW118593   2.878   1.227   5.890
 5898SOL    HW218594   2.826   1.234   5.736
 5899SOL     OW18595   0.189   5.297   5.782
 5899SOL    HW118596   0.170   5.394   5.787
 5899SOL    HW218597   0.286   5.283   5.759
 5900SOL     OW18598   6.816   5.354   3.507
 5900SOL    HW118599   6.728   5.384   3.544
 5900SOL    HW218600   6.889   5.409   3.548
 5901SOL     OW18601   1.347   0.955   0.994
 5901SOL    HW118602   1.296   1.030   0.953
 5901SOL    HW218603   1.288   0.906   1.059
 5902SOL     OW18604   5.752   3.654   5.074
 5902SOL    HW118605   5.730   3.621   5.166
 5902SOL    HW218606   5.758   3.577   5.011
 5903SOL     OW18607   5.419   2.655   6.930
 5903SOL    HW118608   5.514   2.664   6.902
 5903SOL    HW218609   5.364   2.723   6.881
 5904SOL     OW18610   1.693   4.321   1.204
 5904SOL    HW118611   1.676   4.235   1.156
 5904SOL    HW218612   1.688   4.397   1.139
 5905SOL     OW18613   5.459   1.184   3.602
 5905SOL    HW118614   5.370   1.227   3.584
 5905SOL    HW218615   5.487   1.131   3.522
 5906SOL     OW18616   5.460   1.628   5.083
 5906SOL    HW118617   5.489   1.572   5.161
 5906SOL    HW218618   5.501   1.593   5.000
 5907SOL     OW18619   1.560   6.778   0.418
 5907SOL    HW118620   1.505   6.753   0.498
 5907SOL    HW218621   1.505   6.765   0.335
 5908SOL     OW18622   5.164   3.745   0.350
 5908SOL    HW118623   5.231   3.684   0.307
 5908SOL    HW218624   5.130   3.703   0.434
 5909SOL     OW18625   0.455   4.271   5.883
 5909SOL    HW118626   0.365   4.239   5.853
 5909SOL    HW218627   0.447   4.312   5.974
 5910SOL     OW18628   1.358   4.248   0.763
 5910SOL    HW118629   1.280   4.309   0.750
 5910SOL    HW218630   1.334   4.156   0.731
 5911SOL     OW18631   0.300   6.076   6.039
 5911SOL    HW118632   0.277   6.034   5.951
 5911SOL    HW218633   0.398   6.071   6.054
 5912SOL     OW18634   5.999   3.140   6.680
 5912SOL    HW118635   6.066   3.195   6.631
 5912SOL    HW218636   5.921   3.120   6.620
 5913SOL     OW18637   2.200   2.785   5.777
 5913SOL    HW118638   2.276   2.736   5.735
 5913SOL    HW218639   2.211   2.783   5.877
 5914SOL     OW18640   2.535   5.718   6.875
 5914SOL    HW118641   2.437   5.712   6.853
 5914SOL    HW218642   2.588   5.695   6.794
 5915SOL     OW18643   5.616   3.745   2.264
 5915SOL    HW118644   5.552   3.677   2.229
 5915SOL    HW218645   5.619   3.824   2.203
 5916SOL     OW18646   4.406   0.575   5.763
 5916SOL    HW118647   4.467   0.639   5.718
 5916SOL    HW218648   4.418   0.581   5.862
 5917SOL     OW18649   3.720   3.220   3.299
 5917SOL    HW118650   3.673   3.197   3.384
 5917SOL    HW218651   3.818   3.222   3.315
 5918SOL     OW18652   2.113   3.651   4.815
 5918SOL    HW118653   2.014   3.645   4.815
 5918SOL    HW218654   2.142   3.746   4.818
 5919SOL     OW18655   2.885   1.803   0.294
 5919SOL    HW118656   2.862   1.732   0.227
 5919SOL    HW218657   2.945   1.764   0.364
 5920SOL     OW18658   3.575   7.016   6.877
 5920SOL    HW118659   3.565   7.005   6.976
 5920SOL    HW218660   3.574   6.926   6.833
 5921SOL     OW18661   3.491   5.220   5.031
 5921SOL    HW118662   3.558   5.146   5.032
 5921SOL    HW218663   3.480   5.254   4.938
 5922SOL     OW18664   6.437   5.068   3.379
 5922SOL    HW118665   6.354   5.052   3.432
 5922SOL    HW218666   6.428   5.154   3.329
 5923SOL     OW18667   6.367   0.942   2.751
 5923SOL    HW118668   6.335   0.988   2.668
 5923SOL    HW218669   6.384   1.009   2.823
 5924SOL     OW18670   5.614   2.574   5.142
 5924SOL    HW118671   5.619   2.614   5.233
 5924SOL    HW218672   5.602   2.475   5.150
 5925SOL     OW18673   4.629   5.866   2.939
 5925SOL    HW118674   4.619   5.909   3.028
 5925SOL    HW218675   4.544   5.875   2.887
 5926SOL     OW18676   3.042   5.054   1.652
 5926SOL    HW118677   3.040   5.102   1.740
 5926SOL    HW218678   2.969   4.986   1.649
 5927SOL     OW18679   2.023   4.468   1.863
 5927SOL    HW118680   2.019   4.428   1.955
 5927SOL    HW218681   2.101   4.529   1.857
 5928SOL     OW18682   2.499   0.416   2.507
 5928SOL    HW118683   2.581   0.364   2.481
 5928SOL    HW218684   2.438   0.424   2.427
 5929SOL     OW18685   0.556   6.171   5.735
 5929SOL    HW118686   0.604   6.180   5.647
 5929SOL    HW218687   0.551   6.260   5.780
 5930SOL     OW18688   5.882   1.342   3.777
 5930SOL    HW118689   5.939   1.285   3.837
 5930SOL    HW218690   5.941   1.394   3.715
 5931SOL     OW18691   5.630   4.820   2.560
 5931SOL    HW118692   5.623   4.806   2.461
 5931SOL    HW218693   5.655   4.915   2.579
 5932SOL     OW18694   2.156   6.605   0.818
 5932SOL    HW118695   2.066   6.629   0.780
 5932SOL    HW218696   2.219   6.585   0.742
 5933SOL     OW18697   6.965   4.812   1.842
 5933SOL    HW118698   6.921   4.777   1.925
 5933SOL    HW218699   6.963   4.742   1.771
 5934SOL     OW18700   3.505   3.763   3.815
 5934SOL    HW118701   3.423   3.763   3.872
 5934SOL    HW218702   3.501   3.688   3.749
 5935SOL     OW18703   3.687   3.408   4.544
 5935SOL    HW118704   3.671   3.331   4.606
 5935SOL    HW218705   3.780   3.441   4.556
 5936SOL     OW18706   4.225   3.515   6.418
 5936SOL    HW118707   4.189   3.595   6.466
 5936SOL    HW218708   4.200   3.432   6.468
 5937SOL     OW18709   0.617   3.844   2.008
 5937SOL    HW118710   0.607   3.850   1.909
 5937SOL    HW218711   0.693   3.783   2.031
 5938SOL     OW18712   1.371   4.964   4.444
 5938SOL    HW118713   1.381   4.891   4.511
 5938SOL    HW218714   1.439   4.952   4.371
 5939SOL     OW18715   3.310   0.517   3.354
 5939SOL    HW118716   3.317   0.486   3.259
 5939SOL    HW218717   3.402   0.523   3.393
 5940SOL     OW18718   4.255   6.751   2.059
 5940SOL    HW118719   4.355   6.761   2.060
 5940SOL    HW218720   4.213   6.840   2.078
 5941SOL     OW18721   6.168   4.547   1.975
 5941SOL    HW118722   6.080   4.594   1.975
 5941SOL    HW218723   6.169   4.478   2.048
 5942SOL     OW18724   4.490   2.558   6.456
 5942SOL    HW118725   4.395   2.559   6.487
 5942SOL    HW218726   4.494   2.583   6.359
 5943SOL     OW18727   2.749   6.043   0.170
 5943SOL    HW118728   2.735   5.967   0.106
 5943SOL    HW218729   2.695   6.122   0.139
 5944SOL     OW18730   5.720   1.535   1.949
 5944SOL    HW118731   5.659   1.577   1.881
 5944SOL    HW218732   5.697   1.438   1.959
 5945SOL     OW18733   6.928   4.742   5.582
 5945SOL    HW118734   6.938   4.829   5.534
 5945SOL    HW218735   6.877   4.755   5.667
 5946SOL     OW18736   3.364   4.205   5.633
 5946SOL    HW118737   3.312   4.192   5.717
 5946SOL    HW218738   3.302   4.198   5.554
 5947SOL     OW18739   3.736   2.959   2.009
 5947SOL    HW118740   3.813   3.023   2.009
 5947SOL    HW218741   3.745   2.897   1.931
 5948SOL     OW18742   3.885   5.131   2.944
 5948SOL    HW118743   3.952   5.199   2.974
 5948SOL    HW218744   3.904   5.044   2.988
 5949SOL     OW18745   3.894   4.160   1.405
 5949SOL    HW118746   3.946   4.158   1.491
 5949SOL    HW218747   3.852   4.071   1.389
 5950SOL     OW18748   5.470   2.623   5.666
 5950SOL    HW118749   5.424   2.538   5.691
 5950SOL    HW218750   5.404   2.687   5.629
 5951SOL     OW18751   0.491   6.358   5.087
 5951SOL    HW118752   0.448   6.425   5.148
 5951SOL    HW218753   0.490   6.393   4.993
 5952SOL     OW18754   6.184   6.647   3.737
 5952SOL    HW118755   6.108   6.589   3.708
 5952SOL    HW218756   6.156   6.702   3.816
 5953SOL     OW18757   0.067   2.972   5.556
 5953SOL    HW118758   0.153   3.021   5.571
 5953SOL    HW218759   0.086   2.878   5.526
 5954SOL     OW18760   6.720   4.506   5.734
 5954SOL    HW118761   6.678   4.417   5.749
 5954SOL    HW218762   6.818   4.495   5.722
 5955SOL     OW18763   6.177   5.881   2.123
 5955SOL    HW118764   6.191   5.921   2.213
 5955SOL    HW218765   6.172   5.955   2.055
 5956SOL     OW18766   3.317   1.855   1.151
 5956SOL    HW118767   3.287   1.913   1.075
 5956SOL    HW218768   3.296   1.760   1.131
 5957SOL     OW18769   4.676   6.947   5.792
 5957SOL    HW118770   4.774   6.966   5.791
 5957SOL    HW218771   4.640   6.957   5.700
 5958SOL     OW18772   5.856   6.202   2.673
 5958SOL    HW118773   5.833   6.271   2.742
 5958SOL    HW218774   5.839   6.111   2.709
 5959SOL     OW18775   3.399   1.700   5.346
 5959SOL    HW118776   3.387   1.799   5.357
 5959SOL    HW218777   3.486   1.682   5.300
 5960SOL     OW18778   3.463   6.928   3.787
 5960SOL    HW118779   3.518   7.010   3.769
 5960SOL    HW218780   3.404   6.944   3.866
 5961SOL     OW18781   4.391   1.318   3.285
 5961SOL    HW118782   4.340   1.254   3.342
 5961SOL    HW218783   4.472   1.351   3.335
 5962SOL     OW18784   5.278   5.463   2.259
 5962SOL    HW118785   5.221   5.446   2.339
 5962SOL    HW218786   5.272   5.384   2.197
 5963SOL     OW18787   3.711   3.181   4.250
 5963SOL    HW118788   3.733   3.234   4.168
 5963SOL    HW218789   3.628   3.217   4.292
 5964SOL     OW18790   0.095   5.152   6.027
 5964SOL    HW118791   0.153   5.186   5.953
 5964SOL    HW218792   0.116   5.202   6.111
 5965SOL     OW18793   1.850   2.141   6.360
 5965SOL    HW118794   1.925   2.094   6.313
 5965SOL    HW218795   1.768   2.083   6.357
 5966SOL     OW18796   2.790   5.485   5.217
 5966SOL    HW118797   2.731   5.564   5.196
 5966SOL    HW218798   2.865   5.481   5.151
 5967SOL     OW18799   3.888   6.334   2.429
 5967SOL    HW118800   3.905   6.298   2.337
 5967SOL    HW218801   3.792   6.362   2.437
 5968SOL     OW18802   5.745   1.837   3.215
 5968SOL    HW118803   5.696   1.915   3.254
 5968SOL    HW218804   5.828   1.870   3.169
 5969SOL     OW18805   6.295   1.956   5.245
 5969SOL    HW118806   6.382   1.995   5.216
 5969SOL    HW218807   6.220   2.004   5.199
 5970SOL     OW18808   0.368   4.537   2.442
 5970SOL    HW118809   0.435   4.475   2.403
 5970SOL    HW218810   0.278   4.493   2.441
 5971SOL     OW18811   2.075   0.315   3.007
 5971SOL    HW118812   2.096   0.384   2.937
 5971SOL    HW218813   1.991   0.267   2.982
 5972SOL     OW18814   4.146   6.592   0.469
 5972SOL    HW118815   4.065   6.560   0.420
 5972SOL    HW218816   4.158   6.690   0.451
 5973SOL     OW18817   1.927   5.359   2.600
 5973SOL    HW118818   1.885   5.281   2.553
 5973SOL    HW218819   1.968   5.327   2.686
 5974SOL     OW18820   6.059   4.232   5.852
 5974SOL    HW118821   6.111   4.168   5.795
 5974SOL    HW218822   6.040   4.315   5.799
 5975SOL     OW18823   3.974   2.183   0.793
 5975SOL    HW118824   3.987   2.259   0.730
 5975SOL    HW218825   3.910   2.211   0.865
 5976SOL     OW18826   2.879   3.470   5.200
 5976SOL    HW118827   2.808   3.529   5.239
 5976SOL    HW218828   2.861   3.375   5.224
 5977SOL     OW18829   1.305   4.760   1.431
 5977SOL    HW118830   1.209   4.737   1.411
 5977SOL    HW218831   1.313   4.791   1.525
 5978SOL     OW18832   5.888   4.876   2.815
 5978SOL    HW118833   5.827   4.905   2.889
 5978SOL    HW218834   5.983   4.886   2.845
 5979SOL     OW18835   6.694   1.027   3.221
 5979SOL    HW118836   6.619   1.093   3.228
 5979SOL    HW218837   6.691   0.982   3.132
 5980SOL     OW18838   3.814   4.540   6.882
 5980SOL    HW118839   3.815   4.515   6.785
 5980SOL    HW218840   3.749   4.614   6.897
 5981SOL     OW18841   6.951   1.561   1.784
 5981SOL    HW118842   0.028   1.543   1.771
 5981SOL    HW218843   6.932   1.657   1.765
 5982SOL     OW18844   5.849   1.643   6.710
 5982SOL    HW118845   5.910   1.568   6.686
 5982SOL    HW218846   5.782   1.657   6.638
 5983SOL     OW18847   2.375   1.710   4.400
 5983SOL    HW118848   2.399   1.661   4.316
 5983SOL    HW218849   2.277   1.730   4.400
 5984SOL     OW18850   0.142   0.156   4.624
 5984SOL    HW118851   0.109   0.075   4.575
 5984SOL    HW218852   0.081   0.233   4.605
 5985SOL     OW18853   5.648   2.834   4.151
 5985SOL    HW118854   5.643   2.753   4.210
 5985SOL    HW218855   5.563   2.841   4.098
 5986SOL     OW18856   3.157   3.082   4.103
 5986SOL    HW118857   3.077   3.065   4.160
 5986SOL    HW218858   3.213   3.154   4.145
 5987SOL     OW18859   4.321   1.068   4.963
 5987SOL    HW118860   4.241   1.024   4.922
 5987SOL    HW218861   4.311   1.070   5.062
 5988SOL     OW18862   4.403   6.439   4.607
 5988SOL    HW118863   4.343   6.360   4.619
 5988SOL    HW218864   4.372   6.493   4.528
 5989SOL     OW18865   2.287   6.421   6.626
 5989SOL    HW118866   2.313   6.481   6.702
 5989SOL    HW218867   2.326   6.330   6.640
 5990SOL     OW18868   3.862   4.052   0.898
 5990SOL    HW118869   3.919   4.040   0.817
 5990SOL    HW218870   3.876   4.144   0.935
 5991SOL     OW18871   4.162   4.935   4.952
 5991SOL    HW118872   4.216   4.879   4.889
 5991SOL    HW218873   4.065   4.927   4.928
 5992SOL     OW18874   3.671   0.322   4.206
 5992SOL    HW118875   3.610   0.377   4.262
 5992SOL    HW218876   3.618   0.265   4.144
 5993SOL     OW18877   3.637   6.780   6.048
 5993SOL    HW118878   3.543   6.766   6.078
 5993SOL    HW218879   3.698   6.717   6.096
 5994SOL     OW18880   6.141   2.252   1.789
 5994SOL    HW118881   6.105   2.331   1.839
 5994SOL    HW218882   6.237   2.239   1.811
 5995SOL     OW18883   6.970   5.465   1.285
 5995SOL    HW118884   6.945   5.414   1.368
 5995SOL    HW218885   7.000   5.557   1.310
 5996SOL     OW18886   0.559   5.805   6.381
 5996SOL    HW118887   0.585   5.814   6.285
 5996SOL    HW218888   0.492   5.732   6.390
 5997SOL     OW18889   0.628   6.497   2.444
 5997SOL    HW118890   0.657   6.590   2.468
 5997SOL    HW218891   0.583   6.498   2.355
 5998SOL     OW18892   5.243   2.529   2.435
 5998SOL    HW118893   5.254   2.625   2.460
 5998SOL    HW218894   5.256   2.519   2.336
 5999SOL     OW18895   1.225   2.000   2.944
 5999SOL    HW118896   1.154   2.061   2.979
 5999SOL    HW218897   1.183   1.914   2.915
 6000SOL     OW18898   3.929   5.546   2.037
 6000SOL    HW118899   3.897   5.459   2.000
 6000SOL    HW218900   3.885   5.563   2.125
 6001SOL     OW18901   0.663   3.813   6.664
 6001SOL    HW118902   0.662   3.909   6.693
 6001SOL    HW218903   0.573   3.773   6.679
 6002SOL     OW18904   7.010   6.654   1.625
 6002SOL    HW118905   6.985   6.705   1.543
 6002SOL    HW218906   0.040   6.715   1.687
 6003SOL     OW18907   5.961   3.000   4.911
 6003SOL    HW118908   6.038   3.063   4.903
 6003SOL    HW218909   5.990   2.908   4.883
 6004SOL     OW18910   0.249   3.810   3.522
 6004SOL    HW118911   0.212   3.822   3.430
 6004SOL    HW218912   0.286   3.897   3.555
 6005SOL     OW18913   4.141   4.907   3.944
 6005SOL    HW118914   4.183   4.949   3.864
 6005SOL    HW218915   4.055   4.864   3.918
 6006SOL     OW18916   3.411   0.178   6.757
 6006SOL    HW118917   3.472   0.164   6.679
 6006SOL    HW218918   3.451   0.136   6.838
 6007SOL     OW18919   4.785   3.006   3.512
 6007SOL    HW118920   4.814   3.063   3.588
 6007SOL    HW218921   4.822   3.043   3.427
 6008SOL     OW18922   2.914   5.522   5.645
 6008SOL    HW118923   2.906   5.613   5.685
 6008SOL    HW218924   3.003   5.484   5.667
 6009SOL     OW18925   2.720   1.430   4.937
 6009SOL    HW118926   2.800   1.382   4.902
 6009SOL    HW218927   2.728   1.528   4.916
 6010SOL     OW18928   2.330   4.394   1.988
 6010SOL    HW118929   2.251   4.425   2.040
 6010SOL    HW218930   2.401   4.464   1.990
 6011SOL     OW18931   5.433   2.345   1.879
 6011SOL    HW118932   5.394   2.276   1.940
 6011SOL    HW218933   5.427   2.313   1.784
 6012SOL     OW18934   6.830   2.229   0.364
 6012SOL    HW118935   6.788   2.141   0.386
 6012SOL    HW218936   6.820   2.249   0.267
 6013SOL     OW18937   6.007   1.458   2.383
 6013SOL    HW118938   5.950   1.476   2.463
 6013SOL    HW218939   5.964   1.497   2.302
 6014SOL     OW18940   4.853   2.088   0.546
 6014SOL    HW118941   4.822   2.064   0.638
 6014SOL    HW218942   4.945   2.052   0.532
 6015SOL     OW18943   6.039   2.752   6.137
 6015SOL    HW118944   6.081   2.829   6.090
 6015SOL    HW218945   5.975   2.707   6.075
 6016SOL     OW18946   1.093   1.125   5.936
 6016SOL    HW118947   1.004   1.112   5.981
 6016SOL    HW218948   1.146   1.040   5.943
 6017SOL     OW18949   6.035   5.317   2.552
 6017SOL    HW118950   6.035   5.246   2.623
 6017SOL    HW218951   5.949   5.367   2.555
 6018SOL     OW18952   3.520   2.598   0.151
 6018SOL    HW118953   3.506   2.501   0.134
 6018SOL    HW218954   3.538   2.645   0.065
 6019SOL     OW18955   4.911   1.958   3.872
 6019SOL    HW118956   4.894   2.045   3.826
 6019SOL    HW218957   4.918   1.973   3.970
 6020SOL     OW18958   2.246   6.629   1.513
 6020SOL    HW118959   2.209   6.719   1.537
 6020SOL    HW218960   2.318   6.605   1.577
 6021SOL     OW18961   4.783   6.770   2.628
 6021SOL    HW118962   4.728   6.809   2.702
 6021SOL    HW218963   4.800   6.839   2.559
 6022SOL     OW18964   4.521   0.658   4.522
 6022SOL    HW118965   4.461   0.727   4.481
 6022SOL    HW218966   4.588   0.703   4.581
 6023SOL     OW18967   6.544   1.511   3.166
 6023SOL    HW118968   6.453   1.489   3.129
 6023SOL    HW218969   6.543   1.603   3.203
 6024SOL     OW18970   0.491   4.857   2.703
 6024SOL    HW118971   0.398   4.852   2.668
 6024SOL    HW218972   0.537   4.937   2.665
 6025SOL     OW18973   4.649   0.410   2.012
 6025SOL    HW118974   4.646   0.508   2.031
 6025SOL    HW218975   4.555   0.376   2.000
 6026SOL     OW18976   0.557   4.445   4.429
 6026SOL    HW118977   0.554   4.350   4.461
 6026SOL    HW218978   0.630   4.494   4.476
 6027SOL     OW18979   1.997   3.957   5.925
 6027SOL    HW118980   1.927   4.014   5.884
 6027SOL    HW218981   2.022   3.884   5.861
 6028SOL     OW18982   0.875   3.910   0.327
 6028SOL    HW118983   0.821   3.828   0.306
 6028SOL    HW218984   0.819   3.991   0.310
 6029SOL     OW18985   2.058   6.601   6.971
 6029SOL    HW118986   2.121   6.586   6.895
 6029SOL    HW218987   2.105   6.648   0.024
 6030SOL     OW18988   2.487   0.819   3.120
 6030SOL    HW118989   2.466   0.885   3.192
 6030SOL    HW218990   2.435   0.735   3.136
 6031SOL     OW18991   4.215   5.262   4.935
 6031SOL    HW118992   4.164   5.331   4.986
 6031SOL    HW218993   4.208   5.174   4.982
 6032SOL     OW18994   1.530   3.332   2.327
 6032SOL    HW118995   1.532   3.425   2.290
 6032SOL    HW218996   1.451   3.284   2.288
 6033SOL     OW18997   1.923   2.392   2.974
 6033SOL    HW118998   1.946   2.489   2.978
 6033SOL    HW218999   1.825   2.380   2.985
 6034SOL     OW19000   2.045   4.959   4.420
 6034SOL    HW119001   2.129   5.004   4.390
 6034SOL    HW219002   2.067   4.886   4.485
 6035SOL     OW19003   6.104   1.192   3.856
 6035SOL    HW119004   6.141   1.115   3.909
 6035SOL    HW219005   6.168   1.269   3.860
 6036SOL     OW19006   0.290   0.113   4.841
 6036SOL    HW119007   0.267   0.127   4.745
 6036SOL    HW219008   0.213   0.069   4.888
 6037SOL     OW19009   5.164   5.647   6.276
 6037SOL    HW119010   5.082   5.624   6.222
 6037SOL    HW219011   5.169   5.586   6.355
 6038SOL     OW19012   0.733   3.142   6.112
 6038SOL    HW119013   0.806   3.100   6.059
 6038SOL    HW219014   0.699   3.223   6.064
 6039SOL     OW19015   3.422   3.670   3.122
 6039SOL    HW119016   3.402   3.591   3.181
 6039SOL    HW219017   3.357   3.743   3.141
 6040SOL     OW19018   0.285   1.706   6.320
 6040SOL    HW119019   0.239   1.751   6.397
 6040SOL    HW219020   0.291   1.608   6.338
 6041SOL     OW19021   1.550   1.696   6.228
 6041SOL    HW119022   1.578   1.775   6.175
 6041SOL    HW219023   1.617   1.622   6.216
 6042SOL     OW19024   5.799   4.952   1.911
 6042SOL    HW119025   5.817   5.032   1.967
 6042SOL    HW219026   5.705   4.955   1.877
 6043SOL     OW19027   1.020   4.909   5.197
 6043SOL    HW119028   1.029   5.008   5.195
 6043SOL    HW219029   1.102   4.867   5.158
 6044SOL     OW19030   6.905   1.900   0.732
 6044SOL    HW119031   6.928   1.882   0.637
 6044SOL    HW219032   6.817   1.859   0.754
 6045SOL     OW19033   5.024   5.664   0.905
 6045SOL    HW119034   4.938   5.712   0.918
 6045SOL    HW219035   5.100   5.723   0.932
 6046SOL     OW19036   2.911   2.210   0.968
 6046SOL    HW119037   2.886   2.114   0.979
 6046SOL    HW219038   2.842   2.257   0.912
 6047SOL     OW19039   6.661   1.263   3.700
 6047SOL    HW119040   6.600   1.305   3.633
 6047SOL    HW219041   6.666   1.164   3.682
 6048SOL     OW19042   4.513   6.813   3.375
 6048SOL    HW119043   4.428   6.806   3.322
 6048SOL    HW219044   4.517   6.902   3.421
 6049SOL     OW19045   5.181   3.226   6.384
 6049SOL    HW119046   5.245   3.254   6.456
 6049SOL    HW219047   5.119   3.301   6.364
 6050SOL     OW19048   3.936   4.227   5.938
 6050SOL    HW119049   3.946   4.325   5.958
 6050SOL    HW219050   3.846   4.196   5.968
 6051SOL     OW19051   2.256   2.328   3.016
 6051SOL    HW119052   2.350   2.330   2.982
 6051SOL    HW219053   2.194   2.312   2.939
 6052SOL     OW19054   6.454   0.216   0.455
 6052SOL    HW119055   6.526   0.243   0.520
 6052SOL    HW219056   6.495   0.158   0.384
 6053SOL     OW19057   3.239   0.395   6.747
 6053SOL    HW119058   3.268   0.435   6.834
 6053SOL    HW219059   3.280   0.304   6.737
 6054SOL     OW19060   2.369   3.756   1.058
 6054SOL    HW119061   2.439   3.827   1.044
 6054SOL    HW219062   2.377   3.687   0.987
 6055SOL     OW19063   5.456   0.711   5.548
 6055SOL    HW119064   5.391   0.637   5.539
 6055SOL    HW219065   5.493   0.712   5.641
 6056SOL     OW19066   4.432   1.762   5.345
 6056SOL    HW119067   4.373   1.683   5.363
 6056SOL    HW219068   4.393   1.817   5.271
 6057SOL     OW19069   4.353   1.901   4.723
 6057SOL    HW119070   4.410   1.818   4.724
 6057SOL    HW219071   4.402   1.975   4.769
 6058SOL     OW19072   5.771   2.895   3.012
 6058SOL    HW119073   5.797   2.912   3.107
 6058SOL    HW219074   5.734   2.803   3.004
 6059SOL     OW19075   4.640   5.509   5.751
 6059SOL    HW119076   4.608   5.450   5.825
 6059SOL    HW219077   4.574   5.506   5.676
 6060SOL     OW19078   3.635   3.748   5.840
 6060SOL    HW119079   3.732   3.727   5.827
 6060SOL    HW219080   3.595   3.681   5.903
 6061SOL     OW19081   3.495   2.785   0.687
 6061SOL    HW119082   3.407   2.832   0.677
 6061SOL    HW219083   3.527   2.754   0.598
 6062SOL     OW19084   2.446   1.517   4.577
 6062SOL    HW119085   2.546   1.520   4.579
 6062SOL    HW219086   2.411   1.594   4.522
 6063SOL     OW19087   3.860   1.075   6.404
 6063SOL    HW119088   3.953   1.039   6.401
 6063SOL    HW219089   3.799   1.014   6.355
 6064SOL     OW19090   2.336   5.609   2.568
 6064SOL    HW119091   2.237   5.614   2.561
 6064SOL    HW219092   2.361   5.531   2.626
 6065SOL     OW19093   6.136   6.515   0.897
 6065SOL    HW119094   6.076   6.560   0.963
 6065SOL    HW219095   6.143   6.418   0.919
 6066SOL     OW19096   4.599   1.459   1.165
 6066SOL    HW119097   4.565   1.549   1.193
 6066SOL    HW219098   4.633   1.410   1.245
 6067SOL     OW19099   6.712   1.868   6.554
 6067SOL    HW119100   6.642   1.937   6.536
 6067SOL    HW219101   6.764   1.851   6.470
 6068SOL     OW19102   5.790   3.383   4.944
 6068SOL    HW119103   5.850   3.366   4.865
 6068SOL    HW219104   5.818   3.325   5.020
 6069SOL     OW19105   6.459   3.728   6.063
 6069SOL    HW119106   6.431   3.818   6.029
 6069SOL    HW219107   6.557   3.716   6.047
 6070SOL     OW19108   2.922   1.765   6.345
 6070SOL    HW119109   2.932   1.682   6.399
 6070SOL    HW219110   2.855   1.750   6.272
 6071SOL     OW19111   4.555   6.108   6.105
 6071SOL    HW119112   4.555   6.062   6.193
 6071SOL    HW219113   4.594   6.200   6.115
 6072SOL     OW19114   0.981   1.082   1.835
 6072SOL    HW119115   1.038   1.038   1.904
 6072SOL    HW219116   1.040   1.126   1.767
 6073SOL     OW19117   6.413   3.389   0.406
 6073SOL    HW119118   6.359   3.307   0.422
 6073SOL    HW219119   6.362   3.469   0.439
 6074SOL     OW19120   1.297   6.695   4.497
 6074SOL    HW119121   1.214   6.650   4.464
 6074SOL    HW219122   1.350   6.630   4.552
 6075SOL     OW19123   6.601   3.175   6.636
 6075SOL    HW119124   6.545   3.255   6.653
 6075SOL    HW219125   6.638   3.141   6.723
 6076SOL     OW19126   2.434   6.943   5.204
 6076SOL    HW119127   2.459   6.937   5.300
 6076SOL    HW219128   2.381   0.005   5.188
 6077SOL     OW19129   4.751   5.781   2.589
 6077SOL    HW119130   4.803   5.866   2.579
 6077SOL    HW219131   4.739   5.739   2.500
 6078SOL     OW19132   3.638   5.127   2.356
 6078SOL    HW119133   3.698   5.202   2.385
 6078SOL    HW219134   3.650   5.049   2.416
 6079SOL     OW19135   3.237   3.659   6.601
 6079SOL    HW119136   3.288   3.663   6.515
 6079SOL    HW219137   3.268   3.580   6.655
 6080SOL     OW19138   0.141   1.585   0.978
 6080SOL    HW119139   0.135   1.670   1.031
 6080SOL    HW219140   0.183   1.514   1.035
 6081SOL     OW19141   6.431   3.896   4.207
 6081SOL    HW119142   6.524   3.903   4.171
 6081SOL    HW219143   6.383   3.822   4.161
 6082SOL     OW19144   3.528   0.811   3.413
 6082SOL    HW119145   3.525   0.726   3.465
 6082SOL    HW219146   3.511   0.792   3.316
 6083SOL     OW19147   0.887   5.533   6.033
 6083SOL    HW119148   0.948   5.528   6.112
 6083SOL    HW219149   0.797   5.566   6.063
 6084SOL     OW19150   0.038   5.449   4.375
 6084SOL    HW119151   0.104   5.518   4.343
 6084SOL    HW219152   0.002   5.399   4.297
 6085SOL     OW19153   6.689   3.931   6.984
 6085SOL    HW119154   6.651   3.880   6.907
 6085SOL    HW219155   6.760   3.993   6.952
 6086SOL     OW19156   3.660   1.356   4.576
 6086SOL    HW119157   3.655   1.312   4.487
 6086SOL    HW219158   3.693   1.450   4.566
 6087SOL     OW19159   5.131   0.002   6.749
 6087SOL    HW119160   5.158   0.064   6.823
 6087SOL    HW219161   5.211   6.998   6.696
 6088SOL     OW19162   0.084   6.149   4.385
 6088SOL    HW119163   0.159   6.158   4.320
 6088SOL    HW219164   0.116   6.104   4.468
 6089SOL     OW19165   0.462   3.676   1.650
 6089SOL    HW119166   0.517   3.755   1.678
 6089SOL    HW219167   0.403   3.702   1.574
 6090SOL     OW19168   0.303   6.252   6.272
 6090SOL    HW119169   0.299   6.206   6.183
 6090SOL    HW219170   0.242   6.206   6.336
 6091SOL     OW19171   0.702   1.396   2.341
 6091SOL    HW119172   0.604   1.414   2.336
 6091SOL    HW219173   0.730   1.337   2.265
 6092SOL     OW19174   2.970   0.691   3.095
 6092SOL    HW119175   2.956   0.664   3.000
 6092SOL    HW219176   3.066   0.714   3.109
 6093SOL     OW19177   1.665   2.760   2.350
 6093SOL    HW119178   1.684   2.663   2.330
 6093SOL    HW219179   1.728   2.792   2.421
 6094SOL     OW19180   2.255   1.542   1.708
 6094SOL    HW119181   2.167   1.578   1.677
 6094SOL    HW219182   2.259   1.444   1.687
 6095SOL     OW19183   4.783   3.068   6.763
 6095SOL    HW119184   4.881   3.069   6.781
 6095SOL    HW219185   4.751   3.162   6.745
 6096SOL     OW19186   5.937   0.912   3.845
 6096SOL    HW119187   5.897   0.987   3.793
 6096SOL    HW219188   6.033   0.901   3.820
 6097SOL     OW19189   2.432   0.562   3.182
 6097SOL    HW119190   2.336   0.534   3.185
 6097SOL    HW219191   2.482   0.504   3.117
 6098SOL     OW19192   1.974   2.188   5.574
 6098SOL    HW119193   1.935   2.214   5.663
 6098SOL    HW219194   2.073   2.186   5.580
 6099SOL     OW19195   5.472   5.859   5.489
 6099SOL    HW119196   5.454   5.865   5.587
 6099SOL    HW219197   5.453   5.947   5.446
 6100SOL     OW19198   5.873   3.400   6.262
 6100SOL    HW119199   5.805   3.360   6.322
 6100SOL    HW219200   5.829   3.434   6.179
 6101SOL     OW19201   6.822   1.845   5.668
 6101SOL    HW119202   6.767   1.806   5.594
 6101SOL    HW219203   6.787   1.937   5.689
 6102SOL     OW19204   3.322   1.184   4.364
 6102SOL    HW119205   3.272   1.235   4.293
 6102SOL    HW219206   3.313   1.231   4.451
 6103SOL     OW19207   0.385   0.484   3.838
 6103SOL    HW119208   0.434   0.500   3.752
 6103SOL    HW219209   0.307   0.546   3.843
 6104SOL     OW19210   6.308   2.063   6.470
 6104SOL    HW119211   6.221   2.046   6.422
 6104SOL    HW219212   6.294   2.133   6.540
 6105SOL     OW19213   3.381   6.372   5.424
 6105SOL    HW119214   3.443   6.332   5.492
 6105SOL    HW219215   3.353   6.301   5.358
 6106SOL     OW19216   2.478   4.905   6.496
 6106SOL    HW119217   2.404   4.970   6.513
 6106SOL    HW219218   2.440   4.820   6.460
 6107SOL     OW19219   2.198   5.016   4.093
 6107SOL    HW119220   2.140   4.937   4.113
 6107SOL    HW219221   2.142   5.099   4.096
 6108SOL     OW19222   0.771   2.026   3.209
 6108SOL    HW119223   0.815   1.936   3.201
 6108SOL    HW219224   0.713   2.042   3.130
 6109SOL     OW19225   5.258   2.844   6.836
 6109SOL    HW119226   5.281   2.883   6.747
 6109SOL    HW219227   5.176   2.889   6.871
 6110SOL     OW19228   2.729   2.587   6.775
 6110SOL    HW119229   2.656   2.648   6.743
 6110SOL    HW219230   2.692   2.523   6.841
 6111SOL     OW19231   1.338   4.989   2.593
 6111SOL    HW119232   1.365   4.895   2.608
 6111SOL    HW219233   1.366   5.019   2.502
 6112SOL     OW19234   1.706   2.159   2.774
 6112SOL    HW119235   1.622   2.185   2.823
 6112SOL    HW219236   1.767   2.111   2.837
 6113SOL     OW19237   0.662   1.062   6.166
 6113SOL    HW119238   0.696   1.057   6.260
 6113SOL    HW219239   0.565   1.041   6.165
 6114SOL     OW19240   5.008   5.090   0.539
 6114SOL    HW119241   5.077   5.089   0.612
 6114SOL    HW219242   4.961   5.178   0.538
 6115SOL     OW19243   4.825   5.170   3.399
 6115SOL    HW119244   4.736   5.126   3.412
 6115SOL    HW219245   4.855   5.211   3.485
 6116SOL     OW19246   3.193   1.386   1.503
 6116SOL    HW119247   3.169   1.482   1.491
 6116SOL    HW219248   3.118   1.338   1.549
 6117SOL     OW19249   6.211   0.182   4.837
 6117SOL    HW119250   6.157   0.165   4.919
 6117SOL    HW219251   6.267   0.264   4.851
 6118SOL     OW19252   0.079   2.132   1.840
 6118SOL    HW119253   0.159   2.072   1.840
 6118SOL    HW219254   0.061   2.164   1.934
 6119SOL     OW19255   0.115   4.289   4.707
 6119SOL    HW119256   0.174   4.342   4.767
 6119SOL    HW219257   0.162   4.273   4.620
 6120SOL     OW19258   3.113   6.904   3.989
 6120SOL    HW119259   3.023   6.861   3.983
 6120SOL    HW219260   3.105   7.001   3.970
 6121SOL     OW19261   6.983   2.788   4.658
 6121SOL    HW119262   6.929   2.838   4.726
 6121SOL    HW219263   6.921   2.738   4.597
 6122SOL     OW19264   3.706   6.458   2.696
 6122SOL    HW119265   3.760   6.542   2.700
 6122SOL    HW219266   3.754   6.385   2.745
 6123SOL     OW19267   0.145   0.900   1.622
 6123SOL    HW119268   0.126   0.819   1.567
 6123SOL    HW219269   0.145   0.876   1.719
 6124SOL     OW19270   3.699   6.633   5.176
 6124SOL    HW119271   3.693   6.726   5.141
 6124SOL    HW219272   3.792   6.615   5.208
 6125SOL     OW19273   2.145   5.579   1.147
 6125SOL    HW119274   2.235   5.596   1.188
 6125SOL    HW219275   2.097   5.510   1.201
 6126SOL     OW19276   5.288   5.821   4.321
 6126SOL    HW119277   5.287   5.887   4.246
 6126SOL    HW219278   5.194   5.803   4.351
 6127SOL     OW19279   2.333   6.860   1.188
 6127SOL    HW119280   2.416   6.842   1.241
 6127SOL    HW219281   2.306   6.778   1.139
 6128SOL     OW19282   6.877   3.115   0.600
 6128SOL    HW119283   6.811   3.141   0.530
 6128SOL    HW219284   6.849   3.028   0.641
 6129SOL     OW19285   6.503   3.864   2.929
 6129SOL    HW119286   6.414   3.820   2.944
 6129SOL    HW219287   6.574   3.794   2.920
 6130SOL     OW19288   6.744   3.438   4.827
 6130SOL    HW119289   6.708   3.371   4.762
 6130SOL    HW219290   6.762   3.525   4.780
 6131SOL     OW19291   0.199   1.219   5.551
 6131SOL    HW119292   0.132   1.233   5.479
 6131SOL    HW219293   0.291   1.226   5.513
 6132SOL     OW19294   3.644   0.872   1.193
 6132SOL    HW119295   3.590   0.848   1.273
 6132SOL    HW219296   3.594   0.940   1.138
 6133SOL     OW19297   0.608   3.081   2.346
 6133SOL    HW119298   0.648   3.031   2.269
 6133SOL    HW219299   0.535   3.141   2.312
 6134SOL     OW19300   3.880   3.235   6.346
 6134SOL    HW119301   3.852   3.189   6.262
 6134SOL    HW219302   3.887   3.334   6.330
 6135SOL     OW19303   6.632   0.238   2.200
 6135SOL    HW119304   6.673   0.238   2.292
 6135SOL    HW219305   6.703   0.219   2.132
 6136SOL     OW19306   0.548   0.994   2.597
 6136SOL    HW119307   0.513   0.900   2.601
 6136SOL    HW219308   0.646   0.994   2.615
 6137SOL     OW19309   3.607   1.011   6.040
 6137SOL    HW119310   3.655   1.091   6.003
 6137SOL    HW219311   3.555   0.967   5.967
 6138SOL     OW19312   3.254   6.791   2.714
 6138SOL    HW119313   3.176   6.792   2.776
 6138SOL    HW219314   3.323   6.727   2.747
 6139SOL     OW19315   1.807   3.316   5.417
 6139SOL    HW119316   1.773   3.225   5.393
 6139SOL    HW219317   1.897   3.330   5.375
 6140SOL     OW19318   0.450   6.914   1.970
 6140SOL    HW119319   0.395   6.965   2.037
 6140SOL    HW219320   0.517   6.858   2.019
 6141SOL     OW19321   6.227   6.556   4.536
 6141SOL    HW119322   6.308   6.614   4.543
 6141SOL    HW219323   6.177   6.556   4.622
 6142SOL     OW19324   0.117   4.945   0.802
 6142SOL    HW119325   0.136   4.848   0.816
 6142SOL    HW219326   0.021   4.956   0.777
 6143SOL     OW19327   6.065   4.663   6.347
 6143SOL    HW119328   6.061   4.569   6.314
 6143SOL    HW219329   6.110   4.721   6.278
 6144SOL     OW19330   6.849   4.333   2.783
 6144SOL    HW119331   6.848   4.234   2.799
 6144SOL    HW219332   6.923   4.356   2.720
 6145SOL     OW19333   4.828   5.769   3.707
 6145SOL    HW119334   4.761   5.754   3.779
 6145SOL    HW219335   4.859   5.864   3.710
 6146SOL     OW19336   4.486   1.368   3.664
 6146SOL    HW119337   4.548   1.290   3.654
 6146SOL    HW219338   4.498   1.431   3.588
 6147SOL     OW19339   1.711   4.897   2.929
 6147SOL    HW119340   1.727   4.853   3.017
 6147SOL    HW219341   1.759   4.847   2.857
 6148SOL     OW19342   6.988   6.649   4.420
 6148SOL    HW119343   6.961   6.554   4.440
 6148SOL    HW219344   6.943   6.680   4.336
 6149SOL     OW19345   3.884   4.856   3.575
 6149SOL    HW119346   3.790   4.846   3.543
 6149SOL    HW219347   3.946   4.866   3.497
 6150SOL     OW19348   4.608   5.245   6.832
 6150SOL    HW119349   4.588   5.148   6.838
 6150SOL    HW219350   4.561   5.294   6.905
 6151SOL     OW19351   5.850   3.189   5.157
 6151SOL    HW119352   5.931   3.138   5.130
 6151SOL    HW219353   5.871   3.246   5.236
 6152SOL     OW19354   5.401   5.011   5.964
 6152SOL    HW119355   5.402   4.965   5.875
 6152SOL    HW219356   5.491   5.002   6.006
 6153SOL     OW19357   4.786   4.038   1.397
 6153SOL    HW119358   4.865   3.998   1.444
 6153SOL    HW219359   4.703   3.990   1.423
 6154SOL     OW19360   5.362   1.680   2.037
 6154SOL    HW119361   5.371   1.591   2.082
 6154SOL    HW219362   5.283   1.679   1.976
 6155SOL     OW19363   1.300   3.310   4.409
 6155SOL    HW119364   1.277   3.406   4.423
 6155SOL    HW219365   1.389   3.302   4.365
 6156SOL     OW19366   4.651   6.216   2.677
 6156SOL    HW119367   4.715   6.291   2.693
 6156SOL    HW219368   4.629   6.210   2.580
 6157SOL     OW19369   1.495   2.558   3.558
 6157SOL    HW119370   1.488   2.554   3.458
 6157SOL    HW219371   1.588   2.582   3.584
 6158SOL     OW19372   4.667   0.739   6.659
 6158SOL    HW119373   4.600   0.810   6.637
 6158SOL    HW219374   4.698   0.694   6.575
 6159SOL     OW19375   5.113   1.613   0.370
 6159SOL    HW119376   5.104   1.573   0.461
 6159SOL    HW219377   5.183   1.685   0.373
 6160SOL     OW19378   5.406   5.734   0.686
 6160SOL    HW119379   5.386   5.719   0.590
 6160SOL    HW219380   5.424   5.647   0.732
 6161SOL     OW19381   6.117   1.619   5.506
 6161SOL    HW119382   6.039   1.681   5.501
 6161SOL    HW219383   6.084   1.524   5.506
 6162SOL     OW19384   0.892   4.952   4.692
 6162SOL    HW119385   0.864   5.023   4.757
 6162SOL    HW219386   0.811   4.918   4.644
 6163SOL     OW19387   5.569   5.307   1.173
 6163SOL    HW119388   5.585   5.394   1.219
 6163SOL    HW219389   5.541   5.238   1.239
 6164SOL     OW19390   2.261   2.480   1.831
 6164SOL    HW119391   2.266   2.380   1.828
 6164SOL    HW219392   2.346   2.517   1.867
 6165SOL     OW19393   3.725   5.935   0.231
 6165SOL    HW119394   3.769   5.917   0.319
 6165SOL    HW219395   3.729   6.033   0.212
 6166SOL     OW19396   2.817   0.916   5.851
 6166SOL    HW119397   2.852   0.914   5.757
 6166SOL    HW219398   2.839   1.003   5.894
 6167SOL     OW19399   0.968   4.667   2.417
 6167SOL    HW119400   1.036   4.735   2.444
 6167SOL    HW219401   0.910   4.644   2.496
 6168SOL     OW19402   0.575   3.574   1.328
 6168SOL    HW119403   0.566   3.561   1.427
 6168SOL    HW219404   0.607   3.668   1.310
 6169SOL     OW19405   1.791   3.038   1.652
 6169SOL    HW119406   1.784   3.137   1.662
 6169SOL    HW219407   1.887   3.010   1.660
 6170SOL     OW19408   0.438   3.472   5.316
 6170SOL    HW119409   0.457   3.408   5.242
 6170SOL    HW219410   0.427   3.422   5.402
 6171SOL     OW19411   0.641   1.074   0.341
 6171SOL    HW119412   0.619   1.159   0.293
 6171SOL    HW219413   0.629   1.087   0.439
 6172SOL     OW19414   0.895   2.425   3.060
 6172SOL    HW119415   0.847   2.379   3.135
 6172SOL    HW219416   0.831   2.478   3.006
 6173SOL     OW19417   6.358   5.697   2.941
 6173SOL    HW119418   6.312   5.756   3.007
 6173SOL    HW219419   6.413   5.752   2.879
 6174SOL     OW19420   5.008   5.053   3.035
 6174SOL    HW119421   4.994   5.111   2.955
 6174SOL    HW219422   4.987   5.105   3.118
 6175SOL     OW19423   3.725   0.297   4.711
 6175SOL    HW119424   3.786   0.217   4.710
 6175SOL    HW219425   3.657   0.287   4.639
 6176SOL     OW19426   4.420   3.502   5.322
 6176SOL    HW119427   4.484   3.509   5.246
 6176SOL    HW219428   4.369   3.588   5.331
 6177SOL     OW19429   6.088   1.972   1.757
 6177SOL    HW119430   6.164   1.907   1.757
 6177SOL    HW219431   6.124   2.065   1.756
 6178SOL     OW19432   5.011   3.638   1.873
 6178SOL    HW119433   4.975   3.546   1.890
 6178SOL    HW219434   4.950   3.687   1.812
 6179SOL     OW19435   6.739   4.968   1.446
 6179SOL    HW119436   6.672   5.030   1.406
 6179SOL    HW219437   6.790   5.014   1.518
 6180SOL     OW19438   3.301   4.601   0.884
 6180SOL    HW119439   3.336   4.526   0.940
 6180SOL    HW219440   3.227   4.648   0.932
 6181SOL     OW19441   5.207   5.746   5.907
 6181SOL    HW119442   5.119   5.781   5.939
 6181SOL    HW219443   5.281   5.797   5.949
 6182SOL     OW19444   3.738   3.026   0.176
 6182SOL    HW119445   3.738   3.006   0.078
 6182SOL    HW219446   3.802   3.101   0.195
 6183SOL     OW19447   1.631   2.359   1.130
 6183SOL    HW119448   1.532   2.352   1.115
 6183SOL    HW219449   1.671   2.268   1.131
 6184SOL     OW19450   3.095   0.704   5.731
 6184SOL    HW119451   3.051   0.645   5.799
 6184SOL    HW219452   3.034   0.781   5.711
 6185SOL     OW19453   2.919   3.148   5.703
 6185SOL    HW119454   3.013   3.180   5.690
 6185SOL    HW219455   2.919   3.066   5.759
 6186SOL     OW19456   6.952   1.805   1.696
 6186SOL    HW119457   6.887   1.877   1.722
 6186SOL    HW219458   6.977   1.815   1.600
 6187SOL     OW19459   4.683   2.341   5.039
 6187SOL    HW119460   4.733   2.311   4.958
 6187SOL    HW219461   4.688   2.270   5.109
 6188SOL     OW19462   2.102   1.416   5.287
 6188SOL    HW119463   2.098   1.498   5.344
 6188SOL    HW219464   2.103   1.335   5.344
 6189SOL     OW19465   3.860   5.580   2.326
 6189SOL    HW119466   3.949   5.595   2.370
 6189SOL    HW219467   3.808   5.512   2.377
 6190SOL     OW19468   6.579   3.478   5.859
 6190SOL    HW119469   6.515   3.552   5.840
 6190SOL    HW219470   6.531   3.390   5.849
 6191SOL     OW19471   2.405   3.019   5.933
 6191SOL    HW119472   2.450   3.088   5.875
 6191SOL    HW219473   2.327   2.980   5.884
 6192SOL     OW19474   2.319   1.339   6.705
 6192SOL    HW119475   2.245   1.333   6.639
 6192SOL    HW219476   2.401   1.375   6.661
 6193SOL     OW19477   5.296   4.990   0.310
 6193SOL    HW119478   5.335   4.967   0.221
 6193SOL    HW219479   5.333   4.928   0.380
 6194SOL     OW19480   6.505   0.948   6.799
 6194SOL    HW119481   6.453   0.972   6.881
 6194SOL    HW219482   6.565   0.870   6.819
 6195SOL     OW19483   5.596   0.349   4.943
 6195SOL    HW119484   5.605   0.286   4.866
 6195SOL    HW219485   5.627   0.440   4.916
 6196SOL     OW19486   5.157   4.533   2.569
 6196SOL    HW119487   5.218   4.480   2.628
 6196SOL    HW219488   5.209   4.601   2.518
 6197SOL     OW19489   2.684   5.213   2.137
 6197SOL    HW119490   2.675   5.197   2.039
 6197SOL    HW219491   2.594   5.226   2.178
 6198SOL     OW19492   5.537   6.332   6.172
 6198SOL    HW119493   5.633   6.356   6.157
 6198SOL    HW219494   5.486   6.414   6.197
 6199SOL     OW19495   0.519   0.370   0.606
 6199SOL    HW119496   0.564   0.436   0.545
 6199SOL    HW219497   0.436   0.411   0.643
 6200SOL     OW19498   1.333   0.941   2.791
 6200SOL    HW119499   1.333   1.035   2.755
 6200SOL    HW219500   1.423   0.920   2.829
 6201SOL     OW19501   6.941   4.546   3.804
 6201SOL    HW119502   0.011   4.510   3.820
 6201SOL    HW219503   6.880   4.520   3.879
 6202SOL     OW19504   5.913   1.914   3.555
 6202SOL    HW119505   5.988   1.886   3.616
 6202SOL    HW219506   5.866   1.833   3.522
 6203SOL     OW19507   6.652   5.529   1.808
 6203SOL    HW119508   6.635   5.543   1.905
 6203SOL    HW219509   6.743   5.491   1.794
 6204SOL     OW19510   0.969   5.985   4.778
 6204SOL    HW119511   0.996   5.987   4.874
 6204SOL    HW219512   1.050   5.989   4.720
 6205SOL     OW19513   4.872   4.798   2.244
 6205SOL    HW119514   4.842   4.784   2.339
 6205SOL    HW219515   4.800   4.770   2.181
 6206SOL     OW19516   4.791   1.823   3.607
 6206SOL    HW119517   4.839   1.854   3.690
 6206SOL    HW219518   4.742   1.739   3.627
 6207SOL     OW19519   1.632   5.771   4.384
 6207SOL    HW119520   1.618   5.732   4.293
 6207SOL    HW219521   1.690   5.852   4.378
 6208SOL     OW19522   3.403   3.049   6.173
 6208SOL    HW119523   3.437   3.122   6.233
 6208SOL    HW219524   3.346   3.089   6.101
 6209SOL     OW19525   3.585   4.126   1.055
 6209SOL    HW119526   3.677   4.163   1.046
 6209SOL    HW219527   3.554   4.138   1.150
 6210SOL     OW19528   4.901   3.568   3.017
 6210SOL    HW119529   4.802   3.572   3.025
 6210SOL    HW219530   4.938   3.510   3.090
 6211SOL     OW19531   4.555   5.612   5.099
 6211SOL    HW119532   4.484   5.622   5.029
 6211SOL    HW219533   4.578   5.515   5.110
 6212SOL     OW19534   2.502   5.008   4.938
 6212SOL    HW119535   2.454   4.938   4.884
 6212SOL    HW219536   2.460   5.014   5.029
 6213SOL     OW19537   4.821   6.593   0.096
 6213SOL    HW119538   4.773   6.517   0.139
 6213SOL    HW219539   4.902   6.558   0.048
 6214SOL     OW19540   5.804   5.694   5.194
 6214SOL    HW119541   5.888   5.670   5.242
 6214SOL    HW219542   5.731   5.631   5.222
 6215SOL     OW19543   4.922   3.325   6.168
 6215SOL    HW119544   4.850   3.393   6.154
 6215SOL    HW219545   5.000   3.367   6.214
 6216SOL     OW19546   5.818   2.935   3.317
 6216SOL    HW119547   5.749   2.997   3.355
 6216SOL    HW219548   5.827   2.855   3.376
 6217SOL     OW19549   1.001   5.167   2.804
 6217SOL    HW119550   1.005   5.072   2.772
 6217SOL    HW219551   0.937   5.219   2.748
 6218SOL     OW19552   4.994   5.966   0.033
 6218SOL    HW119553   5.041   6.050   0.057
 6218SOL    HW219554   4.935   5.982   6.975
 6219SOL     OW19555   1.121   1.006   5.041
 6219SOL    HW119556   1.054   1.079   5.031
 6219SOL    HW219557   1.191   1.014   4.970
 6220SOL     OW19558   3.533   0.428   0.547
 6220SOL    HW119559   3.617   0.428   0.493
 6220SOL    HW219560   3.551   0.470   0.636
 6221SOL     OW19561   6.746   6.429   6.696
 6221SOL    HW119562   6.830   6.391   6.733
 6221SOL    HW219563   6.768   6.496   6.625
 6222SOL     OW19564   5.819   0.984   1.905
 6222SOL    HW119565   5.916   0.971   1.927
 6222SOL    HW219566   5.776   1.042   1.974
 6223SOL     OW19567   0.454   5.271   3.997
 6223SOL    HW119568   0.491   5.259   4.089
 6223SOL    HW219569   0.527   5.261   3.929
 6224SOL     OW19570   4.112   1.190   6.517
 6224SOL    HW119571   4.152   1.137   6.442
 6224SOL    HW219572   4.034   1.139   6.556
 6225SOL     OW19573   3.993   0.677   6.912
 6225SOL    HW119574   3.962   0.763   6.871
 6225SOL    HW219575   4.091   0.682   6.929
 6226SOL     OW19576   1.363   1.527   4.154
 6226SOL    HW119577   1.363   1.536   4.054
 6226SOL    HW219578   1.457   1.519   4.187
 6227SOL     OW19579   3.184   4.495   5.477
 6227SOL    HW119580   3.177   4.585   5.433
 6227SOL    HW219581   3.103   4.441   5.455
 6228SOL     OW19582   2.122   2.412   3.499
 6228SOL    HW119583   2.082   2.501   3.478
 6228SOL    HW219584   2.053   2.353   3.541
 6229SOL     OW19585   0.058   3.459   4.833
 6229SOL    HW119586   0.047   3.559   4.834
 6229SOL    HW219587   0.002   3.421   4.759
 6230SOL     OW19588   0.212   1.634   2.513
 6230SOL    HW119589   0.275   1.710   2.528
 6230SOL    HW219590   0.176   1.638   2.420
 6231SOL     OW19591   5.445   4.420   0.681
 6231SOL    HW119592   5.443   4.496   0.745
 6231SOL    HW219593   5.480   4.452   0.593
 6232SOL     OW19594   5.454   0.663   0.386
 6232SOL    HW119595   5.511   0.734   0.428
 6232SOL    HW219596   5.357   0.687   0.397
 6233SOL     OW19597   0.638   3.682   2.326
 6233SOL    HW119598   0.697   3.615   2.371
 6233SOL    HW219599   0.561   3.635   2.283
 6234SOL     OW19600   0.330   6.817   4.491
 6234SOL    HW119601   0.313   6.731   4.442
 6234SOL    HW219602   0.376   6.882   4.430
 6235SOL     OW19603   6.836   0.782   2.467
 6235SOL    HW119604   6.880   0.694   2.453
 6235SOL    HW219605   6.815   0.794   2.564
 6236SOL     OW19606   0.782   4.419   0.953
 6236SOL    HW119607   0.789   4.348   1.024
 6236SOL    HW219608   0.813   4.506   0.989
 6237SOL     OW19609   3.642   6.889   0.666
 6237SOL    HW119610   3.631   6.988   0.660
 6237SOL    HW219611   3.699   6.867   0.745
 6238SOL     OW19612   3.041   6.514   4.056
 6238SOL    HW119613   2.960   6.546   4.106
 6238SOL    HW219614   3.045   6.414   4.059
 6239SOL     OW19615   4.627   0.009   2.468
 6239SOL    HW119616   4.540   7.006   2.512
 6239SOL    HW219617   4.680   0.066   2.530
 6240SOL     OW19618   3.127   3.119   4.748
 6240SOL    HW119619   3.129   3.072   4.837
 6240SOL    HW219620   3.164   3.058   4.678
 6241SOL     OW19621   3.257   6.670   3.974
 6241SOL    HW119622   3.191   6.597   3.989
 6241SOL    HW219623   3.212   6.759   3.983
 6242SOL     OW19624   3.053   2.132   2.720
 6242SOL    HW119625   3.135   2.138   2.663
 6242SOL    HW219626   3.075   2.164   2.812
 6243SOL     OW19627   5.957   0.969   6.340
 6243SOL    HW119628   5.922   0.973   6.246
 6243SOL    HW219629   6.053   0.995   6.341
 6244SOL     OW19630   4.455   4.727   3.039
 6244SOL    HW119631   4.530   4.777   2.996
 6244SOL    HW219632   4.447   4.636   2.998
 6245SOL     OW19633   1.410   4.745   2.588
 6245SOL    HW119634   1.495   4.772   2.634
 6245SOL    HW219635   1.426   4.661   2.536
 6246SOL     OW19636   1.224   6.941   4.610
 6246SOL    HW119637   1.131   6.931   4.647
 6246SOL    HW219638   1.246   6.862   4.553
 6247SOL     OW19639   7.005   5.255   3.798
 6247SOL    HW119640   6.942   5.197   3.746
 6247SOL    HW219641   0.014   5.206   3.880
 6248SOL     OW19642   4.223   2.607   6.556
 6248SOL    HW119643   4.223   2.553   6.640
 6248SOL    HW219644   4.153   2.571   6.493
 6249SOL     OW19645   0.085   3.002   1.435
 6249SOL    HW119646   0.100   2.925   1.497
 6249SOL    HW219647   7.012   3.001   1.402
 6250SOL     OW19648   6.900   6.915   0.806
 6250SOL    HW119649   6.960   6.862   0.867
 6250SOL    HW219650   6.805   6.885   0.818
 6251SOL     OW19651   2.926   6.863   4.376
 6251SOL    HW119652   2.867   6.786   4.353
 6251SOL    HW219653   2.955   6.856   4.472
 6252SOL     OW19654   2.959   5.617   6.887
 6252SOL    HW119655   2.946   5.537   6.946
 6252SOL    HW219656   2.969   5.587   6.792
 6253SOL     OW19657   3.219   4.869   4.339
 6253SOL    HW119658   3.150   4.816   4.290
 6253SOL    HW219659   3.197   4.869   4.437
 6254SOL     OW19660   7.015   5.509   0.783
 6254SOL    HW119661   7.004   5.441   0.856
 6254SOL    HW219662   6.972   5.475   0.699
 6255SOL     OW19663   1.415   1.848   1.352
 6255SOL    HW119664   1.399   1.902   1.269
 6255SOL    HW219665   1.438   1.754   1.327
 6256SOL     OW19666   4.937   5.700   2.323
 6256SOL    HW119667   5.010   5.732   2.262
 6256SOL    HW219668   4.948   5.744   2.412
 6257SOL     OW19669   4.404   3.766   0.543
 6257SOL    HW119670   4.433   3.857   0.513
 6257SOL    HW219671   4.467   3.733   0.613
 6258SOL     OW19672   4.575   0.192   6.117
 6258SOL    HW119673   4.567   0.279   6.166
 6258SOL    HW219674   4.648   0.137   6.157
 6259SOL     OW19675   1.817   6.776   5.719
 6259SOL    HW119676   1.800   6.702   5.784
 6259SOL    HW219677   1.914   6.778   5.695
 6260SOL     OW19678   1.445   0.456   0.171
 6260SOL    HW119679   1.452   0.505   0.258
 6260SOL    HW219680   1.364   0.488   0.121
 6261SOL     OW19681   4.710   7.019   1.191
 6261SOL    HW119682   4.646   0.062   1.233
 6261SOL    HW219683   4.780   6.993   1.257
 6262SOL     OW19684   6.159   6.566   2.255
 6262SOL    HW119685   6.167   6.473   2.292
 6262SOL    HW219686   6.087   6.569   2.186
 6263SOL     OW19687   0.285   6.583   4.358
 6263SOL    HW119688   0.187   6.586   4.335
 6263SOL    HW219689   0.336   6.548   4.279
 6264SOL     OW19690   0.247   6.938   1.069
 6264SOL    HW119691   0.318   6.874   1.038
 6264SOL    HW219692   0.250   6.945   1.169
 6265SOL     OW19693   4.095   2.607   0.597
 6265SOL    HW119694   4.014   2.658   0.623
 6265SOL    HW219695   4.102   2.524   0.653
 6266SOL     OW19696   3.237   5.192   2.912
 6266SOL    HW119697   3.227   5.093   2.910
 6266SOL    HW219698   3.154   5.233   2.950
 6267SOL     OW19699   0.984   6.445   5.331
 6267SOL    HW119700   1.043   6.396   5.396
 6267SOL    HW219701   0.899   6.395   5.319
 6268SOL     OW19702   3.814   0.604   1.939
 6268SOL    HW119703   3.837   0.693   1.899
 6268SOL    HW219704   3.756   0.553   1.875
 6269SOL     OW19705   5.532   6.571   1.218
 6269SOL    HW119706   5.505   6.592   1.124
 6269SOL    HW219707   5.600   6.498   1.218
 6270SOL     OW19708   1.273   6.394   7.001
 6270SOL    HW119709   1.368   6.391   6.970
 6270SOL    HW219710   1.228   6.474   6.961
 6271SOL     OW19711   6.077   2.966   6.907
 6271SOL    HW119712   6.035   3.045   6.862
 6271SOL    HW219713   6.173   2.987   6.929
 6272SOL     OW19714   5.845   0.128   0.088
 6272SOL    HW119715   5.764   0.155   0.037
 6272SOL    HW219716   5.922   0.117   0.025
 6273SOL     OW19717   6.847   6.575   2.422
 6273SOL    HW119718   6.898   6.661   2.416
 6273SOL    HW219719   6.840   6.547   2.518
 6274SOL     OW19720   3.078   6.041   4.790
 6274SOL    HW119721   3.008   6.113   4.789
 6274SOL    HW219722   3.071   5.987   4.706
 6275SOL     OW19723   2.515   6.031   0.492
 6275SOL    HW119724   2.454   5.988   0.559
 6275SOL    HW219725   2.461   6.075   0.421
 6276SOL     OW19726   2.462   5.595   3.406
 6276SOL    HW119727   2.528   5.559   3.340
 6276SOL    HW219728   2.409   5.668   3.364
 6277SOL     OW19729   5.436   2.533   1.571
 6277SOL    HW119730   5.438   2.468   1.495
 6277SOL    HW219731   5.345   2.575   1.577
 6278SOL     OW19732   3.319   0.147   5.486
 6278SOL    HW119733   3.408   0.184   5.458
 6278SOL    HW219734   3.333   0.064   5.540
 6279SOL     OW19735   3.518   6.213   1.168
 6279SOL    HW119736   3.598   6.157   1.149
 6279SOL    HW219737   3.436   6.155   1.173
 6280SOL     OW19738   6.558   1.763   6.813
 6280SOL    HW119739   6.483   1.723   6.760
 6280SOL    HW219740   6.614   1.820   6.753
 6281SOL     OW19741   6.062   3.996   4.713
 6281SOL    HW119742   6.083   3.899   4.706
 6281SOL    HW219743   6.052   4.035   4.622
 6282SOL     OW19744   0.248   3.675   6.371
 6282SOL    HW119745   0.223   3.732   6.292
 6282SOL    HW219746   0.180   3.603   6.384
 6283SOL     OW19747   0.996   5.726   5.137
 6283SOL    HW119748   1.019   5.738   5.234
 6283SOL    HW219749   0.994   5.628   5.117
 6284SOL     OW19750   2.112   4.138   6.967
 6284SOL    HW119751   2.056   4.210   6.928
 6284SOL    HW219752   2.056   4.056   6.981
 6285SOL     OW19753   1.821   3.609   2.628
 6285SOL    HW119754   1.791   3.599   2.723
 6285SOL    HW219755   1.918   3.587   2.622
 6286SOL     OW19756   0.975   3.386   4.674
 6286SOL    HW119757   0.915   3.308   4.659
 6286SOL    HW219758   1.068   3.363   4.643
 6287SOL     OW19759   4.315   4.919   5.168
 6287SOL    HW119760   4.266   4.922   5.080
 6287SOL    HW219761   4.250   4.902   5.242
 6288SOL     OW19762   3.758   3.477   6.226
 6288SOL    HW119763   3.664   3.496   6.254
 6288SOL    HW219764   3.769   3.497   6.129
 6289SOL     OW19765   2.500   4.392   6.544
 6289SOL    HW119766   2.590   4.421   6.576
 6289SOL    HW219767   2.445   4.361   6.621
 6290SOL     OW19768   6.100   5.312   5.989
 6290SOL    HW119769   6.019   5.268   5.950
 6290SOL    HW219770   6.175   5.247   5.991
 6291SOL     OW19771   3.289   3.335   2.804
 6291SOL    HW119772   3.224   3.260   2.796
 6291SOL    HW219773   3.317   3.365   2.713
 6292SOL     OW19774   2.027   2.830   4.323
 6292SOL    HW119775   2.125   2.838   4.304
 6292SOL    HW219776   2.014   2.803   4.418
 6293SOL     OW19777   5.140   1.065   6.942
 6293SOL    HW119778   5.224   1.087   6.991
 6293SOL    HW219779   5.090   1.149   6.922
 6294SOL     OW19780   2.896   1.260   3.995
 6294SOL    HW119781   2.854   1.293   3.911
 6294SOL    HW219782   2.936   1.169   3.979
 6295SOL     OW19783   5.483   4.838   5.131
 6295SOL    HW119784   5.566   4.801   5.172
 6295SOL    HW219785   5.410   4.769   5.134
 6296SOL     OW19786   0.303   3.026   6.420
 6296SOL    HW119787   0.330   2.934   6.449
 6296SOL    HW219788   0.366   3.058   6.349
 6297SOL     OW19789   6.342   0.597   4.750
 6297SOL    HW119790   6.269   0.577   4.686
 6297SOL    HW219791   6.401   0.669   4.712
 6298SOL     OW19792   5.557   4.730   6.710
 6298SOL    HW119793   5.555   4.755   6.807
 6298SOL    HW219794   5.464   4.722   6.676
 6299SOL     OW19795   5.027   2.988   3.039
 6299SOL    HW119796   4.995   3.072   2.995
 6299SOL    HW219797   5.120   3.002   3.075
 6300SOL     OW19798   3.806   1.268   6.220
 6300SOL    HW119799   3.884   1.272   6.158
 6300SOL    HW219800   3.828   1.210   6.298
 6301SOL     OW19801   3.277   6.524   6.700
 6301SOL    HW119802   3.193   6.544   6.750
 6301SOL    HW219803   3.254   6.480   6.613
 6302SOL     OW19804   2.647   0.702   5.788
 6302SOL    HW119805   2.715   0.769   5.821
 6302SOL    HW219806   2.687   0.649   5.713
 6303SOL     OW19807   0.923   6.289   5.827
 6303SOL    HW119808   0.914   6.190   5.824
 6303SOL    HW219809   0.958   6.317   5.917
 6304SOL     OW19810   4.425   1.135   3.075
 6304SOL    HW119811   4.419   1.046   3.119
 6304SOL    HW219812   4.422   1.207   3.145
 6305SOL     OW19813   0.145   5.548   5.215
 6305SOL    HW119814   0.092   5.494   5.280
 6305SOL    HW219815   0.114   5.643   5.217
 6306SOL     OW19816   0.154   4.461   3.903
 6306SOL    HW119817   0.098   4.411   3.969
 6306SOL    HW219818   0.247   4.472   3.938
 6307SOL     OW19819   3.988   3.944   3.688
 6307SOL    HW119820   4.045   3.989   3.758
 6307SOL    HW219821   3.912   4.003   3.663
 6308SOL     OW19822   0.223   2.718   6.466
 6308SOL    HW119823   0.224   2.707   6.367
 6308SOL    HW219824   0.254   2.633   6.509
 6309SOL     OW19825   1.159   6.488   4.816
 6309SOL    HW119826   1.178   6.442   4.729
 6309SOL    HW219827   1.061   6.502   4.826
 6310SOL     OW19828   1.836   6.599   3.349
 6310SOL    HW119829   1.844   6.692   3.385
 6310SOL    HW219830   1.792   6.603   3.259
 6311SOL     OW19831   5.681   1.218   5.940
 6311SOL    HW119832   5.673   1.264   6.028
 6311SOL    HW219833   5.768   1.170   5.935
 6312SOL     OW19834   2.874   6.314   6.643
 6312SOL    HW119835   2.782   6.350   6.630
 6312SOL    HW219836   2.942   6.385   6.625
 6313SOL     OW19837   4.873   6.244   3.087
 6313SOL    HW119838   4.841   6.325   3.038
 6313SOL    HW219839   4.973   6.242   3.086
 6314SOL     OW19840   2.816   0.315   1.601
 6314SOL    HW119841   2.864   0.255   1.536
 6314SOL    HW219842   2.844   0.292   1.694
 6315SOL     OW19843   1.973   3.081   4.200
 6315SOL    HW119844   2.018   3.096   4.112
 6315SOL    HW219845   1.986   2.985   4.228
 6316SOL     OW19846   5.444   1.871   4.928
 6316SOL    HW119847   5.442   1.772   4.940
 6316SOL    HW219848   5.356   1.909   4.957
 6317SOL     OW19849   5.284   4.691   2.365
 6317SOL    HW119850   5.215   4.630   2.326
 6317SOL    HW219851   5.289   4.775   2.312
 6318SOL     OW19852   6.443   0.505   6.517
 6318SOL    HW119853   6.517   0.505   6.450
 6318SOL    HW219854   6.445   0.420   6.569
 6319SOL     OW19855   5.697   2.708   4.585
 6319SOL    HW119856   5.671   2.701   4.681
 6319SOL    HW219857   5.668   2.626   4.536
 6320SOL     OW19858   0.471   0.790   3.946
 6320SOL    HW119859   0.476   0.690   3.949
 6320SOL    HW219860   0.381   0.820   3.978
 6321SOL     OW19861   5.657   2.247   0.519
 6321SOL    HW119862   5.635   2.290   0.607
 6321SOL    HW219863   5.725   2.303   0.471
 6322SOL     OW19864   2.035   0.727   0.877
 6322SOL    HW119865   1.999   0.806   0.827
 6322SOL    HW219866   2.091   0.760   0.953
 6323SOL     OW19867   2.780   2.738   0.859
 6323SOL    HW119868   2.821   2.648   0.846
 6323SOL    HW219869   2.694   2.728   0.910
 6324SOL     OW19870   4.615   1.456   0.901
 6324SOL    HW119871   4.594   1.545   0.862
 6324SOL    HW219872   4.612   1.461   1.001
 6325SOL     OW19873   1.635   2.462   2.306
 6325SOL    HW119874   1.705   2.458   2.235
 6325SOL    HW219875   1.645   2.383   2.367
 6326SOL     OW19876   4.943   5.226   5.697
 6326SOL    HW119877   4.875   5.154   5.684
 6326SOL    HW219878   5.026   5.187   5.736
 6327SOL     OW19879   0.049   2.296   3.740
 6327SOL    HW119880   0.069   2.199   3.725
 6327SOL    HW219881   7.005   2.306   3.816
 6328SOL     OW19882   4.507   3.229   5.967
 6328SOL    HW119883   4.467   3.321   5.974
 6328SOL    HW219884   4.604   3.234   5.993
 6329SOL     OW19885   1.580   2.725   5.078
 6329SOL    HW119886   1.674   2.733   5.109
 6329SOL    HW219887   1.521   2.785   5.134
 6330SOL     OW19888   6.536   1.246   3.228
 6330SOL    HW119889   6.452   1.207   3.190
 6330SOL    HW219890   6.536   1.345   3.213
 6331SOL     OW19891   6.654   3.145   4.760
 6331SOL    HW119892   6.602   3.060   4.755
 6331SOL    HW219893   6.705   3.148   4.846
 6332SOL     OW19894   1.712   1.676   1.423
 6332SOL    HW119895   1.676   1.735   1.496
 6332SOL    HW219896   1.636   1.642   1.368
 6333SOL     OW19897   4.975   0.328   0.368
 6333SOL    HW119898   4.928   0.268   0.433
 6333SOL    HW219899   4.919   0.338   0.286
 6334SOL     OW19900   3.027   1.599   2.092
 6334SOL    HW119901   3.055   1.695   2.095
 6334SOL    HW219902   2.929   1.593   2.114
 6335SOL     OW19903   5.665   0.856   0.463
 6335SOL    HW119904   5.758   0.862   0.428
 6335SOL    HW219905   5.668   0.836   0.561
 6336SOL     OW19906   0.376   3.851   5.981
 6336SOL    HW119907   0.435   3.771   5.989
 6336SOL    HW219908   0.308   3.850   6.055
 6337SOL     OW19909   4.153   5.491   4.766
 6337SOL    HW119910   4.231   5.434   4.741
 6337SOL    HW219911   4.140   5.489   4.865
 6338SOL     OW19912   3.037   2.250   3.964
 6338SOL    HW119913   2.960   2.273   4.023
 6338SOL    HW219914   3.122   2.281   4.007
 6339SOL     OW19915   1.234   4.220   2.872
 6339SOL    HW119916   1.275   4.263   2.952
 6339SOL    HW219917   1.135   4.234   2.875
 6340SOL     OW19918   2.421   3.896   1.419
 6340SOL    HW119919   2.465   3.969   1.366
 6340SOL    HW219920   2.395   3.931   1.509
 6341SOL     OW19921   1.233   4.463   4.209
 6341SOL    HW119922   1.159   4.409   4.171
 6341SOL    HW219923   1.299   4.403   4.255
 6342SOL     OW19924   1.745   0.965   2.083
 6342SOL    HW119925   1.667   0.908   2.107
 6342SOL    HW219926   1.776   1.014   2.164
 6343SOL     OW19927   3.053   6.096   0.267
 6343SOL    HW119928   3.128   6.064   0.324
 6343SOL    HW219929   2.977   6.126   0.324
 6344SOL     OW19930   5.930   2.698   3.474
 6344SOL    HW119931   5.868   2.620   3.467
 6344SOL    HW219932   6.023   2.670   3.451
 6345SOL     OW19933   5.425   3.712   1.519
 6345SOL    HW119934   5.452   3.632   1.465
 6345SOL    HW219935   5.334   3.697   1.558
 6346SOL     OW19936   0.760   4.395   5.988
 6346SOL    HW119937   0.687   4.333   6.016
 6346SOL    HW219938   0.739   4.487   6.020
 6347SOL     OW19939   2.749   2.323   2.690
 6347SOL    HW119940   2.718   2.281   2.605
 6347SOL    HW219941   2.680   2.388   2.723
 6348SOL     OW19942   0.296   1.585   5.989
 6348SOL    HW119943   0.329   1.527   5.915
 6348SOL    HW219944   0.365   1.592   6.061
 6349SOL     OW19945   0.729   0.601   0.784
 6349SOL    HW119946   0.696   0.607   0.690
 6349SOL    HW219947   0.786   0.520   0.794
 6350SOL     OW19948   0.628   4.612   2.141
 6350SOL    HW119949   0.562   4.657   2.081
 6350SOL    HW219950   0.635   4.664   2.227
 6351SOL     OW19951   6.490   3.817   3.543
 6351SOL    HW119952   6.506   3.908   3.505
 6351SOL    HW219953   6.414   3.821   3.608
 6352SOL     OW19954   2.371   0.330   4.534
 6352SOL    HW119955   2.440   0.291   4.595
 6352SOL    HW219956   2.403   0.419   4.501
 6353SOL     OW19957   2.364   5.901   6.382
 6353SOL    HW119958   2.299   5.932   6.451
 6353SOL    HW219959   2.335   5.933   6.291
 6354SOL     OW19960   5.086   4.588   2.977
 6354SOL    HW119961   5.149   4.665   2.981
 6354SOL    HW219962   5.013   4.609   2.912
 6355SOL     OW19963   2.790   4.510   0.417
 6355SOL    HW119964   2.741   4.423   0.419
 6355SOL    HW219965   2.885   4.495   0.443
 6356SOL     OW19966   5.175   5.454   6.469
 6356SOL    HW119967   5.260   5.423   6.512
 6356SOL    HW219968   5.097   5.423   6.523
 6357SOL     OW19969   5.912   2.298   1.654
 6357SOL    HW119970   5.921   2.318   1.556
 6357SOL    HW219971   6.000   2.266   1.689
 6358SOL     OW19972   1.596   2.007   6.411
 6358SOL    HW119973   1.612   1.959   6.497
 6358SOL    HW219974   1.498   2.008   6.391
 6359SOL     OW19975   5.572   6.424   0.738
 6359SOL    HW119976   5.597   6.517   0.762
 6359SOL    HW219977   5.473   6.419   0.722
 6360SOL     OW19978   6.813   2.488   3.556
 6360SOL    HW119979   6.869   2.567   3.583
 6360SOL    HW219980   6.857   2.441   3.480
 6361SOL     OW19981   0.108   0.826   7.006
 6361SOL    HW119982   0.206   0.851   7.007
 6361SOL    HW219983   0.057   0.896   6.955
 6362SOL     OW19984   1.012   5.656   6.674
 6362SOL    HW119985   0.936   5.701   6.625
 6362SOL    HW219986   1.013   5.559   6.651
 6363SOL     OW19987   2.565   5.030   3.142
 6363SOL    HW119988   2.487   4.988   3.187
 6363SOL    HW219989   2.637   5.047   3.210
 6364SOL     OW19990   2.636   2.157   4.814
 6364SOL    HW119991   2.692   2.216   4.872
 6364SOL    HW219992   2.540   2.187   4.817
 6365SOL     OW19993   6.074   6.035   4.062
 6365SOL    HW119994   6.012   5.957   4.072
 6365SOL    HW219995   6.020   6.119   4.061
 6366SOL     OW19996   6.180   6.348   4.990
 6366SOL    HW119997   6.254   6.378   5.052
 6366SOL    HW219998   6.197   6.254   4.962
 6367SOL     OW19999   3.208   2.152   3.280
 6367SOL    HW120000   3.136   2.183   3.343
 6367SOL    HW220001   3.297   2.171   3.321
 6368SOL     OW20002   4.832   4.020   3.922
 6368SOL    HW120003   4.879   3.933   3.939
 6368SOL    HW220004   4.824   4.034   3.823
 6369SOL     OW20005   3.399   6.303   5.991
 6369SOL    HW120006   3.453   6.335   6.069
 6369SOL    HW220007   3.424   6.208   5.970
 6370SOL     OW20008   5.032   3.785   3.698
 6370SOL    HW120009   4.970   3.723   3.746
 6370SOL    HW220010   4.983   3.828   3.622
 6371SOL     OW20011   5.128   4.277   1.517
 6371SOL    HW120012   5.038   4.251   1.553
 6371SOL    HW220013   5.198   4.253   1.584
 6372SOL     OW20014   0.335   1.104   2.770
 6372SOL    HW120015   0.274   1.183   2.778
 6372SOL    HW220016   0.388   1.111   2.686
 6373SOL     OW20017   5.673   4.648   1.156
 6373SOL    HW120018   5.648   4.561   1.199
 6373SOL    HW220019   5.743   4.632   1.087
 6374SOL     OW20020   4.941   2.820   0.125
 6374SOL    HW120021   4.996   2.757   0.179
 6374SOL    HW220022   4.882   2.873   0.185
 6375SOL     OW20023   6.798   3.044   2.579
 6375SOL    HW120024   6.710   2.997   2.578
 6375SOL    HW220025   6.793   3.124   2.519
 6376SOL     OW20026   4.060   1.167   5.415
 6376SOL    HW120027   4.016   1.134   5.499
 6376SOL    HW220028   3.991   1.212   5.358
 6377SOL     OW20029   6.961   0.189   0.063
 6377SOL    HW120030   6.955   0.117   0.132
 6377SOL    HW220031   0.032   0.193   0.026
 6378SOL     OW20032   5.690   5.648   2.807
 6378SOL    HW120033   5.616   5.584   2.784
 6378SOL    HW220034   5.656   5.714   2.874
 6379SOL     OW20035   2.208   5.851   5.986
 6379SOL    HW120036   2.178   5.859   5.891
 6379SOL    HW220037   2.201   5.756   6.015
 6380SOL     OW20038   0.931   3.115   4.975
 6380SOL    HW120039   0.942   3.108   5.074
 6380SOL    HW220040   0.943   3.210   4.947
 6381SOL     OW20041   4.541   3.084   0.408
 6381SOL    HW120042   4.485   3.147   0.354
 6381SOL    HW220043   4.526   2.991   0.376
 6382SOL     OW20044   2.717   1.969   1.288
 6382SOL    HW120045   2.720   1.872   1.314
 6382SOL    HW220046   2.711   2.025   1.370
 6383SOL     OW20047   1.983   2.670   2.811
 6383SOL    HW120048   1.981   2.769   2.823
 6383SOL    HW220049   2.078   2.639   2.803
 6384SOL     OW20050   6.174   2.642   2.252
 6384SOL    HW120051   6.232   2.575   2.207
 6384SOL    HW220052   6.212   2.733   2.239
 6385SOL     OW20053   0.579   3.386   1.132
 6385SOL    HW120054   0.578   3.439   1.217
 6385SOL    HW220055   0.535   3.440   1.059
 6386SOL     OW20056   1.710   3.475   0.650
 6386SOL    HW120057   1.751   3.430   0.730
 6386SOL    HW220058   1.618   3.441   0.636
 6387SOL     OW20059   6.464   1.371   0.331
 6387SOL    HW120060   6.410   1.316   0.395
 6387SOL    HW220061   6.404   1.438   0.287
 6388SOL     OW20062   6.293   5.413   2.538
 6388SOL    HW120063   6.209   5.379   2.579
 6388SOL    HW220064   6.273   5.457   2.451
 6389SOL     OW20065   1.558   0.031   0.085
 6389SOL    HW120066   1.624   6.978   0.076
 6389SOL    HW220067   1.474   0.008   0.035
 6390SOL     OW20068   5.877   0.877   0.234
 6390SOL    HW120069   5.931   0.930   0.168
 6390SOL    HW220070   5.780   0.894   0.219
 6391SOL     OW20071   1.087   0.870   5.303
 6391SOL    HW120072   1.091   0.929   5.222
 6391SOL    HW220073   1.148   0.792   5.291
 6392SOL     OW20074   3.081   5.742   3.459
 6392SOL    HW120075   3.094   5.671   3.390
 6392SOL    HW220076   3.000   5.796   3.437
 6393SOL     OW20077   5.670   6.804   1.558
 6393SOL    HW120078   5.737   6.847   1.619
 6393SOL    HW220079   5.617   6.875   1.512
 6394SOL     OW20080   0.851   4.823   0.847
 6394SOL    HW120081   0.904   4.895   0.802
 6394SOL    HW220082   0.756   4.853   0.858
 6395SOL     OW20083   0.976   4.294   2.898
 6395SOL    HW120084   0.898   4.247   2.939
 6395SOL    HW220085   0.988   4.383   2.943
 6396SOL     OW20086   6.495   3.610   0.521
 6396SOL    HW120087   6.475   3.535   0.458
 6396SOL    HW220088   6.529   3.688   0.469
 6397SOL     OW20089   5.826   2.342   2.996
 6397SOL    HW120090   5.795   2.379   2.909
 6397SOL    HW220091   5.748   2.329   3.057
 6398SOL     OW20092   1.062   6.108   1.286
 6398SOL    HW120093   1.057   6.138   1.381
 6398SOL    HW220094   1.030   6.181   1.226
 6399SOL     OW20095   2.144   6.922   6.389
 6399SOL    HW120096   2.076   6.970   6.333
 6399SOL    HW220097   2.204   6.870   6.330
 6400SOL     OW20098   1.568   5.704   2.833
 6400SOL    HW120099   1.505   5.774   2.799
 6400SOL    HW220100   1.614   5.660   2.756
 6401SOL     OW20101   3.892   4.911   2.745
 6401SOL    HW120102   3.976   4.947   2.704
 6401SOL    HW220103   3.862   4.974   2.817
 6402SOL     OW20104   1.805   4.686   3.795
 6402SOL    HW120105   1.735   4.758   3.799
 6402SOL    HW220106   1.888   4.717   3.841
 6403SOL     OW20107   5.340   6.363   4.827
 6403SOL    HW120108   5.306   6.315   4.907
 6403SOL    HW220109   5.333   6.303   4.747
 6404SOL     OW20110   3.556   1.013   2.471
 6404SOL    HW120111   3.647   1.040   2.442
 6404SOL    HW220112   3.505   0.978   2.392
 6405SOL     OW20113   5.159   1.006   2.856
 6405SOL    HW120114   5.222   0.944   2.901
 6405SOL    HW220115   5.166   1.097   2.898
 6406SOL     OW20116   1.264   2.584   2.778
 6406SOL    HW120117   1.264   2.669   2.726
 6406SOL    HW220118   1.325   2.518   2.735
 6407SOL     OW20119   2.389   6.339   3.665
 6407SOL    HW120120   2.467   6.284   3.636
 6407SOL    HW220121   2.407   6.435   3.645
 6408SOL     OW20122   6.811   0.577   0.675
 6408SOL    HW120123   6.762   0.615   0.597
 6408SOL    HW220124   6.910   0.579   0.657
 6409SOL     OW20125   6.524   4.773   3.561
 6409SOL    HW120126   6.602   4.834   3.575
 6409SOL    HW220127   6.457   4.787   3.634
 6410SOL     OW20128   3.092   1.149   5.407
 6410SOL    HW120129   3.178   1.109   5.437
 6410SOL    HW220130   3.092   1.158   5.307
 6411SOL     OW20131   0.151   2.730   2.555
 6411SOL    HW120132   0.236   2.782   2.551
 6411SOL    HW220133   0.090   2.770   2.624
 6412SOL     OW20134   3.253   0.683   6.841
 6412SOL    HW120135   3.235   0.694   6.744
 6412SOL    HW220136   3.335   0.626   6.853
 6413SOL     OW20137   4.209   4.853   4.313
 6413SOL    HW120138   4.235   4.910   4.235
 6413SOL    HW220139   4.241   4.759   4.297
 6414SOL     OW20140   0.868   0.055   6.788
 6414SOL    HW120141   0.920   7.018   6.727
 6414SOL    HW220142   0.826   0.129   6.736
 6415SOL     OW20143   1.306   3.243   3.327
 6415SOL    HW120144   1.329   3.334   3.294
 6415SOL    HW220145   1.389   3.188   3.334
 6416SOL     OW20146   2.811   0.102   6.283
 6416SOL    HW120147   2.893   0.158   6.282
 6416SOL    HW220148   2.836   0.005   6.288
 6417SOL     OW20149   4.895   1.805   0.954
 6417SOL    HW120150   4.836   1.748   0.897
 6417SOL    HW220151   4.880   1.782   1.050
 6418SOL     OW20152   4.138   4.792   1.366
 6418SOL    HW120153   4.109   4.714   1.311
 6418SOL    HW220154   4.117   4.774   1.462
 6419SOL     OW20155   1.031   6.694   6.648
 6419SOL    HW120156   0.972   6.628   6.695
 6419SOL    HW220157   0.974   6.764   6.604
 6420SOL     OW20158   1.520   3.632   3.917
 6420SOL    HW120159   1.566   3.664   3.834
 6420SOL    HW220160   1.576   3.561   3.960
 6421SOL     OW20161   5.274   0.089   1.479
 6421SOL    HW120162   5.236   0.094   1.387
 6421SOL    HW220163   5.352   0.151   1.486
 6422SOL     OW20164   0.229   2.834   4.749
 6422SOL    HW120165   0.227   2.925   4.790
 6422SOL    HW220166   0.136   2.796   4.747
 6423SOL     OW20167   2.392   4.959   4.281
 6423SOL    HW120168   2.343   4.964   4.193
 6423SOL    HW220169   2.482   4.920   4.266
 6424SOL     OW20170   0.542   3.499   4.780
 6424SOL    HW120171   0.528   3.443   4.698
 6424SOL    HW220172   0.580   3.443   4.853
 6425SOL     OW20173   0.068   5.974   3.011
 6425SOL    HW120174   0.097   6.011   3.099
 6425SOL    HW220175   0.086   5.875   3.010
 6426SOL     OW20176   4.518   4.466   4.750
 6426SOL    HW120177   4.499   4.540   4.686
 6426SOL    HW220178   4.452   4.469   4.825
 6427SOL     OW20179   3.256   3.265   3.486
 6427SOL    HW120180   3.281   3.171   3.512
 6427SOL    HW220181   3.158   3.270   3.469
 6428SOL     OW20182   4.903   2.696   6.906
 6428SOL    HW120183   4.824   2.728   6.854
 6428SOL    HW220184   4.900   2.734   6.999
 6429SOL     OW20185   2.453   0.839   4.979
 6429SOL    HW120186   2.524   0.864   4.914
 6429SOL    HW220187   2.363   0.864   4.942
 6430SOL     OW20188   6.921   0.682   5.337
 6430SOL    HW120189   6.897   0.719   5.426
 6430SOL    HW220190   7.002   0.729   5.302
 6431SOL     OW20191   4.353   5.675   2.625
 6431SOL    HW120192   4.333   5.579   2.647
 6431SOL    HW220193   4.450   5.693   2.642
 6432SOL     OW20194   3.034   4.736   6.668
 6432SOL    HW120195   3.016   4.682   6.586
 6432SOL    HW220196   2.957   4.729   6.731
 6433SOL     OW20197   2.523   5.678   6.442
 6433SOL    HW120198   2.598   5.648   6.384
 6433SOL    HW220199   2.467   5.745   6.393
 6434SOL     OW20200   3.245   6.029   6.273
 6434SOL    HW120201   3.194   5.964   6.217
 6434SOL    HW220202   3.307   6.082   6.215
 6435SOL     OW20203   5.590   0.380   0.660
 6435SOL    HW120204   5.551   0.445   0.725
 6435SOL    HW220205   5.615   0.296   0.708
 6436SOL     OW20206   0.659   4.032   3.722
 6436SOL    HW120207   0.668   3.948   3.776
 6436SOL    HW220208   0.750   4.066   3.698
 6437SOL     OW20209   0.869   1.080   5.356
 6437SOL    HW120210   0.920   0.996   5.338
 6437SOL    HW220211   0.923   1.159   5.327
 6438SOL     OW20212   0.484   5.794   6.792
 6438SOL    HW120213   0.544   5.815   6.869
 6438SOL    HW220214   0.514   5.710   6.748
 6439SOL     OW20215   5.944   1.053   3.219
 6439SOL    HW120216   5.893   1.107   3.286
 6439SOL    HW220217   6.021   1.008   3.263
 6440SOL     OW20218   2.250   0.634   5.990
 6440SOL    HW120219   2.317   0.612   6.061
 6440SOL    HW220220   2.298   0.647   5.903
 6441SOL     OW20221   0.478   0.342   3.329
 6441SOL    HW120222   0.385   0.367   3.303
 6441SOL    HW220223   0.476   0.267   3.396
 6442SOL     OW20224   2.432   2.195   5.333
 6442SOL    HW120225   2.453   2.099   5.352
 6442SOL    HW220226   2.435   2.211   5.234
 6443SOL     OW20227   4.235   1.927   0.588
 6443SOL    HW120228   4.198   1.955   0.676
 6443SOL    HW220229   4.219   2.000   0.521
 6444SOL     OW20230   0.082   2.699   5.513
 6444SOL    HW120231   7.015   2.653   5.510
 6444SOL    HW220232   0.155   2.632   5.499
 6445SOL     OW20233   3.081   3.578   3.273
 6445SOL    HW120234   3.172   3.538   3.271
 6445SOL    HW220235   3.014   3.511   3.242
 6446SOL     OW20236   1.634   1.675   6.481
 6446SOL    HW120237   1.594   1.719   6.400
 6446SOL    HW220238   1.662   1.745   6.547
 6447SOL     OW20239   6.572   4.281   0.937
 6447SOL    HW120240   6.528   4.216   0.876
 6447SOL    HW220241   6.646   4.237   0.987
 6448SOL     OW20242   4.759   5.709   2.114
 6448SOL    HW120243   4.806   5.669   2.193
 6448SOL    HW220244   4.685   5.648   2.085
 6449SOL     OW20245   2.861   5.505   1.839
 6449SOL    HW120246   2.820   5.476   1.752
 6449SOL    HW220247   2.895   5.599   1.830
 6450SOL     OW20248   0.867   4.093   1.569
 6450SOL    HW120249   0.783   4.049   1.536
 6450SOL    HW220250   0.857   4.114   1.666
 6451SOL     OW20251   3.511   2.218   0.559
 6451SOL    HW120252   3.477   2.129   0.527
 6451SOL    HW220253   3.582   2.204   0.627
 6452SOL     OW20254   5.564   3.715   3.472
 6452SOL    HW120255   5.635   3.727   3.403
 6452SOL    HW220256   5.537   3.619   3.476
 6453SOL     OW20257   3.661   0.065   1.458
 6453SOL    HW120258   3.614   0.083   1.372
 6453SOL    HW220259   3.749   0.114   1.458
 6454SOL     OW20260   6.596   2.368   2.501
 6454SOL    HW120261   6.508   2.376   2.456
 6454SOL    HW220262   6.583   2.336   2.595
 6455SOL     OW20263   6.815   4.088   2.929
 6455SOL    HW120264   6.883   4.015   2.921
 6455SOL    HW220265   6.818   4.128   3.021
 6456SOL     OW20266   0.545   1.210   2.986
 6456SOL    HW120267   0.586   1.223   2.896
 6456SOL    HW220268   0.451   1.177   2.975
 6457SOL     OW20269   4.912   6.887   1.338
 6457SOL    HW120270   4.872   6.804   1.375
 6457SOL    HW220271   5.012   6.881   1.344
 6458SOL     OW20272   1.015   5.230   3.688
 6458SOL    HW120273   0.981   5.301   3.749
 6458SOL    HW220274   1.091   5.265   3.634
 6459SOL     OW20275   6.391   2.381   3.007
 6459SOL    HW120276   6.372   2.447   2.934
 6459SOL    HW220277   6.344   2.295   2.986
 6460SOL     OW20278   6.971   6.003   5.401
 6460SOL    HW120279   6.883   6.049   5.386
 6460SOL    HW220280   6.961   5.935   5.474
 6461SOL     OW20281   3.246   4.692   0.595
 6461SOL    HW120282   3.276   4.787   0.590
 6461SOL    HW220283   3.258   4.658   0.688
 6462SOL     OW20284   1.898   3.898   5.046
 6462SOL    HW120285   1.982   3.844   5.040
 6462SOL    HW220286   1.848   3.891   4.960
 6463SOL     OW20287   4.728   1.151   1.020
 6463SOL    HW120288   4.802   1.138   0.954
 6463SOL    HW220289   4.668   1.224   0.989
 6464SOL     OW20290   0.921   6.183   4.484
 6464SOL    HW120291   0.939   6.107   4.422
 6464SOL    HW220292   0.862   6.152   4.559
 6465SOL     OW20293   5.269   3.153   2.390
 6465SOL    HW120294   5.231   3.245   2.399
 6465SOL    HW220295   5.336   3.136   2.463
 6466SOL     OW20296   6.842   3.583   6.758
 6466SOL    HW120297   6.839   3.559   6.661
 6466SOL    HW220298   6.918   3.645   6.775
 6467SOL     OW20299   3.309   0.717   0.853
 6467SOL    HW120300   3.340   0.802   0.809
 6467SOL    HW220301   3.274   0.654   0.784
 6468SOL     OW20302   3.573   6.943   0.129
 6468SOL    HW120303   3.603   6.865   0.076
 6468SOL    HW220304   3.652   6.998   0.156
 6469SOL     OW20305   3.278   1.854   3.690
 6469SOL    HW120306   3.347   1.911   3.735
 6469SOL    HW220307   3.225   1.805   3.760
 6470SOL     OW20308   6.825   2.518   6.942
 6470SOL    HW120309   6.891   2.464   6.993
 6470SOL    HW220310   6.857   2.531   6.848
 6471SOL     OW20311   0.055   6.059   4.683
 6471SOL    HW120312   0.154   6.073   4.692
 6471SOL    HW220313   0.024   5.995   4.753
 6472SOL     OW20314   6.976   6.174   2.172
 6472SOL    HW120315   6.886   6.166   2.130
 6472SOL    HW220316   0.024   6.189   2.101
 6473SOL     OW20317   1.903   1.382   4.030
 6473SOL    HW120318   1.822   1.387   3.971
 6473SOL    HW220319   1.957   1.302   4.004
 6474SOL     OW20320   3.482   5.316   4.773
 6474SOL    HW120321   3.562   5.373   4.789
 6474SOL    HW220322   3.416   5.365   4.716
 6475SOL     OW20323   5.641   5.431   3.653
 6475SOL    HW120324   5.600   5.414   3.563
 6475SOL    HW220325   5.699   5.355   3.678
 6476SOL     OW20326   3.414   2.073   6.694
 6476SOL    HW120327   3.399   1.979   6.724
 6476SOL    HW220328   3.483   2.116   6.751
 6477SOL     OW20329   0.131   6.107   1.141
 6477SOL    HW120330   0.201   6.045   1.178
 6477SOL    HW220331   0.149   6.123   1.043
 6478SOL     OW20332   2.867   5.772   1.801
 6478SOL    HW120333   2.932   5.772   1.877
 6478SOL    HW220334   2.901   5.831   1.728
 6479SOL     OW20335   3.177   5.679   4.274
 6479SOL    HW120336   3.221   5.595   4.306
 6479SOL    HW220337   3.081   5.661   4.253
 6480SOL     OW20338   2.688   0.815   6.796
 6480SOL    HW120339   2.720   0.799   6.703
 6480SOL    HW220340   2.732   0.897   6.833
 6481SOL     OW20341   2.950   2.268   1.662
 6481SOL    HW120342   2.959   2.328   1.742
 6481SOL    HW220343   2.919   2.322   1.584
 6482SOL     OW20344   6.856   3.003   5.344
 6482SOL    HW120345   6.929   2.959   5.397
 6482SOL    HW220346   6.869   3.102   5.347
 6483SOL     OW20347   1.470   5.370   4.650
 6483SOL    HW120348   1.505   5.277   4.660
 6483SOL    HW220349   1.440   5.385   4.556
 6484SOL     OW20350   2.918   1.126   3.589
 6484SOL    HW120351   2.974   1.204   3.617
 6484SOL    HW220352   2.975   1.044   3.587
 6485SOL     OW20353   1.865   6.629   4.752
 6485SOL    HW120354   1.940   6.695   4.763
 6485SOL    HW220355   1.857   6.575   4.836
 6486SOL     OW20356   1.419   5.163   3.302
 6486SOL    HW120357   1.502   5.109   3.307
 6486SOL    HW220358   1.424   5.226   3.225
 6487SOL     OW20359   0.630   5.231   4.551
 6487SOL    HW120360   0.709   5.286   4.523
 6487SOL    HW220361   0.578   5.281   4.620
 6488SOL     OW20362   5.207   5.071   4.609
 6488SOL    HW120363   5.199   5.053   4.511
 6488SOL    HW220364   5.116   5.069   4.651
 6489SOL     OW20365   3.975   3.166   6.598
 6489SOL    HW120366   3.991   3.068   6.614
 6489SOL    HW220367   3.951   3.181   6.503
 6490SOL     OW20368   1.708   1.389   6.702
 6490SOL    HW120369   1.731   1.400   6.799
 6490SOL    HW220370   1.747   1.465   6.649
 6491SOL     OW20371   1.750   0.498   1.216
 6491SOL    HW120372   1.704   0.559   1.280
 6491SOL    HW220373   1.683   0.436   1.175
 6492SOL     OW20374   2.989   3.853   4.647
 6492SOL    HW120375   3.014   3.937   4.599
 6492SOL    HW220376   2.945   3.876   4.734
 6493SOL     OW20377   1.769   4.538   5.959
 6493SOL    HW120378   1.708   4.504   6.031
 6493SOL    HW220379   1.863   4.538   5.992
 6494SOL     OW20380   5.916   6.463   1.903
 6494SOL    HW120381   5.835   6.480   1.846
 6494SOL    HW220382   5.913   6.523   1.983
 6495SOL     OW20383   6.895   0.175   4.114
 6495SOL    HW120384   6.824   0.168   4.184
 6495SOL    HW220385   6.960   0.100   4.124
 6496SOL     OW20386   4.452   6.622   2.400
 6496SOL    HW120387   4.462   6.555   2.473
 6496SOL    HW220388   4.370   6.601   2.346
 6497SOL     OW20389   0.722   1.365   0.727
 6497SOL    HW120390   0.663   1.386   0.804
 6497SOL    HW220391   0.754   1.450   0.685
 6498SOL     OW20392   0.755   4.637   4.499
 6498SOL    HW120393   0.799   4.656   4.411
 6498SOL    HW220394   0.820   4.591   4.560
 6499SOL     OW20395   5.921   4.359   3.970
 6499SOL    HW120396   5.931   4.350   3.870
 6499SOL    HW220397   5.847   4.298   4.001
 6500SOL     OW20398   0.953   3.592   2.391
 6500SOL    HW120399   1.017   3.581   2.316
 6500SOL    HW220400   0.995   3.560   2.476
 6501SOL     OW20401   6.637   1.955   0.970
 6501SOL    HW120402   6.626   1.954   1.070
 6501SOL    HW220403   6.694   2.033   0.944
 6502SOL     OW20404   6.035   4.068   1.180
 6502SOL    HW120405   6.002   4.094   1.271
 6502SOL    HW220406   6.050   3.969   1.178
 6503SOL     OW20407   6.435   2.986   5.870
 6503SOL    HW120408   6.525   2.949   5.847
 6503SOL    HW220409   6.372   2.973   5.794
 6504SOL     OW20410   4.596   6.408   6.932
 6504SOL    HW120411   4.658   6.375   7.004
 6504SOL    HW220412   4.615   6.504   6.913
 6505SOL     OW20413   5.644   6.224   0.239
 6505SOL    HW120414   5.627   6.251   0.334
 6505SOL    HW220415   5.576   6.267   0.179
 6506SOL     OW20416   0.320   3.026   3.785
 6506SOL    HW120417   0.355   2.934   3.765
 6506SOL    HW220418   0.220   3.025   3.781
 6507SOL     OW20419   3.264   5.630   6.630
 6507SOL    HW120420   3.335   5.700   6.634
 6507SOL    HW220421   3.175   5.674   6.620
 6508SOL     OW20422   1.202   6.785   1.577
 6508SOL    HW120423   1.287   6.811   1.529
 6508SOL    HW220424   1.224   6.724   1.652
 6509SOL     OW20425   3.553   1.259   5.679
 6509SOL    HW120426   3.631   1.266   5.742
 6509SOL    HW220427   3.469   1.284   5.727
 6510SOL     OW20428   4.552   5.994   5.854
 6510SOL    HW120429   4.555   6.021   5.950
 6510SOL    HW220430   4.646   5.987   5.819
 6511SOL     OW20431   3.991   1.470   6.510
 6511SOL    HW120432   3.995   1.527   6.592
 6511SOL    HW220433   3.995   1.374   6.536
 6512SOL     OW20434   2.914   0.939   2.003
 6512SOL    HW120435   2.918   0.841   1.985
 6512SOL    HW220436   2.976   0.987   1.941
 6513SOL     OW20437   2.633   5.622   5.031
 6513SOL    HW120438   2.667   5.700   4.978
 6513SOL    HW220439   2.650   5.537   4.981
 6514SOL     OW20440   5.649   0.460   5.203
 6514SOL    HW120441   5.628   0.412   5.118
 6514SOL    HW220442   5.619   0.555   5.196
 6515SOL     OW20443   2.402   4.921   2.317
 6515SOL    HW120444   2.312   4.896   2.281
 6515SOL    HW220445   2.412   4.884   2.409
 6516SOL     OW20446   0.241   3.162   2.046
 6516SOL    HW120447   0.296   3.181   1.965
 6516SOL    HW220448   0.184   3.082   2.030
 6517SOL     OW20449   6.692   2.322   6.612
 6517SOL    HW120450   6.686   2.413   6.654
 6517SOL    HW220451   6.691   2.252   6.684
 6518SOL     OW20452   0.165   0.671   2.574
 6518SOL    HW120453   0.105   0.716   2.641
 6518SOL    HW220454   0.122   0.673   2.484
 6519SOL     OW20455   0.753   1.078   3.151
 6519SOL    HW120456   0.672   1.119   3.110
 6519SOL    HW220457   0.741   1.071   3.250
 6520SOL     OW20458   6.774   5.625   6.997
 6520SOL    HW120459   6.867   5.604   0.006
 6520SOL    HW220460   6.709   5.568   0.026
 6521SOL     OW20461   1.582   3.287   3.859
 6521SOL    HW120462   1.544   3.200   3.890
 6521SOL    HW220463   1.549   3.307   3.767
 6522SOL     OW20464   3.058   4.040   5.835
 6522SOL    HW120465   2.977   4.068   5.782
 6522SOL    HW220466   3.107   3.969   5.785
 6523SOL     OW20467   5.974   0.911   0.491
 6523SOL    HW120468   6.073   0.923   0.500
 6523SOL    HW220469   5.951   0.901   0.394
 6524SOL     OW20470   2.876   2.099   1.914
 6524SOL    HW120471   2.871   2.185   1.964
 6524SOL    HW220472   2.914   2.116   1.823
 6525SOL     OW20473   1.699   5.223   3.810
 6525SOL    HW120474   1.687   5.209   3.908
 6525SOL    HW220475   1.689   5.321   3.789
 6526SOL     OW20476   6.967   0.206   1.164
 6526SOL    HW120477   7.002   0.232   1.254
 6526SOL    HW220478   6.935   0.112   1.166
 6527SOL     OW20479   0.301   2.889   0.629
 6527SOL    HW120480   0.259   2.856   0.714
 6527SOL    HW220481   0.254   2.972   0.599
 6528SOL     OW20482   6.257   1.173   5.892
 6528SOL    HW120483   6.283   1.079   5.912
 6528SOL    HW220484   6.228   1.219   5.976
 6529SOL     OW20485   0.391   1.408   2.394
 6529SOL    HW120486   0.336   1.448   2.468
 6529SOL    HW220487   0.409   1.312   2.415
 6530SOL     OW20488   0.795   2.845   2.323
 6530SOL    HW120489   0.871   2.782   2.305
 6530SOL    HW220490   0.762   2.831   2.416
 6531SOL     OW20491   4.236   3.143   5.931
 6531SOL    HW120492   4.330   3.175   5.918
 6531SOL    HW220493   4.194   3.125   5.843
 6532SOL     OW20494   1.745   0.744   0.998
 6532SOL    HW120495   1.783   0.652   0.986
 6532SOL    HW220496   1.790   0.790   1.074
 6533SOL     OW20497   4.616   4.636   6.784
 6533SOL    HW120498   4.690   4.682   6.734
 6533SOL    HW220499   4.656   4.582   6.859
 6534SOL     OW20500   5.746   4.557   1.909
 6534SOL    HW120501   5.715   4.482   1.966
 6534SOL    HW220502   5.824   4.602   1.952
 6535SOL     OW20503   5.577   3.812   4.848
 6535SOL    HW120504   5.548   3.740   4.785
 6535SOL    HW220505   5.628   3.771   4.923
 6536SOL     OW20506   0.493   2.041   5.601
 6536SOL    HW120507   0.571   2.103   5.588
 6536SOL    HW220508   0.511   1.954   5.556
 6537SOL     OW20509   5.973   4.519   5.053
 6537SOL    HW120510   5.887   4.472   5.070
 6537SOL    HW220511   5.982   4.541   4.956
 6538SOL     OW20512   2.205   3.806   5.225
 6538SOL    HW120513   2.220   3.721   5.175
 6538SOL    HW220514   2.273   3.874   5.197
 6539SOL     OW20515   5.688   1.055   6.908
 6539SOL    HW120516   5.605   1.003   6.888
 6539SOL    HW220517   5.663   1.151   6.924
 6540SOL     OW20518   3.454   2.471   5.534
 6540SOL    HW120519   3.534   2.531   5.545
 6540SOL    HW220520   3.390   2.514   5.470
 6541SOL     OW20521   5.766   2.217   5.561
 6541SOL    HW120522   5.853   2.242   5.520
 6541SOL    HW220523   5.696   2.214   5.489
 6542SOL     OW20524   1.527   3.637   4.902
 6542SOL    HW120525   1.525   3.696   4.821
 6542SOL    HW220526   1.440   3.588   4.909
 6543SOL     OW20527   3.355   2.117   5.071
 6543SOL    HW120528   3.387   2.159   5.156
 6543SOL    HW220529   3.271   2.161   5.042
 6544SOL     OW20530   0.320   6.978   2.191
 6544SOL    HW120531   0.391   6.919   2.230
 6544SOL    HW220532   0.326   0.048   2.233
 6545SOL     OW20533   4.609   6.614   1.038
 6545SOL    HW120534   4.688   6.557   1.058
 6545SOL    HW220535   4.558   6.631   1.123
 6546SOL     OW20536   4.869   4.687   6.259
 6546SOL    HW120537   4.942   4.722   6.318
 6546SOL    HW220538   4.805   4.761   6.238
 6547SOL     OW20539   5.287   6.624   6.512
 6547SOL    HW120540   5.198   6.656   6.546
 6547SOL    HW220541   5.307   6.535   6.552
 6548SOL     OW20542   0.969   2.499   6.332
 6548SOL    HW120543   0.918   2.534   6.411
 6548SOL    HW220544   0.944   2.552   6.251
 6549SOL     OW20545   4.682   0.061   1.623
 6549SOL    HW120546   4.691   0.054   1.722
 6549SOL    HW220547   4.716   6.998   1.581
 6550SOL     OW20548   6.495   0.106   3.244
 6550SOL    HW120549   6.487   0.053   3.159
 6550SOL    HW220550   6.592   0.120   3.265
 6551SOL     OW20551   2.864   3.479   1.678
 6551SOL    HW120552   2.839   3.409   1.611
 6551SOL    HW220553   2.957   3.511   1.660
 6552SOL     OW20554   1.534   6.467   0.140
 6552SOL    HW120555   1.559   6.372   0.126
 6552SOL    HW220556   1.609   6.515   0.186
 6553SOL     OW20557   0.146   1.744   2.815
 6553SOL    HW120558   0.230   1.797   2.810
 6553SOL    HW220559   0.141   1.680   2.738
 6554SOL     OW20560   3.071   1.138   4.607
 6554SOL    HW120561   3.073   1.044   4.574
 6554SOL    HW220562   3.137   1.149   4.682
 6555SOL     OW20563   6.989   1.962   4.632
 6555SOL    HW120564   6.980   2.044   4.575
 6555SOL    HW220565   6.898   1.932   4.661
 6556SOL     OW20566   5.832   3.188   3.119
 6556SOL    HW120567   5.751   3.148   3.163
 6556SOL    HW220568   5.914   3.150   3.161
 6557SOL     OW20569   1.540   6.854   2.504
 6557SOL    HW120570   1.541   6.921   2.430
 6557SOL    HW220571   1.467   6.788   2.488
 6558SOL     OW20572   5.849   5.313   0.145
 6558SOL    HW120573   5.918   5.385   0.153
 6558SOL    HW220574   5.851   5.274   0.053
 6559SOL     OW20575   0.034   3.717   6.885
 6559SOL    HW120576   0.083   3.774   6.819
 6559SOL    HW220577   0.097   3.649   6.923
 6560SOL     OW20578   4.174   4.495   0.226
 6560SOL    HW120579   4.148   4.416   0.281
 6560SOL    HW220580   4.124   4.494   0.140
 6561SOL     OW20581   4.027   4.562   0.018
 6561SOL    HW120582   3.958   4.532   6.974
 6561SOL    HW220583   3.986   4.626   0.083
 6562SOL     OW20584   5.714   2.827   0.563
 6562SOL    HW120585   5.663   2.913   0.553
 6562SOL    HW220586   5.649   2.752   0.576
 6563SOL     OW20587   5.248   0.506   5.504
 6563SOL    HW120588   5.304   0.435   5.547
 6563SOL    HW220589   5.151   0.487   5.521
 6564SOL     OW20590   6.385   4.040   2.177
 6564SOL    HW120591   6.383   3.966   2.244
 6564SOL    HW220592   6.478   4.076   2.169
 6565SOL     OW20593   5.950   6.806   2.342
 6565SOL    HW120594   5.878   6.872   2.320
 6565SOL    HW220595   6.006   6.841   2.417
 6566SOL     OW20596   3.815   5.301   1.932
 6566SOL    HW120597   3.749   5.255   1.993
 6566SOL    HW220598   3.827   5.246   1.850
 6567SOL     OW20599   4.350   0.849   1.669
 6567SOL    HW120600   4.409   0.872   1.592
 6567SOL    HW220601   4.279   0.786   1.640
 6568SOL     OW20602   3.921   1.338   2.033
 6568SOL    HW120603   3.915   1.353   1.935
 6568SOL    HW220604   3.856   1.397   2.080
 6569SOL     OW20605   0.640   2.808   6.192
 6569SOL    HW120606   0.634   2.895   6.142
 6569SOL    HW220607   0.647   2.827   6.290
 6570SOL     OW20608   4.116   0.466   2.603
 6570SOL    HW120609   4.116   0.367   2.587
 6570SOL    HW220610   4.165   0.511   2.529
 6571SOL     OW20611   2.314   5.232   3.364
 6571SOL    HW120612   2.339   5.284   3.283
 6571SOL    HW220613   2.301   5.294   3.442
 6572SOL     OW20614   0.610   4.319   4.163
 6572SOL    HW120615   0.623   4.345   4.259
 6572SOL    HW220616   0.698   4.324   4.115
 6573SOL     OW20617   1.604   0.770   3.103
 6573SOL    HW120618   1.510   0.747   3.081
 6573SOL    HW220619   1.611   0.800   3.198
 6574SOL     OW20620   2.578   6.204   3.545
 6574SOL    HW120621   2.675   6.187   3.562
 6574SOL    HW220622   2.563   6.215   3.447
 6575SOL     OW20623   0.074   6.961   2.705
 6575SOL    HW120624   0.073   7.010   2.792
 6575SOL    HW220625   0.146   6.999   2.646
 6576SOL     OW20626   3.409   4.958   0.284
 6576SOL    HW120627   3.324   4.970   0.335
 6576SOL    HW220628   3.426   4.860   0.271
 6577SOL     OW20629   1.998   2.683   3.489
 6577SOL    HW120630   1.921   2.661   3.549
 6577SOL    HW220631   2.055   2.753   3.532
 6578SOL     OW20632   1.025   5.571   1.352
 6578SOL    HW120633   0.971   5.487   1.361
 6578SOL    HW220634   1.115   5.548   1.315
 6579SOL     OW20635   0.445   1.837   4.509
 6579SOL    HW120636   0.440   1.923   4.458
 6579SOL    HW220637   0.464   1.856   4.605
 6580SOL     OW20638   0.959   0.422   0.512
 6580SOL    HW120639   1.042   0.379   0.477
 6580SOL    HW220640   0.880   0.366   0.489
 6581SOL     OW20641   1.368   0.897   0.580
 6581SOL    HW120642   1.312   0.979   0.592
 6581SOL    HW220643   1.400   0.865   0.669
 6582SOL     OW20644   6.897   0.638   3.097
 6582SOL    HW120645   6.823   0.613   3.035
 6582SOL    HW220646   6.917   0.736   3.087
 6583SOL     OW20647   4.505   6.982   5.983
 6583SOL    HW120648   4.561   6.969   5.901
 6583SOL    HW220649   4.529   0.047   6.027
 6584SOL     OW20650   3.686   2.343   1.003
 6584SOL    HW120651   3.678   2.256   0.954
 6584SOL    HW220652   3.603   2.359   1.057
 6585SOL     OW20653   6.646   0.174   0.661
 6585SOL    HW120654   6.673   0.085   0.625
 6585SOL    HW220655   6.605   0.162   0.752
 6586SOL     OW20656   6.673   1.887   6.134
 6586SOL    HW120657   6.612   1.887   6.213
 6586SOL    HW220658   6.666   1.799   6.087
 6587SOL     OW20659   1.634   4.269   6.006
 6587SOL    HW120660   1.714   4.255   5.947
 6587SOL    HW220661   1.553   4.281   5.949
 6588SOL     OW20662   0.459   3.279   0.491
 6588SOL    HW120663   0.504   3.201   0.445
 6588SOL    HW220664   0.424   3.249   0.579
 6589SOL     OW20665   5.604   0.971   1.470
 6589SOL    HW120666   5.542   0.961   1.547
 6589SOL    HW220667   5.569   0.919   1.392
 6590SOL     OW20668   0.763   0.364   4.287
 6590SOL    HW120669   0.679   0.310   4.298
 6590SOL    HW220670   0.740   0.454   4.251
 6591SOL     OW20671   5.107   5.563   4.279
 6591SOL    HW120672   5.194   5.608   4.257
 6591SOL    HW220673   5.121   5.464   4.285
 6592SOL     OW20674   5.071   0.436   3.274
 6592SOL    HW120675   5.105   0.342   3.266
 6592SOL    HW220676   4.971   0.435   3.274
 6593SOL     OW20677   2.897   2.273   2.383
 6593SOL    HW120678   2.895   2.368   2.413
 6593SOL    HW220679   2.918   2.268   2.286
 6594SOL     OW20680   3.471   1.815   6.264
 6594SOL    HW120681   3.559   1.774   6.240
 6594SOL    HW220682   3.432   1.860   6.184
 6595SOL     OW20683   1.737   2.617   4.500
 6595SOL    HW120684   1.706   2.702   4.542
 6595SOL    HW220685   1.658   2.566   4.465
 6596SOL     OW20686   4.604   5.926   3.352
 6596SOL    HW120687   4.605   5.995   3.280
 6596SOL    HW220688   4.682   5.939   3.412
 6597SOL     OW20689   1.198   5.187   1.870
 6597SOL    HW120690   1.217   5.097   1.832
 6597SOL    HW220691   1.154   5.244   1.800
 6598SOL     OW20692   1.789   4.437   3.621
 6598SOL    HW120693   1.849   4.504   3.663
 6598SOL    HW220694   1.841   4.355   3.598
 6599SOL     OW20695   5.782   5.569   6.706
 6599SOL    HW120696   5.784   5.518   6.792
 6599SOL    HW220697   5.787   5.504   6.629
 6600SOL     OW20698   4.649   0.244   4.970
 6600SOL    HW120699   4.642   0.342   4.951
 6600SOL    HW220700   4.694   0.199   4.893
 6601SOL     OW20701   0.762   2.815   3.231
 6601SOL    HW120702   0.694   2.884   3.257
 6601SOL    HW220703   0.723   2.724   3.241
 6602SOL     OW20704   2.561   0.264   1.241
 6602SOL    HW120705   2.574   0.219   1.329
 6602SOL    HW220706   2.594   0.204   1.168
 6603SOL     OW20707   0.763   3.251   3.849
 6603SOL    HW120708   0.810   3.330   3.811
 6603SOL    HW220709   0.689   3.224   3.787
 6604SOL     OW20710   2.347   0.501   2.017
 6604SOL    HW120711   2.430   0.548   1.985
 6604SOL    HW220712   2.271   0.566   2.017
 6605SOL     OW20713   6.133   5.396   2.022
 6605SOL    HW120714   6.173   5.313   1.981
 6605SOL    HW220715   6.090   5.373   2.109
 6606SOL     OW20716   1.075   3.969   2.820
 6606SOL    HW120717   1.050   3.979   2.917
 6606SOL    HW220718   1.174   3.976   2.811
 6607SOL     OW20719   6.399   4.862   3.956
 6607SOL    HW120720   6.356   4.872   3.866
 6607SOL    HW220721   6.494   4.831   3.944
 6608SOL     OW20722   6.567   0.126   0.225
 6608SOL    HW120723   6.658   0.087   0.240
 6608SOL    HW220724   6.570   0.186   0.145
 6609SOL     OW20725   4.376   1.623   6.457
 6609SOL    HW120726   4.319   1.645   6.537
 6609SOL    HW220727   4.431   1.541   6.477
 6610SOL     OW20728   1.976   6.225   0.242
 6610SOL    HW120729   2.011   6.228   0.149
 6610SOL    HW220730   1.976   6.318   0.281
 6611SOL     OW20731   5.346   2.552   3.939
 6611SOL    HW120732   5.411   2.477   3.924
 6611SOL    HW220733   5.311   2.547   4.032
 6612SOL     OW20734   6.471   1.894   6.318
 6612SOL    HW120735   6.440   1.969   6.378
 6612SOL    HW220736   6.459   1.807   6.366
 6613SOL     OW20737   5.691   0.590   6.256
 6613SOL    HW120738   5.724   0.644   6.333
 6613SOL    HW220739   5.766   0.573   6.192
 6614SOL     OW20740   4.682   6.168   1.258
 6614SOL    HW120741   4.734   6.153   1.342
 6614SOL    HW220742   4.704   6.258   1.220
 6615SOL     OW20743   2.608   5.390   0.472
 6615SOL    HW120744   2.655   5.459   0.416
 6615SOL    HW220745   2.525   5.429   0.511
 6616SOL     OW20746   4.178   6.905   6.511
 6616SOL    HW120747   4.252   6.870   6.454
 6616SOL    HW220748   4.155   6.998   6.483
 6617SOL     OW20749   4.212   6.754   3.606
 6617SOL    HW120750   4.265   6.682   3.651
 6617SOL    HW220751   4.222   6.745   3.507
 6618SOL     OW20752   0.910   1.139   2.864
 6618SOL    HW120753   0.906   1.166   2.960
 6618SOL    HW220754   0.838   1.186   2.813
 6619SOL     OW20755   4.496   6.829   4.265
 6619SOL    HW120756   4.500   6.816   4.165
 6619SOL    HW220757   4.589   6.835   4.301
 6620SOL     OW20758   1.604   3.976   3.278
 6620SOL    HW120759   1.636   3.883   3.297
 6620SOL    HW220760   1.682   4.039   3.280
 6621SOL     OW20761   3.432   3.124   4.982
 6621SOL    HW120762   3.513   3.138   4.926
 6621SOL    HW220763   3.367   3.065   4.934
 6622SOL     OW20764   6.071   5.440   1.487
 6622SOL    HW120765   6.115   5.528   1.506
 6622SOL    HW220766   6.135   5.366   1.508
 6623SOL     OW20767   3.595   4.194   4.822
 6623SOL    HW120768   3.595   4.095   4.809
 6623SOL    HW220769   3.608   4.214   4.919
 6624SOL     OW20770   0.987   2.858   4.907
 6624SOL    HW120771   1.069   2.883   4.854
 6624SOL    HW220772   0.934   2.941   4.925
 6625SOL     OW20773   6.409   2.631   5.647
 6625SOL    HW120774   6.353   2.677   5.579
 6625SOL    HW220775   6.369   2.644   5.738
 6626SOL     OW20776   3.456   0.002   4.764
 6626SOL    HW120777   3.422   6.979   4.681
 6626SOL    HW220778   3.424   0.096   4.767
 6627SOL     OW20779   1.805   5.999   4.350
 6627SOL    HW120780   1.837   6.052   4.428
 6627SOL    HW220781   1.883   5.958   4.304
 6628SOL     OW20782   5.579   5.839   4.042
 6628SOL    HW120783   5.536   5.789   3.967
 6628SOL    HW220784   5.534   5.927   4.053
 6629SOL     OW20785   5.191   5.262   0.034
 6629SOL    HW120786   5.097   5.241   0.062
 6629SOL    HW220787   5.234   5.321   0.102
 6630SOL     OW20788   3.554   1.643   1.571
 6630SOL    HW120789   3.544   1.653   1.670
 6630SOL    HW220790   3.602   1.722   1.535
 6631SOL     OW20791   1.510   5.470   5.057
 6631SOL    HW120792   1.539   5.463   4.961
 6631SOL    HW220793   1.584   5.441   5.117
 6632SOL     OW20794   1.216   0.854   1.204
 6632SOL    HW120795   1.225   0.755   1.212
 6632SOL    HW220796   1.119   0.879   1.205
 6633SOL     OW20797   2.948   4.996   6.107
 6633SOL    HW120798   2.976   4.952   6.022
 6633SOL    HW220799   2.848   4.989   6.117
 6634SOL     OW20800   5.009   2.255   5.381
 6634SOL    HW120801   4.929   2.217   5.429
 6634SOL    HW220802   4.979   2.329   5.321
 6635SOL     OW20803   4.633   4.426   2.496
 6635SOL    HW120804   4.561   4.465   2.554
 6635SOL    HW220805   4.675   4.349   2.543
 6636SOL     OW20806   2.789   0.829   2.243
 6636SOL    HW120807   2.805   0.910   2.185
 6636SOL    HW220808   2.824   0.847   2.335
 6637SOL     OW20809   2.077   0.473   0.673
 6637SOL    HW120810   2.046   0.381   0.647
 6637SOL    HW220811   2.057   0.487   0.770
 6638SOL     OW20812   2.996   3.313   3.449
 6638SOL    HW120813   2.917   3.261   3.418
 6638SOL    HW220814   2.968   3.408   3.466
 6639SOL     OW20815   3.941   3.261   0.116
 6639SOL    HW120816   3.892   3.347   0.105
 6639SOL    HW220817   3.991   3.240   0.031
 6640SOL     OW20818   0.241   2.103   5.530
 6640SOL    HW120819   0.336   2.088   5.555
 6640SOL    HW220820   0.234   2.183   5.471
 6641SOL     OW20821   3.589   1.879   1.087
 6641SOL    HW120822   3.500   1.878   1.134
 6641SOL    HW220823   3.643   1.801   1.119
 6642SOL     OW20824   1.847   5.127   0.258
 6642SOL    HW120825   1.838   5.208   0.201
 6642SOL    HW220826   1.944   5.104   0.269
 6643SOL     OW20827   5.869   6.451   0.468
 6643SOL    HW120828   5.840   6.522   0.404
 6643SOL    HW220829   5.902   6.493   0.552
 6644SOL     OW20830   1.947   6.447   2.787
 6644SOL    HW120831   2.018   6.509   2.820
 6644SOL    HW220832   1.858   6.493   2.788
 6645SOL     OW20833   5.955   2.785   1.096
 6645SOL    HW120834   5.977   2.688   1.103
 6645SOL    HW220835   5.857   2.796   1.077
 6646SOL     OW20836   4.053   0.638   6.479
 6646SOL    HW120837   4.105   0.602   6.556
 6646SOL    HW220838   4.115   0.675   6.410
 6647SOL     OW20839   4.399   5.616   1.345
 6647SOL    HW120840   4.426   5.641   1.252
 6647SOL    HW220841   4.436   5.682   1.410
 6648SOL     OW20842   3.941   5.931   4.857
 6648SOL    HW120843   4.028   5.938   4.904
 6648SOL    HW220844   3.956   5.905   4.762
 6649SOL     OW20845   5.797   3.012   6.535
 6649SOL    HW120846   5.764   3.086   6.476
 6649SOL    HW220847   5.725   2.944   6.547
 6650SOL     OW20848   3.871   0.861   4.753
 6650SOL    HW120849   3.863   0.762   4.761
 6650SOL    HW220850   3.833   0.891   4.665
 6651SOL     OW20851   1.629   1.794   6.881
 6651SOL    HW120852   1.601   1.833   6.969
 6651SOL    HW220853   1.584   1.706   6.868
 6652SOL     OW20854   0.936   4.524   0.011
 6652SOL    HW120855   0.878   4.444   7.014
 6652SOL    HW220856   0.878   4.606   0.017
 6653SOL     OW20857   5.195   2.914   0.362
 6653SOL    HW120858   5.141   2.999   0.358
 6653SOL    HW220859   5.160   2.849   0.295
 6654SOL     OW20860   0.290   5.089   2.686
 6654SOL    HW120861   0.237   5.004   2.688
 6654SOL    HW220862   0.290   5.131   2.777
 6655SOL     OW20863   0.149   6.170   1.862
 6655SOL    HW120864   0.207   6.102   1.817
 6655SOL    HW220865   0.204   6.251   1.883
 6656SOL     OW20866   4.648   1.855   2.830
 6656SOL    HW120867   4.623   1.819   2.741
 6656SOL    HW220868   4.626   1.953   2.834
 6657SOL     OW20869   5.440   2.285   4.873
 6657SOL    HW120870   5.526   2.314   4.915
 6657SOL    HW220871   5.369   2.277   4.943
 6658SOL     OW20872   6.567   0.675   5.469
 6658SOL    HW120873   6.629   0.721   5.532
 6658SOL    HW220874   6.490   0.736   5.447
 6659SOL     OW20875   1.069   4.530   1.420
 6659SOL    HW120876   1.068   4.538   1.320
 6659SOL    HW220877   0.988   4.479   1.450
 6660SOL     OW20878   1.570   5.179   2.191
 6660SOL    HW120879   1.660   5.223   2.194
 6660SOL    HW220880   1.527   5.198   2.103
 6661SOL     OW20881   2.805   0.107   4.700
 6661SOL    HW120882   2.892   0.074   4.663
 6661SOL    HW220883   2.805   0.095   4.800
 6662SOL     OW20884   1.921   0.444   1.464
 6662SOL    HW120885   1.989   0.374   1.445
 6662SOL    HW220886   1.863   0.458   1.383
 6663SOL     OW20887   0.872   6.193   5.475
 6663SOL    HW120888   0.874   6.156   5.568
 6663SOL    HW220889   0.936   6.142   5.417
 6664SOL     OW20890   2.511   0.425   1.663
 6664SOL    HW120891   2.425   0.437   1.711
 6664SOL    HW220892   2.585   0.470   1.713
 6665SOL     OW20893   2.146   6.533   5.880
 6665SOL    HW120894   2.235   6.507   5.843
 6665SOL    HW220895   2.145   6.519   5.979
 6666SOL     OW20896   6.448   5.842   4.905
 6666SOL    HW120897   6.491   5.821   4.993
 6666SOL    HW220898   6.400   5.929   4.912
 6667SOL     OW20899   6.989   6.436   5.935
 6667SOL    HW120900   6.977   6.342   5.905
 6667SOL    HW220901   6.968   6.498   5.859
 6668SOL     OW20902   6.701   6.315   1.252
 6668SOL    HW120903   6.688   6.307   1.351
 6668SOL    HW220904   6.769   6.247   1.223
 6669SOL     OW20905   3.494   1.873   1.737
 6669SOL    HW120906   3.506   1.922   1.651
 6669SOL    HW220907   3.572   1.892   1.797
 6670SOL     OW20908   2.919   1.399   6.879
 6670SOL    HW120909   2.954   1.396   6.785
 6670SOL    HW220910   2.821   1.416   6.877
 6671SOL     OW20911   4.843   6.643   0.848
 6671SOL    HW120912   4.752   6.684   0.858
 6671SOL    HW220913   4.884   6.673   0.762
 6672SOL     OW20914   1.685   2.326   0.479
 6672SOL    HW120915   1.618   2.334   0.553
 6672SOL    HW220916   1.660   2.388   0.404
 6673SOL     OW20917   5.186   3.765   4.238
 6673SOL    HW120918   5.158   3.688   4.180
 6673SOL    HW220919   5.142   3.757   4.328
 6674SOL     OW20920   0.441   2.872   6.681
 6674SOL    HW120921   0.392   2.785   6.692
 6674SOL    HW220922   0.386   2.946   6.719
 6675SOL     OW20923   4.440   2.178   0.104
 6675SOL    HW120924   4.352   2.221   0.124
 6675SOL    HW220925   4.513   2.244   0.120
 6676SOL     OW20926   1.529   4.327   2.565
 6676SOL    HW120927   1.447   4.282   2.530
 6676SOL    HW220928   1.549   4.292   2.657
 6677SOL     OW20929   0.719   0.621   6.759
 6677SOL    HW120930   0.813   0.656   6.758
 6677SOL    HW220931   0.655   0.698   6.763
 6678SOL     OW20932   1.487   3.716   0.666
 6678SOL    HW120933   1.531   3.701   0.755
 6678SOL    HW220934   1.394   3.678   0.668
 6679SOL     OW20935   3.383   0.770   3.874
 6679SOL    HW120936   3.320   0.846   3.858
 6679SOL    HW220937   3.457   0.799   3.935
 6680SOL     OW20938   4.706   6.334   0.161
 6680SOL    HW120939   4.730   6.250   0.210
 6680SOL    HW220940   4.631   6.380   0.209
 6681SOL     OW20941   4.913   5.402   1.998
 6681SOL    HW120942   4.963   5.481   2.032
 6681SOL    HW220943   4.938   5.386   1.902
 6682SOL     OW20944   2.752   4.763   6.811
 6682SOL    HW120945   2.657   4.736   6.802
 6682SOL    HW220946   2.760   4.862   6.794
 6683SOL     OW20947   6.191   3.337   5.958
 6683SOL    HW120948   6.234   3.418   5.997
 6683SOL    HW220949   6.093   3.337   5.981
 6684SOL     OW20950   3.320   6.609   2.193
 6684SOL    HW120951   3.361   6.699   2.176
 6684SOL    HW220952   3.391   6.542   2.211
 6685SOL     OW20953   4.673   2.893   6.253
 6685SOL    HW120954   4.761   2.917   6.212
 6685SOL    HW220955   4.603   2.955   6.219
 6686SOL     OW20956   6.125   5.804   3.178
 6686SOL    HW120957   6.100   5.708   3.165
 6686SOL    HW220958   6.044   5.857   3.203
 6687SOL     OW20959   0.186   2.153   1.386
 6687SOL    HW120960   0.134   2.190   1.462
 6687SOL    HW220961   0.278   2.130   1.416
 6688SOL     OW20962   4.029   4.058   0.676
 6688SOL    HW120963   4.093   4.125   0.715
 6688SOL    HW220964   4.079   3.975   0.650
 6689SOL     OW20965   4.365   4.054   5.767
 6689SOL    HW120966   4.407   3.997   5.696
 6689SOL    HW220967   4.408   4.144   5.766
 6690SOL     OW20968   1.478   6.751   6.424
 6690SOL    HW120969   1.396   6.695   6.438
 6690SOL    HW220970   1.488   6.770   6.326
 6691SOL     OW20971   1.319   0.455   2.555
 6691SOL    HW120972   1.334   0.549   2.588
 6691SOL    HW220973   1.339   0.450   2.457
 6692SOL     OW20974   4.043   4.038   1.598
 6692SOL    HW120975   4.034   3.940   1.581
 6692SOL    HW220976   4.136   4.059   1.626
 6693SOL     OW20977   4.606   1.896   4.542
 6693SOL    HW120978   4.700   1.900   4.509
 6693SOL    HW220979   4.554   1.973   4.503
 6694SOL     OW20980   3.761   5.491   1.257
 6694SOL    HW120981   3.836   5.437   1.220
 6694SOL    HW220982   3.676   5.464   1.212
 6695SOL     OW20983   2.437   1.840   6.914
 6695SOL    HW120984   2.368   1.856   6.843
 6695SOL    HW220985   2.448   1.742   6.927
 6696SOL     OW20986   3.927   3.975   4.081
 6696SOL    HW120987   3.846   3.969   4.139
 6696SOL    HW220988   3.998   3.913   4.114
 6697SOL     OW20989   5.266   2.730   2.605
 6697SOL    HW120990   5.227   2.821   2.598
 6697SOL    HW220991   5.338   2.730   2.675
 6698SOL     OW20992   2.873   3.309   1.433
 6698SOL    HW120993   2.914   3.358   1.356
 6698SOL    HW220994   2.795   3.256   1.401
 6699SOL     OW20995   1.730   5.627   5.838
 6699SOL    HW120996   1.693   5.557   5.777
 6699SOL    HW220997   1.809   5.591   5.886
 6700SOL     OW20998   5.858   0.774   0.778
 6700SOL    HW120999   5.838   0.702   0.845
 6700SOL    HW221000   5.931   0.743   0.717
 6701SOL     OW21001   5.885   6.849   1.755
 6701SOL    HW121002   5.944   6.783   1.708
 6701SOL    HW221003   5.914   6.942   1.732
 6702SOL     OW21004   2.346   2.240   1.863
 6702SOL    HW121005   2.297   2.153   1.869
 6702SOL    HW221006   2.427   2.230   1.806
 6703SOL     OW21007   1.110   1.040   6.584
 6703SOL    HW121008   1.141   1.031   6.679
 6703SOL    HW221009   1.132   0.957   6.534
 6704SOL     OW21010   3.649   1.188   4.336
 6704SOL    HW121011   3.688   1.258   4.277
 6704SOL    HW221012   3.552   1.175   4.313
 6705SOL     OW21013   5.800   2.953   0.834
 6705SOL    HW121014   5.844   2.885   0.775
 6705SOL    HW221015   5.734   2.907   0.894
 6706SOL     OW21016   1.180   5.782   0.777
 6706SOL    HW121017   1.253   5.846   0.754
 6706SOL    HW221018   1.179   5.766   0.875
 6707SOL     OW21019   5.116   0.169   2.487
 6707SOL    HW121020   5.087   0.251   2.535
 6707SOL    HW221021   5.059   0.156   2.406
 6708SOL     OW21022   6.032   4.912   1.784
 6708SOL    HW121023   5.947   4.953   1.817
 6708SOL    HW221024   6.052   4.946   1.692
 6709SOL     OW21025   0.913   4.370   2.634
 6709SOL    HW121026   0.910   4.310   2.555
 6709SOL    HW221027   0.927   4.316   2.717
 6710SOL     OW21028   4.594   1.490   1.739
 6710SOL    HW121029   4.519   1.521   1.680
 6710SOL    HW221030   4.556   1.440   1.817
 6711SOL     OW21031   4.887   6.376   5.928
 6711SOL    HW121032   4.984   6.387   5.948
 6711SOL    HW221033   4.851   6.461   5.888
 6712SOL     OW21034   6.093   3.645   0.678
 6712SOL    HW121035   6.177   3.698   0.689
 6712SOL    HW221036   6.017   3.707   0.659
 6713SOL     OW21037   1.225   1.479   3.634
 6713SOL    HW121038   1.202   1.410   3.565
 6713SOL    HW221039   1.239   1.567   3.589
 6714SOL     OW21040   5.870   1.358   0.926
 6714SOL    HW121041   5.826   1.348   1.015
 6714SOL    HW221042   5.817   1.310   0.856
 6715SOL     OW21043   1.529   1.249   1.685
 6715SOL    HW121044   1.546   1.240   1.783
 6715SOL    HW221045   1.551   1.162   1.640
 6716SOL     OW21046   6.405   6.016   2.549
 6716SOL    HW121047   6.467   6.064   2.487
 6716SOL    HW221048   6.392   5.922   2.516
 6717SOL     OW21049   2.722   2.240   6.219
 6717SOL    HW121050   2.807   2.257   6.170
 6717SOL    HW221051   2.649   2.294   6.178
 6718SOL     OW21052   4.426   1.427   0.590
 6718SOL    HW121053   4.441   1.482   0.508
 6718SOL    HW221054   4.391   1.486   0.664
 6719SOL     OW21055   1.793   6.690   0.158
 6719SOL    HW121056   1.695   6.708   0.158
 6719SOL    HW221057   1.843   6.777   0.156
 6720SOL     OW21058   2.827   0.993   4.955
 6720SOL    HW121059   2.821   1.092   4.956
 6720SOL    HW221060   2.857   0.960   5.045
 6721SOL     OW21061   6.918   0.160   0.780
 6721SOL    HW121062   6.923   0.060   0.787
 6721SOL    HW221063   6.900   0.185   0.685
 6722SOL     OW21064   0.245   2.649   0.447
 6722SOL    HW121065   0.254   2.741   0.485
 6722SOL    HW221066   0.335   2.615   0.419
 6723SOL     OW21067   1.994   0.199   6.873
 6723SOL    HW121068   2.045   0.283   6.853
 6723SOL    HW221069   1.963   0.201   6.968
 6724SOL     OW21070   2.644   2.643   6.437
 6724SOL    HW121071   2.657   2.621   6.340
 6724SOL    HW221072   2.608   2.562   6.484
 6725SOL     OW21073   6.092   3.259   2.746
 6725SOL    HW121074   6.137   3.328   2.689
 6725SOL    HW221075   6.079   3.175   2.693
 6726SOL     OW21076   0.366   2.183   4.820
 6726SOL    HW121077   0.345   2.277   4.792
 6726SOL    HW221078   0.286   2.125   4.806
 6727SOL     OW21079   0.967   3.993   5.737
 6727SOL    HW121080   0.974   3.946   5.825
 6727SOL    HW221081   0.873   3.988   5.703
 6728SOL     OW21082   3.655   1.809   3.328
 6728SOL    HW121083   3.692   1.740   3.267
 6728SOL    HW221084   3.563   1.784   3.356
 6729SOL     OW21085   6.646   2.194   6.849
 6729SOL    HW121086   6.722   2.163   6.906
 6729SOL    HW221087   6.572   2.127   6.854
 6730SOL     OW21088   1.553   0.569   1.423
 6730SOL    HW121089   1.527   0.649   1.477
 6730SOL    HW221090   1.572   0.493   1.485
 6731SOL     OW21091   1.450   6.412   1.086
 6731SOL    HW121092   1.419   6.433   0.994
 6731SOL    HW221093   1.513   6.334   1.083
 6732SOL     OW21094   5.305   4.231   4.360
 6732SOL    HW121095   5.339   4.160   4.422
 6732SOL    HW221096   5.244   4.190   4.293
 6733SOL     OW21097   3.789   5.263   6.604
 6733SOL    HW121098   3.830   5.289   6.691
 6733SOL    HW221099   3.750   5.171   6.611
 6734SOL     OW21100   5.307   2.014   5.733
 6734SOL    HW121101   5.265   2.048   5.818
 6734SOL    HW221102   5.316   2.090   5.668
 6735SOL     OW21103   5.993   4.062   4.089
 6735SOL    HW121104   5.898   4.092   4.090
 6735SOL    HW221105   6.053   4.140   4.105
 6736SOL     OW21106   3.253   4.057   6.900
 6736SOL    HW121107   3.212   3.976   6.942
 6736SOL    HW221108   3.181   4.124   6.881
 6737SOL     OW21109   0.766   2.688   1.213
 6737SOL    HW121110   0.827   2.752   1.166
 6737SOL    HW221111   0.674   2.728   1.218
 6738SOL     OW21112   1.677   5.772   3.875
 6738SOL    HW121113   1.723   5.855   3.843
 6738SOL    HW221114   1.724   5.691   3.839
 6739SOL     OW21115   6.530   6.129   3.890
 6739SOL    HW121116   6.479   6.126   3.976
 6739SOL    HW221117   6.623   6.096   3.906
 6740SOL     OW21118   6.451   6.710   4.581
 6740SOL    HW121119   6.463   6.809   4.573
 6740SOL    HW221120   6.536   6.668   4.613
 6741SOL     OW21121   3.948   2.157   5.966
 6741SOL    HW121122   3.878   2.097   5.930
 6741SOL    HW221123   4.031   2.104   5.985
 6742SOL     OW21124   5.997   5.408   3.928
 6742SOL    HW121125   5.959   5.496   3.899
 6742SOL    HW221126   5.993   5.402   4.028
 6743SOL     OW21127   3.994   4.075   6.587
 6743SOL    HW121128   3.961   3.982   6.605
 6743SOL    HW221129   4.023   4.117   6.673
 6744SOL     OW21130   0.184   6.465   6.104
 6744SOL    HW121131   0.137   6.438   6.188
 6744SOL    HW221132   0.120   6.461   6.027
 6745SOL     OW21133   6.885   6.152   3.586
 6745SOL    HW121134   6.831   6.069   3.578
 6745SOL    HW221135   6.981   6.132   3.566
 6746SOL     OW21136   1.693   0.943   2.573
 6746SOL    HW121137   1.675   0.862   2.630
 6746SOL    HW221138   1.773   0.991   2.609
 6747SOL     OW21139   5.932   6.908   6.475
 6747SOL    HW121140   5.897   6.995   6.441
 6747SOL    HW221141   5.972   6.920   6.565
 6748SOL     OW21142   2.658   2.032   3.849
 6748SOL    HW121143   2.728   1.988   3.793
 6748SOL    HW221144   2.654   2.130   3.826
 6749SOL     OW21145   3.881   4.301   0.960
 6749SOL    HW121146   3.972   4.337   0.936
 6749SOL    HW221147   3.838   4.362   1.027
 6750SOL     OW21148   3.046   1.960   3.989
 6750SOL    HW121149   3.129   1.998   3.947
 6750SOL    HW221150   3.003   2.031   4.046
 6751SOL     OW21151   4.814   0.439   3.401
 6751SOL    HW121152   4.749   0.490   3.457
 6751SOL    HW221153   4.786   0.344   3.395
 6752SOL     OW21154   1.856   0.320   3.815
 6752SOL    HW121155   1.854   0.222   3.799
 6752SOL    HW221156   1.778   0.363   3.769
 6753SOL     OW21157   3.127   1.610   5.769
 6753SOL    HW121158   3.094   1.532   5.716
 6753SOL    HW221159   3.109   1.695   5.719
 6754SOL     OW21160   6.174   0.922   1.638
 6754SOL    HW121161   6.120   0.954   1.716
 6754SOL    HW221162   6.125   0.941   1.553
 6755SOL     OW21163   3.542   4.157   1.337
 6755SOL    HW121164   3.555   4.114   1.426
 6755SOL    HW221165   3.485   4.239   1.347
 6756SOL     OW21166   3.659   0.587   5.387
 6756SOL    HW121167   3.715   0.506   5.372
 6756SOL    HW221168   3.715   0.658   5.430
 6757SOL     OW21169   3.927   1.567   1.455
 6757SOL    HW121170   3.928   1.660   1.492
 6757SOL    HW221171   4.015   1.548   1.412
 6758SOL     OW21172   6.057   3.252   1.710
 6758SOL    HW121173   6.104   3.171   1.674
 6758SOL    HW221174   6.002   3.293   1.638
 6759SOL     OW21175   6.913   3.112   3.166
 6759SOL    HW121176   6.889   3.101   3.070
 6759SOL    HW221177   6.942   3.024   3.204
 6760SOL     OW21178   6.185   3.719   2.156
 6760SOL    HW121179   6.095   3.700   2.195
 6760SOL    HW221180   6.175   3.773   2.072
 6761SOL     OW21181   5.341   2.873   5.172
 6761SOL    HW121182   5.362   2.777   5.154
 6761SOL    HW221183   5.402   2.931   5.117
 6762SOL     OW21184   0.173   4.658   4.553
 6762SOL    HW121185   0.089   4.681   4.602
 6762SOL    HW221186   0.231   4.739   4.547
 6763SOL     OW21187   4.968   5.088   4.707
 6763SOL    HW121188   4.873   5.091   4.736
 6763SOL    HW221189   5.027   5.123   4.780
 6764SOL     OW21190   1.882   5.588   2.178
 6764SOL    HW121191   1.978   5.614   2.193
 6764SOL    HW221192   1.825   5.670   2.179
 6765SOL     OW21193   6.227   4.396   3.152
 6765SOL    HW121194   6.231   4.392   3.252
 6765SOL    HW221195   6.209   4.304   3.116
 6766SOL     OW21196   4.981   6.404   5.679
 6766SOL    HW121197   4.957   6.360   5.766
 6766SOL    HW221198   4.913   6.382   5.610
 6767SOL     OW21199   3.285   0.276   1.423
 6767SOL    HW121200   3.221   0.338   1.378
 6767SOL    HW221201   3.378   0.313   1.416
 6768SOL     OW21202   2.092   0.351   5.500
 6768SOL    HW121203   2.003   0.396   5.494
 6768SOL    HW221204   2.164   0.421   5.492
 6769SOL     OW21205   2.976   1.704   1.141
 6769SOL    HW121206   3.008   1.791   1.102
 6769SOL    HW221207   3.020   1.689   1.230
 6770SOL     OW21208   6.793   1.025   1.788
 6770SOL    HW121209   6.805   1.023   1.888
 6770SOL    HW221210   6.806   1.119   1.756
 6771SOL     OW21211   4.773   2.781   3.655
 6771SOL    HW121212   4.765   2.867   3.605
 6771SOL    HW221213   4.716   2.785   3.737
 6772SOL     OW21214   3.367   1.011   3.502
 6772SOL    HW121215   3.453   0.967   3.478
 6772SOL    HW221216   3.291   0.951   3.478
 6773SOL     OW21217   6.902   5.447   1.727
 6773SOL    HW121218   6.858   5.399   1.652
 6773SOL    HW221219   6.949   5.381   1.786
 6774SOL     OW21220   0.294   2.372   5.792
 6774SOL    HW121221   0.286   2.472   5.794
 6774SOL    HW221222   0.358   2.345   5.720
 6775SOL     OW21223   2.520   3.023   1.661
 6775SOL    HW121224   2.620   3.022   1.671
 6775SOL    HW221225   2.486   3.116   1.678
 6776SOL     OW21226   4.349   4.604   6.694
 6776SOL    HW121227   4.441   4.592   6.732
 6776SOL    HW221228   4.332   4.702   6.680
 6777SOL     OW21229   4.245   3.895   6.993
 6777SOL    HW121230   4.259   3.984   6.950
 6777SOL    HW221231   4.299   3.826   6.946
 6778SOL     OW21232   6.177   4.624   2.271
 6778SOL    HW121233   6.231   4.623   2.187
 6778SOL    HW221234   6.209   4.552   2.333
 6779SOL     OW21235   6.745   5.110   5.859
 6779SOL    HW121236   6.821   5.069   5.911
 6779SOL    HW221237   6.659   5.094   5.907
 6780SOL     OW21238   1.357   2.240   2.388
 6780SOL    HW121239   1.352   2.337   2.365
 6780SOL    HW221240   1.422   2.194   2.328
 6781SOL     OW21241   5.820   0.016   4.923
 6781SOL    HW121242   5.918   0.031   4.931
 6781SOL    HW221243   5.774   0.050   5.006
 6782SOL     OW21244   0.496   0.122   3.538
 6782SOL    HW121245   0.577   0.115   3.597
 6782SOL    HW221246   0.413   0.114   3.593
 6783SOL     OW21247   6.536   0.772   6.484
 6783SOL    HW121248   6.519   0.840   6.555
 6783SOL    HW221249   6.452   0.723   6.463
 6784SOL     OW21250   3.222   3.086   0.444
 6784SOL    HW121251   3.165   3.168   0.454
 6784SOL    HW221252   3.317   3.114   0.429
 6785SOL     OW21253   5.388   4.782   2.717
 6785SOL    HW121254   5.450   4.801   2.640
 6785SOL    HW221255   5.383   4.683   2.732
 6786SOL     OW21256   1.599   1.992   0.274
 6786SOL    HW121257   1.536   1.973   0.199
 6786SOL    HW221258   1.569   1.942   0.356
 6787SOL     OW21259   1.476   2.877   0.946
 6787SOL    HW121260   1.574   2.877   0.925
 6787SOL    HW221261   1.459   2.936   1.025
 6788SOL     OW21262   2.503   3.295   1.659
 6788SOL    HW121263   2.589   3.319   1.705
 6788SOL    HW221264   2.427   3.332   1.711
 6789SOL     OW21265   6.983   6.260   2.977
 6789SOL    HW121266   6.964   6.162   2.973
 6789SOL    HW221267   7.014   6.292   2.888
 6790SOL     OW21268   1.377   3.745   1.064
 6790SOL    HW121269   1.462   3.787   1.033
 6790SOL    HW221270   1.361   3.660   1.014
 6791SOL     OW21271   4.436   2.769   1.609
 6791SOL    HW121272   4.415   2.693   1.671
 6791SOL    HW221273   4.392   2.852   1.644
 6792SOL     OW21274   6.623   6.222   6.258
 6792SOL    HW121275   6.656   6.307   6.218
 6792SOL    HW221276   6.526   6.211   6.238
 6793SOL     OW21277   1.225   1.796   0.207
 6793SOL    HW121278   1.149   1.731   0.208
 6793SOL    HW221279   1.215   1.860   0.283
 6794SOL     OW21280   4.983   1.669   5.760
 6794SOL    HW121281   4.937   1.743   5.809
 6794SOL    HW221282   4.966   1.582   5.807
 6795SOL     OW21283   2.616   6.445   0.810
 6795SOL    HW121284   2.618   6.516   0.740
 6795SOL    HW221285   2.669   6.366   0.780
 6796SOL     OW21286   6.104   0.764   2.280
 6796SOL    HW121287   6.004   0.771   2.287
 6796SOL    HW221288   6.146   0.814   2.356
 6797SOL     OW21289   5.624   3.877   1.576
 6797SOL    HW121290   5.556   3.808   1.552
 6797SOL    HW221291   5.647   3.869   1.673
 6798SOL     OW21292   5.323   6.359   2.491
 6798SOL    HW121293   5.359   6.327   2.579
 6798SOL    HW221294   5.349   6.294   2.419
 6799SOL     OW21295   6.438   6.003   0.183
 6799SOL    HW121296   6.413   6.092   0.222
 6799SOL    HW221297   6.468   6.014   0.088
 6800SOL     OW21298   2.194   3.820   1.273
 6800SOL    HW121299   2.252   3.832   1.353
 6800SOL    HW221300   2.245   3.771   1.202
 6801SOL     OW21301   0.744   0.527   2.993
 6801SOL    HW121302   0.716   0.450   2.936
 6801SOL    HW221303   0.839   0.550   2.974
 6802SOL     OW21304   3.122   5.691   0.190
 6802SOL    HW121305   3.115   5.769   0.128
 6802SOL    HW221306   3.202   5.636   0.165
 6803SOL     OW21307   5.224   2.681   6.514
 6803SOL    HW121308   5.256   2.769   6.550
 6803SOL    HW221309   5.149   2.647   6.571
 6804SOL     OW21310   2.744   5.150   3.318
 6804SOL    HW121311   2.722   5.165   3.415
 6804SOL    HW221312   2.800   5.226   3.285
 6805SOL     OW21313   5.609   5.523   5.280
 6805SOL    HW121314   5.538   5.589   5.253
 6805SOL    HW221315   5.628   5.532   5.378
 6806SOL     OW21316   5.784   0.708   3.408
 6806SOL    HW121317   5.818   0.785   3.463
 6806SOL    HW221318   5.758   0.742   3.317
 6807SOL     OW21319   3.022   2.599   0.563
 6807SOL    HW121320   3.048   2.641   0.476
 6807SOL    HW221321   3.084   2.523   0.584
 6808SOL     OW21322   0.144   1.674   5.457
 6808SOL    HW121323   0.114   1.770   5.457
 6808SOL    HW221324   0.198   1.656   5.375
 6809SOL     OW21325   1.257   3.260   1.672
 6809SOL    HW121326   1.226   3.170   1.704
 6809SOL    HW221327   1.203   3.288   1.592
 6810SOL     OW21328   1.841   0.283   1.926
 6810SOL    HW121329   1.816   0.350   1.996
 6810SOL    HW221330   1.864   0.330   1.841
 6811SOL     OW21331   4.961   3.987   0.337
 6811SOL    HW121332   4.937   4.028   0.425
 6811SOL    HW221333   5.039   3.926   0.349
 6812SOL     OW21334   3.631   3.102   3.579
 6812SOL    HW121335   3.540   3.067   3.560
 6812SOL    HW221336   3.629   3.158   3.662
 6813SOL     OW21337   4.687   2.300   2.276
 6813SOL    HW121338   4.666   2.209   2.241
 6813SOL    HW221339   4.720   2.358   2.202
 6814SOL     OW21340   3.063   2.060   0.359
 6814SOL    HW121341   3.053   1.987   0.291
 6814SOL    HW221342   3.121   2.133   0.322
 6815SOL     OW21343   2.899   0.117   1.425
 6815SOL    HW121344   2.931   0.154   1.338
 6815SOL    HW221345   2.852   0.031   1.408
 6816SOL     OW21346   0.250   6.940   6.763
 6816SOL    HW121347   0.332   6.975   6.718
 6816SOL    HW221348   0.276   6.894   6.849
 6817SOL     OW21349   0.920   1.982   4.761
 6817SOL    HW121350   0.989   1.926   4.715
 6817SOL    HW221351   0.965   2.050   4.819
 6818SOL     OW21352   2.978   5.188   1.883
 6818SOL    HW121353   2.988   5.126   1.961
 6818SOL    HW221354   2.883   5.218   1.876
 6819SOL     OW21355   4.938   1.081   4.437
 6819SOL    HW121356   4.897   1.128   4.516
 6819SOL    HW221357   4.961   0.987   4.462
 6820SOL     OW21358   0.735   5.665   3.019
 6820SOL    HW121359   0.811   5.692   2.959
 6820SOL    HW221360   0.773   5.627   3.104
 6821SOL     OW21361   3.245   0.808   5.164
 6821SOL    HW121362   3.247   0.710   5.150
 6821SOL    HW221363   3.307   0.832   5.239
 6822SOL     OW21364   6.108   2.308   5.969
 6822SOL    HW121365   6.034   2.350   6.021
 6822SOL    HW221366   6.174   2.267   6.032
 6823SOL     OW21367   3.492   3.358   4.349
 6823SOL    HW121368   3.559   3.387   4.418
 6823SOL    HW221369   3.477   3.431   4.283
 6824SOL     OW21370   1.164   2.960   6.109
 6824SOL    HW121371   1.176   3.021   6.188
 6824SOL    HW221372   1.182   2.865   6.137
 6825SOL     OW21373   5.111   6.450   2.231
 6825SOL    HW121374   5.047   6.408   2.167
 6825SOL    HW221375   5.110   6.400   2.317
 6826SOL     OW21376   2.145   4.098   2.611
 6826SOL    HW121377   2.133   4.114   2.513
 6826SOL    HW221378   2.117   4.005   2.634
 6827SOL     OW21379   4.250   5.497   0.035
 6827SOL    HW121380   4.287   5.456   6.973
 6827SOL    HW221381   4.152   5.515   0.021
 6828SOL     OW21382   2.870   1.760   1.808
 6828SOL    HW121383   2.940   1.689   1.807
 6828SOL    HW221384   2.895   1.830   1.875
 6829SOL     OW21385   4.834   6.773   4.253
 6829SOL    HW121386   4.796   6.756   4.162
 6829SOL    HW221387   4.905   6.844   4.247
 6830SOL     OW21388   5.472   1.482   3.946
 6830SOL    HW121389   5.570   1.504   3.938
 6830SOL    HW221390   5.457   1.387   3.918
 6831SOL     OW21391   1.173   0.401   6.246
 6831SOL    HW121392   1.202   0.307   6.229
 6831SOL    HW221393   1.251   0.455   6.279
 6832SOL     OW21394   2.970   3.858   1.004
 6832SOL    HW121395   2.895   3.792   1.000
 6832SOL    HW221396   2.945   3.934   1.064
 6833SOL     OW21397   4.453   4.780   6.388
 6833SOL    HW121398   4.469   4.692   6.433
 6833SOL    HW221399   4.355   4.796   6.382
 6834SOL     OW21400   5.391   6.794   1.294
 6834SOL    HW121401   5.312   6.798   1.355
 6834SOL    HW221402   5.431   6.703   1.297
 6835SOL     OW21403   3.831   0.138   5.019
 6835SOL    HW121404   3.905   0.205   5.011
 6835SOL    HW221405   3.868   0.053   5.057
 6836SOL     OW21406   2.969   5.605   0.415
 6836SOL    HW121407   3.018   5.638   0.335
 6836SOL    HW221408   2.881   5.566   0.387
 6837SOL     OW21409   1.702   1.889   1.913
 6837SOL    HW121410   1.697   1.989   1.921
 6837SOL    HW221411   1.741   1.851   1.997
 6838SOL     OW21412   2.573   6.039   0.786
 6838SOL    HW121413   2.620   6.083   0.710
 6838SOL    HW221414   2.477   6.022   0.761
 6839SOL     OW21415   4.985   0.702   6.649
 6839SOL    HW121416   5.055   0.722   6.580
 6839SOL    HW221417   4.925   0.781   6.659
 6840SOL     OW21418   3.192   1.915   4.751
 6840SOL    HW121419   3.227   2.000   4.711
 6840SOL    HW221420   3.213   1.912   4.848
 6841SOL     OW21421   5.440   4.187   6.069
 6841SOL    HW121422   5.342   4.183   6.090
 6841SOL    HW221423   5.492   4.155   6.147
 6842SOL     OW21424   3.093   4.214   1.027
 6842SOL    HW121425   3.028   4.154   1.073
 6842SOL    HW221426   3.158   4.159   0.974
 6843SOL     OW21427   5.317   6.409   0.332
 6843SOL    HW121428   5.351   6.386   0.423
 6843SOL    HW221429   5.318   6.508   0.321
 6844SOL     OW21430   5.474   0.898   4.242
 6844SOL    HW121431   5.523   0.891   4.155
 6844SOL    HW221432   5.389   0.845   4.236
 6845SOL     OW21433   6.113   3.524   3.239
 6845SOL    HW121434   6.177   3.537   3.315
 6845SOL    HW221435   6.151   3.457   3.175
 6846SOL     OW21436   3.770   3.656   0.286
 6846SOL    HW121437   3.742   3.751   0.289
 6846SOL    HW221438   3.820   3.633   0.370
 6847SOL     OW21439   0.175   3.872   5.324
 6847SOL    HW121440   0.236   3.802   5.289
 6847SOL    HW221441   0.085   3.832   5.341
 6848SOL     OW21442   5.193   4.486   3.324
 6848SOL    HW121443   5.117   4.547   3.300
 6848SOL    HW221444   5.258   4.536   3.382
 6849SOL     OW21445   4.127   4.001   5.635
 6849SOL    HW121446   4.100   3.906   5.620
 6849SOL    HW221447   4.220   4.004   5.671
 6850SOL     OW21448   5.340   3.128   2.883
 6850SOL    HW121449   5.436   3.099   2.886
 6850SOL    HW221450   5.325   3.185   2.803
 6851SOL     OW21451   1.079   2.313   2.794
 6851SOL    HW121452   1.067   2.259   2.877
 6851SOL    HW221453   1.164   2.366   2.801
 6852SOL     OW21454   3.038   4.637   1.013
 6852SOL    HW121455   3.032   4.564   0.945
 6852SOL    HW221456   3.028   4.598   1.105
 6853SOL     OW21457   5.319   4.383   6.483
 6853SOL    HW121458   5.364   4.440   6.414
 6853SOL    HW221459   5.372   4.385   6.568
 6854SOL     OW21460   5.534   7.004   5.882
 6854SOL    HW121461   5.468   6.932   5.864
 6854SOL    HW221462   5.626   6.972   5.859
 6855SOL     OW21463   4.255   5.699   3.474
 6855SOL    HW121464   4.169   5.747   3.457
 6855SOL    HW221465   4.237   5.612   3.520
 6856SOL     OW21466   0.691   2.052   5.268
 6856SOL    HW121467   0.757   2.080   5.199
 6856SOL    HW221468   0.613   2.007   5.224
 6857SOL     OW21469   1.143   3.254   6.543
 6857SOL    HW121470   1.145   3.205   6.630
 6857SOL    HW221471   1.110   3.347   6.558
 6858SOL     OW21472   3.716   4.171   1.924
 6858SOL    HW121473   3.699   4.130   2.014
 6858SOL    HW221474   3.644   4.238   1.903
 6859SOL     OW21475   0.331   0.709   1.435
 6859SOL    HW121476   0.283   0.636   1.387
 6859SOL    HW221477   0.389   0.671   1.506
 6860SOL     OW21478   6.812   4.596   1.267
 6860SOL    HW121479   6.777   4.613   1.359
 6860SOL    HW221480   6.895   4.540   1.272
 6861SOL     OW21481   5.165   4.152   6.121
 6861SOL    HW121482   5.093   4.162   6.052
 6861SOL    HW221483   5.125   4.120   6.207
 6862SOL     OW21484   6.909   5.011   5.493
 6862SOL    HW121485   6.926   5.090   5.551
 6862SOL    HW221486   6.976   5.011   5.417
 6863SOL     OW21487   6.329   5.997   5.820
 6863SOL    HW121488   6.368   5.930   5.883
 6863SOL    HW221489   6.258   6.049   5.867
 6864SOL     OW21490   2.118   4.636   4.825
 6864SOL    HW121491   2.065   4.713   4.860
 6864SOL    HW221492   2.191   4.614   4.890
 6865SOL     OW21493   1.013   0.136   5.251
 6865SOL    HW121494   0.979   0.047   5.281
 6865SOL    HW221495   1.083   0.124   5.181
 6866SOL     OW21496   5.902   4.464   2.434
 6866SOL    HW121497   5.962   4.522   2.378
 6866SOL    HW221498   5.827   4.520   2.471
 6867SOL     OW21499   1.887   3.578   1.181
 6867SOL    HW121500   1.888   3.659   1.239
 6867SOL    HW221501   1.980   3.549   1.163
 6868SOL     OW21502   2.310   6.692   5.155
 6868SOL    HW121503   2.342   6.785   5.172
 6868SOL    HW221504   2.387   6.629   5.164
 6869SOL     OW21505   4.908   1.193   5.740
 6869SOL    HW121506   4.930   1.251   5.817
 6869SOL    HW221507   4.830   1.231   5.690
 6870SOL     OW21508   0.360   3.994   1.273
 6870SOL    HW121509   0.384   4.083   1.235
 6870SOL    HW221510   0.293   4.006   1.346
 6871SOL     OW21511   6.443   3.844   2.366
 6871SOL    HW121512   6.512   3.888   2.422
 6871SOL    HW221513   6.483   3.817   2.278
 6872SOL     OW21514   0.402   2.870   1.972
 6872SOL    HW121515   0.312   2.912   1.963
 6872SOL    HW221516   0.405   2.786   1.917
 6873SOL     OW21517   0.857   4.097   4.165
 6873SOL    HW121518   0.820   4.008   4.136
 6873SOL    HW221519   0.801   4.131   4.241
 6874SOL     OW21520   6.502   5.634   3.839
 6874SOL    HW121521   6.467   5.717   3.795
 6874SOL    HW221522   6.429   5.592   3.893
 6875SOL     OW21523   2.417   1.981   2.231
 6875SOL    HW121524   2.401   2.073   2.267
 6875SOL    HW221525   2.513   1.972   2.205
 6876SOL     OW21526   3.331   6.817   3.571
 6876SOL    HW121527   3.366   6.837   3.479
 6876SOL    HW221528   3.387   6.864   3.639
 6877SOL     OW21529   3.180   4.048   1.776
 6877SOL    HW121530   3.135   4.132   1.747
 6877SOL    HW221531   3.189   4.048   1.876
 6878SOL     OW21532   2.592   1.971   3.507
 6878SOL    HW121533   2.534   1.952   3.587
 6878SOL    HW221534   2.635   1.886   3.476
 6879SOL     OW21535   2.307   2.708   0.334
 6879SOL    HW121536   2.277   2.797   0.369
 6879SOL    HW221537   2.257   2.686   0.251
 6880SOL     OW21538   0.663   6.415   5.895
 6880SOL    HW121539   0.683   6.505   5.855
 6880SOL    HW221540   0.741   6.354   5.882
 6881SOL     OW21541   1.545   3.014   1.557
 6881SOL    HW121542   1.495   2.937   1.596
 6881SOL    HW221543   1.637   3.017   1.595
 6882SOL     OW21544   2.736   1.155   0.614
 6882SOL    HW121545   2.789   1.239   0.611
 6882SOL    HW221546   2.749   1.110   0.702
 6883SOL     OW21547   4.954   1.203   6.137
 6883SOL    HW121548   5.021   1.142   6.179
 6883SOL    HW221549   4.946   1.286   6.191
 6884SOL     OW21550   1.593   4.301   3.240
 6884SOL    HW121551   1.663   4.233   3.218
 6884SOL    HW221552   1.581   4.363   3.163
 6885SOL     OW21553   4.691   4.968   3.720
 6885SOL    HW121554   4.695   4.908   3.800
 6885SOL    HW221555   4.596   4.986   3.696
 6886SOL     OW21556   0.094   1.385   4.799
 6886SOL    HW121557   0.073   1.401   4.703
 6886SOL    HW221558   0.019   1.421   4.855
 6887SOL     OW21559   4.444   5.722   0.239
 6887SOL    HW121560   4.529   5.731   0.291
 6887SOL    HW221561   4.409   5.629   0.248
 6888SOL     OW21562   5.603   4.657   6.178
 6888SOL    HW121563   5.550   4.665   6.093
 6888SOL    HW221564   5.675   4.726   6.178
 6889SOL     OW21565   1.779   2.516   5.752
 6889SOL    HW121566   1.869   2.534   5.712
 6889SOL    HW221567   1.709   2.569   5.704
 6890SOL     OW21568   3.666   5.739   3.152
 6890SOL    HW121569   3.617   5.691   3.224
 6890SOL    HW221570   3.691   5.675   3.079
 6891SOL     OW21571   1.937   3.147   1.302
 6891SOL    HW121572   1.866   3.147   1.232
 6891SOL    HW221573   1.898   3.112   1.388
 6892SOL     OW21574   3.129   1.291   3.649
 6892SOL    HW121575   3.192   1.219   3.679
 6892SOL    HW221576   3.176   1.353   3.587
 6893SOL     OW21577   5.698   3.604   0.475
 6893SOL    HW121578   5.794   3.607   0.448
 6893SOL    HW221579   5.691   3.621   0.574
 6894SOL     OW21580   6.037   5.008   1.168
 6894SOL    HW121581   6.099   5.052   1.104
 6894SOL    HW221582   5.967   5.073   1.197
 6895SOL     OW21583   1.994   5.364   1.275
 6895SOL    HW121584   1.972   5.290   1.211
 6895SOL    HW221585   1.997   5.327   1.368
 6896SOL     OW21586   2.514   1.878   4.026
 6896SOL    HW121587   2.556   1.916   3.944
 6896SOL    HW221588   2.585   1.850   4.091
 6897SOL     OW21589   4.842   3.876   5.221
 6897SOL    HW121590   4.818   3.784   5.190
 6897SOL    HW221591   4.812   3.943   5.154
 6898SOL     OW21592   3.467   1.415   1.334
 6898SOL    HW121593   3.369   1.412   1.353
 6898SOL    HW221594   3.485   1.374   1.245
 6899SOL     OW21595   4.636   6.316   2.402
 6899SOL    HW121596   4.654   6.244   2.335
 6899SOL    HW221597   4.637   6.405   2.356
 6900SOL     OW21598   0.052   4.305   5.335
 6900SOL    HW121599   6.997   4.367   5.356
 6900SOL    HW221600   0.040   4.268   5.243
 6901SOL     OW21601   5.429   5.866   6.005
 6901SOL    HW121602   5.411   5.949   6.058
 6901SOL    HW221603   5.523   5.837   6.022
 6902SOL     OW21604   6.447   6.004   5.309
 6902SOL    HW121605   6.457   6.001   5.408
 6902SOL    HW221606   6.494   6.085   5.273
 6903SOL     OW21607   3.222   4.970   4.969
 6903SOL    HW121608   3.250   4.928   5.055
 6903SOL    HW221609   3.132   4.934   4.942
 6904SOL     OW21610   6.489   7.009   6.126
 6904SOL    HW121611   6.474   7.003   6.028
 6904SOL    HW221612   6.545   6.931   6.155
 6905SOL     OW21613   5.252   5.215   6.793
 6905SOL    HW121614   5.287   5.121   6.796
 6905SOL    HW221615   5.238   5.248   6.886
 6906SOL     OW21616   3.313   1.232   3.357
 6906SOL    HW121617   3.378   1.307   3.369
 6906SOL    HW221618   3.345   1.152   3.409
 6907SOL     OW21619   6.521   2.587   1.908
 6907SOL    HW121620   6.560   2.629   1.990
 6907SOL    HW221621   6.532   2.649   1.830
 6908SOL     OW21622   2.198   4.664   6.820
 6908SOL    HW121623   2.286   4.694   6.784
 6908SOL    HW221624   2.128   4.733   6.799
 6909SOL     OW21625   5.306   4.667   1.735
 6909SOL    HW121626   5.367   4.659   1.656
 6909SOL    HW221627   5.225   4.719   1.709
 6910SOL     OW21628   1.386   2.462   3.047
 6910SOL    HW121629   1.309   2.453   3.110
 6910SOL    HW221630   1.364   2.530   2.977
 6911SOL     OW21631   4.334   7.013   4.375
 6911SOL    HW121632   4.394   6.945   4.333
 6911SOL    HW221633   4.239   6.989   4.356
 6912SOL     OW21634   2.557   3.355   6.588
 6912SOL    HW121635   2.593   3.409   6.664
 6912SOL    HW221636   2.516   3.271   6.623
 6913SOL     OW21637   5.249   6.705   5.019
 6913SOL    HW121638   5.179   6.648   4.976
 6913SOL    HW221639   5.339   6.663   5.004
 6914SOL     OW21640   5.964   4.144   3.125
 6914SOL    HW121641   6.033   4.127   3.056
 6914SOL    HW221642   5.923   4.234   3.110
 6915SOL     OW21643   0.846   2.408   2.631
 6915SOL    HW121644   0.933   2.380   2.672
 6915SOL    HW221645   0.805   2.481   2.687
 6916SOL     OW21646   5.492   1.121   6.339
 6916SOL    HW121647   5.542   1.047   6.293
 6916SOL    HW221648   5.416   1.151   6.282
 6917SOL     OW21649   3.886   5.907   1.999
 6917SOL    HW121650   3.894   5.892   2.098
 6917SOL    HW221651   3.975   5.889   1.955
 6918SOL     OW21652   6.931   2.840   4.034
 6918SOL    HW121653   6.976   2.880   3.955
 6918SOL    HW221654   6.852   2.787   4.004
 6919SOL     OW21655   6.285   5.814   3.403
 6919SOL    HW121656   6.234   5.886   3.449
 6919SOL    HW221657   6.255   5.808   3.307
 6920SOL     OW21658   4.883   0.188   5.427
 6920SOL    HW121659   4.795   0.199   5.380
 6920SOL    HW221660   4.952   0.155   5.362
 6921SOL     OW21661   4.526   6.966   3.917
 6921SOL    HW121662   4.527   6.948   3.818
 6921SOL    HW221663   4.495   0.038   3.934
 6922SOL     OW21664   1.612   6.457   5.295
 6922SOL    HW121665   1.610   6.504   5.207
 6922SOL    HW221666   1.565   6.513   5.363
 6923SOL     OW21667   5.771   6.634   2.483
 6923SOL    HW121668   5.684   6.641   2.435
 6923SOL    HW221669   5.829   6.711   2.459
 6924SOL     OW21670   2.840   4.903   0.399
 6924SOL    HW121671   2.876   4.972   0.336
 6924SOL    HW221672   2.916   4.860   0.447
 6925SOL     OW21673   4.379   5.425   5.269
 6925SOL    HW121674   4.281   5.405   5.263
 6925SOL    HW221675   4.407   5.422   5.364
 6926SOL     OW21676   2.210   1.899   0.959
 6926SOL    HW121677   2.178   1.805   0.976
 6926SOL    HW221678   2.215   1.949   1.045
 6927SOL     OW21679   3.304   1.557   6.974
 6927SOL    HW121680   3.377   1.589   0.013
 6927SOL    HW221681   3.300   1.614   6.892
 6928SOL     OW21682   4.974   6.234   0.710
 6928SOL    HW121683   5.030   6.153   0.688
 6928SOL    HW221684   4.922   6.261   0.630
 6929SOL     OW21685   5.274   5.891   1.641
 6929SOL    HW121686   5.365   5.849   1.641
 6929SOL    HW221687   5.205   5.819   1.635
 6930SOL     OW21688   0.467   0.630   1.146
 6930SOL    HW121689   0.517   0.570   1.208
 6930SOL    HW221690   0.516   0.635   1.059
 6931SOL     OW21691   1.652   1.810   1.678
 6931SOL    HW121692   1.587   1.739   1.703
 6931SOL    HW221693   1.682   1.859   1.761
 6932SOL     OW21694   4.417   6.103   1.058
 6932SOL    HW121695   4.503   6.146   1.084
 6932SOL    HW221696   4.436   6.022   1.001
 6933SOL     OW21697   3.580   7.014   5.558
 6933SOL    HW121698   3.590   0.001   5.459
 6933SOL    HW221699   3.512   6.945   5.579
 6934SOL     OW21700   4.765   3.197   5.982
 6934SOL    HW121701   4.806   3.211   6.072
 6934SOL    HW221702   4.769   3.100   5.958
 6935SOL     OW21703   3.968   5.759   2.965
 6935SOL    HW121704   3.902   5.833   2.975
 6935SOL    HW221705   4.061   5.796   2.970
 6936SOL     OW21706   0.100   2.584   4.403
 6936SOL    HW121707   0.194   2.606   4.376
 6936SOL    HW221708   0.048   2.669   4.415
 6937SOL     OW21709   5.669   6.254   0.968
 6937SOL    HW121710   5.654   6.323   0.897
 6937SOL    HW221711   5.695   6.167   0.925
 6938SOL     OW21712   0.658   2.314   4.336
 6938SOL    HW121713   0.617   2.223   4.345
 6938SOL    HW221714   0.707   2.337   4.419
 6939SOL     OW21715   6.992   5.406   3.019
 6939SOL    HW121716   0.022   5.344   3.078
 6939SOL    HW221717   6.924   5.355   2.966
 6940SOL     OW21718   4.218   6.851   0.359
 6940SOL    HW121719   4.263   6.936   0.386
 6940SOL    HW221720   4.209   6.848   0.260
 6941SOL     OW21721   2.989   3.841   2.275
 6941SOL    HW121722   2.926   3.772   2.240
 6941SOL    HW221723   2.977   3.926   2.223
 6942SOL     OW21724   5.811   0.056   1.932
 6942SOL    HW121725   5.722   0.088   1.900
 6942SOL    HW221726   5.883   0.096   1.875
 6943SOL     OW21727   3.755   4.616   0.399
 6943SOL    HW121728   3.759   4.672   0.482
 6943SOL    HW221729   3.787   4.524   0.419
 6944SOL     OW21730   0.853   5.182   6.468
 6944SOL    HW121731   0.754   5.186   6.460
 6944SOL    HW221732   0.894   5.177   6.377
 6945SOL     OW21733   6.765   2.486   1.216
 6945SOL    HW121734   6.808   2.453   1.132
 6945SOL    HW221735   6.737   2.407   1.272
 6946SOL     OW21736   4.150   6.382   1.760
 6946SOL    HW121737   4.245   6.384   1.789
 6946SOL    HW221738   4.145   6.394   1.660
 6947SOL     OW21739   4.640   5.262   6.431
 6947SOL    HW121740   4.550   5.305   6.436
 6947SOL    HW221741   4.694   5.288   6.511
 6948SOL     OW21742   0.415   5.693   1.116
 6948SOL    HW121743   0.317   5.705   1.123
 6948SOL    HW221744   0.435   5.604   1.075
 6949SOL     OW21745   2.361   2.023   3.349
 6949SOL    HW121746   2.444   2.001   3.400
 6949SOL    HW221747   2.378   2.101   3.289
 6950SOL     OW21748   1.787   0.657   4.481
 6950SOL    HW121749   1.752   0.751   4.488
 6950SOL    HW221750   1.741   0.610   4.405
 6951SOL     OW21751   6.798   6.075   6.927
 6951SOL    HW121752   6.796   6.166   6.969
 6951SOL    HW221753   6.893   6.044   6.918
 6952SOL     OW21754   2.031   5.294   2.846
 6952SOL    HW121755   1.972   5.215   2.829
 6952SOL    HW221756   1.992   5.350   2.920
 6953SOL     OW21757   5.429   0.213   0.045
 6953SOL    HW121758   5.462   0.153   6.993
 6953SOL    HW221759   5.356   0.272   0.010
 6954SOL     OW21760   0.268   4.000   1.544
 6954SOL    HW121761   0.258   3.900   1.545
 6954SOL    HW221762   0.298   4.031   1.634
 6955SOL     OW21763   4.702   0.972   2.632
 6955SOL    HW121764   4.778   1.027   2.665
 6955SOL    HW221765   4.720   0.875   2.652
 6956SOL     OW21766   5.160   5.622   3.299
 6956SOL    HW121767   5.201   5.533   3.282
 6956SOL    HW221768   5.061   5.616   3.287
 6957SOL     OW21769   6.055   5.856   0.488
 6957SOL    HW121770   6.146   5.876   0.451
 6957SOL    HW221771   5.986   5.907   0.436
 6958SOL     OW21772   3.641   3.244   4.776
 6958SOL    HW121773   3.659   3.326   4.830
 6958SOL    HW221774   3.716   3.179   4.787
 6959SOL     OW21775   1.835   4.146   3.220
 6959SOL    HW121776   1.881   4.226   3.259
 6959SOL    HW221777   1.897   4.068   3.221
 6960SOL     OW21778   2.577   3.939   0.973
 6960SOL    HW121779   2.564   4.030   1.012
 6960SOL    HW221780   2.621   3.947   0.884
 6961SOL     OW21781   5.569   1.349   4.524
 6961SOL    HW121782   5.606   1.285   4.591
 6961SOL    HW221783   5.470   1.357   4.537
 6962SOL     OW21784   4.209   5.828   1.045
 6962SOL    HW121785   4.146   5.901   1.074
 6962SOL    HW221786   4.173   5.739   1.074
 6963SOL     OW21787   5.383   4.837   0.538
 6963SOL    HW121788   5.432   4.894   0.604
 6963SOL    HW221789   5.292   4.816   0.575
 6964SOL     OW21790   3.738   0.491   5.854
 6964SOL    HW121791   3.640   0.482   5.835
 6964SOL    HW221792   3.784   0.404   5.833
 6965SOL     OW21793   1.749   1.182   6.986
 6965SOL    HW121794   1.702   1.095   6.971
 6965SOL    HW221795   1.844   1.164   7.014
 6966SOL     OW21796   0.764   0.513   2.705
 6966SOL    HW121797   0.759   0.506   2.606
 6966SOL    HW221798   0.749   0.608   2.733
 6967SOL     OW21799   3.339   1.206   6.158
 6967SOL    HW121800   3.328   1.108   6.170
 6967SOL    HW221801   3.349   1.227   6.061
 6968SOL     OW21802   2.324   1.011   3.695
 6968SOL    HW121803   2.235   0.968   3.679
 6968SOL    HW221804   2.381   1.002   3.613
 6969SOL     OW21805   3.359   1.987   1.376
 6969SOL    HW121806   3.347   1.956   1.281
 6969SOL    HW221807   3.270   1.998   1.419
 6970SOL     OW21808   4.079   3.738   5.599
 6970SOL    HW121809   4.140   3.659   5.603
 6970SOL    HW221810   4.052   3.755   5.504
 6971SOL     OW21811   5.570   5.562   1.275
 6971SOL    HW121812   5.614   5.603   1.195
 6971SOL    HW221813   5.628   5.575   1.355
 6972SOL     OW21814   5.361   3.847   2.015
 6972SOL    HW121815   5.407   3.829   1.929
 6972SOL    HW221816   5.423   3.895   2.077
 6973SOL     OW21817   1.005   2.611   3.633
 6973SOL    HW121818   1.039   2.604   3.539
 6973SOL    HW221819   1.057   2.549   3.692
 6974SOL     OW21820   2.946   3.575   2.574
 6974SOL    HW121821   3.032   3.540   2.536
 6974SOL    HW221822   2.932   3.669   2.543
 6975SOL     OW21823   1.735   6.685   4.497
 6975SOL    HW121824   1.666   6.758   4.498
 6975SOL    HW221825   1.768   6.669   4.590
 6976SOL     OW21826   6.489   3.775   5.758
 6976SOL    HW121827   6.558   3.797   5.689
 6976SOL    HW221828   6.461   3.859   5.805
 6977SOL     OW21829   3.648   3.414   1.232
 6977SOL    HW121830   3.716   3.479   1.198
 6977SOL    HW221831   3.641   3.337   1.170
 6978SOL     OW21832   5.279   2.881   1.218
 6978SOL    HW121833   5.207   2.851   1.155
 6978SOL    HW221834   5.351   2.927   1.166
 6979SOL     OW21835   1.092   3.359   0.920
 6979SOL    HW121836   1.054   3.308   0.998
 6979SOL    HW221837   1.025   3.427   0.890
 6980SOL     OW21838   1.891   1.176   3.571
 6980SOL    HW121839   1.922   1.131   3.487
 6980SOL    HW221840   1.970   1.198   3.628
 6981SOL     OW21841   3.814   3.183   6.057
 6981SOL    HW121842   3.884   3.136   6.002
 6981SOL    HW221843   3.830   3.281   6.054
 6982SOL     OW21844   1.017   0.999   3.875
 6982SOL    HW121845   1.048   0.919   3.927
 6982SOL    HW221846   1.072   1.078   3.899
 6983SOL     OW21847   5.032   1.077   4.798
 6983SOL    HW121848   5.030   1.033   4.887
 6983SOL    HW221849   5.126   1.081   4.765
 6984SOL     OW21850   1.321   1.492   2.667
 6984SOL    HW121851   1.385   1.517   2.595
 6984SOL    HW221852   1.236   1.543   2.654
 6985SOL     OW21853   6.688   5.258   0.398
 6985SOL    HW121854   6.721   5.280   0.306
 6985SOL    HW221855   6.639   5.171   0.395
 6986SOL     OW21856   3.493   6.932   6.299
 6986SOL    HW121857   3.496   6.925   6.398
 6986SOL    HW221858   3.408   6.889   6.265
 6987SOL     OW21859   0.084   1.414   6.101
 6987SOL    HW121860   0.013   1.381   6.039
 6987SOL    HW221861   0.136   1.486   6.056
 6988SOL     OW21862   1.871   6.482   6.185
 6988SOL    HW121863   1.966   6.458   6.165
 6988SOL    HW221864   1.823   6.401   6.220
 6989SOL     OW21865   6.756   4.690   2.991
 6989SOL    HW121866   6.853   4.705   2.971
 6989SOL    HW221867   6.720   4.617   2.932
 6990SOL     OW21868   4.175   2.544   1.413
 6990SOL    HW121869   4.172   2.504   1.505
 6990SOL    HW221870   4.092   2.521   1.363
 6991SOL     OW21871   5.460   4.605   3.070
 6991SOL    HW121872   5.541   4.663   3.069
 6991SOL    HW221873   5.478   4.522   3.123
 6992SOL     OW21874   6.392   5.892   0.489
 6992SOL    HW121875   6.450   5.846   0.556
 6992SOL    HW221876   6.419   5.864   0.397
 6993SOL     OW21877   6.581   0.486   1.293
 6993SOL    HW121878   6.611   0.532   1.376
 6993SOL    HW221879   6.492   0.523   1.265
 6994SOL     OW21880   1.422   1.136   4.583
 6994SOL    HW121881   1.364   1.069   4.537
 6994SOL    HW221882   1.511   1.140   4.537
 6995SOL     OW21883   6.884   3.979   0.162
 6995SOL    HW121884   6.875   4.027   0.249
 6995SOL    HW221885   6.981   3.962   0.143
 6996SOL     OW21886   1.364   0.058   0.470
 6996SOL    HW121887   1.380   0.102   0.382
 6996SOL    HW221888   1.267   0.036   0.479
 6997SOL     OW21889   7.004   4.915   5.046
 6997SOL    HW121890   6.916   4.880   5.078
 6997SOL    HW221891   6.997   4.939   4.950
 6998SOL     OW21892   0.744   1.378   1.603
 6998SOL    HW121893   0.647   1.375   1.581
 6998SOL    HW221894   0.773   1.473   1.615
 6999SOL     OW21895   1.607   2.385   6.778
 6999SOL    HW121896   1.542   2.343   6.714
 6999SOL    HW221897   1.579   2.367   6.872
 7000SOL     OW21898   5.897   0.606   2.054
 7000SOL    HW121899   5.910   0.525   2.111
 7000SOL    HW221900   5.908   0.582   1.958
 7001SOL     OW21901   0.905   2.083   5.090
 7001SOL    HW121902   0.970   2.032   5.033
 7001SOL    HW221903   0.908   2.049   5.183
 7002SOL     OW21904   1.566   5.214   4.095
 7002SOL    HW121905   1.466   5.209   4.101
 7002SOL    HW221906   1.606   5.176   4.178
 7003SOL     OW21907   4.673   5.633   1.704
 7003SOL    HW121908   4.736   5.651   1.628
 7003SOL    HW221909   4.582   5.669   1.682
 7004SOL     OW21910   0.811   5.801   0.418
 7004SOL    HW121911   0.800   5.734   0.345
 7004SOL    HW221912   0.900   5.789   0.462
 7005SOL     OW21913   0.887   0.374   0.783
 7005SOL    HW121914   0.857   0.282   0.807
 7005SOL    HW221915   0.923   0.375   0.690
 7006SOL     OW21916   6.203   6.543   3.305
 7006SOL    HW121917   6.148   6.606   3.361
 7006SOL    HW221918   6.297   6.542   3.339
 7007SOL     OW21919   4.238   0.589   4.537
 7007SOL    HW121920   4.313   0.544   4.587
 7007SOL    HW221921   4.157   0.530   4.539
 7008SOL     OW21922   0.402   4.472   4.035
 7008SOL    HW121923   0.444   4.563   4.030
 7008SOL    HW221924   0.472   4.404   4.057
 7009SOL     OW21925   4.502   6.670   1.878
 7009SOL    HW121926   4.516   6.732   1.955
 7009SOL    HW221927   4.497   6.722   1.793
 7010SOL     OW21928   5.778   4.620   3.451
 7010SOL    HW121929   5.859   4.562   3.447
 7010SOL    HW221930   5.723   4.596   3.532
 7011SOL     OW21931   4.179   6.806   0.880
 7011SOL    HW121932   4.214   6.879   0.821
 7011SOL    HW221933   4.174   6.721   0.828
 7012SOL     OW21934   0.845   2.235   1.516
 7012SOL    HW121935   0.874   2.140   1.531
 7012SOL    HW221936   0.885   2.269   1.431
 7013SOL     OW21937   2.093   0.170   6.470
 7013SOL    HW121938   2.125   0.075   6.474
 7013SOL    HW221939   2.002   0.173   6.429
 7014SOL     OW21940   5.353   3.713   0.745
 7014SOL    HW121941   5.327   3.741   0.837
 7014SOL    HW221942   5.279   3.661   0.703
 7015SOL     OW21943   5.705   4.376   2.131
 7015SOL    HW121944   5.742   4.387   2.223
 7015SOL    HW221945   5.607   4.396   2.131
 7016SOL     OW21946   3.843   4.955   1.169
 7016SOL    HW121947   3.833   5.042   1.122
 7016SOL    HW221948   3.899   4.893   1.113
 7017SOL     OW21949   2.408   5.373   2.755
 7017SOL    HW121950   2.491   5.330   2.718
 7017SOL    HW221951   2.328   5.318   2.731
 7018SOL     OW21952   5.122   4.094   4.227
 7018SOL    HW121953   5.025   4.072   4.242
 7018SOL    HW221954   5.142   4.092   4.129
 7019SOL     OW21955   4.089   5.320   2.185
 7019SOL    HW121956   4.096   5.270   2.098
 7019SOL    HW221957   4.045   5.408   2.169
 7020SOL     OW21958   0.940   3.833   6.766
 7020SOL    HW121959   0.848   3.816   6.730
 7020SOL    HW221960   0.948   3.793   6.857
 7021SOL     OW21961   1.959   3.368   4.279
 7021SOL    HW121962   1.973   3.273   4.252
 7021SOL    HW221963   1.884   3.372   4.346
 7022SOL     OW21964   4.798   0.366   0.161
 7022SOL    HW121965   4.775   0.450   0.112
 7022SOL    HW221966   4.870   0.317   0.111
 7023SOL     OW21967   0.523   2.312   1.269
 7023SOL    HW121968   0.621   2.331   1.268
 7023SOL    HW221969   0.473   2.395   1.295
 7024SOL     OW21970   3.740   3.670   3.911
 7024SOL    HW121971   3.826   3.687   3.862
 7024SOL    HW221972   3.665   3.718   3.865
 7025SOL     OW21973   3.340   0.184   0.509
 7025SOL    HW121974   3.330   0.192   0.410
 7025SOL    HW221975   3.410   0.248   0.540
 7026SOL     OW21976   3.743   2.056   2.241
 7026SOL    HW121977   3.788   1.973   2.207
 7026SOL    HW221978   3.759   2.130   2.176
 7027SOL     OW21979   2.544   6.230   3.951
 7027SOL    HW121980   2.574   6.286   4.029
 7027SOL    HW221981   2.458   6.265   3.915
 7028SOL     OW21982   2.950   0.111   4.319
 7028SOL    HW121983   2.855   0.138   4.301
 7028SOL    HW221984   2.952   0.018   4.355
 7029SOL     OW21985   3.902   4.151   5.684
 7029SOL    HW121986   3.979   4.090   5.667
 7029SOL    HW221987   3.894   4.170   5.782
 7030SOL     OW21988   0.494   1.938   4.763
 7030SOL    HW121989   0.435   2.013   4.794
 7030SOL    HW221990   0.575   1.933   4.822
 7031SOL     OW21991   3.547   6.311   0.322
 7031SOL    HW121992   3.485   6.243   0.283
 7031SOL    HW221993   3.501   6.360   0.396
 7032SOL     OW21994   4.367   0.916   3.236
 7032SOL    HW121995   4.376   0.839   3.300
 7032SOL    HW221996   4.271   0.941   3.228
 7033SOL     OW21997   1.617   2.709   4.120
 7033SOL    HW121998   1.539   2.737   4.176
 7033SOL    HW221999   1.642   2.615   4.143
 7034SOL     OW22000   6.680   2.920   3.000
 7034SOL    HW122001   6.643   2.916   3.093
 7034SOL    HW222002   6.719   2.832   2.976
 7035SOL     OW22003   2.313   0.144   1.257
 7035SOL    HW122004   2.378   0.219   1.244
 7035SOL    HW222005   2.362   0.057   1.257
 7036SOL     OW22006   6.885   2.253   2.603
 7036SOL    HW122007   6.928   2.168   2.635
 7036SOL    HW222008   6.802   2.231   2.553
 7037SOL     OW22009   0.615   1.231   5.959
 7037SOL    HW122010   0.693   1.285   5.924
 7037SOL    HW222011   0.630   1.211   6.056
 7038SOL     OW22012   2.309   4.448   5.459
 7038SOL    HW122013   2.222   4.437   5.411
 7038SOL    HW222014   2.301   4.525   5.523
 7039SOL     OW22015   0.288   5.936   3.770
 7039SOL    HW122016   0.201   5.966   3.807
 7039SOL    HW222017   0.348   6.015   3.757
 7040SOL     OW22018   5.176   1.928   4.940
 7040SOL    HW122019   5.146   2.006   4.995
 7040SOL    HW222020   5.126   1.846   4.969
 7041SOL     OW22021   0.721   1.938   3.680
 7041SOL    HW122022   0.737   1.847   3.640
 7041SOL    HW222023   0.686   1.999   3.609
 7042SOL     OW22024   4.434   5.680   4.866
 7042SOL    HW122025   4.361   5.688   4.799
 7042SOL    HW222026   4.522   5.699   4.821
 7043SOL     OW22027   2.997   4.847   3.176
 7043SOL    HW122028   3.095   4.840   3.195
 7043SOL    HW222029   2.961   4.757   3.153
 7044SOL     OW22030   4.731   0.168   4.732
 7044SOL    HW122031   4.803   0.237   4.733
 7044SOL    HW222032   4.700   0.152   4.638
 7045SOL     OW22033   5.669   5.601   2.200
 7045SOL    HW122034   5.648   5.506   2.221
 7045SOL    HW222035   5.762   5.622   2.230
 7046SOL     OW22036   2.795   2.093   4.117
 7046SOL    HW122037   2.743   2.178   4.109
 7046SOL    HW222038   2.777   2.035   4.038
 7047SOL     OW22039   0.118   1.170   1.600
 7047SOL    HW122040   0.078   1.194   1.689
 7047SOL    HW222041   0.138   1.072   1.598
 7048SOL     OW22042   5.887   6.182   5.104
 7048SOL    HW122043   5.919   6.143   5.017
 7048SOL    HW222044   5.881   6.110   5.173
 7049SOL     OW22045   3.672   1.074   2.071
 7049SOL    HW122046   3.641   1.142   2.004
 7049SOL    HW222047   3.650   0.982   2.037
 7050SOL     OW22048   4.237   4.207   0.786
 7050SOL    HW122049   4.254   4.280   0.852
 7050SOL    HW222050   4.302   4.133   0.800
 7051SOL     OW22051   6.483   6.256   0.917
 7051SOL    HW122052   6.537   6.315   0.857
 7051SOL    HW222053   6.471   6.300   1.006
 7052SOL     OW22054   5.741   0.252   3.590
 7052SOL    HW122055   5.806   0.203   3.649
 7052SOL    HW222056   5.792   0.306   3.523
 7053SOL     OW22057   2.092   3.922   3.708
 7053SOL    HW122058   2.091   4.022   3.704
 7053SOL    HW222059   2.143   3.893   3.789
 7054SOL     OW22060   6.943   6.862   1.459
 7054SOL    HW122061   6.856   6.814   1.447
 7054SOL    HW222062   6.935   6.927   1.535
 7055SOL     OW22063   3.027   0.370   0.402
 7055SOL    HW122064   3.050   0.445   0.339
 7055SOL    HW222065   3.047   0.283   0.359
 7056SOL     OW22066   6.888   5.793   1.116
 7056SOL    HW122067   6.807   5.842   1.148
 7056SOL    HW222068   6.936   5.753   1.194
 7057SOL     OW22069   3.127   5.806   4.509
 7057SOL    HW122070   3.057   5.877   4.494
 7057SOL    HW222071   3.151   5.764   4.422
 7058SOL     OW22072   5.448   1.789   5.924
 7058SOL    HW122073   5.384   1.794   5.846
 7058SOL    HW222074   5.542   1.784   5.890
 7059SOL     OW22075   1.575   1.142   5.048
 7059SOL    HW122076   1.510   1.136   4.973
 7059SOL    HW222077   1.662   1.102   5.020
 7060SOL     OW22078   3.864   6.221   1.747
 7060SOL    HW122079   3.960   6.248   1.738
 7060SOL    HW222080   3.813   6.252   1.667
 7061SOL     OW22081   0.577   2.313   2.845
 7061SOL    HW122082   0.656   2.370   2.823
 7061SOL    HW222083   0.493   2.359   2.815
 7062SOL     OW22084   4.274   2.290   4.317
 7062SOL    HW122085   4.340   2.302   4.243
 7062SOL    HW222086   4.303   2.342   4.397
 7063SOL     OW22087   0.299   6.373   1.911
 7063SOL    HW122088   0.249   6.426   1.980
 7063SOL    HW222089   0.293   6.418   1.822
 7064SOL     OW22090   4.571   2.076   6.517
 7064SOL    HW122091   4.571   1.978   6.539
 7064SOL    HW222092   4.623   2.091   6.433
 7065SOL     OW22093   3.408   4.447   5.348
 7065SOL    HW122094   3.406   4.348   5.334
 7065SOL    HW222095   3.326   4.475   5.397
 7066SOL     OW22096   4.356   1.186   6.317
 7066SOL    HW122097   4.322   1.271   6.277
 7066SOL    HW222098   4.374   1.200   6.415
 7067SOL     OW22099   1.503   3.628   6.682
 7067SOL    HW122100   1.556   3.548   6.712
 7067SOL    HW222101   1.519   3.643   6.584
 7068SOL     OW22102   6.149   4.264   4.114
 7068SOL    HW122103   6.079   4.315   4.064
 7068SOL    HW222104   6.203   4.326   4.171
 7069SOL     OW22105   5.936   1.838   5.395
 7069SOL    HW122106   6.025   1.872   5.424
 7069SOL    HW222107   5.886   1.911   5.348
 7070SOL     OW22108   1.353   6.671   4.830
 7070SOL    HW122109   1.290   6.599   4.800
 7070SOL    HW222110   1.419   6.690   4.758
 7071SOL     OW22111   4.949   6.291   6.783
 7071SOL    HW122112   4.868   6.252   6.739
 7071SOL    HW222113   4.934   6.388   6.800
 7072SOL     OW22114   1.848   4.866   0.135
 7072SOL    HW122115   1.857   4.955   0.179
 7072SOL    HW222116   1.798   4.877   0.048
 7073SOL     OW22117   3.951   6.974   3.108
 7073SOL    HW122118   3.906   6.958   3.196
 7073SOL    HW222119   4.038   7.021   3.123
 7074SOL     OW22120   6.837   3.456   3.854
 7074SOL    HW122121   6.783   3.534   3.823
 7074SOL    HW222122   6.916   3.445   3.793
 7075SOL     OW22123   2.969   4.865   4.898
 7075SOL    HW122124   2.893   4.923   4.868
 7075SOL    HW222125   2.933   4.777   4.931
 7076SOL     OW22126   5.897   3.208   1.205
 7076SOL    HW122127   5.892   3.305   1.230
 7076SOL    HW222128   5.829   3.188   1.135
 7077SOL     OW22129   2.413   4.840   2.569
 7077SOL    HW122130   2.432   4.746   2.595
 7077SOL    HW222131   2.496   4.896   2.581
 7078SOL     OW22132   5.315   6.370   0.673
 7078SOL    HW122133   5.231   6.413   0.706
 7078SOL    HW222134   5.296   6.276   0.645
 7079SOL     OW22135   0.914   6.597   4.556
 7079SOL    HW122136   0.843   6.666   4.549
 7079SOL    HW222137   0.907   6.534   4.478
 7080SOL     OW22138   4.088   2.133   3.845
 7080SOL    HW122139   4.068   2.113   3.941
 7080SOL    HW222140   4.185   2.118   3.827
 7081SOL     OW22141   1.766   6.263   6.937
 7081SOL    HW122142   1.708   6.321   6.879
 7081SOL    HW222143   1.712   6.230   7.015
 7082SOL     OW22144   6.942   3.777   1.457
 7082SOL    HW122145   6.995   3.693   1.469
 7082SOL    HW222146   6.974   3.846   1.522
 7083SOL     OW22147   6.895   1.919   2.598
 7083SOL    HW122148   6.821   1.961   2.545
 7083SOL    HW222149   6.873   1.823   2.616
 7084SOL     OW22150   0.389   6.014   5.512
 7084SOL    HW122151   0.480   5.973   5.514
 7084SOL    HW222152   0.394   6.105   5.471
 7085SOL     OW22153   6.519   2.245   2.735
 7085SOL    HW122154   6.485   2.338   2.746
 7085SOL    HW222155   6.442   2.181   2.726
 7086SOL     OW22156   5.686   0.603   6.862
 7086SOL    HW122157   5.695   0.503   6.857
 7086SOL    HW222158   5.736   0.637   6.941
 7087SOL     OW22159   5.217   3.586   2.329
 7087SOL    HW122160   5.167   3.665   2.367
 7087SOL    HW222161   5.165   3.548   2.252
 7088SOL     OW22162   5.542   2.167   5.399
 7088SOL    HW122163   5.578   2.076   5.419
 7088SOL    HW222164   5.453   2.177   5.443
 7089SOL     OW22165   2.742   4.650   2.474
 7089SOL    HW122166   2.772   4.668   2.380
 7089SOL    HW222167   2.812   4.596   2.521
 7090SOL     OW22168   2.402   1.339   1.002
 7090SOL    HW122169   2.474   1.345   0.932
 7090SOL    HW222170   2.344   1.260   0.983
 7091SOL     OW22171   0.949   0.948   1.326
 7091SOL    HW122172   0.851   0.930   1.313
 7091SOL    HW222173   0.960   1.041   1.362
 7092SOL     OW22174   3.841   2.860   6.285
 7092SOL    HW122175   3.785   2.875   6.203
 7092SOL    HW222176   3.857   2.763   6.298
 7093SOL     OW22177   3.279   3.548   1.172
 7093SOL    HW122178   3.318   3.456   1.161
 7093SOL    HW222179   3.243   3.579   1.084
 7094SOL     OW22180   1.382   6.577   5.453
 7094SOL    HW122181   1.417   6.616   5.538
 7094SOL    HW222182   1.326   6.497   5.475
 7095SOL     OW22183   3.484   4.919   5.679
 7095SOL    HW122184   3.512   4.887   5.589
 7095SOL    HW222185   3.416   4.992   5.670
 7096SOL     OW22186   6.604   0.837   1.812
 7096SOL    HW122187   6.654   0.752   1.831
 7096SOL    HW222188   6.666   0.906   1.776
 7097SOL     OW22189   5.040   0.867   2.204
 7097SOL    HW122190   5.036   0.964   2.230
 7097SOL    HW222191   4.959   0.820   2.239
 7098SOL     OW22192   1.909   6.260   5.519
 7098SOL    HW122193   1.899   6.282   5.422
 7098SOL    HW222194   1.859   6.175   5.539
 7099SOL     OW22195   3.826   2.090   4.127
 7099SOL    HW122196   3.925   2.101   4.119
 7099SOL    HW222197   3.798   2.106   4.222
 7100SOL     OW22198   0.228   3.918   0.467
 7100SOL    HW122199   0.223   3.821   0.492
 7100SOL    HW222200   0.138   3.960   0.480
 7101SOL     OW22201   2.452   7.021   5.473
 7101SOL    HW122202   2.385   0.056   5.521
 7101SOL    HW222203   2.457   6.931   5.515
 7102SOL     OW22204   5.291   0.995   1.216
 7102SOL    HW122205   5.225   0.989   1.291
 7102SOL    HW222206   5.279   0.916   1.155
 7103SOL     OW22207   5.213   5.263   2.080
 7103SOL    HW122208   5.163   5.247   1.995
 7103SOL    HW222209   5.312   5.263   2.060
 7104SOL     OW22210   5.514   3.603   2.617
 7104SOL    HW122211   5.585   3.535   2.602
 7104SOL    HW222212   5.528   3.681   2.555
 7105SOL     OW22213   3.641   4.180   4.519
 7105SOL    HW122214   3.607   4.127   4.597
 7105SOL    HW222215   3.651   4.275   4.545
 7106SOL     OW22216   2.955   2.597   1.114
 7106SOL    HW122217   2.925   2.552   1.030
 7106SOL    HW222218   2.998   2.530   1.174
 7107SOL     OW22219   3.909   0.275   0.053
 7107SOL    HW122220   3.872   0.307   6.988
 7107SOL    HW222221   4.008   0.290   0.054
 7108SOL     OW22222   2.704   6.521   2.266
 7108SOL    HW122223   2.691   6.578   2.347
 7108SOL    HW222224   2.802   6.510   2.249
 7109SOL     OW22225   1.415   0.634   6.863
 7109SOL    HW122226   1.469   0.672   6.788
 7109SOL    HW222227   1.331   0.686   6.872
 7110SOL     OW22228   3.277   6.322   4.238
 7110SOL    HW122229   3.314   6.413   4.218
 7110SOL    HW222230   3.304   6.258   4.167
 7111SOL     OW22231   1.349   1.358   3.855
 7111SOL    HW122232   1.430   1.415   3.847
 7111SOL    HW222233   1.298   1.360   3.769
 7112SOL     OW22234   2.341   4.356   4.936
 7112SOL    HW122235   2.340   4.256   4.947
 7112SOL    HW222236   2.365   4.398   5.023
 7113SOL     OW22237   3.094   5.478   5.168
 7113SOL    HW122238   3.092   5.378   5.178
 7113SOL    HW222239   3.145   5.503   5.086
 7114SOL     OW22240   4.424   5.396   1.595
 7114SOL    HW122241   4.336   5.368   1.557
 7114SOL    HW222242   4.434   5.496   1.587
 7115SOL     OW22243   5.113   4.571   6.630
 7115SOL    HW122244   5.031   4.532   6.587
 7115SOL    HW222245   5.162   4.627   6.563
 7116SOL     OW22246   5.528   4.406   3.245
 7116SOL    HW122247   5.437   4.366   3.236
 7116SOL    HW222248   5.595   4.334   3.260
 7117SOL     OW22249   6.494   0.213   4.104
 7117SOL    HW122250   6.544   0.221   4.017
 7117SOL    HW222251   6.431   0.291   4.112
 7118SOL     OW22252   3.885   4.592   5.349
 7118SOL    HW122253   3.805   4.537   5.322
 7118SOL    HW222254   3.966   4.534   5.349
 7119SOL     OW22255   4.899   0.789   4.908
 7119SOL    HW122256   4.856   0.728   4.974
 7119SOL    HW222257   4.968   0.845   4.953
 7120SOL     OW22258   5.743   1.631   1.175
 7120SOL    HW122259   5.776   1.540   1.198
 7120SOL    HW222260   5.643   1.630   1.170
 7121SOL     OW22261   0.688   6.244   3.311
 7121SOL    HW122262   0.774   6.212   3.350
 7121SOL    HW222263   0.697   6.251   3.211
 7122SOL     OW22264   2.263   0.034   5.997
 7122SOL    HW122265   2.178   0.030   6.048
 7122SOL    HW222266   2.319   0.111   6.029
 7123SOL     OW22267   6.246   4.917   4.366
 7123SOL    HW122268   6.155   4.925   4.325
 7123SOL    HW222269   6.266   5.000   4.419
 7124SOL     OW22270   1.212   2.091   1.592
 7124SOL    HW122271   1.206   2.121   1.497
 7124SOL    HW222272   1.302   2.050   1.609
 7125SOL     OW22273   1.167   0.570   1.953
 7125SOL    HW122274   1.141   0.477   1.929
 7125SOL    HW222275   1.151   0.631   1.875
 7126SOL     OW22276   4.039   6.355   0.805
 7126SOL    HW122277   4.104   6.310   0.866
 7126SOL    HW222278   4.019   6.295   0.727
 7127SOL     OW22279   3.056   6.213   5.859
 7127SOL    HW122280   3.111   6.132   5.875
 7127SOL    HW222281   3.053   6.233   5.761
 7128SOL     OW22282   4.084   4.089   0.123
 7128SOL    HW122283   4.171   4.052   0.090
 7128SOL    HW222284   4.036   4.019   0.177
 7129SOL     OW22285   0.463   1.521   0.834
 7129SOL    HW122286   0.399   1.594   0.858
 7129SOL    HW222287   0.427   1.433   0.864
 7130SOL     OW22288   4.055   0.055   4.426
 7130SOL    HW122289   3.963   0.093   4.426
 7130SOL    HW222290   4.058   6.996   4.366
 7131SOL     OW22291   3.450   0.874   2.255
 7131SOL    HW122292   3.410   0.938   2.189
 7131SOL    HW222293   3.523   0.822   2.211
 7132SOL     OW22294   4.775   3.999   6.954
 7132SOL    HW122295   4.734   3.925   6.901
 7132SOL    HW222296   4.759   3.983   0.030
 7133SOL     OW22297   4.041   5.307   3.776
 7133SOL    HW122298   3.967   5.244   3.753
 7133SOL    HW222299   4.004   5.387   3.822
 7134SOL     OW22300   5.132   6.065   1.807
 7134SOL    HW122301   5.196   6.023   1.742
 7134SOL    HW222302   5.128   6.010   1.890
 7135SOL     OW22303   1.977   2.853   1.942
 7135SOL    HW122304   2.059   2.850   1.884
 7135SOL    HW222305   1.939   2.946   1.942
 7136SOL     OW22306   2.242   1.716   1.410
 7136SOL    HW122307   2.239   1.803   1.458
 7136SOL    HW222308   2.318   1.661   1.443
 7137SOL     OW22309   2.910   1.405   0.748
 7137SOL    HW122310   2.918   1.495   0.790
 7137SOL    HW222311   2.855   1.412   0.664
 7138SOL     OW22312   2.619   1.097   1.648
 7138SOL    HW122313   2.521   1.075   1.644
 7138SOL    HW222314   2.658   1.090   1.556
 7139SOL     OW22315   5.019   5.397   1.751
 7139SOL    HW122316   5.086   5.324   1.756
 7139SOL    HW222317   5.060   5.477   1.708
 7140SOL     OW22318   6.170   4.189   0.850
 7140SOL    HW122319   6.187   4.255   0.777
 7140SOL    HW222320   6.094   4.221   0.907
 7141SOL     OW22321   4.118   6.467   1.157
 7141SOL    HW122322   4.054   6.524   1.209
 7141SOL    HW222323   4.069   6.389   1.119
 7142SOL     OW22324   3.291   0.352   4.315
 7142SOL    HW122325   3.273   0.382   4.221
 7142SOL    HW222326   3.204   0.335   4.362
 7143SOL     OW22327   1.916   4.292   6.795
 7143SOL    HW122328   1.867   4.217   6.751
 7143SOL    HW222329   1.876   4.310   6.885
 7144SOL     OW22330   0.390   1.206   4.277
 7144SOL    HW122331   0.325   1.130   4.274
 7144SOL    HW222332   0.436   1.215   4.188
 7145SOL     OW22333   4.290   1.591   6.815
 7145SOL    HW122334   4.260   1.506   6.772
 7145SOL    HW222335   4.269   1.589   6.913
 7146SOL     OW22336   2.194   1.177   4.970
 7146SOL    HW122337   2.199   1.079   4.947
 7146SOL    HW222338   2.278   1.222   4.940
 7147SOL     OW22339   5.911   5.508   3.308
 7147SOL    HW122340   5.824   5.557   3.315
 7147SOL    HW222341   5.946   5.515   3.215
 7148SOL     OW22342   6.281   6.073   0.856
 7148SOL    HW122343   6.208   6.103   0.918
 7148SOL    HW222344   6.365   6.122   0.878
 7149SOL     OW22345   6.757   4.831   3.208
 7149SOL    HW122346   6.757   4.755   3.143
 7149SOL    HW222347   6.664   4.845   3.243
 7150SOL     OW22348   4.522   3.299   0.084
 7150SOL    HW122349   4.611   3.327   0.119
 7150SOL    HW222350   4.456   3.296   0.159
 7151SOL     OW22351   3.192   6.732   1.039
 7151SOL    HW122352   3.280   6.728   0.993
 7151SOL    HW222353   3.175   6.824   1.072
 7152SOL     OW22354   6.345   0.991   6.586
 7152SOL    HW122355   6.263   0.940   6.611
 7152SOL    HW222356   6.413   0.983   6.659
 7153SOL     OW22357   4.184   5.264   1.502
 7153SOL    HW122358   4.174   5.178   1.452
 7153SOL    HW222359   4.104   5.278   1.560
 7154SOL     OW22360   4.030   1.185   2.994
 7154SOL    HW122361   4.090   1.264   3.007
 7154SOL    HW222362   4.086   1.103   2.981
 7155SOL     OW22363   3.093   2.302   1.384
 7155SOL    HW122364   3.005   2.348   1.399
 7155SOL    HW222365   3.076   2.206   1.361
 7156SOL     OW22366   5.119   3.737   2.097
 7156SOL    HW122367   5.209   3.768   2.064
 7156SOL    HW222368   5.071   3.689   2.023
 7157SOL     OW22369   5.923   4.086   0.571
 7157SOL    HW122370   5.945   4.107   0.476
 7157SOL    HW222371   5.994   4.027   0.610
 7158SOL     OW22372   6.124   0.485   3.847
 7158SOL    HW122373   6.119   0.575   3.891
 7158SOL    HW222374   6.067   0.420   3.897
 7159SOL     OW22375   0.256   4.633   4.277
 7159SOL    HW122376   0.222   4.623   4.370
 7159SOL    HW222377   0.354   4.649   4.278
 7160SOL     OW22378   5.746   6.523   2.737
 7160SOL    HW122379   5.779   6.608   2.778
 7160SOL    HW222380   5.744   6.532   2.638
 7161SOL     OW22381   3.547   3.571   3.406
 7161SOL    HW122382   3.597   3.535   3.485
 7161SOL    HW222383   3.574   3.521   3.323
 7162SOL     OW22384   0.063   4.559   0.937
 7162SOL    HW122385   7.021   4.491   0.900
 7162SOL    HW222386   0.010   4.635   0.976
 7163SOL     OW22387   1.425   1.518   2.912
 7163SOL    HW122388   1.391   1.504   2.819
 7163SOL    HW222389   1.523   1.501   2.914
 7164SOL     OW22390   1.887   1.085   5.862
 7164SOL    HW122391   1.948   1.019   5.905
 7164SOL    HW222392   1.902   1.176   5.902
 7165SOL     OW22393   5.371   6.718   0.738
 7165SOL    HW122394   5.434   6.774   0.684
 7165SOL    HW222395   5.295   6.687   0.681
 7166SOL     OW22396   5.231   0.765   5.876
 7166SOL    HW122397   5.305   0.759   5.809
 7166SOL    HW222398   5.169   0.839   5.849
 7167SOL     OW22399   5.660   2.340   5.980
 7167SOL    HW122400   5.633   2.271   5.913
 7167SOL    HW222401   5.757   2.331   6.000
 7168SOL     OW22402   3.233   0.860   3.123
 7168SOL    HW122403   3.197   0.942   3.079
 7168SOL    HW222404   3.320   0.836   3.080
 7169SOL     OW22405   1.732   3.944   5.252
 7169SOL    HW122406   1.756   3.882   5.327
 7169SOL    HW222407   1.785   3.919   5.170
 7170SOL     OW22408   4.515   0.170   2.254
 7170SOL    HW122409   4.521   0.137   2.160
 7170SOL    HW222410   4.574   0.115   2.312
 7171SOL     OW22411   6.203   5.096   0.953
 7171SOL    HW122412   6.270   5.043   0.902
 7171SOL    HW222413   6.237   5.188   0.968
 7172SOL     OW22414   1.780   1.325   4.839
 7172SOL    HW122415   1.823   1.329   4.929
 7172SOL    HW222416   1.790   1.413   4.793
 7173SOL     OW22417   5.883   5.798   6.562
 7173SOL    HW122418   5.944   5.745   6.503
 7173SOL    HW222419   5.871   5.750   6.649
 7174SOL     OW22420   6.469   4.710   1.242
 7174SOL    HW122421   6.552   4.695   1.295
 7174SOL    HW222422   6.412   4.778   1.286
 7175SOL     OW22423   6.570   3.849   5.056
 7175SOL    HW122424   6.479   3.859   5.097
 7175SOL    HW222425   6.564   3.864   4.957
 7176SOL     OW22426   0.778   1.116   3.799
 7176SOL    HW122427   0.715   1.046   3.767
 7176SOL    HW222428   0.867   1.074   3.818
 7177SOL     OW22429   2.043   5.583   5.601
 7177SOL    HW122430   2.114   5.521   5.633
 7177SOL    HW222431   2.086   5.668   5.568
 7178SOL     OW22432   0.358   0.646   5.276
 7178SOL    HW122433   0.425   0.587   5.231
 7178SOL    HW222434   0.400   0.686   5.358
 7179SOL     OW22435   2.251   4.676   5.606
 7179SOL    HW122436   2.308   4.757   5.590
 7179SOL    HW222437   2.173   4.702   5.663
 7180SOL     OW22438   2.324   4.319   0.712
 7180SOL    HW122439   2.408   4.287   0.668
 7180SOL    HW222440   2.312   4.272   0.799
 7181SOL     OW22441   2.323   0.971   6.477
 7181SOL    HW122442   2.364   0.888   6.439
 7181SOL    HW222443   2.298   0.955   6.572
 7182SOL     OW22444   0.856   3.603   4.089
 7182SOL    HW122445   0.846   3.554   4.176
 7182SOL    HW222446   0.791   3.678   4.086
 7183SOL     OW22447   1.699   6.302   1.633
 7183SOL    HW122448   1.695   6.401   1.622
 7183SOL    HW222449   1.716   6.259   1.544
 7184SOL     OW22450   5.666   1.376   2.854
 7184SOL    HW122451   5.742   1.313   2.873
 7184SOL    HW222452   5.661   1.443   2.927
 7185SOL     OW22453   5.274   1.010   5.202
 7185SOL    HW122454   5.299   1.000   5.299
 7185SOL    HW222455   5.276   0.921   5.158
 7186SOL     OW22456   0.237   0.409   0.635
 7186SOL    HW122457   0.185   0.431   0.552
 7186SOL    HW222458   0.225   0.312   0.656
 7187SOL     OW22459   2.906   3.535   4.898
 7187SOL    HW122460   2.870   3.528   4.991
 7187SOL    HW222461   2.988   3.593   4.898
 7188SOL     OW22462   4.693   3.818   6.764
 7188SOL    HW122463   4.623   3.853   6.702
 7188SOL    HW222464   4.779   3.806   6.715
 7189SOL     OW22465   6.152   3.286   5.483
 7189SOL    HW122466   6.206   3.240   5.413
 7189SOL    HW222467   6.184   3.381   5.493
 7190SOL     OW22468   6.017   5.438   0.992
 7190SOL    HW122469   5.982   5.403   0.905
 7190SOL    HW222470   6.002   5.536   0.997
 7191SOL     OW22471   1.297   4.252   3.149
 7191SOL    HW122472   1.199   4.238   3.161
 7191SOL    HW222473   1.319   4.349   3.165
 7192SOL     OW22474   2.063   3.691   6.219
 7192SOL    HW122475   1.990   3.737   6.169
 7192SOL    HW222476   2.044   3.593   6.222
 7193SOL     OW22477   2.601   1.980   2.936
 7193SOL    HW122478   2.626   1.939   3.023
 7193SOL    HW222479   2.683   1.996   2.881
 7194SOL     OW22480   2.254   2.123   0.149
 7194SOL    HW122481   2.210   2.047   0.100
 7194SOL    HW222482   2.214   2.131   0.240
 7195SOL     OW22483   6.855   3.872   6.648
 7195SOL    HW122484   6.787   3.834   6.711
 7195SOL    HW222485   6.946   3.866   6.688
 7196SOL     OW22486   3.281   3.834   2.709
 7196SOL    HW122487   3.288   3.854   2.611
 7196SOL    HW222488   3.190   3.858   2.742
 7197SOL     OW22489   1.087   3.832   5.545
 7197SOL    HW122490   1.088   3.899   5.619
 7197SOL    HW222491   1.177   3.790   5.537
 7198SOL     OW22492   0.263   1.009   0.463
 7198SOL    HW122493   0.173   0.966   0.473
 7198SOL    HW222494   0.274   1.042   0.370
 7199SOL     OW22495   0.840   0.192   2.479
 7199SOL    HW122496   0.800   0.283   2.482
 7199SOL    HW222497   0.935   0.198   2.447
 7200SOL     OW22498   1.927   2.603   0.898
 7200SOL    HW122499   1.863   2.586   0.974
 7200SOL    HW222500   1.897   2.552   0.818
 7201SOL     OW22501   0.197   5.215   4.425
 7201SOL    HW122502   0.136   5.295   4.432
 7201SOL    HW222503   0.181   5.170   4.338
 7202SOL     OW22504   4.849   0.185   5.978
 7202SOL    HW122505   4.869   0.147   5.887
 7202SOL    HW222506   4.752   0.207   5.985
 7203SOL     OW22507   0.480   0.695   1.679
 7203SOL    HW122508   0.517   0.688   1.772
 7203SOL    HW222509   0.496   0.787   1.643
 7204SOL     OW22510   6.415   1.922   0.518
 7204SOL    HW122511   6.364   1.858   0.575
 7204SOL    HW222512   6.482   1.970   0.574
 7205SOL     OW22513   1.205   2.947   4.733
 7205SOL    HW122514   1.196   3.040   4.697
 7205SOL    HW222515   1.239   2.887   4.661
 7206SOL     OW22516   1.486   1.578   1.304
 7206SOL    HW122517   1.411   1.555   1.242
 7206SOL    HW222518   1.489   1.513   1.380
 7207SOL     OW22519   2.481   1.495   4.070
 7207SOL    HW122520   2.415   1.542   4.012
 7207SOL    HW222521   2.574   1.526   4.046
 7208SOL     OW22522   4.273   0.469   3.886
 7208SOL    HW122523   4.348   0.404   3.891
 7208SOL    HW222524   4.186   0.422   3.903
 7209SOL     OW22525   2.312   2.494   2.530
 7209SOL    HW122526   2.290   2.396   2.537
 7209SOL    HW222527   2.280   2.529   2.442
 7210SOL     OW22528   3.578   1.836   3.000
 7210SOL    HW122529   3.569   1.917   2.942
 7210SOL    HW222530   3.675   1.817   3.016
 7211SOL     OW22531   2.996   6.246   5.584
 7211SOL    HW122532   2.998   6.223   5.487
 7211SOL    HW222533   3.004   6.345   5.595
 7212SOL     OW22534   5.918   6.366   6.529
 7212SOL    HW122535   5.824   6.332   6.527
 7212SOL    HW222536   5.981   6.293   6.500
 7213SOL     OW22537   3.524   6.396   6.789
 7213SOL    HW122538   3.460   6.473   6.781
 7213SOL    HW222539   3.606   6.415   6.736
 7214SOL     OW22540   0.308   0.474   5.944
 7214SOL    HW122541   0.300   0.513   6.036
 7214SOL    HW222542   0.402   0.443   5.929
 7215SOL     OW22543   6.324   2.511   4.085
 7215SOL    HW122544   6.251   2.474   4.027
 7215SOL    HW222545   6.302   2.605   4.110
 7216SOL     OW22546   3.131   6.377   2.042
 7216SOL    HW122547   3.199   6.388   1.970
 7216SOL    HW222548   3.055   6.322   2.009
 7217SOL     OW22549   1.669   4.000   3.983
 7217SOL    HW122550   1.716   3.912   3.974
 7217SOL    HW222551   1.737   4.074   3.984
 7218SOL     OW22552   0.005   3.387   3.686
 7218SOL    HW122553   0.097   3.355   3.711
 7218SOL    HW222554   0.007   3.424   3.594
 7219SOL     OW22555   3.054   6.762   1.392
 7219SOL    HW122556   3.145   6.800   1.413
 7219SOL    HW222557   3.064   6.673   1.348
 7220SOL     OW22558   6.781   4.338   4.257
 7220SOL    HW122559   6.843   4.366   4.330
 7220SOL    HW222560   6.717   4.270   4.292
 7221SOL     OW22561   3.347   6.106   4.825
 7221SOL    HW122562   3.251   6.083   4.807
 7221SOL    HW222563   3.352   6.177   4.895
 7222SOL     OW22564   5.506   6.962   3.061
 7222SOL    HW122565   5.568   6.894   3.100
 7222SOL    HW222566   5.411   6.933   3.073
 7223SOL     OW22567   2.803   1.433   0.508
 7223SOL    HW122568   2.859   1.422   0.425
 7223SOL    HW222569   2.725   1.493   0.488
 7224SOL     OW22570   4.738   2.893   4.306
 7224SOL    HW122571   4.773   2.830   4.236
 7224SOL    HW222572   4.727   2.844   4.392
 7225SOL     OW22573   1.716   6.310   0.803
 7225SOL    HW122574   1.665   6.279   0.723
 7225SOL    HW222575   1.814   6.300   0.786
 7226SOL     OW22576   6.195   0.827   0.943
 7226SOL    HW122577   6.165   0.743   0.899
 7226SOL    HW222578   6.238   0.805   1.031
 7227SOL     OW22579   3.042   1.195   1.843
 7227SOL    HW122580   2.945   1.204   1.821
 7227SOL    HW222581   3.081   1.287   1.856
 7228SOL     OW22582   0.947   1.592   3.070
 7228SOL    HW122583   0.984   1.536   2.996
 7228SOL    HW222584   0.849   1.605   3.056
 7229SOL     OW22585   0.073   6.788   4.623
 7229SOL    HW122586   0.153   6.838   4.591
 7229SOL    HW222587   0.023   6.751   4.544
 7230SOL     OW22588   2.714   5.250   3.573
 7230SOL    HW122589   2.633   5.248   3.633
 7230SOL    HW222590   2.762   5.336   3.586
 7231SOL     OW22591   3.828   0.087   0.947
 7231SOL    HW122592   3.840   0.086   0.848
 7231SOL    HW222593   3.882   0.162   0.986
 7232SOL     OW22594   4.967   6.591   2.542
 7232SOL    HW122595   5.063   6.603   2.565
 7232SOL    HW222596   4.915   6.669   2.577
 7233SOL     OW22597   0.564   1.155   5.279
 7233SOL    HW122598   0.661   1.170   5.298
 7233SOL    HW222599   0.536   1.215   5.205
 7234SOL     OW22600   5.157   3.819   2.890
 7234SOL    HW122601   5.112   3.730   2.878
 7234SOL    HW222602   5.235   3.825   2.828
 7235SOL     OW22603   6.514   5.233   1.676
 7235SOL    HW122604   6.558   5.227   1.586
 7235SOL    HW222605   6.566   5.294   1.735
 7236SOL     OW22606   1.823   2.447   2.695
 7236SOL    HW122607   1.901   2.497   2.733
 7236SOL    HW222608   1.827   2.352   2.724
 7237SOL     OW22609   4.564   6.695   6.801
 7237SOL    HW122610   4.629   6.759   6.843
 7237SOL    HW222611   4.529   6.735   6.716
 7238SOL     OW22612   4.671   2.813   6.845
 7238SOL    HW122613   4.634   2.859   6.926
 7238SOL    HW222614   4.666   2.874   6.766
 7239SOL     OW22615   0.730   3.042   2.666
 7239SOL    HW122616   0.680   3.065   2.749
 7239SOL    HW222617   0.686   3.085   2.587
 7240SOL     OW22618   6.613   1.552   0.492
 7240SOL    HW122619   6.603   1.635   0.436
 7240SOL    HW222620   6.598   1.472   0.434
 7241SOL     OW22621   2.111   6.739   0.219
 7241SOL    HW122622   2.063   6.826   0.233
 7241SOL    HW222623   2.210   6.756   0.217
 7242SOL     OW22624   7.006   5.836   5.167
 7242SOL    HW122625   6.927   5.850   5.107
 7242SOL    HW222626   6.999   5.897   5.246
 7243SOL     OW22627   6.677   4.107   6.575
 7243SOL    HW122628   6.677   4.084   6.478
 7243SOL    HW222629   6.730   4.038   6.626
 7244SOL     OW22630   0.198   0.160   0.749
 7244SOL    HW122631   0.175   0.170   0.845
 7244SOL    HW222632   0.129   0.104   0.703
 7245SOL     OW22633   1.876   2.217   5.841
 7245SOL    HW122634   1.848   2.313   5.845
 7245SOL    HW222635   1.935   2.196   5.919
 7246SOL     OW22636   2.093   0.695   4.315
 7246SOL    HW122637   2.061   0.658   4.228
 7246SOL    HW222638   2.129   0.621   4.372
 7247SOL     OW22639   3.050   2.283   5.795
 7247SOL    HW122640   3.030   2.224   5.717
 7247SOL    HW222641   3.134   2.334   5.777
 7248SOL     OW22642   3.343   0.254   3.721
 7248SOL    HW122643   3.338   0.353   3.729
 7248SOL    HW222644   3.253   0.214   3.739
 7249SOL     OW22645   4.685   4.897   1.802
 7249SOL    HW122646   4.766   4.840   1.813
 7249SOL    HW222647   4.638   4.875   1.717
 7250SOL     OW22648   5.234   4.888   5.598
 7250SOL    HW122649   5.214   4.882   5.501
 7250SOL    HW222650   5.217   4.982   5.629
 7251SOL     OW22651   0.819   0.504   5.357
 7251SOL    HW122652   0.816   0.604   5.361
 7251SOL    HW222653   0.862   0.476   5.271
 7252SOL     OW22654   2.781   3.703   1.792
 7252SOL    HW122655   2.690   3.714   1.752
 7252SOL    HW222656   2.820   3.615   1.763
 7253SOL     OW22657   1.614   5.968   6.427
 7253SOL    HW122658   1.660   5.974   6.338
 7253SOL    HW222659   1.564   6.053   6.444
 7254SOL     OW22660   5.801   5.156   4.110
 7254SOL    HW122661   5.845   5.241   4.139
 7254SOL    HW222662   5.771   5.164   4.015
 7255SOL     OW22663   4.764   3.597   6.955
 7255SOL    HW122664   4.711   3.627   0.012
 7255SOL    HW222665   4.754   3.663   6.880
 7256SOL     OW22666   4.065   6.342   5.731
 7256SOL    HW122667   4.151   6.391   5.742
 7256SOL    HW222668   4.068   6.257   5.783
 7257SOL     OW22669   0.552   2.074   4.389
 7257SOL    HW122670   0.467   2.097   4.437
 7257SOL    HW222671   0.619   2.039   4.455
 7258SOL     OW22672   5.817   1.864   2.730
 7258SOL    HW122673   5.767   1.777   2.739
 7258SOL    HW222674   5.868   1.864   2.644
 7259SOL     OW22675   0.943   3.018   2.495
 7259SOL    HW122676   0.862   3.005   2.553
 7259SOL    HW222677   0.921   2.990   2.401
 7260SOL     OW22678   5.191   2.082   1.347
 7260SOL    HW122679   5.140   2.108   1.266
 7260SOL    HW222680   5.167   2.142   1.423
 7261SOL     OW22681   0.568   4.705   1.044
 7261SOL    HW122682   0.510   4.779   1.079
 7261SOL    HW222683   0.540   4.682   0.951
 7262SOL     OW22684   5.535   1.577   6.786
 7262SOL    HW122685   5.595   1.523   6.727
 7262SOL    HW222686   5.441   1.570   6.753
 7263SOL     OW22687   0.360   6.250   6.888
 7263SOL    HW122688   0.288   6.224   6.952
 7263SOL    HW222689   0.394   6.341   6.910
 7264SOL     OW22690   5.414   1.182   1.041
 7264SOL    HW122691   5.476   1.131   0.981
 7264SOL    HW222692   5.359   1.118   1.094
 7265SOL     OW22693   5.949   4.960   5.057
 7265SOL    HW122694   5.865   5.003   5.089
 7265SOL    HW222695   6.026   5.023   5.071
 7266SOL     OW22696   6.432   1.357   3.541
 7266SOL    HW122697   6.496   1.358   3.464
 7266SOL    HW222698   6.343   1.324   3.510
 7267SOL     OW22699   6.718   6.806   4.457
 7267SOL    HW122700   6.628   6.833   4.424
 7267SOL    HW222701   6.781   6.883   4.452
 7268SOL     OW22702   6.998   5.867   4.359
 7268SOL    HW122703   6.972   5.962   4.372
 7268SOL    HW222704   6.916   5.812   4.344
 7269SOL     OW22705   1.689   5.894   5.891
 7269SOL    HW122706   1.757   5.950   5.844
 7269SOL    HW222707   1.698   5.799   5.860
 7270SOL     OW22708   0.419   2.666   4.677
 7270SOL    HW122709   0.456   2.710   4.595
 7270SOL    HW222710   0.338   2.715   4.708
 7271SOL     OW22711   1.170   4.955   4.677
 7271SOL    HW122712   1.209   5.042   4.647
 7271SOL    HW222713   1.072   4.967   4.694
 7272SOL     OW22714   6.265   5.664   2.008
 7272SOL    HW122715   6.227   5.745   2.051
 7272SOL    HW222716   6.226   5.582   2.051
 7273SOL     OW22717   5.330   3.959   0.345
 7273SOL    HW122718   5.268   3.880   0.343
 7273SOL    HW222719   5.389   3.952   0.425
 7274SOL     OW22720   0.372   4.918   6.810
 7274SOL    HW122721   0.364   4.875   6.720
 7274SOL    HW222722   0.377   4.847   6.881
 7275SOL     OW22723   0.190   6.019   2.438
 7275SOL    HW122724   0.274   6.069   2.419
 7275SOL    HW222725   0.134   6.069   2.504
 7276SOL     OW22726   5.345   0.855   3.458
 7276SOL    HW122727   5.272   0.795   3.423
 7276SOL    HW222728   5.417   0.799   3.499
 7277SOL     OW22729   5.140   0.461   4.611
 7277SOL    HW122730   5.198   0.506   4.678
 7277SOL    HW222731   5.188   0.380   4.575
 7278SOL     OW22732   3.593   3.465   1.484
 7278SOL    HW122733   3.632   3.383   1.525
 7278SOL    HW222734   3.600   3.459   1.384
 7279SOL     OW22735   4.528   5.609   6.756
 7279SOL    HW122736   4.454   5.664   6.718
 7279SOL    HW222737   4.607   5.667   6.775
 7280SOL     OW22738   0.445   0.824   3.538
 7280SOL    HW122739   0.455   0.862   3.446
 7280SOL    HW222740   0.364   0.864   3.582
 7281SOL     OW22741   2.813   1.615   0.101
 7281SOL    HW122742   2.725   1.571   0.088
 7281SOL    HW222743   2.825   1.687   0.032
 7282SOL     OW22744   5.705   5.185   2.471
 7282SOL    HW122745   5.692   5.180   2.570
 7282SOL    HW222746   5.756   5.104   2.441
 7283SOL     OW22747   3.507   1.449   3.309
 7283SOL    HW122748   3.474   1.517   3.244
 7283SOL    HW222749   3.533   1.495   3.394
 7284SOL     OW22750   0.697   3.430   6.464
 7284SOL    HW122751   0.621   3.450   6.403
 7284SOL    HW222752   0.771   3.495   6.448
 7285SOL     OW22753   4.791   3.927   2.388
 7285SOL    HW122754   4.821   3.993   2.319
 7285SOL    HW222755   4.731   3.859   2.344
 7286SOL     OW22756   2.575   1.029   0.447
 7286SOL    HW122757   2.555   0.933   0.464
 7286SOL    HW222758   2.651   1.058   0.505
 7287SOL     OW22759   6.632   2.161   6.408
 7287SOL    HW122760   6.534   2.163   6.392
 7287SOL    HW222761   6.659   2.239   6.465
 7288SOL     OW22762   2.602   0.659   0.494
 7288SOL    HW122763   2.524   0.672   0.433
 7288SOL    HW222764   2.594   0.721   0.572
 7289SOL     OW22765   5.598   1.728   4.263
 7289SOL    HW122766   5.633   1.769   4.179
 7289SOL    HW222767   5.587   1.629   4.250
 7290SOL     OW22768   3.604   0.244   5.537
 7290SOL    HW122769   3.596   0.152   5.573
 7290SOL    HW222770   3.669   0.245   5.461
 7291SOL     OW22771   1.450   6.618   0.788
 7291SOL    HW122772   1.398   6.699   0.818
 7291SOL    HW222773   1.529   6.607   0.848
 7292SOL     OW22774   2.785   1.294   3.739
 7292SOL    HW122775   2.850   1.244   3.683
 7292SOL    HW222776   2.717   1.231   3.776
 7293SOL     OW22777   1.948   2.007   5.371
 7293SOL    HW122778   1.998   1.925   5.401
 7293SOL    HW222779   1.930   2.065   5.450
 7294SOL     OW22780   2.033   5.205   6.933
 7294SOL    HW122781   2.090   5.200   6.851
 7294SOL    HW222782   2.092   5.200   7.014
 7295SOL     OW22783   0.847   1.958   0.834
 7295SOL    HW122784   0.812   2.021   0.903
 7295SOL    HW222785   0.771   1.907   0.794
 7296SOL     OW22786   2.564   5.027   1.222
 7296SOL    HW122787   2.584   5.079   1.305
 7296SOL    HW222788   2.636   5.043   1.154
 7297SOL     OW22789   3.604   6.009   0.852
 7297SOL    HW122790   3.616   6.080   0.784
 7297SOL    HW222791   3.593   5.920   0.807
 7298SOL     OW22792   4.755   4.264   5.508
 7298SOL    HW122793   4.805   4.188   5.551
 7298SOL    HW222794   4.717   4.234   5.421
 7299SOL     OW22795   0.615   1.722   0.249
 7299SOL    HW122796   0.609   1.706   0.151
 7299SOL    HW222797   0.670   1.651   0.291
 7300SOL     OW22798   6.188   6.022   2.355
 7300SOL    HW122799   6.144   6.108   2.331
 7300SOL    HW222800   6.235   6.031   2.442
 7301SOL     OW22801   6.377   1.361   4.702
 7301SOL    HW122802   6.381   1.459   4.721
 7301SOL    HW222803   6.456   1.334   4.647
 7302SOL     OW22804   0.930   2.279   6.068
 7302SOL    HW122805   0.933   2.350   6.139
 7302SOL    HW222806   1.013   2.223   6.073
 7303SOL     OW22807   4.981   0.134   6.513
 7303SOL    HW122808   5.036   0.191   6.574
 7303SOL    HW222809   4.964   0.046   6.556
 7304SOL     OW22810   4.108   5.048   6.783
 7304SOL    HW122811   4.022   5.006   6.813
 7304SOL    HW222812   4.092   5.144   6.763
 7305SOL     OW22813   4.643   1.392   6.923
 7305SOL    HW122814   4.649   1.374   7.021
 7305SOL    HW222815   4.613   1.486   6.908
 7306SOL     OW22816   5.182   2.690   1.563
 7306SOL    HW122817   5.144   2.721   1.650
 7306SOL    HW222818   5.110   2.693   1.493
 7307SOL     OW22819   2.204   0.021   2.693
 7307SOL    HW122820   2.150   7.013   2.772
 7307SOL    HW222821   2.224   6.963   2.636
 7308SOL     OW22822   6.696   4.103   5.571
 7308SOL    HW122823   6.686   4.187   5.519
 7308SOL    HW222824   6.758   4.119   5.648
 7309SOL     OW22825   4.659   5.582   0.744
 7309SOL    HW122826   4.589   5.641   0.703
 7309SOL    HW222827   4.615   5.501   0.783
 7310SOL     OW22828   2.405   3.609   1.365
 7310SOL    HW122829   2.432   3.705   1.368
 7310SOL    HW222830   2.353   3.587   1.447
 7311SOL     OW22831   3.676   1.956   1.914
 7311SOL    HW122832   3.663   2.045   1.958
 7311SOL    HW222833   3.706   1.889   1.982
 7312SOL     OW22834   0.098   3.571   6.041
 7312SOL    HW122835   0.032   3.591   5.968
 7312SOL    HW222836   0.165   3.505   6.008
 7313SOL     OW22837   3.012   2.015   6.376
 7313SOL    HW122838   2.961   2.065   6.446
 7313SOL    HW222839   2.974   1.923   6.367
 7314SOL     OW22840   6.652   4.186   5.107
 7314SOL    HW122841   6.728   4.122   5.094
 7314SOL    HW222842   6.627   4.227   5.019
 7315SOL     OW22843   6.664   0.564   2.897
 7315SOL    HW122844   6.598   0.599   2.831
 7315SOL    HW222845   6.632   0.583   2.989
 7316SOL     OW22846   3.185   4.296   6.229
 7316SOL    HW122847   3.188   4.204   6.268
 7316SOL    HW222848   3.103   4.306   6.173
 7317SOL     OW22849   4.292   1.247   2.661
 7317SOL    HW122850   4.314   1.292   2.574
 7317SOL    HW222851   4.372   1.249   2.720
 7318SOL     OW22852   1.171   0.711   0.847
 7318SOL    HW122853   1.118   0.789   0.881
 7318SOL    HW222854   1.173   0.712   0.747
 7319SOL     OW22855   6.510   3.900   6.304
 7319SOL    HW122856   6.594   3.953   6.295
 7319SOL    HW222857   6.528   3.804   6.282
 7320SOL     OW22858   6.699   3.877   1.664
 7320SOL    HW122859   6.742   3.835   1.744
 7320SOL    HW222860   6.743   3.842   1.581
 7321SOL     OW22861   2.524   6.748   5.435
 7321SOL    HW122862   2.601   6.764   5.497
 7321SOL    HW222863   2.552   6.684   5.363
 7322SOL     OW22864   6.152   2.384   3.660
 7322SOL    HW122865   6.227   2.451   3.663
 7322SOL    HW222866   6.190   2.292   3.650
 7323SOL     OW22867   2.257   1.973   1.926
 7323SOL    HW122868   2.298   1.953   2.015
 7323SOL    HW222869   2.157   1.968   1.934
 7324SOL     OW22870   5.092   5.697   2.001
 7324SOL    HW122871   5.142   5.783   2.009
 7324SOL    HW222872   5.009   5.712   1.946
 7325SOL     OW22873   3.476   6.566   0.651
 7325SOL    HW122874   3.427   6.508   0.586
 7325SOL    HW222875   3.551   6.614   0.603
 7326SOL     OW22876   3.176   6.502   5.529
 7326SOL    HW122877   3.232   6.533   5.606
 7326SOL    HW222878   3.231   6.443   5.470
 7327SOL     OW22879   6.601   2.751   6.246
 7327SOL    HW122880   6.684   2.700   6.269
 7327SOL    HW222881   6.560   2.785   6.331
 7328SOL     OW22882   3.492   0.473   6.028
 7328SOL    HW122883   3.581   0.516   6.040
 7328SOL    HW222884   3.449   0.507   5.944
 7329SOL     OW22885   5.411   4.598   1.494
 7329SOL    HW122886   5.319   4.598   1.456
 7329SOL    HW222887   5.463   4.522   1.455
 7330SOL     OW22888   2.431   2.320   0.168
 7330SOL    HW122889   2.384   2.233   0.155
 7330SOL    HW222890   2.490   2.338   0.090
 7331SOL     OW22891   5.868   0.006   2.197
 7331SOL    HW122892   5.913   0.082   2.244
 7331SOL    HW222893   5.821   0.041   2.116
 7332SOL     OW22894   2.180   5.704   0.621
 7332SOL    HW122895   2.180   5.666   0.713
 7332SOL    HW222896   2.112   5.657   0.565
 7333SOL     OW22897   0.266   3.340   2.949
 7333SOL    HW122898   0.360   3.371   2.965
 7333SOL    HW222899   0.257   3.245   2.982
 7334SOL     OW22900   3.141   6.193   6.850
 7334SOL    HW122901   3.226   6.201   6.798
 7334SOL    HW222902   3.104   6.101   6.839
 7335SOL     OW22903   1.574   2.566   2.653
 7335SOL    HW122904   1.668   2.533   2.648
 7335SOL    HW222905   1.566   2.634   2.726
 7336SOL     OW22906   1.689   6.442   3.488
 7336SOL    HW122907   1.746   6.503   3.434
 7336SOL    HW222908   1.597   6.482   3.498
 7337SOL     OW22909   0.110   3.519   1.844
 7337SOL    HW122910   0.070   3.483   1.928
 7337SOL    HW222911   0.094   3.618   1.839
 7338SOL     OW22912   6.559   2.672   1.288
 7338SOL    HW122913   6.469   2.650   1.250
 7338SOL    HW222914   6.610   2.588   1.302
 7339SOL     OW22915   5.220   5.803   3.529
 7339SOL    HW122916   5.140   5.777   3.474
 7339SOL    HW222917   5.288   5.729   3.527
 7340SOL     OW22918   2.208   0.779   1.112
 7340SOL    HW122919   2.111   0.766   1.132
 7340SOL    HW222920   2.245   0.853   1.168
 7341SOL     OW22921   6.543   3.280   6.926
 7341SOL    HW122922   6.503   3.293   7.016
 7341SOL    HW222923   6.631   3.234   6.935
 7342SOL     OW22924   6.835   1.310   1.759
 7342SOL    HW122925   6.911   1.273   1.812
 7342SOL    HW222926   6.841   1.410   1.756
 7343SOL     OW22927   5.204   3.438   6.959
 7343SOL    HW122928   5.184   3.358   7.015
 7343SOL    HW222929   5.300   3.436   6.931
 7344SOL     OW22930   0.533   0.845   6.643
 7344SOL    HW122931   0.582   0.887   6.567
 7344SOL    HW222932   0.447   0.894   6.659
 7345SOL     OW22933   4.577   3.429   5.599
 7345SOL    HW122934   4.670   3.465   5.610
 7345SOL    HW222935   4.527   3.487   5.535
 7346SOL     OW22936   3.802   5.972   2.634
 7346SOL    HW122937   3.887   6.024   2.642
 7346SOL    HW222938   3.742   6.017   2.567
 7347SOL     OW22939   0.822   1.947   1.189
 7347SOL    HW122940   0.913   1.972   1.223
 7347SOL    HW222941   0.789   2.019   1.127
 7348SOL     OW22942   1.210   4.006   4.142
 7348SOL    HW122943   1.194   4.073   4.214
 7348SOL    HW222944   1.292   4.031   4.090
 7349SOL     OW22945   4.383   0.436   2.163
 7349SOL    HW122946   4.436   0.356   2.189
 7349SOL    HW222947   4.287   0.410   2.152
 7350SOL     OW22948   2.726   2.097   5.322
 7350SOL    HW122949   2.684   2.074   5.410
 7350SOL    HW222950   2.756   2.192   5.323
 7351SOL     OW22951   5.680   5.821   3.736
 7351SOL    HW122952   5.583   5.799   3.740
 7351SOL    HW222953   5.729   5.767   3.805
 7352SOL     OW22954   0.827   1.720   2.440
 7352SOL    HW122955   0.869   1.805   2.408
 7352SOL    HW222956   0.868   1.642   2.393
 7353SOL     OW22957   0.143   0.350   6.369
 7353SOL    HW122958   0.109   0.415   6.438
 7353SOL    HW222959   0.070   0.287   6.344
 7354SOL     OW22960   1.634   1.544   5.554
 7354SOL    HW122961   1.541   1.507   5.554
 7354SOL    HW222962   1.700   1.469   5.555
 7355SOL     OW22963   0.971   1.439   0.049
 7355SOL    HW122964   0.992   1.508   0.118
 7355SOL    HW222965   0.916   1.366   0.091
 7356SOL     OW22966   3.544   3.506   6.422
 7356SOL    HW122967   3.462   3.452   6.440
 7356SOL    HW222968   3.595   3.519   6.507
 7357SOL     OW22969   3.046   5.708   2.012
 7357SOL    HW122970   3.031   5.774   2.085
 7357SOL    HW222971   3.006   5.620   2.038
 7358SOL     OW22972   6.172   3.415   2.205
 7358SOL    HW122973   6.181   3.501   2.154
 7358SOL    HW222974   6.077   3.384   2.200
 7359SOL     OW22975   4.278   2.251   5.463
 7359SOL    HW122976   4.321   2.161   5.460
 7359SOL    HW222977   4.189   2.243   5.507
 7360SOL     OW22978   2.424   3.208   5.434
 7360SOL    HW122979   2.392   3.300   5.410
 7360SOL    HW222980   2.456   3.161   5.352
 7361SOL     OW22981   5.657   0.510   2.327
 7361SOL    HW122982   5.630   0.602   2.298
 7361SOL    HW222983   5.639   0.445   2.253
 7362SOL     OW22984   2.017   5.984   6.109
 7362SOL    HW122985   2.080   5.928   6.055
 7362SOL    HW222986   2.065   6.020   6.189
 7363SOL     OW22987   4.690   1.338   1.388
 7363SOL    HW122988   4.629   1.302   1.458
 7363SOL    HW222989   4.718   1.265   1.326
 7364SOL     OW22990   4.047   0.725   2.208
 7364SOL    HW122991   4.094   0.638   2.192
 7364SOL    HW222992   3.964   0.710   2.260
 7365SOL     OW22993   0.635   5.942   2.168
 7365SOL    HW122994   0.698   5.944   2.091
 7365SOL    HW222995   0.541   5.956   2.135
 7366SOL     OW22996   2.346   6.513   5.505
 7366SOL    HW122997   2.352   6.613   5.496
 7366SOL    HW222998   2.296   6.476   5.427
 7367SOL     OW22999   3.870   2.428   0.181
 7367SOL    HW123000   3.892   2.519   0.215
 7367SOL    HW223001   3.787   2.394   0.226
 7368SOL     OW23002   3.702   2.903   2.276
 7368SOL    HW123003   3.741   2.923   2.186
 7368SOL    HW223004   3.758   2.945   2.347
 7369SOL     OW23005   3.345   2.592   1.080
 7369SOL    HW123006   3.372   2.577   1.175
 7369SOL    HW223007   3.256   2.549   1.064
 7370SOL     OW23008   2.843   1.976   6.063
 7370SOL    HW123009   2.788   1.958   6.144
 7370SOL    HW223010   2.876   2.070   6.066
 7371SOL     OW23011   3.319   6.165   4.031
 7371SOL    HW123012   3.320   6.067   4.049
 7371SOL    HW223013   3.408   6.193   3.995
 7372SOL     OW23014   4.602   6.880   4.721
 7372SOL    HW123015   4.507   6.872   4.752
 7372SOL    HW223016   4.640   6.967   4.753
 7373SOL     OW23017   6.001   2.194   5.227
 7373SOL    HW123018   5.927   2.130   5.203
 7373SOL    HW223019   5.972   2.287   5.208
 7374SOL     OW23020   2.332   2.051   4.716
 7374SOL    HW123021   2.267   2.078   4.644
 7374SOL    HW223022   2.281   2.019   4.796
 7375SOL     OW23023   2.509   2.559   2.200
 7375SOL    HW123024   2.508   2.549   2.100
 7375SOL    HW223025   2.439   2.625   2.227
 7376SOL     OW23026   1.312   2.437   1.562
 7376SOL    HW123027   1.357   2.457   1.648
 7376SOL    HW223028   1.216   2.416   1.579
 7377SOL     OW23029   4.665   4.956   0.144
 7377SOL    HW123030   4.694   4.873   0.191
 7377SOL    HW223031   4.744   5.016   0.132
 7378SOL     OW23032   1.742   0.226   4.547
 7378SOL    HW123033   1.804   0.186   4.614
 7378SOL    HW223034   1.663   0.166   4.534
 7379SOL     OW23035   2.903   1.160   2.177
 7379SOL    HW123036   2.996   1.169   2.211
 7379SOL    HW223037   2.898   1.083   2.113
 7380SOL     OW23038   6.730   4.249   3.603
 7380SOL    HW123039   6.738   4.323   3.537
 7380SOL    HW223040   6.809   4.188   3.595
 7381SOL     OW23041   3.757   2.987   0.838
 7381SOL    HW123042   3.733   3.008   0.743
 7381SOL    HW223043   3.703   3.045   0.899
 7382SOL     OW23044   0.020   1.407   5.670
 7382SOL    HW123045   0.109   1.363   5.668
 7382SOL    HW223046   0.011   1.469   5.592
 7383SOL     OW23047   2.465   5.638   1.313
 7383SOL    HW123048   2.505   5.617   1.224
 7383SOL    HW223049   2.503   5.724   1.347
 7384SOL     OW23050   6.702   0.059   1.986
 7384SOL    HW123051   6.660   0.000   2.055
 7384SOL    HW223052   6.794   0.086   2.015
 7385SOL     OW23053   2.472   5.560   2.334
 7385SOL    HW123054   2.440   5.574   2.428
 7385SOL    HW223055   2.395   5.571   2.271
 7386SOL     OW23056   6.881   3.004   6.634
 7386SOL    HW123057   6.826   3.050   6.565
 7386SOL    HW223058   6.944   2.940   6.589
 7387SOL     OW23059   6.656   5.372   4.566
 7387SOL    HW123060   6.689   5.432   4.640
 7387SOL    HW223061   6.570   5.329   4.595
 7388SOL     OW23062   1.095   5.010   2.323
 7388SOL    HW123063   1.189   4.989   2.299
 7388SOL    HW223064   1.082   5.109   2.322
 7389SOL     OW23065   6.887   3.428   0.045
 7389SOL    HW123066   6.870   3.384   6.978
 7389SOL    HW223067   6.808   3.484   0.069
 7390SOL     OW23068   2.710   2.095   2.486
 7390SOL    HW123069   2.745   2.062   2.574
 7390SOL    HW223070   2.774   2.162   2.448
 7391SOL     OW23071   3.522   2.872   2.997
 7391SOL    HW123072   3.573   2.901   2.916
 7391SOL    HW223073   3.473   2.787   2.976
 7392SOL     OW23074   3.453   5.306   6.872
 7392SOL    HW123075   3.425   5.233   6.934
 7392SOL    HW223076   3.375   5.333   6.815
 7393SOL     OW23077   6.477   4.760   3.296
 7393SOL    HW123078   6.502   4.773   3.392
 7393SOL    HW223079   6.386   4.797   3.279
 7394SOL     OW23080   1.693   3.030   6.033
 7394SOL    HW123081   1.664   2.938   6.059
 7394SOL    HW223082   1.761   3.063   6.099
 7395SOL     OW23083   2.108   3.048   0.893
 7395SOL    HW123084   2.077   2.966   0.844
 7395SOL    HW223085   2.085   3.039   0.990
 7396SOL     OW23086   2.143   6.309   0.953
 7396SOL    HW123087   2.082   6.316   1.032
 7396SOL    HW223088   2.139   6.393   0.900
 7397SOL     OW23089   5.391   4.433   4.141
 7397SOL    HW123090   5.353   4.385   4.221
 7397SOL    HW223091   5.410   4.367   4.069
 7398SOL     OW23092   1.028   6.004   3.075
 7398SOL    HW123093   0.963   6.000   3.152
 7398SOL    HW223094   1.033   6.097   3.040
 7399SOL     OW23095   6.753   3.152   5.004
 7399SOL    HW123096   6.838   3.203   5.011
 7399SOL    HW223097   6.684   3.192   5.064
 7400SOL     OW23098   4.581   2.591   5.723
 7400SOL    HW123099   4.527   2.596   5.806
 7400SOL    HW223100   4.557   2.508   5.672
 7401SOL     OW23101   1.526   2.802   3.254
 7401SOL    HW123102   1.459   2.734   3.224
 7401SOL    HW223103   1.532   2.802   3.354
 7402SOL     OW23104   3.236   4.571   6.268
 7402SOL    HW123105   3.219   4.622   6.184
 7402SOL    HW223106   3.235   4.472   6.248
 7403SOL     OW23107   1.361   2.853   2.830
 7403SOL    HW123108   1.447   2.807   2.851
 7403SOL    HW223109   1.292   2.828   2.899
 7404SOL     OW23110   2.757   4.242   1.717
 7404SOL    HW123111   2.789   4.317   1.775
 7404SOL    HW223112   2.797   4.156   1.748
 7405SOL     OW23113   3.076   5.148   4.520
 7405SOL    HW123114   3.101   5.127   4.426
 7405SOL    HW223115   3.019   5.074   4.556
 7406SOL     OW23116   1.138   1.043   4.680
 7406SOL    HW123117   1.057   0.984   4.686
 7406SOL    HW223118   1.131   1.116   4.749
 7407SOL     OW23119   1.071   6.042   5.361
 7407SOL    HW123120   1.015   6.036   5.278
 7407SOL    HW223121   1.076   5.951   5.403
 7408SOL     OW23122   3.828   4.156   5.404
 7408SOL    HW123123   3.838   4.191   5.498
 7408SOL    HW223124   3.917   4.131   5.368
 7409SOL     OW23125   5.232   4.372   0.407
 7409SOL    HW123126   5.302   4.301   0.413
 7409SOL    HW223127   5.184   4.379   0.494
 7410SOL     OW23128   0.553   1.067   0.889
 7410SOL    HW123129   0.488   1.088   0.816
 7410SOL    HW223130   0.554   0.968   0.904
 7411SOL     OW23131   1.755   0.102   6.788
 7411SOL    HW123132   1.825   0.173   6.794
 7411SOL    HW223133   1.770   0.033   6.859
 7412SOL     OW23134   3.843   6.526   1.203
 7412SOL    HW123135   3.823   6.474   1.120
 7412SOL    HW223136   3.760   6.571   1.236
 7413SOL     OW23137   4.794   4.735   3.916
 7413SOL    HW123138   4.792   4.724   4.016
 7413SOL    HW223139   4.748   4.658   3.873
 7414SOL     OW23140   2.235   1.395   3.348
 7414SOL    HW123141   2.331   1.412   3.323
 7414SOL    HW223142   2.207   1.458   3.420
 7415SOL     OW23143   2.365   4.972   5.176
 7415SOL    HW123144   2.369   5.023   5.263
 7415SOL    HW223145   2.336   4.878   5.194
 7416SOL     OW23146   1.940   1.049   2.674
 7416SOL    HW123147   1.923   1.020   2.768
 7416SOL    HW223148   1.997   0.982   2.627
 7417SOL     OW23149   1.762   1.833   2.174
 7417SOL    HW123150   1.818   1.754   2.196
 7417SOL    HW223151   1.812   1.917   2.194
 7418SOL     OW23152   1.788   5.122   6.838
 7418SOL    HW123153   1.855   5.171   6.894
 7418SOL    HW223154   1.708   5.180   6.824
 7419SOL     OW23155   6.512   4.105   3.692
 7419SOL    HW123156   6.573   4.176   3.658
 7419SOL    HW223157   6.474   4.133   3.781
 7420SOL     OW23158   0.026   6.255   1.379
 7420SOL    HW123159   0.019   6.352   1.355
 7420SOL    HW223160   0.065   6.205   1.301
 7421SOL     OW23161   4.042   3.764   1.518
 7421SOL    HW123162   3.964   3.745   1.578
 7421SOL    HW223163   4.056   3.687   1.456
 7422SOL     OW23164   6.520   3.700   2.147
 7422SOL    HW123165   6.513   3.633   2.221
 7422SOL    HW223166   6.609   3.746   2.153
 7423SOL     OW23167   5.854   2.979   5.617
 7423SOL    HW123168   5.907   3.036   5.680
 7423SOL    HW223169   5.818   2.899   5.666
 7424SOL     OW23170   0.154   1.551   5.195
 7424SOL    HW123171   0.101   1.467   5.211
 7424SOL    HW223172   0.162   1.567   5.097
 7425SOL     OW23173   5.143   0.133   0.247
 7425SOL    HW123174   5.236   0.124   0.282
 7425SOL    HW223175   5.101   0.216   0.283
 7426SOL     OW23176   3.361   2.011   5.360
 7426SOL    HW123177   3.261   2.000   5.356
 7426SOL    HW223178   3.384   2.107   5.348
 7427SOL     OW23179   4.203   1.005   3.675
 7427SOL    HW123180   4.124   1.023   3.616
 7427SOL    HW223181   4.198   1.064   3.756
 7428SOL     OW23182   4.022   0.444   5.151
 7428SOL    HW123183   4.045   0.416   5.058
 7428SOL    HW223184   3.959   0.521   5.147
 7429SOL     OW23185   0.949   6.232   3.394
 7429SOL    HW123186   0.948   6.306   3.326
 7429SOL    HW223187   1.029   6.173   3.377
 7430SOL     OW23188   6.735   3.748   1.286
 7430SOL    HW123189   6.766   3.772   1.194
 7430SOL    HW223190   6.809   3.765   1.351
 7431SOL     OW23191   1.383   2.016   3.741
 7431SOL    HW123192   1.300   1.962   3.726
 7431SOL    HW223193   1.379   2.059   3.831
 7432SOL     OW23194   2.080   0.879   3.093
 7432SOL    HW123195   2.125   0.912   3.176
 7432SOL    HW223196   2.145   0.879   3.017
 7433SOL     OW23197   3.796   6.385   6.785
 7433SOL    HW123198   3.859   6.357   6.857
 7433SOL    HW223199   3.783   6.309   6.721
 7434SOL     OW23200   5.121   5.975   5.338
 7434SOL    HW123201   5.100   6.031   5.418
 7434SOL    HW223202   5.036   5.937   5.300
 7435SOL     OW23203   4.451   6.171   1.475
 7435SOL    HW123204   4.472   6.263   1.510
 7435SOL    HW223205   4.534   6.130   1.437
 7436SOL     OW23206   4.647   4.871   6.202
 7436SOL    HW123207   4.567   4.837   6.252
 7436SOL    HW223208   4.633   4.857   6.104
 7437SOL     OW23209   3.063   5.759   1.121
 7437SOL    HW123210   3.050   5.675   1.173
 7437SOL    HW223211   3.113   5.825   1.177
 7438SOL     OW23212   1.804   6.932   7.011
 7438SOL    HW123213   1.856   6.888   6.938
 7438SOL    HW223214   1.861   7.003   0.032
 7439SOL     OW23215   1.556   6.177   5.302
 7439SOL    HW123216   1.585   6.273   5.302
 7439SOL    HW223217   1.536   6.149   5.208
 7440SOL     OW23218   6.343   3.518   4.153
 7440SOL    HW123219   6.358   3.546   4.248
 7440SOL    HW223220   6.379   3.426   4.140
 7441SOL     OW23221   5.871   0.105   3.784
 7441SOL    HW123222   5.831   0.037   3.844
 7441SOL    HW223223   5.908   0.181   3.838
 7442SOL     OW23224   5.593   1.309   6.919
 7442SOL    HW123225   5.558   1.390   6.967
 7442SOL    HW223226   5.616   1.333   6.825
 7443SOL     OW23227   6.988   5.739   2.028
 7443SOL    HW123228   6.919   5.762   2.096
 7443SOL    HW223229   0.014   5.655   2.054
 7444SOL     OW23230   6.426   1.111   6.152
 7444SOL    HW123231   6.492   1.041   6.179
 7444SOL    HW223232   6.474   1.195   6.129
 7445SOL     OW23233   3.496   0.429   1.334
 7445SOL    HW123234   3.579   0.387   1.297
 7445SOL    HW223235   3.514   0.464   1.426
 7446SOL     OW23236   5.034   2.398   0.296
 7446SOL    HW123237   4.954   2.423   0.349
 7446SOL    HW223238   5.092   2.336   0.349
 7447SOL     OW23239   6.567   4.698   5.928
 7447SOL    HW123240   6.568   4.640   6.010
 7447SOL    HW223241   6.530   4.646   5.851
 7448SOL     OW23242   5.230   6.882   5.232
 7448SOL    HW123243   5.204   6.815   5.163
 7448SOL    HW223244   5.310   6.932   5.201
 7449SOL     OW23245   0.770   5.588   0.192
 7449SOL    HW123246   0.755   5.499   0.235
 7449SOL    HW223247   0.682   5.623   0.158
 7450SOL     OW23248   5.141   2.497   5.665
 7450SOL    HW123249   5.120   2.584   5.709
 7450SOL    HW223250   5.154   2.511   5.567
 7451SOL     OW23251   5.517   5.491   2.451
 7451SOL    HW123252   5.452   5.450   2.387
 7451SOL    HW223253   5.467   5.549   2.516
 7452SOL     OW23254   6.442   5.870   4.386
 7452SOL    HW123255   6.346   5.858   4.359
 7452SOL    HW223256   6.482   5.782   4.409
 7453SOL     OW23257   4.574   4.842   5.531
 7453SOL    HW123258   4.607   4.814   5.621
 7453SOL    HW223259   4.554   4.761   5.476
 7454SOL     OW23260   2.701   1.087   0.895
 7454SOL    HW123261   2.609   1.077   0.933
 7454SOL    HW223262   2.755   1.006   0.919
 7455SOL     OW23263   6.603   3.429   2.057
 7455SOL    HW123264   6.690   3.459   2.094
 7455SOL    HW223265   6.539   3.412   2.132
 7456SOL     OW23266   2.715   1.483   5.206
 7456SOL    HW123267   2.681   1.465   5.114
 7456SOL    HW223268   2.808   1.521   5.201
 7457SOL     OW23269   3.205   6.872   4.276
 7457SOL    HW123270   3.122   6.861   4.330
 7457SOL    HW223271   3.184   6.860   4.179
 7458SOL     OW23272   1.579   0.348   6.044
 7458SOL    HW123273   1.508   0.295   5.997
 7458SOL    HW223274   1.597   0.432   5.992
 7459SOL     OW23275   6.523   1.149   2.347
 7459SOL    HW123276   6.486   1.103   2.428
 7459SOL    HW223277   6.470   1.123   2.267
 7460SOL     OW23278   1.409   6.003   6.825
 7460SOL    HW123279   1.407   6.048   6.914
 7460SOL    HW223280   1.336   5.935   6.820
 7461SOL     OW23281   6.105   6.115   5.939
 7461SOL    HW123282   6.076   6.162   6.022
 7461SOL    HW223283   6.048   6.145   5.862
 7462SOL     OW23284   2.197   4.671   1.851
 7462SOL    HW123285   2.288   4.642   1.880
 7462SOL    HW223286   2.205   4.741   1.781
 7463SOL     OW23287   3.522   3.977   0.479
 7463SOL    HW123288   3.444   4.014   0.529
 7463SOL    HW223289   3.601   3.973   0.539
 7464SOL     OW23290   6.505   6.780   5.370
 7464SOL    HW123291   6.583   6.717   5.377
 7464SOL    HW223292   6.429   6.744   5.424
 7465SOL     OW23293   2.646   5.321   6.831
 7465SOL    HW123294   2.585   5.371   6.769
 7465SOL    HW223295   2.594   5.282   6.907
 7466SOL     OW23296   0.511   0.672   6.320
 7466SOL    HW123297   0.571   0.601   6.283
 7466SOL    HW223298   0.567   0.749   6.353
 7467SOL     OW23299   0.480   2.619   6.031
 7467SOL    HW123300   0.544   2.688   6.064
 7467SOL    HW223301   0.531   2.541   5.996
 7468SOL     OW23302   5.144   3.061   4.550
 7468SOL    HW123303   5.057   3.100   4.520
 7468SOL    HW223304   5.161   2.975   4.501
 7469SOL     OW23305   6.785   1.613   0.712
 7469SOL    HW123306   6.868   1.562   0.737
 7469SOL    HW223307   6.739   1.567   0.637
 7470SOL     OW23308   5.391   4.245   3.515
 7470SOL    HW123309   5.480   4.249   3.561
 7470SOL    HW223310   5.323   4.206   3.577
 7471SOL     OW23311   5.318   6.147   5.823
 7471SOL    HW123312   5.401   6.171   5.772
 7471SOL    HW223313   5.343   6.097   5.906
 7472SOL     OW23314   6.151   0.920   5.544
 7472SOL    HW123315   6.098   0.836   5.561
 7472SOL    HW223316   6.127   0.988   5.613
 7473SOL     OW23317   5.441   6.340   3.676
 7473SOL    HW123318   5.510   6.334   3.604
 7473SOL    HW223319   5.373   6.269   3.662
 7474SOL     OW23320   6.433   2.824   6.453
 7474SOL    HW123321   6.368   2.899   6.467
 7474SOL    HW223322   6.387   2.737   6.464
 7475SOL     OW23323   4.526   2.467   2.000
 7475SOL    HW123324   4.468   2.392   2.032
 7475SOL    HW223325   4.622   2.443   2.013
 7476SOL     OW23326   2.093   2.261   2.834
 7476SOL    HW123327   2.059   2.172   2.802
 7476SOL    HW223328   2.023   2.306   2.888
 7477SOL     OW23329   0.323   3.103   5.351
 7477SOL    HW123330   0.382   3.142   5.281
 7477SOL    HW223331   0.311   3.005   5.335
 7478SOL     OW23332   5.658   3.493   5.324
 7478SOL    HW123333   5.737   3.486   5.385
 7478SOL    HW223334   5.635   3.402   5.290
 7479SOL     OW23335   5.314   3.007   0.605
 7479SOL    HW123336   5.259   2.974   0.528
 7479SOL    HW223337   5.399   3.045   0.571
 7480SOL     OW23338   1.886   4.807   2.332
 7480SOL    HW123339   1.881   4.811   2.232
 7480SOL    HW223340   1.973   4.765   2.359
 7481SOL     OW23341   6.439   4.756   6.843
 7481SOL    HW123342   6.450   4.819   6.920
 7481SOL    HW223343   6.353   4.775   6.797
 7482SOL     OW23344   4.171   2.255   2.392
 7482SOL    HW123345   4.233   2.178   2.376
 7482SOL    HW223346   4.173   2.280   2.489
 7483SOL     OW23347   4.948   2.559   4.856
 7483SOL    HW123348   4.915   2.584   4.947
 7483SOL    HW223349   5.015   2.626   4.825
 7484SOL     OW23350   1.786   5.370   4.638
 7484SOL    HW123351   1.766   5.428   4.559
 7484SOL    HW223352   1.709   5.308   4.654
 7485SOL     OW23353   2.651   0.123   3.826
 7485SOL    HW123354   2.717   0.119   3.751
 7485SOL    HW223355   2.691   0.083   3.908
 7486SOL     OW23356   0.686   6.383   0.121
 7486SOL    HW123357   0.724   6.374   0.213
 7486SOL    HW223358   0.641   6.298   0.094
 7487SOL     OW23359   3.792   0.893   3.378
 7487SOL    HW123360   3.800   0.970   3.315
 7487SOL    HW223361   3.697   0.865   3.384
 7488SOL     OW23362   2.059   6.178   4.724
 7488SOL    HW123363   2.110   6.248   4.773
 7488SOL    HW223364   2.113   6.146   4.646
 7489SOL     OW23365   6.393   3.293   0.135
 7489SOL    HW123366   6.453   3.313   0.213
 7489SOL    HW223367   6.334   3.216   0.157
 7490SOL     OW23368   1.628   1.321   2.407
 7490SOL    HW123369   1.727   1.314   2.392
 7490SOL    HW223370   1.611   1.350   2.501
 7491SOL     OW23371   5.021   3.008   6.886
 7491SOL    HW123372   5.056   3.073   6.953
 7491SOL    HW223373   4.963   2.940   6.931
 7492SOL     OW23374   2.275   1.315   4.133
 7492SOL    HW123375   2.206   1.363   4.186
 7492SOL    HW223376   2.340   1.382   4.095
 7493SOL     OW23377   6.879   2.994   5.781
 7493SOL    HW123378   6.934   3.002   5.698
 7493SOL    HW223379   6.939   2.979   5.860
 7494SOL     OW23380   6.311   1.375   4.145
 7494SOL    HW123381   6.251   1.441   4.190
 7494SOL    HW223382   6.304   1.385   4.046
 7495SOL     OW23383   1.554   3.107   5.133
 7495SOL    HW123384   1.533   3.204   5.117
 7495SOL    HW223385   1.495   3.051   5.075
 7496SOL     OW23386   5.627   3.482   4.313
 7496SOL    HW123387   5.647   3.416   4.385
 7496SOL    HW223388   5.530   3.476   4.288
 7497SOL     OW23389   2.028   5.943   1.590
 7497SOL    HW123390   2.042   5.845   1.605
 7497SOL    HW223391   1.932   5.966   1.606
 7498SOL     OW23392   2.458   0.979   4.054
 7498SOL    HW123393   2.491   1.054   4.113
 7498SOL    HW223394   2.416   0.908   4.111
 7499SOL     OW23395   4.518   2.086   3.199
 7499SOL    HW123396   4.486   2.169   3.244
 7499SOL    HW223397   4.574   2.033   3.262
 7500SOL     OW23398   3.231   5.595   3.272
 7500SOL    HW123399   3.298   5.522   3.284
 7500SOL    HW223400   3.278   5.683   3.269
 7501SOL     OW23401   5.547   4.022   3.942
 7501SOL    HW123402   5.632   3.971   3.926
 7501SOL    HW223403   5.475   3.958   3.969
 7502SOL     OW23404   3.566   6.490   4.391
 7502SOL    HW123405   3.528   6.528   4.306
 7502SOL    HW223406   3.610   6.563   4.444
 7503SOL     OW23407   2.347   5.915   0.689
 7503SOL    HW123408   2.277   5.844   0.679
 7503SOL    HW223409   2.303   6.005   0.697
 7504SOL     OW23410   0.517   6.498   2.195
 7504SOL    HW123411   0.525   6.592   2.163
 7504SOL    HW223412   0.542   6.435   2.122
 7505SOL     OW23413   1.136   1.838   6.373
 7505SOL    HW123414   1.048   1.821   6.328
 7505SOL    HW223415   1.197   1.761   6.357
 7506SOL     OW23416   4.434   2.275   3.387
 7506SOL    HW123417   4.439   2.350   3.321
 7506SOL    HW223418   4.469   2.305   3.476
 7507SOL     OW23419   6.418   2.897   3.973
 7507SOL    HW123420   6.410   2.996   3.962
 7507SOL    HW223421   6.389   2.872   4.065
 7508SOL     OW23422   2.031   4.975   0.618
 7508SOL    HW123423   2.114   4.919   0.610
 7508SOL    HW223424   1.951   4.917   0.606
 7509SOL     OW23425   5.917   3.319   0.411
 7509SOL    HW123426   5.847   3.290   0.476
 7509SOL    HW223427   5.892   3.289   0.319
 7510SOL     OW23428   3.949   4.026   4.696
 7510SOL    HW123429   4.026   4.084   4.668
 7510SOL    HW223430   3.863   4.073   4.676
 7511SOL     OW23431   2.970   6.169   3.608
 7511SOL    HW123432   2.966   6.130   3.700
 7511SOL    HW223433   2.994   6.266   3.614
 7512SOL     OW23434   2.730   0.782   0.041
 7512SOL    HW123435   2.709   0.780   6.965
 7512SOL    HW223436   2.735   0.688   0.076
 7513SOL     OW23437   2.329   2.360   3.311
 7513SOL    HW123438   2.245   2.363   3.366
 7513SOL    HW223439   2.310   2.315   3.224
 7514SOL     OW23440   1.866   5.118   3.587
 7514SOL    HW123441   1.877   5.168   3.501
 7514SOL    HW223442   1.818   5.176   3.653
 7515SOL     OW23443   6.862   4.437   4.766
 7515SOL    HW123444   6.856   4.350   4.815
 7515SOL    HW223445   6.778   4.489   4.781
 7516SOL     OW23446   0.714   5.220   6.115
 7516SOL    HW123447   0.663   5.306   6.115
 7516SOL    HW223448   0.690   5.166   6.196
 7517SOL     OW23449   1.370   2.391   0.193
 7517SOL    HW123450   1.422   2.358   0.115
 7517SOL    HW223451   1.361   2.318   0.261
 7518SOL     OW23452   5.047   3.475   3.265
 7518SOL    HW123453   5.007   3.457   3.355
 7518SOL    HW223454   5.071   3.572   3.257
 7519SOL     OW23455   5.741   0.106   4.120
 7519SOL    HW123456   5.834   0.117   4.155
 7519SOL    HW223457   5.727   0.169   4.043
 7520SOL     OW23458   1.336   1.191   2.682
 7520SOL    HW123459   1.383   1.169   2.596
 7520SOL    HW223460   1.313   1.288   2.684
 7521SOL     OW23461   4.883   2.049   4.849
 7521SOL    HW123462   4.931   2.130   4.883
 7521SOL    HW223463   4.931   2.012   4.770
 7522SOL     OW23464   1.472   0.316   5.154
 7522SOL    HW123465   1.454   0.411   5.180
 7522SOL    HW223466   1.504   0.312   5.059
 7523SOL     OW23467   4.902   0.890   6.013
 7523SOL    HW123468   4.953   0.836   6.081
 7523SOL    HW223469   4.820   0.927   6.056
 7524SOL     OW23470   0.309   3.383   4.938
 7524SOL    HW123471   0.377   3.450   4.907
 7524SOL    HW223472   0.222   3.402   4.895
 7525SOL     OW23473   4.004   6.765   6.664
 7525SOL    HW123474   4.068   6.827   6.617
 7525SOL    HW223475   4.032   6.671   6.650
 7526SOL     OW23476   2.576   2.571   1.469
 7526SOL    HW123477   2.554   2.599   1.562
 7526SOL    HW223478   2.620   2.646   1.420
 7527SOL     OW23479   3.263   5.680   3.660
 7527SOL    HW123480   3.316   5.602   3.627
 7527SOL    HW223481   3.193   5.704   3.593
 7528SOL     OW23482   5.608   2.192   6.672
 7528SOL    HW123483   5.663   2.227   6.596
 7528SOL    HW223484   5.599   2.263   6.742
 7529SOL     OW23485   4.971   2.021   4.138
 7529SOL    HW123486   5.063   2.018   4.177
 7529SOL    HW223487   4.908   1.970   4.196
 7530SOL     OW23488   6.225   1.850   2.457
 7530SOL    HW123489   6.220   1.750   2.457
 7530SOL    HW223490   6.263   1.881   2.370
 7531SOL     OW23491   4.989   2.761   2.848
 7531SOL    HW123492   4.986   2.835   2.915
 7531SOL    HW223493   5.062   2.778   2.782
 7532SOL     OW23494   5.277   6.332   6.563
 7532SOL    HW123495   5.339   6.302   6.491
 7532SOL    HW223496   5.295   6.279   6.647
 7533SOL     OW23497   4.581   2.315   1.617
 7533SOL    HW123498   4.532   2.395   1.651
 7533SOL    HW223499   4.533   2.232   1.646
 7534SOL     OW23500   4.657   5.672   4.180
 7534SOL    HW123501   4.746   5.647   4.142
 7534SOL    HW223502   4.658   5.769   4.206
 7535SOL     OW23503   1.600   6.267   4.571
 7535SOL    HW123504   1.567   6.206   4.643
 7535SOL    HW223505   1.699   6.256   4.561
 7536SOL     OW23506   5.790   6.195   4.019
 7536SOL    HW123507   5.768   6.220   4.114
 7536SOL    HW223508   5.718   6.136   3.983
 7537SOL     OW23509   2.061   4.717   2.067
 7537SOL    HW123510   2.120   4.701   1.988
 7537SOL    HW223511   1.972   4.750   2.035
 7538SOL     OW23512   1.399   2.785   1.886
 7538SOL    HW123513   1.344   2.769   1.968
 7538SOL    HW223514   1.487   2.826   1.911
 7539SOL     OW23515   1.172   4.776   3.202
 7539SOL    HW123516   1.076   4.748   3.205
 7539SOL    HW223517   1.182   4.854   3.141
 7540SOL     OW23518   4.613   6.318   4.368
 7540SOL    HW123519   4.674   6.396   4.358
 7540SOL    HW223520   4.518   6.351   4.376
 7541SOL     OW23521   0.860   4.360   6.313
 7541SOL    HW123522   0.880   4.457   6.327
 7541SOL    HW223523   0.804   4.350   6.232
 7542SOL     OW23524   6.743   6.080   6.054
 7542SOL    HW123525   6.714   6.138   6.130
 7542SOL    HW223526   6.842   6.088   6.041
 7543SOL     OW23527   2.939   0.583   4.754
 7543SOL    HW123528   2.849   0.596   4.796
 7543SOL    HW223529   3.006   0.641   4.802
 7544SOL     OW23530   0.542   2.804   4.457
 7544SOL    HW123531   0.484   2.885   4.452
 7544SOL    HW223532   0.623   2.817   4.401
 7545SOL     OW23533   0.421   6.513   6.300
 7545SOL    HW123534   0.365   6.596   6.302
 7545SOL    HW223535   0.367   6.438   6.262
 7546SOL     OW23536   5.109   2.418   1.539
 7546SOL    HW123537   5.012   2.400   1.556
 7546SOL    HW223538   5.134   2.506   1.580
 7547SOL     OW23539   4.520   1.031   0.778
 7547SOL    HW123540   4.524   0.933   0.759
 7547SOL    HW223541   4.588   1.054   0.848
 7548SOL     OW23542   4.468   2.475   6.980
 7548SOL    HW123543   4.525   2.472   6.899
 7548SOL    HW223544   4.372   2.465   6.954
 7549SOL     OW23545   3.416   2.487   6.789
 7549SOL    HW123546   3.437   2.421   6.860
 7549SOL    HW223547   3.496   2.499   6.730
 7550SOL     OW23548   2.111   4.508   3.492
 7550SOL    HW123549   2.138   4.554   3.577
 7550SOL    HW223550   2.161   4.422   3.484
 7551SOL     OW23551   5.227   2.987   5.393
 7551SOL    HW123552   5.246   2.956   5.300
 7551SOL    HW223553   5.304   3.040   5.428
 7552SOL     OW23554   1.546   6.048   4.227
 7552SOL    HW123555   1.626   6.006   4.269
 7552SOL    HW223556   1.483   6.079   4.298
 7553SOL     OW23557   5.803   6.609   5.964
 7553SOL    HW123558   5.761   6.675   5.900
 7553SOL    HW223559   5.746   6.527   5.968
 7554SOL     OW23560   4.788   0.860   0.395
 7554SOL    HW123561   4.827   0.940   0.442
 7554SOL    HW223562   4.853   0.828   0.326
 7555SOL     OW23563   3.428   5.602   6.287
 7555SOL    HW123564   3.474   5.555   6.212
 7555SOL    HW223565   3.420   5.539   6.365
 7556SOL     OW23566   1.713   1.430   0.425
 7556SOL    HW123567   1.789   1.407   0.487
 7556SOL    HW223568   1.628   1.395   0.463
 7557SOL     OW23569   4.755   0.113   6.941
 7557SOL    HW123570   4.735   0.155   6.853
 7557SOL    HW223571   4.837   0.153   6.980
 7558SOL     OW23572   1.895   3.301   3.626
 7558SOL    HW123573   1.989   3.318   3.598
 7558SOL    HW223574   1.832   3.338   3.558
 7559SOL     OW23575   3.920   2.092   5.369
 7559SOL    HW123576   3.837   2.098   5.425
 7559SOL    HW223577   3.994   2.141   5.414
 7560SOL     OW23578   6.557   0.333   0.056
 7560SOL    HW123579   6.651   0.360   0.076
 7560SOL    HW223580   6.535   0.355   6.982
 7561SOL     OW23581   5.790   3.314   5.681
 7561SOL    HW123582   5.839   3.265   5.752
 7561SOL    HW223583   5.803   3.412   5.693
 7562SOL     OW23584   0.615   4.693   4.917
 7562SOL    HW123585   0.711   4.719   4.923
 7562SOL    HW223586   0.580   4.714   4.825
 7563SOL     OW23587   2.602   6.122   2.348
 7563SOL    HW123588   2.637   6.033   2.376
 7563SOL    HW223589   2.623   6.190   2.418
 7564SOL     OW23590   4.061   0.277   4.924
 7564SOL    HW123591   4.144   0.333   4.923
 7564SOL    HW223592   4.065   0.208   4.852
 7565SOL     OW23593   5.991   4.450   5.698
 7565SOL    HW123594   5.905   4.485   5.662
 7565SOL    HW223595   6.054   4.434   5.623
 7566SOL     OW23596   5.420   5.205   2.502
 7566SOL    HW123597   5.376   5.187   2.414
 7566SOL    HW223598   5.515   5.173   2.499
 7567SOL     OW23599   0.887   0.885   4.726
 7567SOL    HW123600   0.799   0.930   4.744
 7567SOL    HW223601   0.885   0.844   4.635
 7568SOL     OW23602   5.507   5.100   1.744
 7568SOL    HW123603   5.531   5.041   1.667
 7568SOL    HW223604   5.564   5.182   1.741
 7569SOL     OW23605   4.330   4.149   6.462
 7569SOL    HW123606   4.319   4.144   6.363
 7569SOL    HW223607   4.292   4.236   6.495
 7570SOL     OW23608   0.314   2.955   4.300
 7570SOL    HW123609   0.258   2.997   4.372
 7570SOL    HW223610   0.309   2.856   4.307
 7571SOL     OW23611   5.364   3.758   3.294
 7571SOL    HW123612   5.407   3.735   3.382
 7571SOL    HW223613   5.415   3.715   3.220
 7572SOL     OW23614   4.961   6.668   2.956
 7572SOL    HW123615   5.043   6.611   2.945
 7572SOL    HW223616   4.938   6.673   3.053
 7573SOL     OW23617   6.110   0.834   5.891
 7573SOL    HW123618   6.145   0.823   5.984
 7573SOL    HW223619   6.023   0.786   5.881
 7574SOL     OW23620   5.827   1.417   4.429
 7574SOL    HW123621   5.736   1.385   4.455
 7574SOL    HW223622   5.851   1.498   4.483
 7575SOL     OW23623   6.218   6.099   0.583
 7575SOL    HW123624   6.273   6.025   0.546
 7575SOL    HW223625   6.234   6.108   0.681
 7576SOL     OW23626   5.513   2.307   6.929
 7576SOL    HW123627   5.558   2.382   6.978
 7576SOL    HW223628   5.414   2.318   6.934
 7577SOL     OW23629   0.006   6.472   0.333
 7577SOL    HW123630   6.939   6.498   0.372
 7577SOL    HW223631   0.070   6.454   0.407
 7578SOL     OW23632   1.370   5.328   2.327
 7578SOL    HW123633   1.298   5.352   2.261
 7578SOL    HW223634   1.428   5.257   2.288
 7579SOL     OW23635   6.672   1.689   1.204
 7579SOL    HW123636   6.671   1.620   1.131
 7579SOL    HW223637   6.591   1.679   1.261
 7580SOL     OW23638   1.297   4.923   3.437
 7580SOL    HW123639   1.259   4.872   3.359
 7580SOL    HW223640   1.338   5.008   3.404
 7581SOL     OW23641   0.498   1.273   1.363
 7581SOL    HW123642   0.441   1.306   1.438
 7581SOL    HW223643   0.498   1.173   1.362
 7582SOL     OW23644   4.351   1.728   3.607
 7582SOL    HW123645   4.358   1.824   3.635
 7582SOL    HW223646   4.334   1.724   3.508
 7583SOL     OW23647   5.480   3.624   3.061
 7583SOL    HW123648   5.572   3.593   3.035
 7583SOL    HW223649   5.413   3.556   3.034
 7584SOL     OW23650   1.351   6.624   2.484
 7584SOL    HW123651   1.367   6.662   2.575
 7584SOL    HW223652   1.329   6.526   2.492
 7585SOL     OW23653   0.836   2.086   6.895
 7585SOL    HW123654   0.830   2.182   6.920
 7585SOL    HW223655   0.822   2.076   6.797
 7586SOL     OW23656   1.959   7.005   2.579
 7586SOL    HW123657   2.055   0.006   2.596
 7586SOL    HW223658   1.932   0.018   2.489
 7587SOL     OW23659   2.547   1.182   0.220
 7587SOL    HW123660   2.562   1.119   0.297
 7587SOL    HW223661   2.450   1.205   0.216
 7588SOL     OW23662   1.706   2.794   3.799
 7588SOL    HW123663   1.793   2.797   3.847
 7588SOL    HW223664   1.631   2.795   3.866
 7589SOL     OW23665   0.013   1.393   3.138
 7589SOL    HW123666   6.961   1.349   3.189
 7589SOL    HW223667   6.998   1.470   3.086
 7590SOL     OW23668   6.160   1.252   6.961
 7590SOL    HW123669   6.073   1.251   7.011
 7590SOL    HW223670   6.145   1.287   6.869
 7591SOL     OW23671   4.951   3.034   6.233
 7591SOL    HW123672   4.947   3.004   6.328
 7591SOL    HW223673   4.948   3.134   6.230
 7592SOL     OW23674   6.603   4.636   4.576
 7592SOL    HW123675   6.530   4.648   4.508
 7592SOL    HW223676   6.690   4.665   4.536
 7593SOL     OW23677   0.247   2.689   6.189
 7593SOL    HW123678   0.335   2.674   6.145
 7593SOL    HW223679   0.173   2.672   6.123
 7594SOL     OW23680   0.771   4.398   1.719
 7594SOL    HW123681   0.779   4.373   1.622
 7594SOL    HW223682   0.813   4.487   1.734
 7595SOL     OW23683   6.438   3.511   6.327
 7595SOL    HW123684   6.364   3.535   6.265
 7595SOL    HW223685   6.517   3.481   6.274
 7596SOL     OW23686   3.246   6.505   5.164
 7596SOL    HW123687   3.193   6.586   5.141
 7596SOL    HW223688   3.317   6.529   5.230
 7597SOL     OW23689   1.968   6.620   3.072
 7597SOL    HW123690   2.050   6.573   3.042
 7597SOL    HW223691   1.949   6.697   3.010
 7598SOL     OW23692   6.016   0.525   2.994
 7598SOL    HW123693   5.969   0.611   2.975
 7598SOL    HW223694   6.109   0.544   3.024
 7599SOL     OW23695   5.212   3.366   0.867
 7599SOL    HW123696   5.283   3.387   0.934
 7599SOL    HW223697   5.218   3.269   0.840
 7600SOL     OW23698   1.336   0.715   3.561
 7600SOL    HW123699   1.242   0.716   3.526
 7600SOL    HW223700   1.334   0.732   3.660
 7601SOL     OW23701   2.924   5.099   2.315
 7601SOL    HW123702   2.833   5.126   2.283
 7601SOL    HW223703   2.972   5.051   2.242
 7602SOL     OW23704   0.635   2.703   0.384
 7602SOL    HW123705   0.706   2.734   0.320
 7602SOL    HW223706   0.563   2.656   0.334
 7603SOL     OW23707   1.670   6.280   5.928
 7603SOL    HW123708   1.760   6.247   5.898
 7603SOL    HW223709   1.677   6.376   5.956
 7604SOL     OW23710   1.713   1.923   5.206
 7604SOL    HW123711   1.787   1.966   5.258
 7604SOL    HW223712   1.705   1.826   5.233
 7605SOL     OW23713   1.028   0.702   0.535
 7605SOL    HW123714   1.005   0.606   0.554
 7605SOL    HW223715   0.943   0.755   0.524
 7606SOL     OW23716   5.643   2.826   5.356
 7606SOL    HW123717   5.727   2.876   5.375
 7606SOL    HW223718   5.650   2.733   5.394
 7607SOL     OW23719   3.557   5.393   0.854
 7607SOL    HW123720   3.622   5.466   0.831
 7607SOL    HW223721   3.484   5.391   0.785
 7608SOL     OW23722   5.031   2.279   6.515
 7608SOL    HW123723   4.946   2.327   6.538
 7608SOL    HW223724   5.051   2.292   6.418
 7609SOL     OW23725   0.596   3.813   3.863
 7609SOL    HW123726   0.613   3.790   3.959
 7609SOL    HW223727   0.582   3.729   3.811
 7610SOL     OW23728   4.264   5.157   6.034
 7610SOL    HW123729   4.332   5.129   6.102
 7610SOL    HW223730   4.193   5.212   6.079
 7611SOL     OW23731   5.275   3.679   1.236
 7611SOL    HW123732   5.248   3.583   1.233
 7611SOL    HW223733   5.334   3.695   1.316
 7612SOL     OW23734   4.137   2.251   3.161
 7612SOL    HW123735   4.147   2.293   3.071
 7612SOL    HW223736   4.040   2.251   3.186
 7613SOL     OW23737   0.563   1.898   2.038
 7613SOL    HW123738   0.560   1.998   2.041
 7613SOL    HW223739   0.564   1.862   2.131
 7614SOL     OW23740   5.588   3.550   1.075
 7614SOL    HW123741   5.614   3.647   1.076
 7614SOL    HW223742   5.640   3.502   1.005
 7615SOL     OW23743   5.167   4.347   5.454
 7615SOL    HW123744   5.134   4.271   5.509
 7615SOL    HW223745   5.244   4.317   5.397
 7616SOL     OW23746   6.564   0.386   3.543
 7616SOL    HW123747   6.496   0.441   3.592
 7616SOL    HW223748   6.574   0.298   3.588
 7617SOL     OW23749   5.245   5.369   3.258
 7617SOL    HW123750   5.303   5.308   3.204
 7617SOL    HW223751   5.182   5.315   3.313
 7618SOL     OW23752   1.401   2.168   0.375
 7618SOL    HW123753   1.487   2.117   0.370
 7618SOL    HW223754   1.397   2.218   0.461
 7619SOL     OW23755   0.080   2.915   4.449
 7619SOL    HW123756   0.017   2.957   4.384
 7619SOL    HW223757   0.030   2.885   4.530
 7620SOL     OW23758   3.711   4.738   0.651
 7620SOL    HW123759   3.748   4.645   0.653
 7620SOL    HW223760   3.648   4.750   0.727
 7621SOL     OW23761   0.388   6.655   1.095
 7621SOL    HW123762   0.364   6.619   1.005
 7621SOL    HW223763   0.483   6.688   1.093
 7622SOL     OW23764   4.236   4.858   6.649
 7622SOL    HW123765   4.233   4.874   6.551
 7622SOL    HW223766   4.188   4.932   6.697
 7623SOL     OW23767   4.281   4.741   0.237
 7623SOL    HW123768   4.361   4.755   0.180
 7623SOL    HW223769   4.246   4.648   0.223
 7624SOL     OW23770   6.952   2.670   3.673
 7624SOL    HW123771   6.914   2.747   3.724
 7624SOL    HW223772   7.014   2.619   3.733
 7625SOL     OW23773   5.807   2.406   6.736
 7625SOL    HW123774   5.782   2.494   6.777
 7625SOL    HW223775   5.817   2.338   6.808
 7626SOL     OW23776   6.650   0.952   6.096
 7626SOL    HW123777   6.708   1.015   6.044
 7626SOL    HW223778   6.603   0.891   6.032
 7627SOL     OW23779   2.754   1.861   0.529
 7627SOL    HW123780   2.696   1.782   0.506
 7627SOL    HW223781   2.787   1.903   0.445
 7628SOL     OW23782   4.045   2.904   1.582
 7628SOL    HW123783   4.042   2.822   1.639
 7628SOL    HW223784   4.090   2.884   1.495
 7629SOL     OW23785   6.493   4.053   3.425
 7629SOL    HW123786   6.462   4.071   3.518
 7629SOL    HW223787   6.514   4.140   3.380
 7630SOL     OW23788   1.280   0.423   5.802
 7630SOL    HW123789   1.238   0.454   5.887
 7630SOL    HW223790   1.359   0.366   5.823
 7631SOL     OW23791   1.475   1.047   5.665
 7631SOL    HW123792   1.413   1.035   5.587
 7631SOL    HW223793   1.520   0.959   5.685
 7632SOL     OW23794   4.194   4.882   1.026
 7632SOL    HW123795   4.177   4.810   0.958
 7632SOL    HW223796   4.247   4.844   1.102
 7633SOL     OW23797   5.504   0.861   1.704
 7633SOL    HW123798   5.478   0.860   1.801
 7633SOL    HW223799   5.491   0.769   1.666
 7634SOL     OW23800   1.136   1.163   1.603
 7634SOL    HW123801   1.121   1.260   1.624
 7634SOL    HW223802   1.060   1.129   1.547
 7635SOL     OW23803   2.647   5.105   4.563
 7635SOL    HW123804   2.550   5.083   4.554
 7635SOL    HW223805   2.661   5.202   4.543
 7636SOL     OW23806   0.670   3.827   4.126
 7636SOL    HW123807   0.661   3.750   4.189
 7636SOL    HW223808   0.635   3.910   4.170
 7637SOL     OW23809   0.808   6.301   3.036
 7637SOL    HW123810   0.827   6.389   2.992
 7637SOL    HW223811   0.774   6.236   2.968
 7638SOL     OW23812   1.017   5.535   1.695
 7638SOL    HW123813   0.924   5.500   1.678
 7638SOL    HW223814   1.083   5.475   1.650
 7639SOL     OW23815   0.060   0.823   0.477
 7639SOL    HW123816   6.987   0.853   0.462
 7639SOL    HW223817   0.061   0.751   0.547
 7640SOL     OW23818   3.045   2.342   0.061
 7640SOL    HW123819   3.077   2.401   7.008
 7640SOL    HW223820   2.953   2.309   0.041
 7641SOL     OW23821   0.113   4.154   2.788
 7641SOL    HW123822   0.173   4.125   2.863
 7641SOL    HW223823   0.168   4.174   2.707
 7642SOL     OW23824   5.809   0.961   2.727
 7642SOL    HW123825   5.894   0.909   2.719
 7642SOL    HW223826   5.826   1.056   2.704
 7643SOL     OW23827   5.166   1.948   2.518
 7643SOL    HW123828   5.130   1.880   2.582
 7643SOL    HW223829   5.189   2.032   2.567
 7644SOL     OW23830   4.749   2.916   2.269
 7644SOL    HW123831   4.727   2.823   2.241
 7644SOL    HW223832   4.739   2.977   2.190
 7645SOL     OW23833   4.082   3.303   5.527
 7645SOL    HW123834   3.989   3.334   5.547
 7645SOL    HW223835   4.116   3.351   5.446
 7646SOL     OW23836   0.573   3.020   3.307
 7646SOL    HW123837   0.597   3.112   3.276
 7646SOL    HW223838   0.478   3.000   3.281
 7647SOL     OW23839   0.893   2.673   4.693
 7647SOL    HW123840   0.923   2.763   4.727
 7647SOL    HW223841   0.924   2.661   4.599
 7648SOL     OW23842   2.404   1.439   2.149
 7648SOL    HW123843   2.478   1.379   2.180
 7648SOL    HW223844   2.432   1.487   2.066
 7649SOL     OW23845   1.305   1.368   4.653
 7649SOL    HW123846   1.337   1.277   4.626
 7649SOL    HW223847   1.370   1.436   4.620
 7650SOL     OW23848   5.071   1.268   1.318
 7650SOL    HW123849   5.133   1.317   1.256
 7650SOL    HW223850   5.121   1.239   1.399
 7651SOL     OW23851   2.421   5.417   4.436
 7651SOL    HW123852   2.364   5.387   4.513
 7651SOL    HW223853   2.364   5.464   4.368
 7652SOL     OW23854   5.863   2.753   5.134
 7652SOL    HW123855   5.798   2.698   5.187
 7652SOL    HW223856   5.868   2.845   5.173
 7653SOL     OW23857   1.336   1.441   0.280
 7653SOL    HW123858   1.299   1.398   0.197
 7653SOL    HW223859   1.405   1.509   0.253
 7654SOL     OW23860   5.474   3.245   5.251
 7654SOL    HW123861   5.468   3.239   5.151
 7654SOL    HW223862   5.390   3.285   5.287
 7655SOL     OW23863   3.581   0.172   3.786
 7655SOL    HW123864   3.650   0.231   3.744
 7655SOL    HW223865   3.490   0.201   3.758
 7656SOL     OW23866   5.705   2.999   5.985
 7656SOL    HW123867   5.759   2.916   6.002
 7656SOL    HW223868   5.621   2.975   5.937
 7657SOL     OW23869   1.850   3.342   3.909
 7657SOL    HW123870   1.877   3.345   3.813
 7657SOL    HW223871   1.754   3.315   3.916
 7658SOL     OW23872   3.070   0.452   1.323
 7658SOL    HW123873   3.067   0.456   1.223
 7658SOL    HW223874   2.978   0.459   1.360
 7659SOL     OW23875   4.668   4.299   6.583
 7659SOL    HW123876   4.731   4.280   6.658
 7659SOL    HW223877   4.689   4.389   6.543
 7660SOL     OW23878   6.128   5.399   4.737
 7660SOL    HW123879   6.119   5.323   4.801
 7660SOL    HW223880   6.218   5.442   4.748
 7661SOL     OW23881   4.303   2.296   5.815
 7661SOL    HW123882   4.243   2.354   5.870
 7661SOL    HW223883   4.257   2.272   5.729
 7662SOL     OW23884   0.818   2.302   3.285
 7662SOL    HW123885   0.882   2.295   3.362
 7662SOL    HW223886   0.765   2.217   3.279
 7663SOL     OW23887   4.903   5.810   6.524
 7663SOL    HW123888   4.877   5.868   6.447
 7663SOL    HW223889   4.823   5.790   6.580
 7664SOL     OW23890   3.857   1.116   3.238
 7664SOL    HW123891   3.787   1.168   3.288
 7664SOL    HW223892   3.908   1.178   3.178
 7665SOL     OW23893   5.658   1.810   4.008
 7665SOL    HW123894   5.666   1.713   3.985
 7665SOL    HW223895   5.652   1.863   3.924
 7666SOL     OW23896   6.752   5.755   4.290
 7666SOL    HW123897   6.696   5.710   4.359
 7666SOL    HW223898   6.741   5.708   4.202
 7667SOL     OW23899   4.518   0.352   2.762
 7667SOL    HW123900   4.614   0.325   2.749
 7667SOL    HW223901   4.484   0.394   2.678
 7668SOL     OW23902   2.755   4.575   0.756
 7668SOL    HW123903   2.770   4.579   0.657
 7668SOL    HW223904   2.813   4.503   0.794
 7669SOL     OW23905   4.117   0.975   5.856
 7669SOL    HW123906   4.174   0.947   5.779
 7669SOL    HW223907   4.156   0.939   5.941
 7670SOL     OW23908   0.743   6.448   1.052
 7670SOL    HW123909   0.721   6.470   1.147
 7670SOL    HW223910   0.667   6.400   1.010
 7671SOL     OW23911   5.209   6.701   2.317
 7671SOL    HW123912   5.184   6.606   2.299
 7671SOL    HW223913   5.154   6.761   2.261
 7672SOL     OW23914   0.006   4.828   3.175
 7672SOL    HW123915   0.059   4.804   3.257
 7672SOL    HW223916   6.930   4.826   3.197
 7673SOL     OW23917   1.575   5.899   2.451
 7673SOL    HW123918   1.610   5.976   2.398
 7673SOL    HW223919   1.522   5.933   2.529
 7674SOL     OW23920   4.427   0.745   3.896
 7674SOL    HW123921   4.359   0.815   3.916
 7674SOL    HW223922   4.382   0.665   3.855
 7675SOL     OW23923   3.743   6.635   3.329
 7675SOL    HW123924   3.785   6.725   3.322
 7675SOL    HW223925   3.798   6.576   3.389
 7676SOL     OW23926   2.803   2.042   5.670
 7676SOL    HW123927   2.866   2.095   5.614
 7676SOL    HW223928   2.728   2.101   5.701
 7677SOL     OW23929   0.511   4.427   0.877
 7677SOL    HW123930   0.610   4.429   0.865
 7677SOL    HW223931   0.468   4.396   0.792
 7678SOL     OW23932   1.918   2.592   5.326
 7678SOL    HW123933   1.869   2.505   5.323
 7678SOL    HW223934   2.009   2.578   5.366
 7679SOL     OW23935   2.134   5.571   5.250
 7679SOL    HW123936   2.222   5.531   5.222
 7679SOL    HW223937   2.150   5.639   5.322
 7680SOL     OW23938   1.866   0.063   5.783
 7680SOL    HW123939   1.893   6.999   5.738
 7680SOL    HW223940   1.920   0.075   5.866
 7681SOL     OW23941   2.615   1.713   6.492
 7681SOL    HW123942   2.684   1.735   6.424
 7681SOL    HW223943   2.626   1.773   6.571
 7682SOL     OW23944   4.102   1.928   2.510
 7682SOL    HW123945   4.030   1.865   2.541
 7682SOL    HW223946   4.062   2.018   2.494
 7683SOL     OW23947   1.075   1.492   4.772
 7683SOL    HW123948   1.078   1.576   4.825
 7683SOL    HW223949   1.168   1.466   4.744
 7684SOL     OW23950   4.320   2.274   1.821
 7684SOL    HW123951   4.367   2.192   1.789
 7684SOL    HW223952   4.243   2.247   1.880
 7685SOL     OW23953   3.532   1.552   0.112
 7685SOL    HW123954   3.541   1.489   0.189
 7685SOL    HW223955   3.518   1.645   0.147
 7686SOL     OW23956   5.462   0.165   4.193
 7686SOL    HW123957   5.405   0.235   4.151
 7686SOL    HW223958   5.558   0.182   4.171
 7687SOL     OW23959   4.830   5.443   5.073
 7687SOL    HW123960   4.816   5.493   4.988
 7687SOL    HW223961   4.752   5.383   5.090
 7688SOL     OW23962   6.945   5.811   5.869
 7688SOL    HW123963   6.922   5.743   5.939
 7688SOL    HW223964   0.019   5.800   5.842
 7689SOL     OW23965   4.823   0.190   2.021
 7689SOL    HW123966   4.890   0.203   1.948
 7689SOL    HW223967   4.764   0.271   2.026
 7690SOL     OW23968   5.483   4.735   0.314
 7690SOL    HW123969   5.450   4.767   0.403
 7690SOL    HW223970   5.466   4.804   0.245
 7691SOL     OW23971   4.585   4.666   2.063
 7691SOL    HW123972   4.557   4.593   2.124
 7691SOL    HW223973   4.658   4.633   2.002
 7692SOL     OW23974   0.860   6.061   1.522
 7692SOL    HW123975   0.945   6.107   1.546
 7692SOL    HW223976   0.875   5.963   1.516
 7693SOL     OW23977   3.148   0.105   1.604
 7693SOL    HW123978   3.225   0.169   1.595
 7693SOL    HW223979   3.095   0.104   1.520
 7694SOL     OW23980   5.709   2.354   4.556
 7694SOL    HW123981   5.736   2.319   4.466
 7694SOL    HW223982   5.609   2.360   4.561
 7695SOL     OW23983   5.467   1.080   2.107
 7695SOL    HW123984   5.394   1.119   2.162
 7695SOL    HW223985   5.428   1.013   2.042
 7696SOL     OW23986   0.693   1.587   6.057
 7696SOL    HW123987   0.643   1.659   6.009
 7696SOL    HW223988   0.632   1.544   6.124
 7697SOL     OW23989   3.238   0.629   2.620
 7697SOL    HW123990   3.332   0.597   2.609
 7697SOL    HW223991   3.232   0.691   2.698
 7698SOL     OW23992   6.638   2.168   5.822
 7698SOL    HW123993   6.728   2.209   5.806
 7698SOL    HW223994   6.568   2.227   5.783
 7699SOL     OW23995   2.370   5.436   6.821
 7699SOL    HW123996   2.297   5.371   6.798
 7699SOL    HW223997   2.339   5.529   6.801
 7700SOL     OW23998   4.439   6.265   2.837
 7700SOL    HW123999   4.504   6.287   2.765
 7700SOL    HW224000   4.356   6.319   2.825
 7701SOL     OW24001   6.807   1.718   5.977
 7701SOL    HW124002   6.852   1.765   5.901
 7701SOL    HW224003   6.875   1.690   6.044
 7702SOL     OW24004   4.252   6.599   5.447
 7702SOL    HW124005   4.194   6.651   5.510
 7702SOL    HW224006   4.311   6.538   5.499
 7703SOL     OW24007   6.384   0.181   5.151
 7703SOL    HW124008   6.317   0.255   5.152
 7703SOL    HW224009   6.342   0.096   5.183
 7704SOL     OW24010   6.490   2.211   4.148
 7704SOL    HW124011   6.503   2.131   4.207
 7704SOL    HW224012   6.477   2.293   4.205
 7705SOL     OW24013   2.731   4.995   0.729
 7705SOL    HW124014   2.705   4.936   0.653
 7705SOL    HW224015   2.830   4.990   0.744
 7706SOL     OW24016   3.327   3.023   3.171
 7706SOL    HW124017   3.378   3.071   3.100
 7706SOL    HW224018   3.384   3.011   3.252
 7707SOL     OW24019   0.036   4.785   6.467
 7707SOL    HW124020   0.074   4.872   6.435
 7707SOL    HW224021   7.003   4.801   6.549
 7708SOL     OW24022   1.265   6.696   3.889
 7708SOL    HW124023   1.337   6.765   3.889
 7708SOL    HW224024   1.305   6.605   3.898
 7709SOL     OW24025   6.556   5.176   1.412
 7709SOL    HW124026   6.615   5.176   1.331
 7709SOL    HW224027   6.461   5.185   1.384
 7710SOL     OW24028   2.293   2.140   0.856
 7710SOL    HW124029   2.269   2.044   0.839
 7710SOL    HW224030   2.268   2.194   0.776
 7711SOL     OW24031   6.920   6.208   5.786
 7711SOL    HW124032   6.951   6.126   5.833
 7711SOL    HW224033   6.976   6.224   5.705
 7712SOL     OW24034   6.195   4.884   6.793
 7712SOL    HW124035   6.231   4.977   6.785
 7712SOL    HW224036   6.151   4.857   6.707
 7713SOL     OW24037   1.701   4.032   0.752
 7713SOL    HW124038   1.626   3.998   0.694
 7713SOL    HW224039   1.788   4.008   0.710
 7714SOL     OW24040   0.224   7.010   5.170
 7714SOL    HW124041   0.301   6.950   5.192
 7714SOL    HW224042   0.170   0.005   5.252
 7715SOL     OW24043   2.666   1.801   6.235
 7715SOL    HW124044   2.633   1.881   6.284
 7715SOL    HW224045   2.588   1.749   6.199
 7716SOL     OW24046   6.799   4.912   6.257
 7716SOL    HW124047   6.703   4.908   6.284
 7716SOL    HW224048   6.844   4.826   6.281
 7717SOL     OW24049   1.733   1.677   5.331
 7717SOL    HW124050   1.818   1.679   5.383
 7717SOL    HW224051   1.662   1.629   5.383
 7718SOL     OW24052   0.344   4.028   2.905
 7718SOL    HW124053   0.442   4.023   2.885
 7718SOL    HW224054   0.330   4.069   2.995
 7719SOL     OW24055   1.419   3.992   4.686
 7719SOL    HW124056   1.390   4.078   4.729
 7719SOL    HW224057   1.512   4.001   4.652
 7720SOL     OW24058   6.328   2.297   6.140
 7720SOL    HW124059   6.422   2.282   6.109
 7720SOL    HW224060   6.301   2.391   6.119
 7721SOL     OW24061   1.040   0.491   2.444
 7721SOL    HW124062   1.118   0.493   2.507
 7721SOL    HW224063   1.068   0.526   2.354
 7722SOL     OW24064   1.851   5.495   4.153
 7722SOL    HW124065   1.943   5.534   4.146
 7722SOL    HW224066   1.839   5.425   4.082
 7723SOL     OW24067   5.065   3.477   6.323
 7723SOL    HW124068   4.992   3.508   6.384
 7723SOL    HW224069   5.133   3.550   6.313
 7724SOL     OW24070   3.301   4.123   0.574
 7724SOL    HW124071   3.210   4.136   0.533
 7724SOL    HW224072   3.328   4.206   0.622
 7725SOL     OW24073   5.761   2.797   2.607
 7725SOL    HW124074   5.749   2.791   2.508
 7725SOL    HW224075   5.789   2.707   2.642
 7726SOL     OW24076   0.944   3.028   5.979
 7726SOL    HW124077   0.937   2.951   5.916
 7726SOL    HW224078   1.034   3.028   6.022
 7727SOL     OW24079   6.255   2.776   1.683
 7727SOL    HW124080   6.299   2.789   1.772
 7727SOL    HW224081   6.199   2.693   1.686
 7728SOL     OW24082   2.191   2.563   5.397
 7728SOL    HW124083   2.207   2.541   5.301
 7728SOL    HW224084   2.217   2.657   5.415
 7729SOL     OW24085   6.335   1.835   1.966
 7729SOL    HW124086   6.259   1.774   1.987
 7729SOL    HW224087   6.405   1.784   1.915
 7730SOL     OW24088   5.866   4.860   4.828
 7730SOL    HW124089   5.905   4.898   4.743
 7730SOL    HW224090   5.928   4.880   4.904
 7731SOL     OW24091   6.053   0.162   0.588
 7731SOL    HW124092   6.038   0.165   0.686
 7731SOL    HW224093   6.120   0.232   0.563
 7732SOL     OW24094   4.211   0.470   0.179
 7732SOL    HW124095   4.164   0.525   0.248
 7732SOL    HW224096   4.149   0.453   0.102
 7733SOL     OW24097   6.010   5.677   2.495
 7733SOL    HW124098   6.048   5.686   2.587
 7733SOL    HW224099   5.925   5.624   2.498
 7734SOL     OW24100   2.332   4.660   4.996
 7734SOL    HW124101   2.348   4.723   4.920
 7734SOL    HW224102   2.416   4.651   5.050
 7735SOL     OW24103   6.211   5.826   0.228
 7735SOL    HW124104   6.293   5.879   0.206
 7735SOL    HW224105   6.132   5.866   0.182
 7736SOL     OW24106   2.683   3.139   0.375
 7736SOL    HW124107   2.614   3.075   0.342
 7736SOL    HW224108   2.765   3.089   0.403
 7737SOL     OW24109   3.348   4.967   1.769
 7737SOL    HW124110   3.440   4.945   1.738
 7737SOL    HW224111   3.282   4.905   1.727
 7738SOL     OW24112   2.059   5.858   6.427
 7738SOL    HW124113   2.091   5.764   6.441
 7738SOL    HW224114   1.990   5.880   6.495
 7739SOL     OW24115   1.547   2.074   2.257
 7739SOL    HW124116   1.602   2.048   2.177
 7739SOL    HW224117   1.585   2.030   2.339
 7740SOL     OW24118   1.875   1.035   2.312
 7740SOL    HW124119   1.905   1.119   2.267
 7740SOL    HW224120   1.815   1.057   2.389
 7741SOL     OW24121   1.580   4.059   4.909
 7741SOL    HW124122   1.486   4.042   4.941
 7741SOL    HW224123   1.600   4.157   4.917
 7742SOL     OW24124   3.775   1.272   3.850
 7742SOL    HW124125   3.726   1.254   3.765
 7742SOL    HW224126   3.843   1.344   3.835
 7743SOL     OW24127   4.727   0.861   6.913
 7743SOL    HW124128   4.752   0.950   6.874
 7743SOL    HW224129   4.697   0.799   6.840
 7744SOL     OW24130   0.441   6.158   3.728
 7744SOL    HW124131   0.467   6.233   3.667
 7744SOL    HW224132   0.510   6.148   3.800
 7745SOL     OW24133   2.265   6.488   0.313
 7745SOL    HW124134   2.177   6.532   0.331
 7745SOL    HW224135   2.255   6.422   0.240
 7746SOL     OW24136   1.332   6.357   0.814
 7746SOL    HW124137   1.358   6.452   0.797
 7746SOL    HW224138   1.239   6.342   0.780
 7747SOL     OW24139   0.241   6.348   0.962
 7747SOL    HW124140   0.319   6.397   0.924
 7747SOL    HW224141   0.220   6.269   0.904
 7748SOL     OW24142   3.298   3.184   5.204
 7748SOL    HW124143   3.239   3.263   5.188
 7748SOL    HW224144   3.326   3.145   5.116
 7749SOL     OW24145   3.254   3.883   3.177
 7749SOL    HW124146   3.157   3.876   3.155
 7749SOL    HW224147   3.288   3.974   3.151
 7750SOL     OW24148   5.279   5.565   5.429
 7750SOL    HW124149   5.192   5.521   5.408
 7750SOL    HW224150   5.290   5.646   5.372
 7751SOL     OW24151   0.583   1.312   3.751
 7751SOL    HW124152   0.640   1.394   3.744
 7751SOL    HW224153   0.639   1.232   3.732
 7752SOL     OW24154   5.575   5.547   5.794
 7752SOL    HW124155   5.476   5.542   5.800
 7752SOL    HW224156   5.610   5.616   5.857
 7753SOL     OW24157   2.338   0.717   4.604
 7753SOL    HW124158   2.374   0.703   4.512
 7753SOL    HW224159   2.397   0.671   4.670
 7754SOL     OW24160   5.408   0.755   1.407
 7754SOL    HW124161   5.314   0.783   1.423
 7754SOL    HW224162   5.435   0.686   1.474
 7755SOL     OW24163   0.588   0.180   5.418
 7755SOL    HW124164   0.653   0.137   5.355
 7755SOL    HW224165   0.638   0.236   5.484
 7756SOL     OW24166   2.316   5.991   2.482
 7756SOL    HW124167   2.395   5.945   2.441
 7756SOL    HW224168   2.232   5.951   2.446
 7757SOL     OW24169   4.934   6.205   4.791
 7757SOL    HW124170   4.889   6.264   4.723
 7757SOL    HW224171   4.864   6.160   4.847
 7758SOL     OW24172   1.962   2.074   6.658
 7758SOL    HW124173   1.953   2.135   6.737
 7758SOL    HW224174   1.935   2.123   6.575
 7759SOL     OW24175   2.155   0.912   4.898
 7759SOL    HW124176   2.077   0.881   4.951
 7759SOL    HW224177   2.138   0.894   4.801
 7760SOL     OW24178   5.632   3.350   2.145
 7760SOL    HW124179   5.624   3.255   2.175
 7760SOL    HW224180   5.554   3.402   2.180
 7761SOL     OW24181   2.953   0.147   5.936
 7761SOL    HW124182   2.963   0.123   5.840
 7761SOL    HW224183   2.857   0.162   5.957
 7762SOL     OW24184   3.791   0.829   5.495
 7762SOL    HW124185   3.719   0.886   5.535
 7762SOL    HW224186   3.812   0.862   5.403
 7763SOL     OW24187   1.062   2.110   1.172
 7763SOL    HW124188   1.064   2.146   1.079
 7763SOL    HW224189   1.140   2.048   1.185
 7764SOL     OW24190   3.880   2.984   2.470
 7764SOL    HW124191   3.939   3.059   2.501
 7764SOL    HW224192   3.841   2.937   2.549
 7765SOL     OW24193   6.354   3.584   4.414
 7765SOL    HW124194   6.440   3.630   4.436
 7765SOL    HW224195   6.281   3.622   4.470
 7766SOL     OW24196   5.348   2.016   6.658
 7766SOL    HW124197   5.275   2.083   6.672
 7766SOL    HW224198   5.433   2.052   6.696
 7767SOL     OW24199   4.021   6.295   3.718
 7767SOL    HW124200   4.000   6.263   3.810
 7767SOL    HW224201   3.973   6.238   3.651
 7768SOL     OW24202   4.348   4.984   2.795
 7768SOL    HW124203   4.268   5.016   2.744
 7768SOL    HW224204   4.430   4.994   2.739
 7769SOL     OW24205   4.913   1.697   1.858
 7769SOL    HW124206   4.881   1.602   1.862
 7769SOL    HW224207   4.892   1.742   1.945
 7770SOL     OW24208   2.314   4.166   2.170
 7770SOL    HW124209   2.398   4.165   2.223
 7770SOL    HW224210   2.332   4.209   2.081
 7771SOL     OW24211   2.709   2.372   5.202
 7771SOL    HW124212   2.805   2.386   5.227
 7771SOL    HW224213   2.652   2.443   5.244
 7772SOL     OW24214   5.209   1.321   3.568
 7772SOL    HW124215   5.171   1.384   3.634
 7772SOL    HW224216   5.136   1.284   3.510
 7773SOL     OW24217   3.057   4.812   5.571
 7773SOL    HW124218   2.975   4.856   5.534
 7773SOL    HW224219   3.031   4.737   5.632
 7774SOL     OW24220   5.704   1.751   5.841
 7774SOL    HW124221   5.754   1.835   5.821
 7774SOL    HW224222   5.768   1.681   5.872
 7775SOL     OW24223   3.788   6.825   2.931
 7775SOL    HW124224   3.699   6.802   2.968
 7775SOL    HW224225   3.842   6.873   3.000
 7776SOL     OW24226   3.240   2.742   6.299
 7776SOL    HW124227   3.283   2.655   6.323
 7776SOL    HW224228   3.306   2.800   6.252
 7777SOL     OW24229   2.534   1.504   5.597
 7777SOL    HW124230   2.575   1.428   5.547
 7777SOL    HW224231   2.470   1.553   5.537
 7778SOL     OW24232   5.019   6.831   6.920
 7778SOL    HW124233   5.069   6.839   7.006
 7778SOL    HW224234   5.063   6.888   6.851
 7779SOL     OW24235   3.852   2.848   0.459
 7779SOL    HW124236   3.823   2.802   0.543
 7779SOL    HW224237   3.789   2.924   0.439
 7780SOL     OW24238   1.903   5.323   4.910
 7780SOL    HW124239   1.868   5.304   4.819
 7780SOL    HW224240   1.914   5.422   4.923
 7781SOL     OW24241   1.138   3.899   6.357
 7781SOL    HW124242   1.158   3.981   6.303
 7781SOL    HW224243   1.164   3.818   6.305
 7782SOL     OW24244   1.742   3.493   5.598
 7782SOL    HW124245   1.761   3.417   5.537
 7782SOL    HW224246   1.667   3.548   5.561
 7783SOL     OW24247   3.178   6.699   5.947
 7783SOL    HW124248   3.154   6.602   5.953
 7783SOL    HW224249   3.094   6.754   5.954
 7784SOL     OW24250   1.962   2.418   0.327
 7784SOL    HW124251   1.911   2.335   0.349
 7784SOL    HW224252   1.899   2.492   0.305
 7785SOL     OW24253   1.585   6.674   3.838
 7785SOL    HW124254   1.587   6.681   3.938
 7785SOL    HW224255   1.672   6.636   3.806
 7786SOL     OW24256   3.345   5.283   6.051
 7786SOL    HW124257   3.265   5.333   6.083
 7786SOL    HW224258   3.343   5.189   6.087
 7787SOL     OW24259   2.280   2.401   5.585
 7787SOL    HW124260   2.232   2.448   5.510
 7787SOL    HW224261   2.257   2.304   5.584
 7788SOL     OW24262   1.132   0.726   1.731
 7788SOL    HW124263   1.083   0.722   1.644
 7788SOL    HW224264   1.221   0.770   1.717
 7789SOL     OW24265   2.791   0.239   0.784
 7789SOL    HW124266   2.761   0.163   0.727
 7789SOL    HW224267   2.880   0.218   0.825
 7790SOL     OW24268   6.058   4.780   2.589
 7790SOL    HW124269   5.962   4.782   2.615
 7790SOL    HW224270   6.107   4.712   2.644
 7791SOL     OW24271   2.711   6.576   4.021
 7791SOL    HW124272   2.645   6.527   4.078
 7791SOL    HW224273   2.716   6.532   3.931
 7792SOL     OW24274   1.148   5.239   5.957
 7792SOL    HW124275   1.088   5.289   5.896
 7792SOL    HW224276   1.234   5.219   5.910
 7793SOL     OW24277   2.233   1.048   6.098
 7793SOL    HW124278   2.259   1.008   6.010
 7793SOL    HW224279   2.201   0.976   6.159
 7794SOL     OW24280   5.211   5.302   4.273
 7794SOL    HW124281   5.203   5.206   4.299
 7794SOL    HW224282   5.304   5.335   4.295
 7795SOL     OW24283   2.219   4.183   5.241
 7795SOL    HW124284   2.147   4.127   5.282
 7795SOL    HW224285   2.287   4.123   5.198
 7796SOL     OW24286   3.190   4.077   3.990
 7796SOL    HW124287   3.156   4.114   4.076
 7796SOL    HW224288   3.290   4.077   3.991
 7797SOL     OW24289   0.591   5.784   2.805
 7797SOL    HW124290   0.616   5.768   2.901
 7797SOL    HW224291   0.662   5.841   2.762
 7798SOL     OW24292   1.502   4.843   6.559
 7798SOL    HW124293   1.418   4.803   6.522
 7798SOL    HW224294   1.581   4.797   6.519
 7799SOL     OW24295   6.915   6.124   1.825
 7799SOL    HW124296   7.014   6.142   1.829
 7799SOL    HW224297   6.877   6.169   1.744
 7800SOL     OW24298   1.382   4.495   1.255
 7800SOL    HW124299   1.313   4.555   1.296
 7800SOL    HW224300   1.353   4.399   1.267
 7801SOL     OW24301   2.621   1.688   1.739
 7801SOL    HW124302   2.710   1.719   1.773
 7801SOL    HW224303   2.557   1.765   1.740
 7802SOL     OW24304   5.634   2.855   1.048
 7802SOL    HW124305   5.594   2.827   1.136
 7802SOL    HW224306   5.564   2.900   0.993
 7803SOL     OW24307   4.274   3.532   5.643
 7803SOL    HW124308   4.246   3.440   5.619
 7803SOL    HW224309   4.369   3.531   5.675
 7804SOL     OW24310   6.161   1.081   3.593
 7804SOL    HW124311   6.220   1.007   3.624
 7804SOL    HW224312   6.145   1.145   3.668
 7805SOL     OW24313   5.356   1.281   1.441
 7805SOL    HW124314   5.418   1.272   1.363
 7805SOL    HW224315   5.326   1.376   1.450
 7806SOL     OW24316   6.071   2.676   5.685
 7806SOL    HW124317   5.980   2.685   5.726
 7806SOL    HW224318   6.133   2.631   5.749
 7807SOL     OW24319   0.022   4.534   6.373
 7807SOL    HW124320   6.972   4.474   6.409
 7807SOL    HW224321   7.018   4.629   6.391
 7808SOL     OW24322   0.461   3.752   4.703
 7808SOL    HW124323   0.366   3.765   4.729
 7808SOL    HW224324   0.492   3.661   4.730
 7809SOL     OW24325   2.733   6.323   5.212
 7809SOL    HW124326   2.784   6.243   5.242
 7809SOL    HW224327   2.635   6.302   5.210
 7810SOL     OW24328   3.832   0.255   5.799
 7810SOL    HW124329   3.792   0.163   5.793
 7810SOL    HW224330   3.909   0.262   5.735
 7811SOL     OW24331   6.814   4.237   3.863
 7811SOL    HW124332   6.847   4.146   3.842
 7811SOL    HW224333   6.764   4.273   3.784
 7812SOL     OW24334   0.938   2.291   3.861
 7812SOL    HW124335   0.957   2.193   3.859
 7812SOL    HW224336   0.997   2.334   3.930
 7813SOL     OW24337   4.927   2.514   6.177
 7813SOL    HW124338   4.894   2.487   6.087
 7813SOL    HW224339   4.850   2.538   6.236
 7814SOL     OW24340   6.633   2.680   3.594
 7814SOL    HW124341   6.701   2.607   3.586
 7814SOL    HW224342   6.543   2.644   3.573
 7815SOL     OW24343   4.757   1.116   6.770
 7815SOL    HW124344   4.677   1.156   6.725
 7815SOL    HW224345   4.814   1.190   6.808
 7816SOL     OW24346   1.726   2.757   6.391
 7816SOL    HW124347   1.693   2.850   6.376
 7816SOL    HW224348   1.648   2.695   6.402
 7817SOL     OW24349   6.421   3.497   3.775
 7817SOL    HW124350   6.404   3.589   3.738
 7817SOL    HW224351   6.467   3.441   3.707
 7818SOL     OW24352   4.484   0.992   2.488
 7818SOL    HW124353   4.558   0.989   2.556
 7818SOL    HW224354   4.521   1.025   2.401
 7819SOL     OW24355   0.135   2.826   1.656
 7819SOL    HW124356   0.041   2.823   1.689
 7819SOL    HW224357   0.190   2.885   1.715
 7820SOL     OW24358   1.719   2.170   4.658
 7820SOL    HW124359   1.681   2.146   4.747
 7820SOL    HW224360   1.774   2.094   4.623
 7821SOL     OW24361   4.697   5.848   1.393
 7821SOL    HW124362   4.606   5.871   1.361
 7821SOL    HW224363   4.705   5.748   1.403
 7822SOL     OW24364   0.187   0.691   5.006
 7822SOL    HW124365   0.185   0.604   5.054
 7822SOL    HW224366   0.147   0.762   5.065
 7823SOL     OW24367   2.140   3.935   4.824
 7823SOL    HW124368   2.145   3.987   4.739
 7823SOL    HW224369   2.199   3.977   4.893
 7824SOL     OW24370   6.523   2.022   5.120
 7824SOL    HW124371   6.552   1.983   5.207
 7824SOL    HW224372   6.601   2.023   5.057
 7825SOL     OW24373   2.166   2.932   0.234
 7825SOL    HW124374   2.166   2.927   0.134
 7825SOL    HW224375   2.096   2.997   0.263
 7826SOL     OW24376   6.241   1.201   1.046
 7826SOL    HW124377   6.304   1.190   1.122
 7826SOL    HW224378   6.251   1.293   1.008
 7827SOL     OW24379   1.432   5.551   1.392
 7827SOL    HW124380   1.437   5.647   1.420
 7827SOL    HW224381   1.498   5.497   1.445
 7828SOL     OW24382   6.183   4.517   6.924
 7828SOL    HW124383   6.170   4.463   6.841
 7828SOL    HW224384   6.238   4.464   6.989
 7829SOL     OW24385   2.876   3.092   1.149
 7829SOL    HW124386   2.881   3.117   1.053
 7829SOL    HW224387   2.818   3.157   1.198
 7830SOL     OW24388   3.171   5.377   5.676
 7830SOL    HW124389   3.212   5.308   5.616
 7830SOL    HW224390   3.234   5.399   5.750
 7831SOL     OW24391   1.987   0.337   2.181
 7831SOL    HW124392   2.039   0.343   2.096
 7831SOL    HW224393   2.020   0.406   2.245
 7832SOL     OW24394   5.907   0.383   4.589
 7832SOL    HW124395   5.887   0.436   4.506
 7832SOL    HW224396   5.890   0.286   4.572
 7833SOL     OW24397   1.391   1.057   4.861
 7833SOL    HW124398   1.400   0.967   4.904
 7833SOL    HW224399   1.341   1.047   4.775
 7834SOL     OW24400   0.245   1.917   3.285
 7834SOL    HW124401   0.299   1.847   3.236
 7834SOL    HW224402   0.193   1.873   3.358
 7835SOL     OW24403   4.089   1.887   4.728
 7835SOL    HW124404   4.050   1.978   4.716
 7835SOL    HW224405   4.187   1.895   4.745
 7836SOL     OW24406   3.111   4.154   5.544
 7836SOL    HW124407   3.034   4.141   5.606
 7836SOL    HW224408   3.078   4.186   5.455
 7837SOL     OW24409   5.216   5.833   0.171
 7837SOL    HW124410   5.153   5.882   0.111
 7837SOL    HW224411   5.278   5.899   0.214
 7838SOL     OW24412   4.443   5.924   1.327
 7838SOL    HW124413   4.417   5.937   1.231
 7838SOL    HW224414   4.425   6.008   1.378
 7839SOL     OW24415   5.800   3.918   5.065
 7839SOL    HW124416   5.720   3.976   5.053
 7839SOL    HW224417   5.773   3.822   5.066
 7840SOL     OW24418   0.619   3.979   4.727
 7840SOL    HW124419   0.715   3.951   4.716
 7840SOL    HW224420   0.560   3.900   4.716
 7841SOL     OW24421   4.127   1.777   6.624
 7841SOL    HW124422   4.056   1.714   6.657
 7841SOL    HW224423   4.155   1.837   6.699
 7842SOL     OW24424   1.935   1.327   2.346
 7842SOL    HW124425   1.996   1.355   2.420
 7842SOL    HW224426   1.984   1.331   2.259
 7843SOL     OW24427   0.280   6.638   4.041
 7843SOL    HW124428   0.316   6.548   4.019
 7843SOL    HW224429   0.215   6.667   3.970
 7844SOL     OW24430   3.885   0.312   2.307
 7844SOL    HW124431   3.792   0.325   2.274
 7844SOL    HW224432   3.883   0.284   2.403
 7845SOL     OW24433   5.405   2.209   2.131
 7845SOL    HW124434   5.355   2.293   2.150
 7845SOL    HW224435   5.358   2.131   2.172
 7846SOL     OW24436   1.052   2.079   0.701
 7846SOL    HW124437   0.967   2.046   0.742
 7846SOL    HW224438   1.034   2.164   0.652
 7847SOL     OW24439   6.361   1.651   3.888
 7847SOL    HW124440   6.422   1.725   3.915
 7847SOL    HW224441   6.272   1.662   3.934
 7848SOL     OW24442   3.394   4.336   0.737
 7848SOL    HW124443   3.362   4.429   0.754
 7848SOL    HW224444   3.494   4.334   0.737
 7849SOL     OW24445   6.046   3.678   5.091
 7849SOL    HW124446   6.097   3.623   5.024
 7849SOL    HW224447   5.951   3.687   5.062
 7850SOL     OW24448   0.308   2.124   3.882
 7850SOL    HW124449   0.406   2.111   3.865
 7850SOL    HW224450   0.256   2.054   3.835
 7851SOL     OW24451   0.519   2.650   1.825
 7851SOL    HW124452   0.583   2.642   1.749
 7851SOL    HW224453   0.569   2.647   1.912
 7852SOL     OW24454   2.847   0.694   0.404
 7852SOL    HW124455   2.766   0.672   0.460
 7852SOL    HW224456   2.900   0.766   0.450
 7853SOL     OW24457   4.755   3.232   1.522
 7853SOL    HW124458   4.800   3.183   1.597
 7853SOL    HW224459   4.821   3.247   1.449
 7854SOL     OW24460   3.809   2.597   6.248
 7854SOL    HW124461   3.831   2.506   6.214
 7854SOL    HW224462   3.710   2.613   6.239
 7855SOL     OW24463   4.691   5.997   4.770
 7855SOL    HW124464   4.745   5.933   4.715
 7855SOL    HW224465   4.639   6.057   4.710
 7856SOL     OW24466   0.511   5.109   5.484
 7856SOL    HW124467   0.588   5.139   5.428
 7856SOL    HW224468   0.441   5.068   5.425
 7857SOL     OW24469   4.721   3.715   0.545
 7857SOL    HW124470   4.817   3.718   0.574
 7857SOL    HW224471   4.664   3.689   0.623
 7858SOL     OW24472   6.720   6.365   4.480
 7858SOL    HW124473   6.753   6.279   4.519
 7858SOL    HW224474   6.621   6.360   4.470
 7859SOL     OW24475   4.663   3.344   6.827
 7859SOL    HW124476   4.563   3.334   6.827
 7859SOL    HW224477   4.688   3.422   6.885
 7860SOL     OW24478   3.946   1.182   4.556
 7860SOL    HW124479   3.878   1.256   4.549
 7860SOL    HW224480   3.899   1.095   4.569
 7861SOL     OW24481   2.626   5.160   1.888
 7861SOL    HW124482   2.528   5.178   1.899
 7861SOL    HW224483   2.645   5.065   1.911
 7862SOL     OW24484   2.487   6.032   2.114
 7862SOL    HW124485   2.559   6.056   2.180
 7862SOL    HW224486   2.526   5.973   2.043
 7863SOL     OW24487   0.642   4.577   3.571
 7863SOL    HW124488   0.599   4.630   3.644
 7863SOL    HW224489   0.676   4.639   3.501
 7864SOL     OW24490   1.527   5.703   6.495
 7864SOL    HW124491   1.516   5.671   6.401
 7864SOL    HW224492   1.560   5.798   6.493
 7865SOL     OW24493   6.369   5.739   4.113
 7865SOL    HW124494   6.468   5.739   4.132
 7865SOL    HW224495   6.344   5.653   4.069
 7866SOL     OW24496   1.912   0.541   5.698
 7866SOL    HW124497   1.902   0.562   5.601
 7866SOL    HW224498   1.834   0.485   5.728
 7867SOL     OW24499   5.598   6.708   3.158
 7867SOL    HW124500   5.614   6.724   3.256
 7867SOL    HW224501   5.682   6.674   3.116
 7868SOL     OW24502   3.605   5.812   0.671
 7868SOL    HW124503   3.520   5.769   0.640
 7868SOL    HW224504   3.669   5.742   0.702
 7869SOL     OW24505   5.081   4.685   5.742
 7869SOL    HW124506   5.112   4.671   5.649
 7869SOL    HW224507   5.009   4.619   5.764
 7870SOL     OW24508   5.018   0.067   4.685
 7870SOL    HW124509   5.051   0.082   4.591
 7870SOL    HW224510   4.982   0.153   4.721
 7871SOL     OW24511   5.846   2.069   1.944
 7871SOL    HW124512   5.872   2.076   1.848
 7871SOL    HW224513   5.799   2.153   1.972
 7872SOL     OW24514   1.761   4.473   2.305
 7872SOL    HW124515   1.741   4.376   2.293
 7872SOL    HW224516   1.860   4.486   2.313
 7873SOL     OW24517   6.411   1.038   0.222
 7873SOL    HW124518   6.366   1.084   0.146
 7873SOL    HW224519   6.507   1.063   0.224
 7874SOL     OW24520   5.038   2.460   1.233
 7874SOL    HW124521   5.096   2.469   1.152
 7874SOL    HW224522   5.002   2.367   1.238
 7875SOL     OW24523   3.830   3.294   0.500
 7875SOL    HW124524   3.905   3.228   0.506
 7875SOL    HW224525   3.745   3.251   0.530
 7876SOL     OW24526   1.214   6.881   3.508
 7876SOL    HW124527   1.195   6.827   3.590
 7876SOL    HW224528   1.218   6.978   3.532
 7877SOL     OW24529   6.920   2.159   3.034
 7877SOL    HW124530   6.824   2.147   3.008
 7877SOL    HW224531   6.979   2.130   2.959
 7878SOL     OW24532   4.809   4.005   3.640
 7878SOL    HW124533   4.782   4.092   3.600
 7878SOL    HW224534   4.799   3.932   3.573
 7879SOL     OW24535   3.445   4.948   2.667
 7879SOL    HW124536   3.532   4.929   2.622
 7879SOL    HW224537   3.393   5.014   2.612
 7880SOL     OW24538   2.638   3.432   0.967
 7880SOL    HW124539   2.591   3.348   0.993
 7880SOL    HW224540   2.592   3.474   0.889
 7881SOL     OW24541   4.774   4.243   4.065
 7881SOL    HW124542   4.778   4.243   4.165
 7881SOL    HW224543   4.775   4.148   4.032
 7882SOL     OW24544   2.004   3.416   1.565
 7882SOL    HW124545   2.060   3.401   1.484
 7882SOL    HW224546   2.057   3.395   1.647
 7883SOL     OW24547   1.218   0.196   5.632
 7883SOL    HW124548   1.193   0.154   5.720
 7883SOL    HW224549   1.171   0.284   5.623
 7884SOL     OW24550   0.996   4.639   4.285
 7884SOL    HW124551   0.927   4.599   4.226
 7884SOL    HW224552   1.077   4.581   4.286
 7885SOL     OW24553   6.588   5.521   0.917
 7885SOL    HW124554   6.532   5.569   0.985
 7885SOL    HW224555   6.681   5.509   0.952
 7886SOL     OW24556   3.956   5.623   0.350
 7886SOL    HW124557   4.016   5.544   0.365
 7886SOL    HW224558   3.985   5.698   0.408
 7887SOL     OW24559   3.189   2.120   7.013
 7887SOL    HW124560   3.279   2.105   0.033
 7887SOL    HW224561   3.142   2.194   0.040
 7888SOL     OW24562   5.386   0.907   3.883
 7888SOL    HW124563   5.322   0.959   3.939
 7888SOL    HW224564   5.337   0.865   3.806
 7889SOL     OW24565   1.442   5.270   1.625
 7889SOL    HW124566   1.419   5.193   1.565
 7889SOL    HW224567   1.515   5.324   1.583
 7890SOL     OW24568   2.040   3.866   2.383
 7890SOL    HW124569   2.034   3.962   2.357
 7890SOL    HW224570   1.971   3.814   2.332
 7891SOL     OW24571   2.043   4.971   2.647
 7891SOL    HW124572   2.104   4.905   2.604
 7891SOL    HW224573   1.948   4.945   2.629
 7892SOL     OW24574   2.144   2.134   4.511
 7892SOL    HW124575   2.236   2.160   4.482
 7892SOL    HW224576   2.097   2.214   4.551
 7893SOL     OW24577   6.180   6.933   1.592
 7893SOL    HW124578   6.278   6.950   1.586
 7893SOL    HW224579   6.165   6.837   1.618
 7894SOL     OW24580   2.805   6.447   1.857
 7894SOL    HW124581   2.839   6.356   1.883
 7894SOL    HW224582   2.876   6.515   1.875
 7895SOL     OW24583   6.266   1.242   5.472
 7895SOL    HW124584   6.281   1.234   5.373
 7895SOL    HW224585   6.354   1.242   5.518
 7896SOL     OW24586   4.612   4.058   6.152
 7896SOL    HW124587   4.527   4.108   6.136
 7896SOL    HW224588   4.672   4.113   6.210
 7897SOL     OW24589   2.694   3.700   6.209
 7897SOL    HW124590   2.694   3.749   6.122
 7897SOL    HW224591   2.659   3.607   6.195
 7898SOL     OW24592   4.849   2.197   3.753
 7898SOL    HW124593   4.794   2.280   3.767
 7898SOL    HW224594   4.867   2.185   3.655
 7899SOL     OW24595   6.641   1.949   1.263
 7899SOL    HW124596   6.728   1.987   1.296
 7899SOL    HW224597   6.637   1.852   1.285
 7900SOL     OW24598   1.051   4.927   1.083
 7900SOL    HW124599   1.139   4.896   1.047
 7900SOL    HW224600   0.982   4.922   1.010
 7901SOL     OW24601   5.190   0.075   6.000
 7901SOL    HW124602   5.103   0.123   6.009
 7901SOL    HW224603   5.175   6.998   6.008
 7902SOL     OW24604   4.827   5.363   1.592
 7902SOL    HW124605   4.882   5.374   1.675
 7902SOL    HW224606   4.801   5.453   1.557
 7903SOL     OW24607   6.113   2.182   0.386
 7903SOL    HW124608   6.183   2.168   0.316
 7903SOL    HW224609   6.106   2.100   0.443
 7904SOL     OW24610   6.276   0.540   3.058
 7904SOL    HW124611   6.345   0.492   3.113
 7904SOL    HW224612   6.311   0.556   2.966
 7905SOL     OW24613   4.780   1.731   0.546
 7905SOL    HW124614   4.779   1.722   0.447
 7905SOL    HW224615   4.871   1.707   0.581
 7906SOL     OW24616   0.020   5.963   6.867
 7906SOL    HW124617   0.024   6.013   6.781
 7906SOL    HW224618   0.045   5.867   6.851
 7907SOL     OW24619   6.310   2.915   4.540
 7907SOL    HW124620   6.403   2.901   4.507
 7907SOL    HW224621   6.293   2.853   4.617
 7908SOL     OW24622   1.582   0.818   3.905
 7908SOL    HW124623   1.628   0.784   3.823
 7908SOL    HW224624   1.637   0.892   3.945
 7909SOL     OW24625   4.879   3.812   4.866
 7909SOL    HW124626   4.856   3.750   4.941
 7909SOL    HW224627   4.900   3.759   4.784
 7910SOL     OW24628   3.474   2.850   5.241
 7910SOL    HW124629   3.534   2.915   5.195
 7910SOL    HW224630   3.520   2.762   5.249
 7911SOL     OW24631   0.282   4.574   0.009
 7911SOL    HW124632   0.272   4.536   0.100
 7911SOL    HW224633   0.220   4.653   7.021
 7912SOL     OW24634   6.745   5.289   0.111
 7912SOL    HW124635   6.707   5.236   0.036
 7912SOL    HW224636   6.680   5.360   0.138
 7913SOL     OW24637   0.557   5.572   6.683
 7913SOL    HW124638   0.581   5.479   6.709
 7913SOL    HW224639   0.528   5.573   6.587
 7914SOL     OW24640   0.175   5.029   0.228
 7914SOL    HW124641   0.194   4.990   0.318
 7914SOL    HW224642   0.258   5.029   0.173
 7915SOL     OW24643   4.882   2.487   2.783
 7915SOL    HW124644   4.875   2.586   2.792
 7915SOL    HW224645   4.817   2.455   2.713
 7916SOL     OW24646   5.431   3.967   5.361
 7916SOL    HW124647   5.529   3.960   5.377
 7916SOL    HW224648   5.405   3.908   5.285
 7917SOL     OW24649   3.994   3.137   3.805
 7917SOL    HW124650   4.021   3.114   3.899
 7917SOL    HW224651   4.038   3.223   3.779
 7918SOL     OW24652   6.163   1.902   1.385
 7918SOL    HW124653   6.222   1.954   1.447
 7918SOL    HW224654   6.126   1.822   1.433
 7919SOL     OW24655   6.764   4.053   3.269
 7919SOL    HW124656   6.690   4.119   3.278
 7919SOL    HW224657   6.839   4.094   3.217
 7920SOL     OW24658   6.992   5.087   1.157
 7920SOL    HW124659   0.060   5.100   1.200
 7920SOL    HW224660   6.928   5.050   1.224
 7921SOL     OW24661   3.331   6.412   0.483
 7921SOL    HW124662   3.278   6.361   0.550
 7921SOL    HW224663   3.274   6.484   0.443
 7922SOL     OW24664   6.609   5.808   0.228
 7922SOL    HW124665   6.631   5.808   0.130
 7922SOL    HW224666   6.537   5.876   0.245
 7923SOL     OW24667   1.857   0.972   2.917
 7923SOL    HW124668   1.844   1.040   2.989
 7923SOL    HW224669   1.923   0.903   2.947
 7924SOL     OW24670   3.356   6.256   3.515
 7924SOL    HW124671   3.267   6.225   3.549
 7924SOL    HW224672   3.393   6.325   3.577
 7925SOL     OW24673   6.987   1.794   6.453
 7925SOL    HW124674   7.015   1.698   6.452
 7925SOL    HW224675   6.953   1.820   6.363
 7926SOL     OW24676   3.977   0.609   3.751
 7926SOL    HW124677   3.986   0.604   3.850
 7926SOL    HW224678   3.946   0.700   3.724
 7927SOL     OW24679   3.946   5.268   4.664
 7927SOL    HW124680   4.018   5.324   4.704
 7927SOL    HW224681   3.959   5.263   4.565
 7928SOL     OW24682   1.124   4.108   3.475
 7928SOL    HW124683   1.217   4.083   3.448
 7928SOL    HW224684   1.128   4.180   3.545
 7929SOL     OW24685   4.132   3.725   4.958
 7929SOL    HW124686   4.178   3.681   4.880
 7929SOL    HW224687   4.071   3.796   4.924
 7930SOL     OW24688   4.853   5.576   3.325
 7930SOL    HW124689   4.769   5.583   3.379
 7930SOL    HW224690   4.855   5.650   3.258
 7931SOL     OW24691   2.020   2.156   6.929
 7931SOL    HW124692   2.034   2.058   6.946
 7931SOL    HW224693   2.098   2.207   6.964
 7932SOL     OW24694   2.460   0.106   6.932
 7932SOL    HW124695   2.362   0.094   6.915
 7932SOL    HW224696   2.497   0.173   6.867
 7933SOL     OW24697   0.369   6.973   0.415
 7933SOL    HW124698   0.300   0.023   0.404
 7933SOL    HW224699   0.392   6.963   0.512
 7934SOL     OW24700   2.638   3.390   0.226
 7934SOL    HW124701   2.607   3.468   0.280
 7934SOL    HW224702   2.674   3.319   0.288
 7935SOL     OW24703   5.373   5.610   0.092
 7935SOL    HW124704   5.337   5.624   7.021
 7935SOL    HW224705   5.308   5.647   0.159
 7936SOL     OW24706   3.407   5.527   2.849
 7936SOL    HW124707   3.411   5.624   2.824
 7936SOL    HW224708   3.332   5.483   2.800
 7937SOL     OW24709   5.127   0.134   4.423
 7937SOL    HW124710   5.075   0.209   4.380
 7937SOL    HW224711   5.200   0.105   4.361
 7938SOL     OW24712   5.019   4.799   4.828
 7938SOL    HW124713   5.026   4.835   4.735
 7938SOL    HW224714   5.044   4.702   4.828
 7939SOL     OW24715   1.107   1.784   6.029
 7939SOL    HW124716   1.122   1.697   5.981
 7939SOL    HW224717   1.051   1.767   6.111
 7940SOL     OW24718   2.387   5.217   1.971
 7940SOL    HW124719   2.394   5.198   2.069
 7940SOL    HW224720   2.332   5.145   1.927
 7941SOL     OW24721   6.472   6.630   1.418
 7941SOL    HW124722   6.441   6.587   1.503
 7941SOL    HW224723   6.397   6.682   1.378
 7942SOL     OW24724   0.081   6.526   2.859
 7942SOL    HW124725   0.155   6.522   2.792
 7942SOL    HW224726   0.100   6.464   2.935
 7943SOL     OW24727   5.833   2.102   1.081
 7943SOL    HW124728   5.919   2.153   1.081
 7943SOL    HW224729   5.836   2.033   1.153
 7944SOL     OW24730   0.108   3.465   0.970
 7944SOL    HW124731   0.074   3.538   1.029
 7944SOL    HW224732   0.034   3.432   0.911
 7945SOL     OW24733   5.303   6.996   2.498
 7945SOL    HW124734   5.240   0.052   2.492
 7945SOL    HW224735   5.341   6.977   2.407
 7946SOL     OW24736   1.535   2.360   5.802
 7946SOL    HW124737   1.488   2.387   5.886
 7946SOL    HW224738   1.607   2.427   5.781
 7947SOL     OW24739   4.052   2.900   6.655
 7947SOL    HW124740   4.147   2.926   6.634
 7947SOL    HW224741   4.052   2.821   6.716
 7948SOL     OW24742   6.491   6.701   1.058
 7948SOL    HW124743   6.587   6.713   1.084
 7948SOL    HW224744   6.433   6.762   1.113
 7949SOL     OW24745   5.152   5.052   4.343
 7949SOL    HW124746   5.212   4.977   4.315
 7949SOL    HW224747   5.058   5.032   4.313
 7950SOL     OW24748   4.587   5.012   3.412
 7950SOL    HW124749   4.555   5.000   3.506
 7950SOL    HW224750   4.526   4.962   3.349
 7951SOL     OW24751   2.903   3.345   0.961
 7951SOL    HW124752   2.938   3.388   1.045
 7951SOL    HW224753   2.805   3.364   0.953
 7952SOL     OW24754   0.031   2.948   6.397
 7952SOL    HW124755   0.123   2.984   6.414
 7952SOL    HW224756   0.035   2.848   6.394
 7953SOL     OW24757   2.140   2.801   3.066
 7953SOL    HW124758   2.073   2.834   3.000
 7953SOL    HW224759   2.101   2.726   3.119
 7954SOL     OW24760   4.647   5.291   4.740
 7954SOL    HW124761   4.647   5.298   4.641
 7954SOL    HW224762   4.559   5.323   4.776
 7955SOL     OW24763   6.841   6.608   6.457
 7955SOL    HW124764   6.843   6.655   6.545
 7955SOL    HW224765   6.932   6.610   6.416
 7956SOL     OW24766   0.407   5.688   3.304
 7956SOL    HW124767   0.486   5.670   3.362
 7956SOL    HW224768   0.336   5.619   3.321
 7957SOL     OW24769   2.268   1.917   0.491
 7957SOL    HW124770   2.359   1.953   0.470
 7957SOL    HW224771   2.199   1.981   0.457
 7958SOL     OW24772   3.211   5.416   4.432
 7958SOL    HW124773   3.235   5.452   4.522
 7958SOL    HW224774   3.253   5.326   4.419
 7959SOL     OW24775   4.156   4.960   0.401
 7959SOL    HW124776   4.192   4.880   0.353
 7959SOL    HW224777   4.104   5.017   0.337
 7960SOL     OW24778   3.597   1.997   1.490
 7960SOL    HW124779   3.511   1.995   1.440
 7960SOL    HW224780   3.645   2.083   1.471
 7961SOL     OW24781   2.265   6.147   6.173
 7961SOL    HW124782   2.343   6.209   6.182
 7961SOL    HW224783   2.187   6.185   6.223
 7962SOL     OW24784   2.277   0.398   1.107
 7962SOL    HW124785   2.193   0.452   1.112
 7962SOL    HW224786   2.257   0.304   1.134
 7963SOL     OW24787   0.077   1.493   4.561
 7963SOL    HW124788   0.103   1.589   4.556
 7963SOL    HW224789   0.106   1.446   4.477
 7964SOL     OW24790   6.065   5.179   3.791
 7964SOL    HW124791   6.044   5.265   3.838
 7964SOL    HW224792   6.098   5.112   3.857
 7965SOL     OW24793   4.294   3.037   0.091
 7965SOL    HW124794   4.247   2.953   0.117
 7965SOL    HW224795   4.255   3.114   0.142
 7966SOL     OW24796   1.298   3.520   4.935
 7966SOL    HW124797   1.247   3.562   5.010
 7966SOL    HW224798   1.272   3.424   4.927
 7967SOL     OW24799   2.711   6.429   3.766
 7967SOL    HW124800   2.794   6.415   3.712
 7967SOL    HW224801   2.696   6.349   3.825
 7968SOL     OW24802   2.196   3.016   3.277
 7968SOL    HW124803   2.149   2.958   3.210
 7968SOL    HW224804   2.280   2.970   3.308
 7969SOL     OW24805   4.068   6.985   1.990
 7969SOL    HW124806   3.989   6.991   2.051
 7969SOL    HW224807   4.060   6.902   1.935
 7970SOL     OW24808   0.171   3.910   2.549
 7970SOL    HW124809   0.181   4.009   2.541
 7970SOL    HW224810   0.075   3.887   2.560
 7971SOL     OW24811   3.521   0.914   1.863
 7971SOL    HW124812   3.549   1.007   1.840
 7971SOL    HW224813   3.440   0.917   1.922
 7972SOL     OW24814   6.661   4.120   1.264
 7972SOL    HW124815   6.574   4.141   1.220
 7972SOL    HW224816   6.648   4.115   1.363
 7973SOL     OW24817   5.212   3.449   3.622
 7973SOL    HW124818   5.291   3.505   3.600
 7973SOL    HW224819   5.242   3.369   3.675
 7974SOL     OW24820   6.174   0.457   4.565
 7974SOL    HW124821   6.078   0.444   4.589
 7974SOL    HW224822   6.213   0.370   4.534
 7975SOL     OW24823   5.422   0.606   4.145
 7975SOL    HW124824   5.349   0.666   4.178
 7975SOL    HW224825   5.405   0.581   4.050
 7976SOL     OW24826   0.356   6.531   5.236
 7976SOL    HW124827   0.325   6.577   5.153
 7976SOL    HW224828   0.312   6.572   5.316
 7977SOL     OW24829   4.056   6.057   2.690
 7977SOL    HW124830   4.106   6.038   2.775
 7977SOL    HW224831   4.067   6.154   2.667
 7978SOL     OW24832   5.836   4.506   6.151
 7978SOL    HW124833   5.820   4.414   6.115
 7978SOL    HW224834   5.748   4.546   6.178
 7979SOL     OW24835   3.019   0.188   4.955
 7979SOL    HW124836   2.929   0.146   4.959
 7979SOL    HW224837   3.080   0.143   5.020
 7980SOL     OW24838   3.716   5.291   0.189
 7980SOL    HW124839   3.729   5.206   0.138
 7980SOL    HW224840   3.798   5.311   0.243
 7981SOL     OW24841   0.893   5.339   1.371
 7981SOL    HW124842   0.895   5.247   1.330
 7981SOL    HW224843   0.883   5.330   1.470
 7982SOL     OW24844   6.890   2.424   0.923
 7982SOL    HW124845   6.862   2.519   0.907
 7982SOL    HW224846   6.825   2.362   0.879
 7983SOL     OW24847   5.478   2.378   3.396
 7983SOL    HW124848   5.411   2.305   3.382
 7983SOL    HW224849   5.471   2.412   3.490
 7984SOL     OW24850   1.465   1.736   1.922
 7984SOL    HW124851   1.431   1.754   1.829
 7984SOL    HW224852   1.552   1.783   1.936
 7985SOL     OW24853   1.819   0.199   2.727
 7985SOL    HW124854   1.872   0.132   2.676
 7985SOL    HW224855   1.734   0.219   2.677
 7986SOL     OW24856   3.455   1.070   0.249
 7986SOL    HW124857   3.367   1.072   0.202
 7986SOL    HW224858   3.520   1.016   0.196
 7987SOL     OW24859   0.500   3.643   6.298
 7987SOL    HW124860   0.569   3.715   6.309
 7987SOL    HW224861   0.422   3.662   6.357
 7988SOL     OW24862   2.626   2.505   4.569
 7988SOL    HW124863   2.647   2.408   4.554
 7988SOL    HW224864   2.708   2.559   4.552
 7989SOL     OW24865   3.613   2.639   5.318
 7989SOL    HW124866   3.671   2.558   5.323
 7989SOL    HW224867   3.518   2.612   5.334
 7990SOL     OW24868   0.967   3.971   3.063
 7990SOL    HW124869   0.910   3.894   3.093
 7990SOL    HW224870   0.979   4.035   3.139
 7991SOL     OW24871   0.054   2.409   5.958
 7991SOL    HW124872   0.120   2.390   5.885
 7991SOL    HW224873   0.080   2.493   6.006
 7992SOL     OW24874   1.351   6.113   1.202
 7992SOL    HW124875   1.388   6.027   1.237
 7992SOL    HW224876   1.252   6.114   1.215
 7993SOL     OW24877   2.072   5.600   6.514
 7993SOL    HW124878   2.037   5.525   6.570
 7993SOL    HW224879   2.152   5.569   6.464
 7994SOL     OW24880   4.579   0.242   3.644
 7994SOL    HW124881   4.657   0.180   3.642
 7994SOL    HW224882   4.554   0.262   3.739
 7995SOL     OW24883   3.802   5.523   3.460
 7995SOL    HW124884   3.871   5.486   3.398
 7995SOL    HW224885   3.721   5.550   3.408
 7996SOL     OW24886   3.262   6.207   4.555
 7996SOL    HW124887   3.324   6.137   4.588
 7996SOL    HW224888   3.208   6.170   4.479
 7997SOL     OW24889   6.440   2.034   1.464
 7997SOL    HW124890   6.505   2.031   1.387
 7997SOL    HW224891   6.417   2.129   1.485
 7998SOL     OW24892   4.381   5.122   0.438
 7998SOL    HW124893   4.301   5.062   0.432
 7998SOL    HW224894   4.422   5.132   0.347
 7999SOL     OW24895   1.395   6.911   5.898
 7999SOL    HW124896   1.358   6.900   5.805
 7999SOL    HW224897   1.337   6.861   5.962
 8000SOL     OW24898   5.707   0.292   6.194
 8000SOL    HW124899   5.647   0.225   6.150
 8000SOL    HW224900   5.657   0.377   6.211
 8001SOL     OW24901   2.960   6.219   1.923
 8001SOL    HW124902   2.923   6.172   2.003
 8001SOL    HW224903   3.034   6.165   1.883
 8002SOL     OW24904   0.428   3.404   5.971
 8002SOL    HW124905   0.421   3.487   5.916
 8002SOL    HW224906   0.350   3.344   5.953
 8003SOL     OW24907   2.658   4.758   2.748
 8003SOL    HW124908   2.661   4.733   2.652
 8003SOL    HW224909   2.738   4.815   2.770
 8004SOL     OW24910   1.701   4.698   3.163
 8004SOL    HW124911   1.765   4.626   3.137
 8004SOL    HW224912   1.625   4.657   3.215
 8005SOL     OW24913   3.497   1.308   2.128
 8005SOL    HW124914   3.577   1.261   2.164
 8005SOL    HW224915   3.417   1.287   2.184
 8006SOL     OW24916   2.640   5.793   0.421
 8006SOL    HW124917   2.646   5.893   0.429
 8006SOL    HW224918   2.605   5.755   0.507
 8007SOL     OW24919   0.437   0.396   4.202
 8007SOL    HW124920   0.354   0.362   4.159
 8007SOL    HW224921   0.487   0.320   4.244
 8008SOL     OW24922   4.918   6.625   6.184
 8008SOL    HW124923   4.913   6.642   6.282
 8008SOL    HW224924   4.827   6.602   6.149
 8009SOL     OW24925   6.343   7.009   2.662
 8009SOL    HW124926   6.425   6.986   2.610
 8009SOL    HW224927   6.263   6.998   2.603
 8010SOL     OW24928   2.036   1.587   0.022
 8010SOL    HW124929   1.948   1.635   0.030
 8010SOL    HW224930   2.026   1.510   6.980
 8011SOL     OW24931   2.078   2.366   1.394
 8011SOL    HW124932   2.167   2.373   1.439
 8011SOL    HW224933   2.005   2.371   1.462
 8012SOL     OW24934   1.764   5.900   1.130
 8012SOL    HW124935   1.771   5.832   1.057
 8012SOL    HW224936   1.717   5.859   1.209
 8013SOL     OW24937   0.454   5.319   4.788
 8013SOL    HW124938   0.412   5.410   4.781
 8013SOL    HW224939   0.397   5.253   4.740
 8014SOL     OW24940   1.270   5.968   5.563
 8014SOL    HW124941   1.197   6.036   5.558
 8014SOL    HW224942   1.331   5.990   5.639
 8015SOL     OW24943   2.999   1.667   0.543
 8015SOL    HW124944   3.075   1.667   0.608
 8015SOL    HW224945   2.917   1.704   0.587
 8016SOL     OW24946   4.674   0.277   0.407
 8016SOL    HW124947   4.673   0.177   0.411
 8016SOL    HW224948   4.722   0.306   0.325
 8017SOL     OW24949   0.032   4.468   5.919
 8017SOL    HW124950   0.049   4.538   5.989
 8017SOL    HW224951   0.051   4.507   5.829
 8018SOL     OW24952   4.823   1.856   5.880
 8018SOL    HW124953   4.799   1.841   5.784
 8018SOL    HW224954   4.833   1.954   5.896
 8019SOL     OW24955   1.937   3.961   0.031
 8019SOL    HW124956   1.904   4.051   0.060
 8019SOL    HW224957   1.871   3.919   6.991
 8020SOL     OW24958   5.775   6.674   0.068
 8020SOL    HW124959   5.786   6.575   0.057
 8020SOL    HW224960   5.797   6.720   7.004
 8021SOL     OW24961   0.897   1.651   2.021
 8021SOL    HW124962   0.978   1.593   2.007
 8021SOL    HW224963   0.925   1.738   2.061
 8022SOL     OW24964   4.202   0.992   2.906
 8022SOL    HW124965   4.237   0.916   2.852
 8022SOL    HW224966   4.278   1.048   2.938
 8023SOL     OW24967   5.850   5.867   3.303
 8023SOL    HW124968   5.817   5.961   3.302
 8023SOL    HW224969   5.852   5.833   3.398
 8024SOL     OW24970   3.274   5.375   6.680
 8024SOL    HW124971   3.242   5.309   6.612
 8024SOL    HW224972   3.277   5.466   6.639
 8025SOL     OW24973   3.723   6.716   5.771
 8025SOL    HW124974   3.672   6.703   5.687
 8025SOL    HW224975   3.668   6.686   5.849
 8026SOL     OW24976   0.402   3.756   6.755
 8026SOL    HW124977   0.326   3.731   6.694
 8026SOL    HW224978   0.376   3.837   6.808
 8027SOL     OW24979   4.629   2.208   5.521
 8027SOL    HW124980   4.598   2.120   5.555
 8027SOL    HW224981   4.574   2.281   5.562
 8028SOL     OW24982   3.510   4.694   5.262
 8028SOL    HW124983   3.511   4.596   5.280
 8028SOL    HW224984   3.577   4.740   5.321
 8029SOL     OW24985   5.448   3.944   6.480
 8029SOL    HW124986   5.489   4.003   6.411
 8029SOL    HW224987   5.511   3.869   6.501
 8030SOL     OW24988   5.819   4.086   5.694
 8030SOL    HW124989   5.804   4.119   5.788
 8030SOL    HW224990   5.773   4.147   5.630
 8031SOL     OW24991   5.210   5.933   2.021
 8031SOL    HW124992   5.308   5.955   2.021
 8031SOL    HW224993   5.166   5.974   2.101
 8032SOL     OW24994   6.082   4.164   5.212
 8032SOL    HW124995   6.178   4.144   5.196
 8032SOL    HW224996   6.033   4.168   5.125
 8033SOL     OW24997   5.360   2.997   0.060
 8033SOL    HW124998   5.334   2.901   0.048
 8033SOL    HW224999   5.458   3.004   0.076
 8034SOL     OW25000   6.394   1.264   5.231
 8034SOL    HW125001   6.450   1.340   5.197
 8034SOL    HW225002   6.366   1.206   5.155
 8035SOL     OW25003   5.244   0.300   4.965
 8035SOL    HW125004   5.307   0.255   5.028
 8035SOL    HW225005   5.241   0.249   4.879
 8036SOL     OW25006   1.300   3.446   1.857
 8036SOL    HW125007   1.341   3.413   1.942
 8036SOL    HW225008   1.292   3.371   1.792
 8037SOL     OW25009   1.582   3.193   1.905
 8037SOL    HW125010   1.666   3.171   1.955
 8037SOL    HW225011   1.596   3.172   1.808
 8038SOL     OW25012   5.495   2.094   2.947
 8038SOL    HW125013   5.536   2.055   2.864
 8038SOL    HW225014   5.472   2.189   2.931
 8039SOL     OW25015   1.845   6.854   3.484
 8039SOL    HW125016   1.896   6.931   3.444
 8039SOL    HW225017   1.874   6.840   3.578
 8040SOL     OW25018   0.395   5.050   0.845
 8040SOL    HW125019   0.304   5.010   0.842
 8040SOL    HW225020   0.391   5.138   0.892
 8041SOL     OW25021   3.821   1.833   1.559
 8041SOL    HW125022   3.747   1.900   1.562
 8041SOL    HW225023   3.898   1.870   1.507
 8042SOL     OW25024   3.486   2.780   1.942
 8042SOL    HW125025   3.583   2.771   1.963
 8042SOL    HW225026   3.437   2.810   2.024
 8043SOL     OW25027   2.928   0.100   0.542
 8043SOL    HW125028   2.832   0.074   0.542
 8043SOL    HW225029   2.936   0.196   0.514
 8044SOL     OW25030   3.040   2.877   1.153
 8044SOL    HW125031   2.954   2.929   1.155
 8044SOL    HW225032   3.023   2.785   1.118
 8045SOL     OW25033   5.639   1.258   1.977
 8045SOL    HW125034   5.585   1.206   2.043
 8045SOL    HW225035   5.606   1.240   1.884
 8046SOL     OW25036   6.224   4.734   5.890
 8046SOL    HW125037   6.248   4.766   5.981
 8046SOL    HW225038   6.154   4.663   5.897
 8047SOL     OW25039   3.160   4.880   4.616
 8047SOL    HW125040   3.224   4.950   4.648
 8047SOL    HW225041   3.115   4.838   4.695
 8048SOL     OW25042   5.382   1.247   5.102
 8048SOL    HW125043   5.471   1.258   5.146
 8048SOL    HW225044   5.326   1.182   5.154
 8049SOL     OW25045   0.701   6.398   1.710
 8049SOL    HW125046   0.746   6.486   1.696
 8049SOL    HW225047   0.755   6.342   1.772
 8050SOL     OW25048   0.941   3.794   1.501
 8050SOL    HW125049   0.958   3.750   1.412
 8050SOL    HW225050   1.021   3.849   1.527
 8051SOL     OW25051   5.366   6.865   3.369
 8051SOL    HW125052   5.338   6.813   3.289
 8051SOL    HW225053   5.349   6.963   3.353
 8052SOL     OW25054   3.433   1.711   1.974
 8052SOL    HW125055   3.409   1.615   1.966
 8052SOL    HW225056   3.430   1.754   1.884
 8053SOL     OW25057   3.985   3.667   2.788
 8053SOL    HW125058   4.049   3.652   2.713
 8053SOL    HW225059   3.928   3.586   2.800
 8054SOL     OW25060   4.746   6.543   4.411
 8054SOL    HW125061   4.770   6.625   4.358
 8054SOL    HW225062   4.708   6.571   4.499
 8055SOL     OW25063   0.771   0.318   5.559
 8055SOL    HW125064   0.776   0.394   5.494
 8055SOL    HW225065   0.860   0.307   5.604
 8056SOL     OW25066   4.764   1.215   3.465
 8056SOL    HW125067   4.717   1.295   3.427
 8056SOL    HW225068   4.706   1.174   3.536
 8057SOL     OW25069   3.167   0.893   2.756
 8057SOL    HW125070   3.188   0.986   2.783
 8057SOL    HW225071   3.069   0.883   2.740
 8058SOL     OW25072   3.398   0.136   2.920
 8058SOL    HW125073   3.329   0.096   2.981
 8058SOL    HW225074   3.417   0.230   2.949
 8059SOL     OW25075   3.785   2.008   4.938
 8059SOL    HW125076   3.863   2.057   4.898
 8059SOL    HW225077   3.742   1.951   4.868
 8060SOL     OW25078   0.667   1.240   4.642
 8060SOL    HW125079   0.576   1.278   4.622
 8060SOL    HW225080   0.721   1.238   4.558
 8061SOL     OW25081   6.895   5.853   1.798
 8061SOL    HW125082   6.915   5.946   1.829
 8061SOL    HW225083   6.936   5.787   1.862
 8062SOL     OW25084   2.064   4.534   3.991
 8062SOL    HW125085   2.096   4.439   3.997
 8062SOL    HW225086   1.966   4.535   3.971
 8063SOL     OW25087   2.137   3.561   0.027
 8063SOL    HW125088   2.185   3.557   0.115
 8063SOL    HW225089   2.204   3.565   6.975
 8064SOL     OW25090   0.356   4.642   0.374
 8064SOL    HW125091   0.318   4.730   0.400
 8064SOL    HW225092   0.289   4.591   0.319
 8065SOL     OW25093   4.096   6.773   3.848
 8065SOL    HW125094   4.177   6.766   3.907
 8065SOL    HW225095   4.122   6.755   3.753
 8066SOL     OW25096   1.428   0.968   6.628
 8066SOL    HW125097   1.448   1.033   6.701
 8066SOL    HW225098   1.512   0.947   6.577
 8067SOL     OW25099   3.958   3.341   1.651
 8067SOL    HW125100   3.974   3.374   1.558
 8067SOL    HW225101   3.861   3.325   1.665
 8068SOL     OW25102   6.114   5.890   5.168
 8068SOL    HW125103   6.186   5.948   5.207
 8068SOL    HW225104   6.025   5.930   5.188
 8069SOL     OW25105   2.827   5.948   1.570
 8069SOL    HW125106   2.758   6.016   1.550
 8069SOL    HW225107   2.917   5.983   1.545
 8070SOL     OW25108   2.650   4.682   1.043
 8070SOL    HW125109   2.701   4.621   0.982
 8070SOL    HW225110   2.666   4.777   1.016
 8071SOL     OW25111   4.256   6.634   4.777
 8071SOL    HW125112   4.208   6.598   4.857
 8071SOL    HW225113   4.307   6.559   4.734
 8072SOL     OW25114   3.382   1.519   0.448
 8072SOL    HW125115   3.451   1.532   0.520
 8072SOL    HW225116   3.319   1.447   0.476
 8073SOL     OW25117   5.283   0.472   6.336
 8073SOL    HW125118   5.217   0.423   6.279
 8073SOL    HW225119   5.334   0.406   6.391
 8074SOL     OW25120   3.216   2.795   0.104
 8074SOL    HW125121   3.244   2.889   0.125
 8074SOL    HW225122   3.280   2.755   0.039
 8075SOL     OW25123   6.472   1.751   1.413
 8075SOL    HW125124   6.396   1.712   1.360
 8075SOL    HW225125   6.445   1.840   1.450
 8076SOL     OW25126   4.793   2.489   5.917
 8076SOL    HW125127   4.738   2.412   5.885
 8076SOL    HW225128   4.802   2.557   5.844
 8077SOL     OW25129   0.338   6.774   1.519
 8077SOL    HW125130   0.429   6.812   1.534
 8077SOL    HW225131   0.330   6.688   1.568
 8078SOL     OW25132   6.390   2.130   0.334
 8078SOL    HW125133   6.427   2.218   0.362
 8078SOL    HW225134   6.411   2.061   0.404
 8079SOL     OW25135   6.000   2.140   3.083
 8079SOL    HW125136   5.946   2.213   3.041
 8079SOL    HW225137   5.977   2.133   3.180
 8080SOL     OW25138   1.927   3.665   0.625
 8080SOL    HW125139   1.840   3.616   0.631
 8080SOL    HW225140   1.913   3.750   0.574
 8081SOL     OW25141   5.684   0.744   5.402
 8081SOL    HW125142   5.747   0.672   5.433
 8081SOL    HW225143   5.594   0.729   5.443
 8082SOL     OW25144   5.645   2.392   2.792
 8082SOL    HW125145   5.708   2.342   2.731
 8082SOL    HW225146   5.561   2.413   2.742
 8083SOL     OW25147   4.966   3.207   2.032
 8083SOL    HW125148   4.886   3.147   2.030
 8083SOL    HW225149   5.038   3.169   1.975
 8084SOL     OW25150   6.090   6.249   1.258
 8084SOL    HW125151   6.020   6.238   1.329
 8084SOL    HW225152   6.160   6.314   1.290
 8085SOL     OW25153   6.217   0.276   1.516
 8085SOL    HW125154   6.136   0.223   1.491
 8085SOL    HW225155   6.199   0.373   1.497
 8086SOL     OW25156   3.766   6.858   3.819
 8086SOL    HW125157   3.673   6.890   3.835
 8086SOL    HW225158   3.815   6.853   3.906
 8087SOL     OW25159   2.523   1.939   1.097
 8087SOL    HW125160   2.609   1.916   1.142
 8087SOL    HW225161   2.459   1.975   1.165
 8088SOL     OW25162   6.515   1.733   1.762
 8088SOL    HW125163   6.567   1.675   1.699
 8088SOL    HW225164   6.418   1.730   1.737
 8089SOL     OW25165   5.138   2.185   6.752
 8089SOL    HW125166   5.100   2.184   6.660
 8089SOL    HW225167   5.191   2.269   6.765
 8090SOL     OW25168   4.964   1.721   6.483
 8090SOL    HW125169   5.046   1.759   6.525
 8090SOL    HW225170   4.980   1.706   6.385
 8091SOL     OW25171   3.489   3.941   0.006
 8091SOL    HW125172   3.432   4.011   6.983
 8091SOL    HW225173   3.586   3.960   7.008
 8092SOL     OW25174   1.675   1.090   4.775
 8092SOL    HW125175   1.700   1.181   4.809
 8092SOL    HW225176   1.577   1.077   4.787
 8093SOL     OW25177   6.235   6.049   1.187
 8093SOL    HW125178   6.168   6.111   1.227
 8093SOL    HW225179   6.326   6.090   1.195
 8094SOL     OW25180   2.032   4.386   5.749
 8094SOL    HW125181   2.083   4.318   5.697
 8094SOL    HW225182   2.086   4.414   5.829
 8095SOL     OW25183   6.086   3.452   3.804
 8095SOL    HW125184   6.100   3.517   3.878
 8095SOL    HW225185   6.170   3.399   3.789
 8096SOL     OW25186   2.918   5.944   3.246
 8096SOL    HW125187   2.868   5.862   3.272
 8096SOL    HW225188   2.928   5.948   3.146
 8097SOL     OW25189   5.171   0.808   3.701
 8097SOL    HW125190   5.139   0.901   3.685
 8097SOL    HW225191   5.120   0.745   3.642
 8098SOL     OW25192   2.080   6.508   4.338
 8098SOL    HW125193   2.167   6.541   4.299
 8098SOL    HW225194   2.069   6.411   4.317
 8099SOL     OW25195   6.458   0.629   3.957
 8099SOL    HW125196   6.547   0.589   3.978
 8099SOL    HW225197   6.466   0.728   3.951
 8100SOL     OW25198   0.489   6.653   0.392
 8100SOL    HW125199   0.505   6.558   0.419
 8100SOL    HW225200   0.521   6.714   0.465
 8101SOL     OW25201   1.648   6.917   4.644
 8101SOL    HW125202   1.726   6.972   4.674
 8101SOL    HW225203   1.574   6.977   4.612
 8102SOL     OW25204   0.736   5.530   6.355
 8102SOL    HW125205   0.833   5.520   6.333
 8102SOL    HW225206   0.724   5.609   6.414
 8103SOL     OW25207   4.079   1.005   1.756
 8103SOL    HW125208   4.030   1.029   1.839
 8103SOL    HW225209   4.156   0.946   1.779
 8104SOL     OW25210   3.906   0.217   6.357
 8104SOL    HW125211   3.870   0.227   6.264
 8104SOL    HW225212   4.003   0.196   6.353
 8105SOL     OW25213   2.493   2.658   3.561
 8105SOL    HW125214   2.592   2.652   3.554
 8105SOL    HW225215   2.453   2.566   3.562
 8106SOL     OW25216   1.550   5.460   3.732
 8106SOL    HW125217   1.549   5.428   3.638
 8106SOL    HW225218   1.488   5.403   3.788
 8107SOL     OW25219   1.992   6.141   5.879
 8107SOL    HW125220   1.995   6.104   5.973
 8107SOL    HW225221   2.066   6.101   5.825
 8108SOL     OW25222   6.825   2.915   4.875
 8108SOL    HW125223   6.786   2.985   4.935
 8108SOL    HW225224   6.765   2.901   4.797
 8109SOL     OW25225   1.998   4.336   4.792
 8109SOL    HW125226   2.036   4.426   4.814
 8109SOL    HW225227   1.984   4.285   4.877
 8110SOL     OW25228   3.149   6.611   0.431
 8110SOL    HW125229   3.147   6.626   0.332
 8110SOL    HW225230   3.173   6.696   0.478
 8111SOL     OW25231   3.136   6.781   5.438
 8111SOL    HW125232   3.111   6.699   5.491
 8111SOL    HW225233   3.053   6.826   5.406
 8112SOL     OW25234   2.774   0.575   5.580
 8112SOL    HW125235   2.751   0.597   5.486
 8112SOL    HW225236   2.840   0.500   5.582
 8113SOL     OW25237   3.106   2.621   0.293
 8113SOL    HW125238   3.155   2.689   0.239
 8113SOL    HW225239   3.014   2.609   0.257
 8114SOL     OW25240   2.302   2.749   2.259
 8114SOL    HW125241   2.273   2.828   2.206
 8114SOL    HW225242   2.236   2.675   2.248
 8115SOL     OW25243   3.867   1.325   1.187
 8115SOL    HW125244   3.930   1.401   1.168
 8115SOL    HW225245   3.901   1.242   1.144
 8116SOL     OW25246   5.577   0.313   5.428
 8116SOL    HW125247   5.604   0.217   5.416
 8116SOL    HW225248   5.608   0.366   5.350
 8117SOL     OW25249   1.785   1.812   3.958
 8117SOL    HW125250   1.744   1.901   3.975
 8117SOL    HW225251   1.819   1.809   3.864
 8118SOL     OW25252   0.629   3.843   5.752
 8118SOL    HW125253   0.641   3.938   5.781
 8118SOL    HW225254   0.582   3.791   5.823
 8119SOL     OW25255   0.458   5.631   4.135
 8119SOL    HW125256   0.549   5.617   4.097
 8119SOL    HW225257   0.410   5.701   4.082
 8120SOL     OW25258   4.102   4.167   6.828
 8120SOL    HW125259   4.063   4.145   6.918
 8120SOL    HW225260   4.121   4.265   6.824
 8121SOL     OW25261   0.130   6.404   3.154
 8121SOL    HW125262   0.066   6.345   3.104
 8121SOL    HW225263   0.128   6.380   3.251
 8122SOL     OW25264   0.355   4.746   2.256
 8122SOL    HW125265   0.353   4.673   2.325
 8122SOL    HW225266   0.403   4.826   2.292
 8123SOL     OW25267   0.921   0.408   6.335
 8123SOL    HW125268   1.018   0.428   6.326
 8123SOL    HW225269   0.908   0.338   6.405
 8124SOL     OW25270   1.354   6.310   1.403
 8124SOL    HW125271   1.293   6.386   1.382
 8124SOL    HW225272   1.364   6.252   1.321
 8125SOL     OW25273   6.031   5.146   3.015
 8125SOL    HW125274   6.114   5.202   3.023
 8125SOL    HW225275   6.056   5.049   3.013
 8126SOL     OW25276   6.047   4.868   2.320
 8126SOL    HW125277   6.110   4.792   2.299
 8126SOL    HW225278   6.056   4.892   2.417
 8127SOL     OW25279   2.628   5.170   0.307
 8127SOL    HW125280   2.724   5.148   0.289
 8127SOL    HW225281   2.622   5.236   0.381
 8128SOL     OW25282   3.158   2.578   6.765
 8128SOL    HW125283   3.232   2.515   6.789
 8128SOL    HW225284   3.103   2.597   6.847
 8129SOL     OW25285   5.178   1.085   6.502
 8129SOL    HW125286   5.242   1.011   6.521
 8129SOL    HW225287   5.206   1.167   6.553
 8130SOL     OW25288   1.034   5.451   5.818
 8130SOL    HW125289   0.958   5.451   5.752
 8130SOL    HW225290   1.002   5.490   5.905
 8131SOL     OW25291   3.151   1.060   0.352
 8131SOL    HW125292   3.079   0.991   0.351
 8131SOL    HW225293   3.181   1.078   0.259
 8132SOL     OW25294   5.620   5.610   5.522
 8132SOL    HW125295   5.570   5.696   5.525
 8132SOL    HW225296   5.601   5.558   5.606
 8133SOL     OW25297   3.257   4.839   3.220
 8133SOL    HW125298   3.340   4.827   3.274
 8133SOL    HW225299   3.280   4.863   3.126
 8134SOL     OW25300   1.941   2.037   4.142
 8134SOL    HW125301   2.028   2.050   4.189
 8134SOL    HW225302   1.942   1.950   4.093
 8135SOL     OW25303   3.237   5.106   2.222
 8135SOL    HW125304   3.187   5.167   2.160
 8135SOL    HW225305   3.308   5.058   2.172
 8136SOL     OW25306   4.205   5.332   2.446
 8136SOL    HW125307   4.188   5.344   2.349
 8136SOL    HW225308   4.302   5.309   2.460
 8137SOL     OW25309   1.928   3.089   4.609
 8137SOL    HW125310   1.949   3.003   4.655
 8137SOL    HW225311   2.011   3.143   4.599
 8138SOL     OW25312   6.116   2.095   2.137
 8138SOL    HW125313   6.103   2.049   2.049
 8138SOL    HW225314   6.178   2.041   2.193
 8139SOL     OW25315   0.841   3.227   3.553
 8139SOL    HW125316   0.904   3.210   3.478
 8139SOL    HW225317   0.795   3.142   3.578
 8140SOL     OW25318   4.034   6.890   0.139
 8140SOL    HW125319   3.983   6.961   0.091
 8140SOL    HW225320   4.005   6.887   0.235
 8141SOL     OW25321   5.095   0.877   5.439
 8141SOL    HW125322   5.097   0.812   5.362
 8141SOL    HW225323   5.187   0.884   5.478
 8142SOL     OW25324   2.285   5.460   0.311
 8142SOL    HW125325   2.311   5.429   0.219
 8142SOL    HW225326   2.347   5.533   0.340
 8143SOL     OW25327   5.452   5.158   1.366
 8143SOL    HW125328   5.363   5.115   1.378
 8143SOL    HW225329   5.521   5.106   1.416
 8144SOL     OW25330   0.183   5.766   5.768
 8144SOL    HW125331   0.179   5.715   5.683
 8144SOL    HW225332   0.215   5.859   5.750
 8145SOL     OW25333   5.061   5.495   0.447
 8145SOL    HW125334   5.096   5.403   0.434
 8145SOL    HW225335   4.996   5.496   0.522
 8146SOL     OW25336   6.457   0.804   5.051
 8146SOL    HW125337   6.517   0.725   5.053
 8146SOL    HW225338   6.466   0.850   4.963
 8147SOL     OW25339   0.532   0.728   0.061
 8147SOL    HW125340   0.453   0.680   0.099
 8147SOL    HW225341   0.608   0.665   0.051
 8148SOL     OW25342   4.195   4.430   6.842
 8148SOL    HW125343   4.162   4.484   6.920
 8148SOL    HW225344   4.258   4.486   6.788
 8149SOL     OW25345   1.413   6.869   4.314
 8149SOL    HW125346   1.385   6.784   4.358
 8149SOL    HW225347   1.506   6.893   4.342
 8150SOL     OW25348   0.979   3.244   1.121
 8150SOL    HW125349   0.895   3.205   1.084
 8150SOL    HW225350   0.990   3.215   1.217
 8151SOL     OW25351   6.106   5.471   3.674
 8151SOL    HW125352   6.095   5.469   3.773
 8151SOL    HW225353   6.083   5.382   3.636
 8152SOL     OW25354   4.591   2.116   2.924
 8152SOL    HW125355   4.675   2.169   2.937
 8152SOL    HW225356   4.542   2.110   3.011
 8153SOL     OW25357   1.002   0.633   3.232
 8153SOL    HW125358   1.052   0.574   3.168
 8153SOL    HW225359   0.968   0.713   3.183
 8154SOL     OW25360   2.954   1.739   3.348
 8154SOL    HW125361   2.859   1.713   3.334
 8154SOL    HW225362   2.976   1.818   3.291
 8155SOL     OW25363   1.503   4.028   2.218
 8155SOL    HW125364   1.496   4.095   2.144
 8155SOL    HW225365   1.581   4.050   2.276
 8156SOL     OW25366   5.574   6.075   1.202
 8156SOL    HW125367   5.525   6.151   1.158
 8156SOL    HW225368   5.624   6.023   1.133
 8157SOL     OW25369   6.013   3.595   6.036
 8157SOL    HW125370   6.014   3.671   5.971
 8157SOL    HW225371   5.922   3.554   6.039
 8158SOL     OW25372   5.675   5.289   5.748
 8158SOL    HW125373   5.635   5.378   5.768
 8158SOL    HW225374   5.650   5.261   5.655
 8159SOL     OW25375   4.273   6.488   5.798
 8159SOL    HW125376   4.301   6.582   5.818
 8159SOL    HW225377   4.353   6.428   5.807
 8160SOL     OW25378   5.013   1.244   3.406
 8160SOL    HW125379   4.917   1.229   3.427
 8160SOL    HW225380   5.044   1.175   3.340
 8161SOL     OW25381   5.368   3.562   0.169
 8161SOL    HW125382   5.297   3.526   0.108
 8161SOL    HW225383   5.390   3.494   0.239
 8162SOL     OW25384   0.189   5.102   6.928
 8162SOL    HW125385   0.252   5.039   6.883
 8162SOL    HW225386   0.158   5.063   7.015
 8163SOL     OW25387   3.834   5.211   5.346
 8163SOL    HW125388   3.812   5.305   5.319
 8163SOL    HW225389   3.896   5.212   5.424
 8164SOL     OW25390   4.267   0.663   6.919
 8164SOL    HW125391   4.251   0.699   7.011
 8164SOL    HW225392   4.362   0.631   6.911
 8165SOL     OW25393   6.906   3.436   6.537
 8165SOL    HW125394   6.980   3.458   6.474
 8165SOL    HW225395   6.835   3.386   6.488
 8166SOL     OW25396   1.946   2.031   3.802
 8166SOL    HW125397   1.891   1.988   3.731
 8166SOL    HW225398   1.958   2.128   3.780
 8167SOL     OW25399   0.203   1.572   3.520
 8167SOL    HW125400   0.160   1.488   3.488
 8167SOL    HW225401   0.265   1.551   3.596
 8168SOL     OW25402   2.192   0.619   1.372
 8168SOL    HW125403   2.198   0.716   1.347
 8168SOL    HW225404   2.270   0.570   1.334
 8169SOL     OW25405   3.992   1.848   0.494
 8169SOL    HW125406   4.078   1.879   0.533
 8169SOL    HW225407   3.996   1.750   0.475
 8170SOL     OW25408   6.645   4.147   2.141
 8170SOL    HW125409   6.644   4.137   2.042
 8170SOL    HW225410   6.721   4.206   2.169
 8171SOL     OW25411   1.638   0.940   6.949
 8171SOL    HW125412   1.586   0.867   6.993
 8171SOL    HW225413   1.676   0.907   6.863
 8172SOL     OW25414   0.316   2.067   2.156
 8172SOL    HW125415   0.313   2.141   2.223
 8172SOL    HW225416   0.361   2.100   2.072
 8173SOL     OW25417   6.347   1.995   2.678
 8173SOL    HW125418   6.278   1.958   2.739
 8173SOL    HW225419   6.326   1.970   2.584
 8174SOL     OW25420   1.523   6.334   2.625
 8174SOL    HW125421   1.530   6.340   2.526
 8174SOL    HW225422   1.573   6.410   2.667
 8175SOL     OW25423   1.167   2.877   4.086
 8175SOL    HW125424   1.096   2.832   4.032
 8175SOL    HW225425   1.124   2.932   4.158
 8176SOL     OW25426   1.903   4.495   1.336
 8176SOL    HW125427   1.844   4.428   1.292
 8176SOL    HW225428   1.999   4.476   1.312
 8177SOL     OW25429   3.633   0.866   2.675
 8177SOL    HW125430   3.612   0.916   2.591
 8177SOL    HW225431   3.728   0.881   2.700
 8178SOL     OW25432   3.007   6.412   0.838
 8178SOL    HW125433   2.996   6.401   0.937
 8178SOL    HW225434   3.074   6.346   0.805
 8179SOL     OW25435   6.062   0.987   4.081
 8179SOL    HW125436   6.003   0.943   4.013
 8179SOL    HW225437   6.008   1.006   4.164
 8180SOL     OW25438   6.004   0.253   6.723
 8180SOL    HW125439   5.934   0.254   6.652
 8180SOL    HW225440   6.069   0.327   6.707
 8181SOL     OW25441   0.681   0.887   1.267
 8181SOL    HW125442   0.680   0.788   1.282
 8181SOL    HW225443   0.593   0.926   1.292
 8182SOL     OW25444   3.807   3.389   5.038
 8182SOL    HW125445   3.864   3.316   5.000
 8182SOL    HW225446   3.805   3.381   5.138
 8183SOL     OW25447   6.918   1.423   4.975
 8183SOL    HW125448   6.882   1.451   5.064
 8183SOL    HW225449   6.860   1.351   4.936
 8184SOL     OW25450   1.100   0.068   0.377
 8184SOL    HW125451   1.065   0.106   0.292
 8184SOL    HW225452   1.125   0.142   0.439
 8185SOL     OW25453   1.890   0.488   0.897
 8185SOL    HW125454   1.918   0.584   0.904
 8185SOL    HW225455   1.819   0.479   0.827
 8186SOL     OW25456   2.232   4.111   5.929
 8186SOL    HW125457   2.153   4.061   5.965
 8186SOL    HW225458   2.297   4.046   5.889
 8187SOL     OW25459   2.490   1.920   5.113
 8187SOL    HW125460   2.432   1.999   5.094
 8187SOL    HW225461   2.585   1.950   5.119
 8188SOL     OW25462   4.010   1.716   3.396
 8188SOL    HW125463   3.915   1.740   3.377
 8188SOL    HW225464   4.025   1.717   3.495
 8189SOL     OW25465   5.549   5.158   3.410
 8189SOL    HW125466   5.536   5.234   3.347
 8189SOL    HW225467   5.459   5.124   3.440
 8190SOL     OW25468   5.242   3.984   3.433
 8190SOL    HW125469   5.252   3.939   3.521
 8190SOL    HW225470   5.265   3.921   3.360
 8191SOL     OW25471   4.702   5.240   2.263
 8191SOL    HW125472   4.692   5.219   2.166
 8191SOL    HW225473   4.761   5.319   2.274
 8192SOL     OW25474   1.934   5.384   1.903
 8192SOL    HW125475   1.887   5.324   1.838
 8192SOL    HW225476   1.898   5.477   1.894
 8193SOL     OW25477   6.696   5.813   4.591
 8193SOL    HW125478   6.660   5.729   4.551
 8193SOL    HW225479   6.671   5.818   4.687
 8194SOL     OW25480   4.415   0.783   0.694
 8194SOL    HW125481   4.447   0.803   0.602
 8194SOL    HW225482   4.367   0.696   0.694
 8195SOL     OW25483   5.889   6.694   3.969
 8195SOL    HW125484   5.878   6.627   4.043
 8195SOL    HW225485   5.963   6.756   3.992
 8196SOL     OW25486   5.074   0.414   6.640
 8196SOL    HW125487   5.084   0.492   6.579
 8196SOL    HW225488   4.997   0.429   6.702
 8197SOL     OW25489   4.197   1.906   1.634
 8197SOL    HW125490   4.115   1.954   1.603
 8197SOL    HW225491   4.244   1.866   1.555
 8198SOL     OW25492   2.609   0.649   2.163
 8198SOL    HW125493   2.594   0.657   2.065
 8198SOL    HW225494   2.674   0.719   2.193
 8199SOL     OW25495   4.568   3.151   5.684
 8199SOL    HW125496   4.564   3.244   5.647
 8199SOL    HW225497   4.562   3.154   5.783
 8200SOL     OW25498   5.964   4.028   1.893
 8200SOL    HW125499   5.868   3.999   1.892
 8200SOL    HW225500   5.988   4.068   1.805
 8201SOL     OW25501   0.123   0.822   5.240
 8201SOL    HW125502   0.135   0.911   5.284
 8201SOL    HW225503   0.208   0.770   5.245
 8202SOL     OW25504   0.029   6.280   2.644
 8202SOL    HW125505   6.997   6.233   2.573
 8202SOL    HW225506   0.009   6.378   2.641
 8203SOL     OW25507   2.112   2.129   0.410
 8203SOL    HW125508   2.014   2.115   0.420
 8203SOL    HW225509   2.142   2.203   0.471
 8204SOL     OW25510   4.070   3.584   1.013
 8204SOL    HW125511   4.116   3.672   0.999
 8204SOL    HW225512   4.052   3.542   0.924
 8205SOL     OW25513   0.799   2.744   6.882
 8205SOL    HW125514   0.823   2.766   6.788
 8205SOL    HW225515   0.865   2.785   6.945
 8206SOL     OW25516   4.836   1.369   0.148
 8206SOL    HW125517   4.848   1.273   0.176
 8206SOL    HW225518   4.764   1.410   0.203
 8207SOL     OW25519   3.257   3.809   4.689
 8207SOL    HW125520   3.161   3.820   4.662
 8207SOL    HW225521   3.297   3.899   4.707
 8208SOL     OW25522   0.889   1.061   0.708
 8208SOL    HW125523   0.799   1.049   0.667
 8208SOL    HW225524   0.892   1.149   0.756
 8209SOL     OW25525   0.442   0.811   5.065
 8209SOL    HW125526   0.363   0.756   5.091
 8209SOL    HW225527   0.521   0.786   5.121
 8210SOL     OW25528   2.261   2.290   0.606
 8210SOL    HW125529   2.244   2.387   0.623
 8210SOL    HW225530   2.334   2.279   0.539
 8211SOL     OW25531   3.517   3.955   1.567
 8211SOL    HW125532   3.510   3.955   1.667
 8211SOL    HW225533   3.582   3.885   1.538
 8212SOL     OW25534   1.667   2.380   3.048
 8212SOL    HW125535   1.691   2.314   3.119
 8212SOL    HW225536   1.567   2.391   3.044
 8213SOL     OW25537   6.841   5.097   1.658
 8213SOL    HW125538   6.939   5.087   1.678
 8213SOL    HW225539   6.794   5.129   1.740
 8214SOL     OW25540   5.600   4.508   3.649
 8214SOL    HW125541   5.569   4.538   3.740
 8214SOL    HW225542   5.619   4.410   3.652
 8215SOL     OW25543   3.239   6.047   5.556
 8215SOL    HW125544   3.174   6.122   5.543
 8215SOL    HW225545   3.189   5.961   5.565
 8216SOL     OW25546   5.533   6.095   4.438
 8216SOL    HW125547   5.456   6.109   4.376
 8216SOL    HW225548   5.501   6.044   4.519
 8217SOL     OW25549   2.138   4.813   0.040
 8217SOL    HW125550   2.070   4.875   0.000
 8217SOL    HW225551   2.191   4.769   6.988
 8218SOL     OW25552   0.683   1.585   6.654
 8218SOL    HW125553   0.744   1.535   6.715
 8218SOL    HW225554   0.689   1.683   6.672
 8219SOL     OW25555   4.848   1.696   0.293
 8219SOL    HW125556   4.820   1.788   0.264
 8219SOL    HW225557   4.947   1.690   0.294
 8220SOL     OW25558   3.349   3.433   3.232
 8220SOL    HW125559   3.331   3.365   3.303
 8220SOL    HW225560   3.414   3.395   3.166
 8221SOL     OW25561   4.548   6.168   4.613
 8221SOL    HW125562   4.576   6.232   4.541
 8221SOL    HW225563   4.469   6.115   4.582
 8222SOL     OW25564   5.295   2.003   2.285
 8222SOL    HW125565   5.225   1.976   2.351
 8222SOL    HW225566   5.383   2.009   2.332
 8223SOL     OW25567   1.213   3.668   6.190
 8223SOL    HW125568   1.281   3.609   6.233
 8223SOL    HW225569   1.249   3.700   6.102
 8224SOL     OW25570   0.741   2.574   2.820
 8224SOL    HW125571   0.675   2.644   2.796
 8224SOL    HW225572   0.832   2.614   2.828
 8225SOL     OW25573   3.686   0.912   0.201
 8225SOL    HW125574   3.690   0.990   0.264
 8225SOL    HW225575   3.653   0.831   0.250
 8226SOL     OW25576   4.697   0.133   2.726
 8226SOL    HW125577   4.634   0.071   2.771
 8226SOL    HW225578   4.762   0.170   2.793
 8227SOL     OW25579   0.339   2.762   3.668
 8227SOL    HW125580   0.436   2.761   3.691
 8227SOL    HW225581   0.288   2.713   3.740
 8228SOL     OW25582   0.291   2.646   5.849
 8228SOL    HW125583   0.286   2.743   5.824
 8228SOL    HW225584   0.359   2.634   5.921
 8229SOL     OW25585   3.866   4.483   0.692
 8229SOL    HW125586   3.882   4.413   0.622
 8229SOL    HW225587   3.824   4.440   0.772
 8230SOL     OW25588   4.945   0.102   5.665
 8230SOL    HW125589   5.043   0.117   5.677
 8230SOL    HW225590   4.919   0.128   5.572
 8231SOL     OW25591   3.877   5.842   1.215
 8231SOL    HW125592   3.955   5.894   1.249
 8231SOL    HW225593   3.899   5.745   1.213
 8232SOL     OW25594   5.228   1.543   0.876
 8232SOL    HW125595   5.225   1.512   0.971
 8232SOL    HW225596   5.317   1.523   0.837
 8233SOL     OW25597   0.893   5.986   6.186
 8233SOL    HW125598   0.959   6.061   6.194
 8233SOL    HW225599   0.804   6.016   6.220
 8234SOL     OW25600   2.989   3.512   0.102
 8234SOL    HW125601   3.053   3.563   0.160
 8234SOL    HW225602   2.899   3.555   0.105
 8235SOL     OW25603   2.261   3.186   0.492
 8235SOL    HW125604   2.213   3.217   0.573
 8235SOL    HW225605   2.209   3.211   0.410
 8236SOL     OW25606   6.446   4.033   0.026
 8236SOL    HW125607   6.545   4.023   0.010
 8236SOL    HW225608   6.396   3.989   6.973
 8237SOL     OW25609   5.075   6.492   4.595
 8237SOL    HW125610   5.156   6.467   4.648
 8237SOL    HW225611   5.099   6.567   4.532
 8238SOL     OW25612   1.566   4.270   0.554
 8238SOL    HW125613   1.511   4.247   0.634
 8238SOL    HW225614   1.507   4.276   0.474
 8239SOL     OW25615   6.560   1.134   5.398
 8239SOL    HW125616   6.552   1.040   5.365
 8239SOL    HW225617   6.517   1.196   5.332
 8240SOL     OW25618   3.510   3.741   2.860
 8240SOL    HW125619   3.433   3.783   2.813
 8240SOL    HW225620   3.479   3.701   2.947
 8241SOL     OW25621   3.631   6.703   7.018
 8241SOL    HW125622   3.581   6.621   0.023
 8241SOL    HW225623   3.676   6.688   6.930
 8242SOL     OW25624   1.328   4.537   6.120
 8242SOL    HW125625   1.256   4.467   6.121
 8242SOL    HW225626   1.342   4.569   6.027
 8243SOL     OW25627   1.045   2.710   6.693
 8243SOL    HW125628   1.117   2.667   6.748
 8243SOL    HW225629   1.073   2.804   6.671
 8244SOL     OW25630   0.772   6.861   3.480
 8244SOL    HW125631   0.852   6.890   3.531
 8244SOL    HW225632   0.798   6.837   3.387
 8245SOL     OW25633   3.419   1.140   2.724
 8245SOL    HW125634   3.443   1.201   2.800
 8245SOL    HW225635   3.495   1.077   2.708
 8246SOL     OW25636   6.933   3.435   5.522
 8246SOL    HW125637   6.879   3.368   5.472
 8246SOL    HW225638   6.941   3.519   5.468
 8247SOL     OW25639   1.095   0.184   2.375
 8247SOL    HW125640   1.078   0.280   2.354
 8247SOL    HW225641   1.147   0.142   2.302
 8248SOL     OW25642   5.836   5.093   3.382
 8248SOL    HW125643   5.755   5.110   3.438
 8248SOL    HW225644   5.868   5.000   3.397
 8249SOL     OW25645   2.063   3.300   5.313
 8249SOL    HW125646   2.121   3.219   5.314
 8249SOL    HW225647   2.041   3.324   5.218
 8250SOL     OW25648   3.231   4.109   2.301
 8250SOL    HW125649   3.178   4.118   2.385
 8250SOL    HW225650   3.310   4.169   2.305
 8251SOL     OW25651   6.097   3.066   4.417
 8251SOL    HW125652   6.160   3.007   4.467
 8251SOL    HW225653   6.103   3.160   4.453
 8252SOL     OW25654   3.335   3.035   6.772
 8252SOL    HW125655   3.409   3.040   6.705
 8252SOL    HW225656   3.363   3.081   6.857
 8253SOL     OW25657   4.030   4.008   5.166
 8253SOL    HW125658   4.066   4.052   5.249
 8253SOL    HW225659   4.076   4.047   5.086
 8254SOL     OW25660   4.466   4.696   4.547
 8254SOL    HW125661   4.565   4.703   4.543
 8254SOL    HW225662   4.429   4.694   4.453
 8255SOL     OW25663   3.103   6.134   5.320
 8255SOL    HW125664   3.093   6.194   5.241
 8255SOL    HW225665   3.199   6.114   5.336
 8256SOL     OW25666   6.366   0.856   1.966
 8256SOL    HW125667   6.309   0.784   1.927
 8256SOL    HW225668   6.446   0.870   1.907
 8257SOL     OW25669   6.590   3.743   3.260
 8257SOL    HW125670   6.664   3.790   3.213
 8257SOL    HW225671   6.595   3.763   3.358
 8258SOL     OW25672   5.235   1.321   0.564
 8258SOL    HW125673   5.168   1.300   0.635
 8258SOL    HW225674   5.191   1.321   0.475
 8259SOL     OW25675   4.474   1.976   3.584
 8259SOL    HW125676   4.558   1.975   3.529
 8259SOL    HW225677   4.401   2.021   3.533
 8260SOL     OW25678   2.706   0.361   2.240
 8260SOL    HW125679   2.680   0.457   2.253
 8260SOL    HW225680   2.707   0.314   2.328
 8261SOL     OW25681   6.472   1.258   1.915
 8261SOL    HW125682   6.485   1.276   1.818
 8261SOL    HW225683   6.555   1.282   1.965
 8262SOL     OW25684   0.895   2.895   1.096
 8262SOL    HW125685   0.897   2.961   1.171
 8262SOL    HW225686   0.866   2.941   1.012
 8263SOL     OW25687   0.883   2.257   0.337
 8263SOL    HW125688   0.802   2.229   0.387
 8263SOL    HW225689   0.875   2.352   0.309
 8264SOL     OW25690   2.058   6.460   2.280
 8264SOL    HW125691   1.996   6.524   2.325
 8264SOL    HW225692   2.114   6.413   2.348
 8265SOL     OW25693   1.021   6.706   1.367
 8265SOL    HW125694   1.067   6.774   1.424
 8265SOL    HW225695   1.067   6.700   1.279
 8266SOL     OW25696   2.097   0.837   3.659
 8266SOL    HW125697   2.024   0.900   3.632
 8266SOL    HW225698   2.076   0.745   3.625
 8267SOL     OW25699   1.736   2.921   0.887
 8267SOL    HW125700   1.770   2.853   0.821
 8267SOL    HW225701   1.736   3.011   0.845
 8268SOL     OW25702   2.283   6.285   5.630
 8268SOL    HW125703   2.301   6.286   5.728
 8268SOL    HW225704   2.309   6.372   5.589
 8269SOL     OW25705   5.387   1.886   1.487
 8269SOL    HW125706   5.335   1.949   1.429
 8269SOL    HW225707   5.396   1.926   1.579
 8270SOL     OW25708   2.870   6.751   5.116
 8270SOL    HW125709   2.852   6.655   5.138
 8270SOL    HW225710   2.874   6.804   5.200
 8271SOL     OW25711   0.099   1.173   2.608
 8271SOL    HW125712   0.086   1.108   2.682
 8271SOL    HW225713   0.187   1.155   2.563
 8272SOL     OW25714   4.652   1.664   1.456
 8272SOL    HW125715   4.719   1.698   1.522
 8272SOL    HW225716   4.653   1.564   1.456
 8273SOL     OW25717   1.962   6.055   1.217
 8273SOL    HW125718   2.044   5.999   1.205
 8273SOL    HW225719   1.881   6.001   1.194
 8274SOL     OW25720   4.890   4.473   3.355
 8274SOL    HW125721   4.845   4.556   3.387
 8274SOL    HW225722   4.956   4.442   3.423
 8275SOL     OW25723   4.760   1.368   5.425
 8275SOL    HW125724   4.821   1.433   5.470
 8275SOL    HW225725   4.775   1.276   5.463
 8276SOL     OW25726   1.611   2.336   3.928
 8276SOL    HW125727   1.689   2.372   3.979
 8276SOL    HW225728   1.630   2.343   3.830
 8277SOL     OW25729   6.676   1.134   0.087
 8277SOL    HW125730   6.769   1.098   0.090
 8277SOL    HW225731   6.646   1.140   7.013
 8278SOL     OW25732   2.810   1.617   5.671
 8278SOL    HW125733   2.781   1.695   5.727
 8278SOL    HW225734   2.732   1.558   5.651
 8279SOL     OW25735   1.657   0.503   4.280
 8279SOL    HW125736   1.723   0.528   4.209
 8279SOL    HW225737   1.571   0.477   4.238
 8280SOL     OW25738   2.143   2.872   0.529
 8280SOL    HW125739   2.238   2.902   0.527
 8280SOL    HW225740   2.088   2.931   0.470
 8281SOL     OW25741   1.910   5.010   1.374
 8281SOL    HW125742   1.904   4.912   1.392
 8281SOL    HW225743   1.993   5.047   1.417
 8282SOL     OW25744   5.056   3.933   6.980
 8282SOL    HW125745   4.959   3.920   6.958
 8282SOL    HW225746   5.067   4.014   0.015
 8283SOL     OW25747   1.648   4.687   0.293
 8283SOL    HW125748   1.559   4.718   0.259
 8283SOL    HW225749   1.720   4.743   0.253
 8284SOL     OW25750   0.707   3.696   0.276
 8284SOL    HW125751   0.607   3.701   0.273
 8284SOL    HW225752   0.740   3.646   0.195
 8285SOL     OW25753   3.337   2.858   4.881
 8285SOL    HW125754   3.269   2.835   4.811
 8285SOL    HW225755   3.313   2.813   4.967
 8286SOL     OW25756   5.448   3.305   6.591
 8286SOL    HW125757   5.452   3.223   6.648
 8286SOL    HW225758   5.370   3.361   6.618
 8287SOL     OW25759   2.146   5.322   4.276
 8287SOL    HW125760   2.237   5.297   4.244
 8287SOL    HW225761   2.078   5.288   4.212
 8288SOL     OW25762   2.901   1.866   1.559
 8288SOL    HW125763   2.888   1.816   1.644
 8288SOL    HW225764   2.998   1.885   1.546
 8289SOL     OW25765   0.585   5.959   1.634
 8289SOL    HW125766   0.597   5.859   1.630
 8289SOL    HW225767   0.670   6.004   1.606
 8290SOL     OW25768   5.956   0.925   0.980
 8290SOL    HW125769   5.901   0.872   0.915
 8290SOL    HW225770   6.050   0.892   0.979
 8291SOL     OW25771   5.150   6.320   5.906
 8291SOL    HW125772   5.211   6.246   5.877
 8291SOL    HW225773   5.183   6.358   5.992
 8292SOL     OW25774   2.495   6.181   6.678
 8292SOL    HW125775   2.492   6.126   6.761
 8292SOL    HW225776   2.582   6.169   6.632
 8293SOL     OW25777   3.345   6.759   6.842
 8293SOL    HW125778   3.344   6.765   6.942
 8293SOL    HW225779   3.340   6.664   6.814
 8294SOL     OW25780   5.728   4.556   4.545
 8294SOL    HW125781   5.657   4.587   4.482
 8294SOL    HW225782   5.813   4.541   4.494
 8295SOL     OW25783   4.989   5.692   1.216
 8295SOL    HW125784   4.934   5.618   1.178
 8295SOL    HW225785   4.950   5.780   1.190
 8296SOL     OW25786   2.459   6.786   6.482
 8296SOL    HW125787   2.473   6.801   6.384
 8296SOL    HW225788   2.400   6.706   6.495
 8297SOL     OW25789   6.723   2.457   2.265
 8297SOL    HW125790   6.819   2.463   2.293
 8297SOL    HW225791   6.666   2.438   2.346
 8298SOL     OW25792   5.770   2.567   1.132
 8298SOL    HW125793   5.678   2.607   1.134
 8298SOL    HW225794   5.783   2.511   1.214
 8299SOL     OW25795   0.071   2.273   2.086
 8299SOL    HW125796   0.090   2.368   2.062
 8299SOL    HW225797   0.063   2.265   2.186
 8300SOL     OW25798   0.768   6.058   5.141
 8300SOL    HW125799   0.681   6.022   5.106
 8300SOL    HW225800   0.756   6.154   5.165
 8301SOL     OW25801   4.447   2.080   1.691
 8301SOL    HW125802   4.496   2.012   1.746
 8301SOL    HW225803   4.371   2.035   1.643
 8302SOL     OW25804   5.807   6.159   6.342
 8302SOL    HW125805   5.827   6.128   6.435
 8302SOL    HW225806   5.716   6.128   6.315
 8303SOL     OW25807   6.508   0.909   3.956
 8303SOL    HW125808   6.455   0.991   3.978
 8303SOL    HW225809   6.577   0.932   3.887
 8304SOL     OW25810   1.284   3.156   0.756
 8304SOL    HW125811   1.237   3.214   0.689
 8304SOL    HW225812   1.252   3.178   0.848
 8305SOL     OW25813   4.197   4.947   4.567
 8305SOL    HW125814   4.203   4.949   4.467
 8305SOL    HW225815   4.263   4.881   4.603
 8306SOL     OW25816   0.185   2.886   5.244
 8306SOL    HW125817   0.111   2.903   5.179
 8306SOL    HW225818   0.152   2.829   5.319
 8307SOL     OW25819   4.600   5.195   1.695
 8307SOL    HW125820   4.687   5.225   1.656
 8307SOL    HW225821   4.526   5.247   1.654
 8308SOL     OW25822   4.104   5.992   1.285
 8308SOL    HW125823   4.071   6.074   1.331
 8308SOL    HW225824   4.161   5.939   1.348
 8309SOL     OW25825   6.251   5.536   3.434
 8309SOL    HW125826   6.193   5.517   3.513
 8309SOL    HW225827   6.275   5.633   3.432
 8310SOL     OW25828   1.021   4.059   0.828
 8310SOL    HW125829   1.043   3.964   0.806
 8310SOL    HW225830   1.068   4.086   0.912
 8311SOL     OW25831   0.816   1.492   4.803
 8311SOL    HW125832   0.911   1.476   4.777
 8311SOL    HW225833   0.766   1.406   4.802
 8312SOL     OW25834   4.195   6.217   0.957
 8312SOL    HW125835   4.280   6.183   0.996
 8312SOL    HW225836   4.125   6.224   1.028
 8313SOL     OW25837   4.960   1.208   2.588
 8313SOL    HW125838   4.875   1.261   2.593
 8313SOL    HW225839   4.972   1.157   2.673
 8314SOL     OW25840   4.646   0.355   1.045
 8314SOL    HW125841   4.566   0.323   1.096
 8314SOL    HW225842   4.647   0.455   1.043
 8315SOL     OW25843   4.232   3.488   1.238
 8315SOL    HW125844   4.289   3.426   1.183
 8315SOL    HW225845   4.151   3.514   1.186
 8316SOL     OW25846   1.025   1.876   2.116
 8316SOL    HW125847   0.966   1.894   2.195
 8316SOL    HW225848   1.121   1.876   2.145
 8317SOL     OW25849   2.598   2.452   2.456
 8317SOL    HW125850   2.593   2.514   2.378
 8317SOL    HW225851   2.559   2.497   2.537
 8318SOL     OW25852   4.106   1.148   4.331
 8318SOL    HW125853   4.044   1.177   4.404
 8318SOL    HW225854   4.098   1.049   4.317
 8319SOL     OW25855   2.922   1.560   6.520
 8319SOL    HW125856   2.872   1.475   6.506
 8319SOL    HW225857   3.020   1.542   6.510
 8320SOL     OW25858   3.307   3.406   1.529
 8320SOL    HW125859   3.291   3.310   1.507
 8320SOL    HW225860   3.387   3.439   1.479
 8321SOL     OW25861   0.059   1.247   0.270
 8321SOL    HW125862   0.023   1.188   0.342
 8321SOL    HW225863   0.059   1.342   0.301
 8322SOL     OW25864   0.080   0.658   0.681
 8322SOL    HW125865   0.101   0.705   0.767
 8322SOL    HW225866   0.134   0.574   0.676
 8323SOL     OW25867   6.026   6.450   3.098
 8323SOL    HW125868   6.042   6.483   3.005
 8323SOL    HW225869   6.088   6.497   3.161
 8324SOL     OW25870   5.865   0.868   1.620
 8324SOL    HW125871   5.876   0.913   1.709
 8324SOL    HW225872   5.798   0.919   1.566
 8325SOL     OW25873   3.343   3.529   5.282
 8325SOL    HW125874   3.420   3.473   5.251
 8325SOL    HW225875   3.271   3.529   5.213
 8326SOL     OW25876   4.861   3.427   5.287
 8326SOL    HW125877   4.804   3.469   5.216
 8326SOL    HW225878   4.806   3.414   5.370
 8327SOL     OW25879   5.894   2.312   6.158
 8327SOL    HW125880   5.798   2.306   6.184
 8327SOL    HW225881   5.949   2.258   6.221
 8328SOL     OW25882   2.719   4.083   6.375
 8328SOL    HW125883   2.687   4.164   6.327
 8328SOL    HW225884   2.759   4.019   6.310
 8329SOL     OW25885   0.013   4.058   6.161
 8329SOL    HW125886   6.978   4.138   6.180
 8329SOL    HW225887   0.063   4.032   6.244
 8330SOL     OW25888   2.676   0.095   0.547
 8330SOL    HW125889   2.602   0.028   0.546
 8330SOL    HW225890   2.668   0.154   0.466
 8331SOL     OW25891   2.619   1.073   1.328
 8331SOL    HW125892   2.698   1.133   1.323
 8331SOL    HW225893   2.638   0.988   1.279
 8332SOL     OW25894   5.199   5.140   2.319
 8332SOL    HW125895   5.189   5.166   2.223
 8332SOL    HW225896   5.140   5.196   2.376
 8333SOL     OW25897   0.130   6.577   6.774
 8333SOL    HW125898   0.198   6.627   6.828
 8333SOL    HW225899   0.165   6.561   6.682
 8334SOL     OW25900   4.421   1.610   4.067
 8334SOL    HW125901   4.436   1.526   4.118
 8334SOL    HW225902   4.456   1.599   3.974
 8335SOL     OW25903   6.313   5.822   6.289
 8335SOL    HW125904   6.375   5.878   6.345
 8335SOL    HW225905   6.356   5.802   6.201
 8336SOL     OW25906   6.869   6.833   2.603
 8336SOL    HW125907   6.826   6.786   2.680
 8336SOL    HW225908   6.966   6.848   2.624
 8337SOL     OW25909   1.115   6.302   3.021
 8337SOL    HW125910   1.036   6.350   3.058
 8337SOL    HW225911   1.192   6.311   3.086
 8338SOL     OW25912   2.183   4.976   2.124
 8338SOL    HW125913   2.241   5.002   2.047
 8338SOL    HW225914   2.137   4.889   2.104
 8339SOL     OW25915   5.884   0.618   1.502
 8339SOL    HW125916   5.815   0.635   1.432
 8339SOL    HW225917   5.899   0.702   1.554
 8340SOL     OW25918   5.482   4.139   1.258
 8340SOL    HW125919   5.509   4.097   1.172
 8340SOL    HW225920   5.387   4.113   1.279
 8341SOL     OW25921   2.413   6.854   6.804
 8341SOL    HW125922   2.492   6.916   6.805
 8341SOL    HW225923   2.338   6.896   6.856
 8342SOL     OW25924   3.493   7.021   1.695
 8342SOL    HW125925   3.419   6.971   1.652
 8342SOL    HW225926   3.561   0.025   1.625
 8343SOL     OW25927   0.842   4.852   6.198
 8343SOL    HW125928   0.804   4.943   6.182
 8343SOL    HW225929   0.892   4.822   6.117
 8344SOL     OW25930   4.465   0.345   5.333
 8344SOL    HW125931   4.501   0.415   5.394
 8344SOL    HW225932   4.405   0.387   5.265
 8345SOL     OW25933   5.226   1.787   3.529
 8345SOL    HW125934   5.161   1.860   3.552
 8345SOL    HW225935   5.189   1.731   3.455
 8346SOL     OW25936   3.129   4.253   0.084
 8346SOL    HW125937   3.154   4.336   0.034
 8346SOL    HW225938   3.037   4.265   0.123
 8347SOL     OW25939   3.696   5.959   4.643
 8347SOL    HW125940   3.671   6.055   4.655
 8347SOL    HW225941   3.795   5.951   4.633
 8348SOL     OW25942   0.945   6.572   1.732
 8348SOL    HW125943   1.042   6.581   1.710
 8348SOL    HW225944   0.902   6.662   1.729
 8349SOL     OW25945   6.109   5.843   1.518
 8349SOL    HW125946   6.167   5.902   1.463
 8349SOL    HW225947   6.163   5.804   1.593
 8350SOL     OW25948   4.884   0.834   4.576
 8350SOL    HW125949   4.820   0.758   4.567
 8350SOL    HW225950   4.894   0.858   4.673
 8351SOL     OW25951   4.682   5.360   4.465
 8351SOL    HW125952   4.620   5.382   4.390
 8351SOL    HW225953   4.771   5.402   4.447
 8352SOL     OW25954   6.878   6.545   2.695
 8352SOL    HW125955   6.816   6.599   2.752
 8352SOL    HW225956   6.964   6.531   2.744
 8353SOL     OW25957   6.537   3.469   1.481
 8353SOL    HW125958   6.541   3.568   1.495
 8353SOL    HW225959   6.455   3.446   1.430
 8354SOL     OW25960   3.853   0.434   6.855
 8354SOL    HW125961   3.910   0.513   6.876
 8354SOL    HW225962   3.849   0.420   6.757
 8355SOL     OW25963   3.022   0.591   6.953
 8355SOL    HW125964   2.967   0.539   6.888
 8355SOL    HW225965   3.116   0.599   6.919
 8356SOL     OW25966   1.561   6.237   0.539
 8356SOL    HW125967   1.536   6.332   0.557
 8356SOL    HW225968   1.659   6.231   0.518
 8357SOL     OW25969   3.921   6.791   5.932
 8357SOL    HW125970   3.837   6.769   5.883
 8357SOL    HW225971   3.997   6.736   5.895
 8358SOL     OW25972   1.435   3.194   5.401
 8358SOL    HW125973   1.367   3.146   5.346
 8358SOL    HW225974   1.487   3.127   5.455
 8359SOL     OW25975   2.755   6.197   4.594
 8359SOL    HW125976   2.669   6.148   4.579
 8359SOL    HW225977   2.791   6.175   4.685
 8360SOL     OW25978   3.860   5.959   1.571
 8360SOL    HW125979   3.820   5.967   1.479
 8360SOL    HW225980   3.852   6.046   1.619
 8361SOL     OW25981   2.180   0.464   2.814
 8361SOL    HW125982   2.238   0.389   2.782
 8361SOL    HW225983   2.173   0.534   2.742
 8362SOL     OW25984   2.749   1.828   0.791
 8362SOL    HW125985   2.762   1.873   0.703
 8362SOL    HW225986   2.651   1.823   0.812
 8363SOL     OW25987   0.445   2.411   7.015
 8363SOL    HW125988   0.380   2.356   6.962
 8363SOL    HW225989   0.500   2.467   6.954
 8364SOL     OW25990   6.383   3.496   2.822
 8364SOL    HW125991   6.283   3.502   2.822
 8364SOL    HW225992   6.418   3.535   2.908
 8365SOL     OW25993   1.571   4.410   1.442
 8365SOL    HW125994   1.570   4.508   1.460
 8365SOL    HW225995   1.587   4.394   1.344
 8366SOL     OW25996   3.566   5.237   2.101
 8366SOL    HW125997   3.493   5.304   2.112
 8366SOL    HW225998   3.567   5.175   2.179
 8367SOL     OW25999   3.993   6.006   3.884
 8367SOL    HW126000   4.081   5.958   3.883
 8367SOL    HW226001   3.952   6.001   3.793
 8368SOL     OW26002   2.404   6.596   5.813
 8368SOL    HW126003   2.350   6.675   5.841
 8368SOL    HW226004   2.422   6.600   5.715
 8369SOL     OW26005   1.842   6.937   6.579
 8369SOL    HW126006   1.821   6.996   6.657
 8369SOL    HW226007   1.872   6.994   6.502
 8370SOL     OW26008   2.491   1.942   5.448
 8370SOL    HW126009   2.434   1.902   5.519
 8370SOL    HW226010   2.505   1.875   5.375
 8371SOL     OW26011   1.783   4.012   1.215
 8371SOL    HW126012   1.782   4.004   1.115
 8371SOL    HW226013   1.834   3.935   1.254
 8372SOL     OW26014   0.343   5.811   2.676
 8372SOL    HW126015   0.428   5.814   2.728
 8372SOL    HW226016   0.299   5.901   2.677
 8373SOL     OW26017   0.994   0.201   4.275
 8373SOL    HW126018   1.059   0.266   4.315
 8373SOL    HW226019   0.906   0.246   4.261
 8374SOL     OW26020   6.893   0.644   6.372
 8374SOL    HW126021   6.875   0.740   6.391
 8374SOL    HW226022   6.979   0.616   6.417
 8375SOL     OW26023   3.322   6.898   5.603
 8375SOL    HW126024   3.353   6.817   5.653
 8375SOL    HW226025   3.257   6.870   5.532
 8376SOL     OW26026   2.634   0.140   4.245
 8376SOL    HW126027   2.594   0.048   4.248
 8376SOL    HW226028   2.569   0.206   4.281
 8377SOL     OW26029   5.757   5.514   1.511
 8377SOL    HW126030   5.781   5.534   1.606
 8377SOL    HW226031   5.840   5.488   1.461
 8378SOL     OW26032   4.758   4.527   3.132
 8378SOL    HW126033   4.826   4.542   3.060
 8378SOL    HW226034   4.804   4.504   3.218
 8379SOL     OW26035   6.413   2.473   1.153
 8379SOL    HW126036   6.487   2.408   1.170
 8379SOL    HW226037   6.423   2.511   1.060
 8380SOL     OW26038   6.541   1.493   2.750
 8380SOL    HW126039   6.538   1.576   2.694
 8380SOL    HW226040   6.465   1.494   2.815
 8381SOL     OW26041   0.360   3.999   4.908
 8381SOL    HW126042   0.309   3.992   4.994
 8381SOL    HW226043   0.371   4.096   4.884
 8382SOL     OW26044   1.103   1.014   2.079
 8382SOL    HW126045   1.195   0.980   2.056
 8382SOL    HW226046   1.103   1.050   2.172
 8383SOL     OW26047   2.454   0.512   6.198
 8383SOL    HW126048   2.467   0.549   6.290
 8383SOL    HW226049   2.420   0.419   6.204
 8384SOL     OW26050   0.187   0.165   0.347
 8384SOL    HW126051   0.205   0.262   0.332
 8384SOL    HW226052   0.088   0.149   0.341
 8385SOL     OW26053   5.871   2.797   1.441
 8385SOL    HW126054   5.925   2.876   1.412
 8385SOL    HW226055   5.922   2.713   1.423
 8386SOL     OW26056   0.961   4.175   2.447
 8386SOL    HW126057   1.049   4.169   2.400
 8386SOL    HW226058   0.931   4.083   2.474
 8387SOL     OW26059   0.920   1.190   1.446
 8387SOL    HW126060   0.846   1.248   1.481
 8387SOL    HW226061   0.990   1.249   1.406
 8388SOL     OW26062   1.672   5.872   0.537
 8388SOL    HW126063   1.607   5.845   0.608
 8388SOL    HW226064   1.736   5.940   0.575
 8389SOL     OW26065   5.972   3.849   2.476
 8389SOL    HW126066   6.055   3.797   2.456
 8389SOL    HW226067   5.995   3.933   2.524
 8390SOL     OW26068   3.646   1.290   6.705
 8390SOL    HW126069   3.606   1.224   6.642
 8390SOL    HW226070   3.631   1.383   6.671
 8391SOL     OW26071   6.127   5.686   0.907
 8391SOL    HW126072   6.096   5.719   0.818
 8391SOL    HW226073   6.199   5.618   0.895
 8392SOL     OW26074   6.302   3.632   3.408
 8392SOL    HW126075   6.241   3.640   3.487
 8392SOL    HW226076   6.397   3.630   3.438
 8393SOL     OW26077   6.071   0.835   2.712
 8393SOL    HW126078   6.053   0.744   2.672
 8393SOL    HW226079   6.164   0.837   2.749
 8394SOL     OW26080   5.590   3.468   1.917
 8394SOL    HW126081   5.625   3.422   1.998
 8394SOL    HW226082   5.490   3.469   1.919
 8395SOL     OW26083   2.779   6.714   5.863
 8395SOL    HW126084   2.748   6.625   5.895
 8395SOL    HW226085   2.709   6.783   5.882
 8396SOL     OW26086   5.172   4.931   2.657
 8396SOL    HW126087   5.192   5.022   2.694
 8396SOL    HW226088   5.230   4.863   2.702
 8397SOL     OW26089   0.816   0.794   3.589
 8397SOL    HW126090   0.744   0.821   3.652
 8397SOL    HW226091   0.781   0.794   3.495
 8398SOL     OW26092   5.258   2.361   6.012
 8398SOL    HW126093   5.179   2.365   5.952
 8398SOL    HW226094   5.283   2.454   6.041
 8399SOL     OW26095   6.303   6.159   6.928
 8399SOL    HW126096   6.231   6.160   6.997
 8399SOL    HW226097   6.347   6.249   6.925
 8400SOL     OW26098   1.832   2.438   4.018
 8400SOL    HW126099   1.911   2.395   3.974
 8400SOL    HW226100   1.862   2.488   4.099
 8401SOL     OW26101   2.330   1.196   5.505
 8401SOL    HW126102   2.276   1.245   5.573
 8401SOL    HW226103   2.403   1.145   5.551
 8402SOL     OW26104   5.538   1.789   6.203
 8402SOL    HW126105   5.499   1.779   6.111
 8402SOL    HW226106   5.477   1.845   6.259
 8403SOL     OW26107   0.734   3.173   4.389
 8403SOL    HW126108   0.716   3.198   4.484
 8403SOL    HW226109   0.648   3.169   4.338
 8404SOL     OW26110   4.171   0.143   6.365
 8404SOL    HW126111   4.231   0.221   6.383
 8404SOL    HW226112   4.212   0.084   6.295
 8405SOL     OW26113   3.126   1.910   5.999
 8405SOL    HW126114   3.188   1.832   6.011
 8405SOL    HW226115   3.038   1.889   6.042
 8406SOL     OW26116   4.339   0.051   0.459
 8406SOL    HW126117   4.278   0.121   0.423
 8406SOL    HW226118   4.336   0.053   0.559
 8407SOL     OW26119   4.395   6.340   3.439
 8407SOL    HW126120   4.460   6.387   3.380
 8407SOL    HW226121   4.338   6.280   3.384
 8408SOL     OW26122   5.621   5.070   0.628
 8408SOL    HW126123   5.550   5.114   0.685
 8408SOL    HW226124   5.691   5.137   0.606
 8409SOL     OW26125   5.030   2.384   1.848
 8409SOL    HW126126   4.989   2.395   1.757
 8409SOL    HW226127   5.057   2.288   1.860
 8410SOL     OW26128   6.400   2.161   1.936
 8410SOL    HW126129   6.425   2.197   2.026
 8410SOL    HW226130   6.375   2.065   1.943
 8411SOL     OW26131   0.404   5.974   1.131
 8411SOL    HW126132   0.407   5.987   1.230
 8411SOL    HW226133   0.417   5.877   1.109
 8412SOL     OW26134   3.856   2.165   1.175
 8412SOL    HW126135   3.800   2.194   1.253
 8412SOL    HW226136   3.797   2.126   1.104
 8413SOL     OW26137   4.515   5.733   6.266
 8413SOL    HW126138   4.587   5.664   6.273
 8413SOL    HW226139   4.488   5.744   6.171
 8414SOL     OW26140   2.259   0.999   2.896
 8414SOL    HW126141   2.257   1.079   2.956
 8414SOL    HW226142   2.316   1.019   2.816
 8415SOL     OW26143   1.887   6.701   4.045
 8415SOL    HW126144   1.793   6.700   4.077
 8415SOL    HW226145   1.910   6.791   4.010
 8416SOL     OW26146   6.456   1.836   4.645
 8416SOL    HW126147   6.552   1.859   4.659
 8416SOL    HW226148   6.441   1.810   4.550
 8417SOL     OW26149   1.837   2.796   5.140
 8417SOL    HW126150   1.871   2.724   5.201
 8417SOL    HW226151   1.892   2.797   5.057
 8418SOL     OW26152   0.084   5.536   2.158
 8418SOL    HW126153   0.037   5.464   2.208
 8418SOL    HW226154   0.183   5.526   2.168
 8419SOL     OW26155   5.916   1.521   2.651
 8419SOL    HW126156   5.969   1.502   2.733
 8419SOL    HW226157   5.833   1.572   2.676
 8420SOL     OW26158   3.220   6.498   1.633
 8420SOL    HW126159   3.126   6.533   1.630
 8420SOL    HW226160   3.284   6.573   1.614
 8421SOL     OW26161   3.159   4.972   0.413
 8421SOL    HW126162   3.127   4.887   0.370
 8421SOL    HW226163   3.193   4.952   0.505
 8422SOL     OW26164   3.896   1.832   2.657
 8422SOL    HW126165   3.836   1.752   2.667
 8422SOL    HW226166   3.840   1.914   2.647
 8423SOL     OW26167   4.521   4.414   5.494
 8423SOL    HW126168   4.436   4.364   5.509
 8423SOL    HW226169   4.598   4.355   5.518
 8424SOL     OW26170   1.994   2.093   3.146
 8424SOL    HW126171   2.012   2.010   3.095
 8424SOL    HW226172   2.049   2.168   3.110
 8425SOL     OW26173   4.159   3.672   4.680
 8425SOL    HW126174   4.067   3.675   4.718
 8425SOL    HW226175   4.164   3.732   4.600
 8426SOL     OW26176   3.653   3.140   2.728
 8426SOL    HW126177   3.646   3.048   2.690
 8426SOL    HW226178   3.608   3.205   2.667
 8427SOL     OW26179   2.974   3.815   3.412
 8427SOL    HW126180   2.966   3.839   3.315
 8427SOL    HW226181   3.026   3.730   3.420
 8428SOL     OW26182   6.895   6.565   1.963
 8428SOL    HW126183   6.843   6.645   1.934
 8428SOL    HW226184   6.851   6.524   2.044
 8429SOL     OW26185   1.686   5.381   5.648
 8429SOL    HW126186   1.633   5.300   5.673
 8429SOL    HW226187   1.771   5.353   5.603
 8430SOL     OW26188   4.040   5.072   4.124
 8430SOL    HW126189   3.941   5.075   4.110
 8430SOL    HW226190   4.083   5.019   4.051
 8431SOL     OW26191   3.888   3.714   0.516
 8431SOL    HW126192   3.822   3.706   0.591
 8431SOL    HW226193   3.967   3.767   0.547
 8432SOL     OW26194   6.778   5.577   5.094
 8432SOL    HW126195   6.732   5.590   5.183
 8432SOL    HW226196   6.839   5.654   5.077
 8433SOL     OW26197   4.066   2.962   0.885
 8433SOL    HW126198   3.968   2.979   0.874
 8433SOL    HW226199   4.081   2.900   0.962
 8434SOL     OW26200   2.612   6.421   4.559
 8434SOL    HW126201   2.646   6.512   4.583
 8434SOL    HW226202   2.681   6.352   4.582
 8435SOL     OW26203   5.386   0.195   2.792
 8435SOL    HW126204   5.414   0.240   2.707
 8435SOL    HW226205   5.365   0.264   2.861
 8436SOL     OW26206   3.061   6.231   4.040
 8436SOL    HW126207   3.159   6.252   4.036
 8436SOL    HW226208   3.033   6.184   3.955
 8437SOL     OW26209   2.247   2.775   2.572
 8437SOL    HW126210   2.237   2.676   2.582
 8437SOL    HW226211   2.270   2.797   2.478
 8438SOL     OW26212   2.469   4.537   2.731
 8438SOL    HW126213   2.563   4.569   2.739
 8438SOL    HW226214   2.445   4.485   2.813
 8439SOL     OW26215   6.575   5.141   2.955
 8439SOL    HW126216   6.539   5.164   3.045
 8439SOL    HW226217   6.636   5.213   2.923
 8440SOL     OW26218   2.358   2.444   3.620
 8440SOL    HW126219   2.376   2.346   3.616
 8440SOL    HW226220   2.272   2.464   3.573
 8441SOL     OW26221   5.770   6.096   6.042
 8441SOL    HW126222   5.815   6.051   5.965
 8441SOL    HW226223   5.732   6.027   6.103
 8442SOL     OW26224   3.744   1.084   4.951
 8442SOL    HW126225   3.721   1.171   4.908
 8442SOL    HW226226   3.773   1.019   4.880
 8443SOL     OW26227   2.283   5.078   3.626
 8443SOL    HW126228   2.361   5.016   3.637
 8443SOL    HW226229   2.264   5.089   3.528
 8444SOL     OW26230   3.064   6.908   3.571
 8444SOL    HW126231   3.034   6.997   3.537
 8444SOL    HW226232   3.159   6.915   3.603
 8445SOL     OW26233   2.925   0.454   0.635
 8445SOL    HW126234   2.963   0.417   0.550
 8445SOL    HW226235   2.885   0.379   0.688
 8446SOL     OW26236   6.554   5.828   5.151
 8446SOL    HW126237   6.551   5.739   5.195
 8446SOL    HW226238   6.506   5.895   5.207
 8447SOL     OW26239   3.719   1.312   1.440
 8447SOL    HW126240   3.633   1.354   1.410
 8447SOL    HW226241   3.785   1.316   1.365
 8448SOL     OW26242   4.865   6.267   3.400
 8448SOL    HW126243   4.879   6.235   3.306
 8448SOL    HW226244   4.945   6.318   3.431
 8449SOL     OW26245   0.497   3.413   3.614
 8449SOL    HW126246   0.534   3.456   3.697
 8449SOL    HW226247   0.551   3.332   3.591
 8450SOL     OW26248   0.444   0.967   1.354
 8450SOL    HW126249   0.398   0.888   1.314
 8450SOL    HW226250   0.461   0.950   1.451
 8451SOL     OW26251   3.004   0.887   0.574
 8451SOL    HW126252   3.082   0.889   0.636
 8451SOL    HW226253   2.993   0.977   0.532
 8452SOL     OW26254   5.094   2.791   4.767
 8452SOL    HW126255   5.004   2.834   4.758
 8452SOL    HW226256   5.155   2.851   4.818
 8453SOL     OW26257   6.999   5.442   0.134
 8453SOL    HW126258   6.975   5.493   0.216
 8453SOL    HW226259   6.931   5.371   0.116
 8454SOL     OW26260   6.930   5.043   0.142
 8454SOL    HW126261   0.000   5.053   0.180
 8454SOL    HW226262   6.869   5.112   0.180
 8455SOL     OW26263   6.599   2.371   3.275
 8455SOL    HW126264   6.564   2.298   3.216
 8455SOL    HW226265   6.699   2.372   3.271
 8456SOL     OW26266   4.649   0.605   3.608
 8456SOL    HW126267   4.564   0.559   3.634
 8456SOL    HW226268   4.722   0.578   3.672
 8457SOL     OW26269   6.383   6.119   4.950
 8457SOL    HW126270   6.420   6.184   4.883
 8457SOL    HW226271   6.419   6.140   5.041
 8458SOL     OW26272   1.483   0.251   0.655
 8458SOL    HW126273   1.423   0.188   0.605
 8458SOL    HW226274   1.436   0.284   0.736
 8459SOL     OW26275   1.805   5.816   3.000
 8459SOL    HW126276   1.827   5.880   3.074
 8459SOL    HW226277   1.708   5.822   2.978
 8460SOL     OW26278   4.551   3.847   5.333
 8460SOL    HW126279   4.514   3.815   5.245
 8460SOL    HW226280   4.629   3.790   5.358
 8461SOL     OW26281   1.153   2.355   5.240
 8461SOL    HW126282   1.163   2.300   5.158
 8461SOL    HW226283   1.201   2.312   5.316
 8462SOL     OW26284   3.079   1.599   0.278
 8462SOL    HW126285   3.027   1.522   0.242
 8462SOL    HW226286   3.111   1.578   0.370
 8463SOL     OW26287   6.513   0.310   1.883
 8463SOL    HW126288   6.495   0.235   1.819
 8463SOL    HW226289   6.567   0.276   1.960
 8464SOL     OW26290   5.727   4.187   4.072
 8464SOL    HW126291   5.656   4.127   4.036
 8464SOL    HW226292   5.687   4.250   4.139
 8465SOL     OW26293   1.692   2.232   0.843
 8465SOL    HW126294   1.700   2.303   0.914
 8465SOL    HW226295   1.771   2.171   0.848
 8466SOL     OW26296   1.271   6.250   4.139
 8466SOL    HW126297   1.333   6.296   4.076
 8466SOL    HW226298   1.274   6.151   4.122
 8467SOL     OW26299   2.984   5.915   0.642
 8467SOL    HW126300   3.001   5.833   0.698
 8467SOL    HW226301   3.041   5.911   0.560
 8468SOL     OW26302   2.914   1.631   0.888
 8468SOL    HW126303   2.931   1.651   0.985
 8468SOL    HW226304   2.837   1.686   0.856
 8469SOL     OW26305   3.176   2.796   6.602
 8469SOL    HW126306   3.173   2.707   6.649
 8469SOL    HW226307   3.191   2.781   6.504
 8470SOL     OW26308   2.434   3.194   1.407
 8470SOL    HW126309   2.445   3.233   1.498
 8470SOL    HW226310   2.422   3.095   1.415
 8471SOL     OW26311   2.506   0.731   3.535
 8471SOL    HW126312   2.423   0.700   3.489
 8471SOL    HW226313   2.585   0.715   3.476
 8472SOL     OW26314   0.392   6.977   4.267
 8472SOL    HW126315   0.370   6.966   4.170
 8472SOL    HW226316   0.368   0.048   4.297
 8473SOL     OW26317   0.134   5.479   6.840
 8473SOL    HW126318   0.140   5.484   6.940
 8473SOL    HW226319   0.188   5.402   6.806
 8474SOL     OW26320   3.102   3.131   1.866
 8474SOL    HW126321   3.066   3.157   1.776
 8474SOL    HW226322   3.136   3.213   1.913
 8475SOL     OW26323   6.851   1.459   2.726
 8475SOL    HW126324   6.753   1.443   2.730
 8475SOL    HW226325   6.873   1.507   2.640
 8476SOL     OW26326   6.352   0.470   2.016
 8476SOL    HW126327   6.408   0.403   1.969
 8476SOL    HW226328   6.310   0.531   1.949
 8477SOL     OW26329   2.909   6.251   1.356
 8477SOL    HW126330   2.913   6.309   1.274
 8477SOL    HW226331   2.829   6.276   1.410
 8478SOL     OW26332   1.408   0.628   5.641
 8478SOL    HW126333   1.366   0.668   5.559
 8478SOL    HW226334   1.340   0.574   5.690
 8479SOL     OW26335   5.831   1.281   0.376
 8479SOL    HW126336   5.762   1.211   0.360
 8479SOL    HW226337   5.886   1.257   0.456
 8480SOL     OW26338   3.252   1.031   1.158
 8480SOL    HW126339   3.341   1.051   1.116
 8480SOL    HW226340   3.266   0.979   1.242
 8481SOL     OW26341   4.118   1.672   3.730
 8481SOL    HW126342   4.201   1.689   3.675
 8481SOL    HW226343   4.084   1.758   3.766
 8482SOL     OW26344   2.259   0.240   2.064
 8482SOL    HW126345   2.298   0.323   2.024
 8482SOL    HW226346   2.200   0.195   1.996
 8483SOL     OW26347   3.217   5.765   2.349
 8483SOL    HW126348   3.261   5.788   2.262
 8483SOL    HW226349   3.157   5.839   2.377
 8484SOL     OW26350   7.016   4.728   2.909
 8484SOL    HW126351   0.014   4.792   2.834
 8484SOL    HW226352   0.027   4.767   2.995
 8485SOL     OW26353   1.766   3.852   6.885
 8485SOL    HW126354   1.728   3.890   6.801
 8485SOL    HW226355   1.796   3.758   6.869
 8486SOL     OW26356   5.382   1.581   2.476
 8486SOL    HW126357   5.393   1.659   2.538
 8486SOL    HW226358   5.437   1.596   2.394
 8487SOL     OW26359   5.162   0.159   0.628
 8487SOL    HW126360   5.211   0.118   0.705
 8487SOL    HW226361   5.225   0.216   0.575
 8488SOL     OW26362   5.699   5.366   5.071
 8488SOL    HW126363   5.694   5.431   5.147
 8488SOL    HW226364   5.793   5.363   5.037
 8489SOL     OW26365   5.916   6.636   1.110
 8489SOL    HW126366   5.844   6.686   1.063
 8489SOL    HW226367   5.880   6.599   1.196
 8490SOL     OW26368   4.767   6.036   3.516
 8490SOL    HW126369   4.716   6.036   3.602
 8490SOL    HW226370   4.798   6.129   3.495
 8491SOL     OW26371   2.789   0.571   1.711
 8491SOL    HW126372   2.758   0.619   1.628
 8491SOL    HW226373   2.815   0.477   1.687
 8492SOL     OW26374   4.580   3.771   5.739
 8492SOL    HW126375   4.515   3.813   5.676
 8492SOL    HW226376   4.539   3.765   5.830
 8493SOL     OW26377   3.367   2.038   0.206
 8493SOL    HW126378   3.293   1.980   0.239
 8493SOL    HW226379   3.453   1.986   0.203
 8494SOL     OW26380   1.713   4.680   6.292
 8494SOL    HW126381   1.720   4.653   6.388
 8494SOL    HW226382   1.673   4.605   6.239
 8495SOL     OW26383   6.950   3.414   0.749
 8495SOL    HW126384   6.995   3.413   0.660
 8495SOL    HW226385   6.901   3.329   0.763
 8496SOL     OW26386   0.525   2.257   3.309
 8496SOL    HW126387   0.530   2.345   3.357
 8496SOL    HW226388   0.457   2.198   3.351
 8497SOL     OW26389   5.500   6.375   4.118
 8497SOL    HW126390   5.563   6.432   4.064
 8497SOL    HW226391   5.412   6.371   4.071
 8498SOL     OW26392   0.233   6.516   1.648
 8498SOL    HW126393   0.226   6.426   1.606
 8498SOL    HW226394   0.142   6.559   1.651
 8499SOL     OW26395   2.247   5.427   5.673
 8499SOL    HW126396   2.279   5.419   5.768
 8499SOL    HW226397   2.315   5.479   5.620
 8500SOL     OW26398   2.362   0.723   5.760
 8500SOL    HW126399   2.317   0.809   5.739
 8500SOL    HW226400   2.460   0.739   5.776
 8501SOL     OW26401   1.797   2.234   0.094
 8501SOL    HW126402   1.855   2.197   0.021
 8501SOL    HW226403   1.828   2.199   0.182
 8502SOL     OW26404   0.593   5.269   1.321
 8502SOL    HW126405   0.505   5.224   1.336
 8502SOL    HW226406   0.645   5.220   1.251
 8503SOL     OW26407   1.264   5.182   2.782
 8503SOL    HW126408   1.284   5.099   2.730
 8503SOL    HW226409   1.165   5.187   2.799
 8504SOL     OW26410   1.636   6.021   3.348
 8504SOL    HW126411   1.550   6.044   3.392
 8504SOL    HW226412   1.642   5.922   3.336
 8505SOL     OW26413   4.999   4.216   3.235
 8505SOL    HW126414   4.904   4.234   3.261
 8505SOL    HW226415   5.012   4.241   3.139
 8506SOL     OW26416   0.790   7.018   0.608
 8506SOL    HW126417   0.838   6.930   0.598
 8506SOL    HW226418   0.694   7.006   0.583
 8507SOL     OW26419   2.236   0.935   5.425
 8507SOL    HW126420   2.319   0.917   5.477
 8507SOL    HW226421   2.163   0.962   5.488
 8508SOL     OW26422   0.246   3.081   4.901
 8508SOL    HW126423   0.202   3.158   4.947
 8508SOL    HW226424   0.332   3.059   4.947
 8509SOL     OW26425   6.360   1.877   4.889
 8509SOL    HW126426   6.363   1.878   4.789
 8509SOL    HW226427   6.265   1.884   4.920
 8510SOL     OW26428   6.722   5.230   3.296
 8510SOL    HW126429   6.778   5.279   3.362
 8510SOL    HW226430   6.670   5.158   3.342
 8511SOL     OW26431   5.723   4.217   1.902
 8511SOL    HW126432   5.794   4.260   1.845
 8511SOL    HW226433   5.743   4.236   1.999
 8512SOL     OW26434   3.833   1.957   0.329
 8512SOL    HW126435   3.887   2.026   0.281
 8512SOL    HW226436   3.889   1.916   0.401
 8513SOL     OW26437   4.825   4.104   1.130
 8513SOL    HW126438   4.905   4.048   1.109
 8513SOL    HW226439   4.785   4.075   1.217
 8514SOL     OW26440   2.348   2.777   3.354
 8514SOL    HW126441   2.409   2.757   3.431
 8514SOL    HW226442   2.386   2.738   3.270
 8515SOL     OW26443   0.491   1.331   6.816
 8515SOL    HW126444   0.464   1.427   6.820
 8515SOL    HW226445   0.414   1.272   6.840
 8516SOL     OW26446   6.403   3.110   1.847
 8516SOL    HW126447   6.380   3.203   1.876
 8516SOL    HW226448   6.416   3.108   1.748
 8517SOL     OW26449   2.063   2.552   6.182
 8517SOL    HW126450   2.024   2.513   6.265
 8517SOL    HW226451   2.073   2.481   6.113
 8518SOL     OW26452   5.366   4.172   5.660
 8518SOL    HW126453   5.418   4.244   5.614
 8518SOL    HW226454   5.428   4.114   5.713
 8519SOL     OW26455   0.461   4.679   0.787
 8519SOL    HW126456   0.474   4.580   0.793
 8519SOL    HW226457   0.525   4.717   0.720
 8520SOL     OW26458   3.184   3.224   5.631
 8520SOL    HW126459   3.204   3.316   5.598
 8520SOL    HW226460   3.197   3.158   5.556
 8521SOL     OW26461   1.881   5.907   5.448
 8521SOL    HW126462   1.963   5.962   5.460
 8521SOL    HW226463   1.904   5.810   5.459
 8522SOL     OW26464   0.252   6.977   1.355
 8522SOL    HW126465   0.190   0.011   1.411
 8522SOL    HW226466   0.288   6.902   1.409
 8523SOL     OW26467   2.799   6.683   6.866
 8523SOL    HW126468   2.800   6.636   6.954
 8523SOL    HW226469   2.725   6.646   6.809
 8524SOL     OW26470   1.196   4.005   5.004
 8524SOL    HW126471   1.237   4.004   5.096
 8524SOL    HW226472   1.214   4.093   4.961
 8525SOL     OW26473   5.809   5.168   1.160
 8525SOL    HW126474   5.842   5.173   1.066
 8525SOL    HW226475   5.723   5.218   1.168
 8526SOL     OW26476   3.365   6.740   0.836
 8526SOL    HW126477   3.360   6.819   0.775
 8526SOL    HW226478   3.413   6.665   0.790
 8527SOL     OW26479   3.700   0.511   0.221
 8527SOL    HW126480   3.661   0.460   0.144
 8527SOL    HW226481   3.635   0.580   0.251
 8528SOL     OW26482   3.714   1.511   0.933
 8528SOL    HW126483   3.742   1.569   1.009
 8528SOL    HW226484   3.783   1.441   0.916
 8529SOL     OW26485   1.257   6.676   0.324
 8529SOL    HW126486   1.219   6.741   0.390
 8529SOL    HW226487   1.249   6.714   0.232
 8530SOL     OW26488   4.057   3.493   5.059
 8530SOL    HW126489   4.082   3.586   5.032
 8530SOL    HW226490   3.960   3.477   5.037
 8531SOL     OW26491   6.990   5.747   2.451
 8531SOL    HW126492   0.058   5.737   2.407
 8531SOL    HW226493   6.996   5.816   2.523
 8532SOL     OW26494   3.884   6.049   4.352
 8532SOL    HW126495   3.805   6.106   4.378
 8532SOL    HW226496   3.858   5.989   4.276
 8533SOL     OW26497   1.684   6.078   0.320
 8533SOL    HW126498   1.747   6.000   0.317
 8533SOL    HW226499   1.629   6.072   0.404
 8534SOL     OW26500   4.803   2.932   3.928
 8534SOL    HW126501   4.727   2.996   3.918
 8534SOL    HW226502   4.886   2.973   3.889
 8535SOL     OW26503   5.834   1.315   4.185
 8535SOL    HW126504   5.887   1.230   4.190
 8535SOL    HW226505   5.834   1.360   4.275
 8536SOL     OW26506   0.882   1.705   5.023
 8536SOL    HW126507   0.959   1.693   5.085
 8536SOL    HW226508   0.873   1.624   4.965
 8537SOL     OW26509   5.479   1.922   3.559
 8537SOL    HW126510   5.414   1.858   3.520
 8537SOL    HW226511   5.528   1.878   3.634
 8538SOL     OW26512   2.112   1.374   6.890
 8538SOL    HW126513   2.118   1.301   6.958
 8538SOL    HW226514   2.201   1.385   6.846
 8539SOL     OW26515   6.765   1.763   2.329
 8539SOL    HW126516   6.796   1.832   2.264
 8539SOL    HW226517   6.726   1.686   2.279
 8540SOL     OW26518   5.805   0.280   6.538
 8540SOL    HW126519   5.749   0.357   6.507
 8540SOL    HW226520   5.816   0.215   6.463
 8541SOL     OW26521   3.374   1.789   3.439
 8541SOL    HW126522   3.395   1.699   3.477
 8541SOL    HW226523   3.351   1.853   3.512
 8542SOL     OW26524   3.917   4.497   6.008
 8542SOL    HW126525   3.822   4.492   6.038
 8542SOL    HW226526   3.969   4.553   6.072
 8543SOL     OW26527   1.954   1.443   1.636
 8543SOL    HW126528   1.975   1.449   1.539
 8543SOL    HW226529   1.938   1.534   1.673
 8544SOL     OW26530   5.818   3.145   4.404
 8544SOL    HW126531   5.915   3.132   4.422
 8544SOL    HW226532   5.798   3.122   4.308
 8545SOL     OW26533   4.525   0.252   5.630
 8545SOL    HW126534   4.502   0.155   5.637
 8545SOL    HW226535   4.441   0.306   5.625
 8546SOL     OW26536   5.633   2.583   4.256
 8546SOL    HW126537   5.591   2.554   4.341
 8546SOL    HW226538   5.683   2.506   4.215
 8547SOL     OW26539   0.834   6.733   6.315
 8547SOL    HW126540   0.799   6.794   6.245
 8547SOL    HW226541   0.768   6.660   6.332
 8548SOL     OW26542   5.994   2.728   4.885
 8548SOL    HW126543   5.969   2.733   4.982
 8548SOL    HW226544   5.912   2.732   4.829
 8549SOL     OW26545   0.573   3.532   4.121
 8549SOL    HW126546   0.619   3.478   4.192
 8549SOL    HW226547   0.474   3.528   4.135
 8550SOL     OW26548   2.200   4.764   6.542
 8550SOL    HW126549   2.136   4.704   6.590
 8550SOL    HW226550   2.275   4.709   6.504
 8551SOL     OW26551   3.737   4.244   6.565
 8551SOL    HW126552   3.783   4.160   6.536
 8551SOL    HW226553   3.642   4.224   6.587
 8552SOL     OW26554   2.954   6.033   4.222
 8552SOL    HW126555   2.933   5.946   4.177
 8552SOL    HW226556   3.003   6.093   4.158
 8553SOL     OW26557   5.518   5.792   6.806
 8553SOL    HW126558   5.557   5.738   6.731
 8553SOL    HW226559   5.424   5.763   6.824
 8554SOL     OW26560   0.573   5.003   0.337
 8554SOL    HW126561   0.550   5.014   0.433
 8554SOL    HW226562   0.662   4.957   0.329
 8555SOL     OW26563   1.173   0.525   3.015
 8555SOL    HW126564   1.183   0.435   3.059
 8555SOL    HW226565   1.130   0.514   2.926
 8556SOL     OW26566   0.802   6.731   3.214
 8556SOL    HW126567   0.878   6.796   3.204
 8556SOL    HW226568   0.829   6.642   3.179
 8557SOL     OW26569   6.682   1.517   2.194
 8557SOL    HW126570   6.679   1.417   2.181
 8557SOL    HW226571   6.679   1.562   2.105
 8558SOL     OW26572   2.616   5.539   2.934
 8558SOL    HW126573   2.560   5.508   2.857
 8558SOL    HW226574   2.681   5.608   2.902
 8559SOL     OW26575   6.334   0.816   2.435
 8559SOL    HW126576   6.335   0.736   2.494
 8559SOL    HW226577   6.391   0.799   2.355
 8560SOL     OW26578   6.676   0.231   1.262
 8560SOL    HW126579   6.755   0.217   1.322
 8560SOL    HW226580   6.639   0.323   1.276
 8561SOL     OW26581   3.592   6.344   2.487
 8561SOL    HW126582   3.493   6.350   2.500
 8561SOL    HW226583   3.639   6.380   2.568
 8562SOL     OW26584   5.300   0.110   4.774
 8562SOL    HW126585   5.213   0.070   4.747
 8562SOL    HW226586   5.375   0.053   4.741
 8563SOL     OW26587   2.479   3.092   6.640
 8563SOL    HW126588   2.380   3.093   6.655
 8563SOL    HW226589   2.499   3.042   6.556
 8564SOL     OW26590   2.234   0.921   3.313
 8564SOL    HW126591   2.243   0.857   3.388
 8564SOL    HW226592   2.309   0.986   3.315
 8565SOL     OW26593   4.570   0.142   1.356
 8565SOL    HW126594   4.498   0.076   1.380
 8565SOL    HW226595   4.619   0.169   1.438
 8566SOL     OW26596   0.988   1.287   2.474
 8566SOL    HW126597   0.917   1.352   2.500
 8566SOL    HW226598   0.998   1.285   2.374
 8567SOL     OW26599   6.627   1.600   1.577
 8567SOL    HW126600   6.563   1.656   1.525
 8567SOL    HW226601   6.699   1.566   1.516
 8568SOL     OW26602   4.663   1.406   6.625
 8568SOL    HW126603   4.640   1.489   6.573
 8568SOL    HW226604   4.664   1.428   6.723
 8569SOL     OW26605   4.895   1.632   5.499
 8569SOL    HW126606   4.809   1.667   5.463
 8569SOL    HW226607   4.909   1.666   5.592
 8570SOL     OW26608   0.866   2.637   6.111
 8570SOL    HW126609   0.794   2.696   6.149
 8570SOL    HW226610   0.927   2.692   6.054
 8571SOL     OW26611   6.946   5.227   5.674
 8571SOL    HW126612   0.005   5.236   5.733
 8571SOL    HW226613   6.866   5.205   5.729
 8572SOL     OW26614   2.666   5.102   5.823
 8572SOL    HW126615   2.754   5.089   5.779
 8572SOL    HW226616   2.611   5.019   5.813
 8573SOL     OW26617   3.740   6.189   6.602
 8573SOL    HW126618   3.707   6.097   6.623
 8573SOL    HW226619   3.672   6.237   6.546
 8574SOL     OW26620   0.372   4.770   5.454
 8574SOL    HW126621   0.372   4.858   5.406
 8574SOL    HW226622   0.320   4.703   5.400
 8575SOL     OW26623   2.852   2.562   0.181
 8575SOL    HW126624   2.784   2.571   0.254
 8575SOL    HW226625   2.841   2.474   0.136
 8576SOL     OW26626   0.678   6.724   1.000
 8576SOL    HW126627   0.720   6.636   1.019
 8576SOL    HW226628   0.748   6.795   0.999
 8577SOL     OW26629   6.003   5.317   4.497
 8577SOL    HW126630   6.038   5.344   4.587
 8577SOL    HW226631   5.905   5.299   4.504
 8578SOL     OW26632   4.998   0.727   3.915
 8578SOL    HW126633   5.079   0.736   3.858
 8578SOL    HW226634   4.971   0.816   3.951
 8579SOL     OW26635   1.477   5.740   3.571
 8579SOL    HW126636   1.418   5.673   3.527
 8579SOL    HW226637   1.552   5.692   3.617
 8580SOL     OW26638   2.601   6.941   1.943
 8580SOL    HW126639   2.539   7.020   1.935
 8580SOL    HW226640   2.568   6.881   2.016
 8581SOL     OW26641   3.231   2.657   1.793
 8581SOL    HW126642   3.313   2.676   1.846
 8581SOL    HW226643   3.233   2.562   1.760
 8582SOL     OW26644   4.707   4.719   2.474
 8582SOL    HW126645   4.681   4.623   2.484
 8582SOL    HW226646   4.802   4.731   2.503
 8583SOL     OW26647   5.823   0.962   6.085
 8583SOL    HW126648   5.837   0.914   5.999
 8583SOL    HW226649   5.726   0.958   6.110
 8584SOL     OW26650   0.353   4.265   6.911
 8584SOL    HW126651   0.428   4.294   6.971
 8584SOL    HW226652   0.299   4.344   6.884
 8585SOL     OW26653   6.657   6.952   0.513
 8585SOL    HW126654   6.696   6.935   0.423
 8585SOL    HW226655   6.642   6.865   0.560
 8586SOL     OW26656   2.648   6.655   3.166
 8586SOL    HW126657   2.705   6.574   3.150
 8586SOL    HW226658   2.577   6.633   3.233
 8587SOL     OW26659   0.770   0.030   2.921
 8587SOL    HW126660   0.828   0.081   2.857
 8587SOL    HW226661   0.674   0.040   2.892
 8588SOL     OW26662   2.919   0.928   0.268
 8588SOL    HW126663   2.864   0.849   0.292
 8588SOL    HW226664   2.881   0.972   0.186
 8589SOL     OW26665   4.188   1.836   4.478
 8589SOL    HW126666   4.142   1.874   4.558
 8589SOL    HW226667   4.287   1.840   4.491
 8590SOL     OW26668   6.621   6.036   4.246
 8590SOL    HW126669   6.525   6.030   4.276
 8590SOL    HW226670   6.677   5.977   4.304
 8591SOL     OW26671   0.515   4.450   6.473
 8591SOL    HW126672   0.524   4.387   6.551
 8591SOL    HW226673   0.472   4.535   6.504
 8592SOL     OW26674   6.928   4.133   6.954
 8592SOL    HW126675   6.950   4.229   6.969
 8592SOL    HW226676   6.904   4.090   0.020
 8593SOL     OW26677   1.220   6.803   1.947
 8593SOL    HW126678   1.319   6.820   1.951
 8593SOL    HW226679   1.192   6.753   2.029
 8594SOL     OW26680   3.437   3.886   4.963
 8594SOL    HW126681   3.424   3.789   4.946
 8594SOL    HW226682   3.527   3.914   4.929
 8595SOL     OW26683   2.250   1.426   2.389
 8595SOL    HW126684   2.300   1.391   2.310
 8595SOL    HW226685   2.242   1.354   2.458
 8596SOL     OW26686   6.010   5.329   2.265
 8596SOL    HW126687   5.944   5.354   2.336
 8596SOL    HW226688   6.087   5.281   2.308
 8597SOL     OW26689   4.020   2.019   1.444
 8597SOL    HW126690   4.074   2.015   1.360
 8597SOL    HW226691   3.986   2.112   1.458
 8598SOL     OW26692   0.229   5.388   1.224
 8598SOL    HW126693   0.130   5.406   1.228
 8598SOL    HW226694   0.274   5.434   1.301
 8599SOL     OW26695   1.129   3.393   3.699
 8599SOL    HW126696   1.135   3.296   3.678
 8599SOL    HW226697   1.159   3.408   3.794
 8600SOL     OW26698   5.712   4.958   6.544
 8600SOL    HW126699   5.692   4.865   6.513
 8600SOL    HW226700   5.782   4.998   6.485
 8601SOL     OW26701   0.617   1.017   4.770
 8601SOL    HW126702   0.575   1.026   4.860
 8601SOL    HW226703   0.644   1.107   4.737
 8602SOL     OW26704   2.202   6.574   2.598
 8602SOL    HW126705   2.232   6.488   2.556
 8602SOL    HW226706   2.236   6.651   2.545
 8603SOL     OW26707   3.747   4.119   0.551
 8603SOL    HW126708   3.830   4.079   0.590
 8603SOL    HW226709   3.765   4.149   0.458
 8604SOL     OW26710   6.079   2.836   3.716
 8604SOL    HW126711   6.141   2.759   3.725
 8604SOL    HW226712   6.035   2.833   3.626
 8605SOL     OW26713   3.413   4.944   4.174
 8605SOL    HW126714   3.345   4.906   4.236
 8605SOL    HW226715   3.504   4.930   4.212
 8606SOL     OW26716   2.351   4.533   5.883
 8606SOL    HW126717   2.296   4.596   5.829
 8606SOL    HW226718   2.367   4.449   5.831
 8607SOL     OW26719   3.215   5.042   1.113
 8607SOL    HW126720   3.208   5.123   1.171
 8607SOL    HW226721   3.277   4.976   1.156
 8608SOL     OW26722   4.817   4.874   3.196
 8608SOL    HW126723   4.854   4.924   3.118
 8608SOL    HW226724   4.734   4.920   3.229
 8609SOL     OW26725   4.213   0.881   3.977
 8609SOL    HW126726   4.155   0.932   3.913
 8609SOL    HW226727   4.167   0.796   4.002
 8610SOL     OW26728   1.288   0.153   2.926
 8610SOL    HW126729   1.284   0.184   2.831
 8610SOL    HW226730   1.322   0.060   2.930
 8611SOL     OW26731   1.704   2.077   3.987
 8611SOL    HW126732   1.672   2.170   3.969
 8611SOL    HW226733   1.801   2.080   4.012
 8612SOL     OW26734   3.159   3.236   6.304
 8612SOL    HW126735   3.095   3.305   6.271
 8612SOL    HW226736   3.117   3.145   6.295
 8613SOL     OW26737   2.336   1.327   1.523
 8613SOL    HW126738   2.353   1.423   1.499
 8613SOL    HW226739   2.354   1.269   1.444
 8614SOL     OW26740   0.836   3.938   2.686
 8614SOL    HW126741   0.846   3.894   2.597
 8614SOL    HW226742   0.926   3.961   2.723
 8615SOL     OW26743   4.639   1.976   4.950
 8615SOL    HW126744   4.714   2.013   4.896
 8615SOL    HW226745   4.554   2.023   4.926
 8616SOL     OW26746   0.623   4.824   0.622
 8616SOL    HW126747   0.696   4.862   0.565
 8616SOL    HW226748   0.539   4.875   0.606
 8617SOL     OW26749   6.371   1.622   0.148
 8617SOL    HW126750   6.280   1.661   0.164
 8617SOL    HW226751   6.363   1.539   0.093
 8618SOL     OW26752   4.934   0.232   1.479
 8618SOL    HW126753   5.006   0.171   1.445
 8618SOL    HW226754   4.845   0.187   1.468
 8619SOL     OW26755   3.512   4.659   0.238
 8619SOL    HW126756   3.566   4.633   0.318
 8619SOL    HW226757   3.474   4.576   0.196
 8620SOL     OW26758   6.321   6.807   3.099
 8620SOL    HW126759   6.233   6.845   3.072
 8620SOL    HW226760   6.332   6.815   3.198
 8621SOL     OW26761   5.991   1.412   3.508
 8621SOL    HW126762   5.930   1.353   3.456
 8621SOL    HW226763   6.051   1.462   3.445
 8622SOL     OW26764   4.443   4.494   0.408
 8622SOL    HW126765   4.345   4.513   0.410
 8622SOL    HW226766   4.476   4.497   0.314
 8623SOL     OW26767   0.617   4.290   3.236
 8623SOL    HW126768   0.671   4.324   3.313
 8623SOL    HW226769   0.523   4.324   3.244
 8624SOL     OW26770   1.139   4.828   3.821
 8624SOL    HW126771   1.094   4.795   3.738
 8624SOL    HW226772   1.150   4.752   3.885
 8625SOL     OW26773   4.592   0.535   4.042
 8625SOL    HW126774   4.532   0.588   3.981
 8625SOL    HW226775   4.649   0.597   4.094
 8626SOL     OW26776   4.093   3.315   4.517
 8626SOL    HW126777   4.046   3.402   4.506
 8626SOL    HW226778   4.152   3.318   4.597
 8627SOL     OW26779   1.225   0.250   2.690
 8627SOL    HW126780   1.221   0.155   2.659
 8627SOL    HW226781   1.305   0.294   2.652
 8628SOL     OW26782   6.339   6.844   1.257
 8628SOL    HW126783   6.247   6.838   1.296
 8628SOL    HW226784   6.368   6.940   1.256
 8629SOL     OW26785   1.565   5.124   4.614
 8629SOL    HW126786   1.523   5.068   4.685
 8629SOL    HW226787   1.648   5.079   4.581
 8630SOL     OW26788   6.019   4.058   4.975
 8630SOL    HW126789   6.031   4.034   4.879
 8630SOL    HW226790   5.960   3.990   5.019
 8631SOL     OW26791   4.108   6.331   6.360
 8631SOL    HW126792   4.085   6.404   6.424
 8631SOL    HW226793   4.041   6.257   6.369
 8632SOL     OW26794   3.588   6.234   3.881
 8632SOL    HW126795   3.603   6.150   3.829
 8632SOL    HW226796   3.608   6.218   3.977
 8633SOL     OW26797   5.019   1.241   4.197
 8633SOL    HW126798   5.038   1.339   4.185
 8633SOL    HW226799   5.019   1.219   4.294
 8634SOL     OW26800   6.542   2.931   0.940
 8634SOL    HW126801   6.535   2.940   1.039
 8634SOL    HW226802   6.537   2.835   0.915
 8635SOL     OW26803   6.027   3.833   5.891
 8635SOL    HW126804   6.031   3.824   5.792
 8635SOL    HW226805   6.109   3.879   5.925
 8636SOL     OW26806   5.874   5.240   6.882
 8636SOL    HW126807   5.862   5.141   6.881
 8636SOL    HW226808   5.785   5.285   6.875
 8637SOL     OW26809   1.683   0.417   0.620
 8637SOL    HW126810   1.600   0.362   0.632
 8637SOL    HW226811   1.658   0.509   0.591
 8638SOL     OW26812   2.112   3.245   0.255
 8638SOL    HW126813   2.069   3.234   0.165
 8638SOL    HW226814   2.044   3.273   0.322
 8639SOL     OW26815   5.812   2.890   1.678
 8639SOL    HW126816   5.732   2.833   1.699
 8639SOL    HW226817   5.864   2.848   1.604
 8640SOL     OW26818   4.920   4.142   0.584
 8640SOL    HW126819   4.898   4.217   0.523
 8640SOL    HW226820   4.972   4.176   0.662
 8641SOL     OW26821   6.722   3.935   4.439
 8641SOL    HW126822   6.703   3.898   4.348
 8641SOL    HW226823   6.820   3.945   4.452
 8642SOL     OW26824   4.112   0.219   2.482
 8642SOL    HW126825   4.179   0.157   2.443
 8642SOL    HW226826   4.035   0.230   2.418
 8643SOL     OW26827   4.038   6.631   0.046
 8643SOL    HW126828   4.138   6.638   0.045
 8643SOL    HW226829   3.999   6.723   0.046
 8644SOL     OW26830   4.869   2.120   5.834
 8644SOL    HW126831   4.953   2.105   5.885
 8644SOL    HW226832   4.888   2.121   5.736
 8645SOL     OW26833   5.526   4.777   1.847
 8645SOL    HW126834   5.437   4.737   1.825
 8645SOL    HW226835   5.581   4.710   1.898
 8646SOL     OW26836   5.972   1.159   1.111
 8646SOL    HW126837   6.069   1.185   1.108
 8646SOL    HW226838   5.954   1.089   1.042
 8647SOL     OW26839   3.919   4.760   6.148
 8647SOL    HW126840   3.993   4.703   6.183
 8647SOL    HW226841   3.948   4.856   6.149
 8648SOL     OW26842   5.558   1.518   4.857
 8648SOL    HW126843   5.502   1.449   4.811
 8648SOL    HW226844   5.653   1.485   4.862
 8649SOL     OW26845   5.711   5.251   5.463
 8649SOL    HW126846   5.707   5.158   5.499
 8649SOL    HW226847   5.641   5.263   5.393
 8650SOL     OW26848   1.516   4.955   4.807
 8650SOL    HW126849   1.441   4.950   4.873
 8650SOL    HW226850   1.496   4.896   4.729
 8651SOL     OW26851   4.041   0.569   0.678
 8651SOL    HW126852   4.136   0.539   0.671
 8651SOL    HW226853   4.031   0.627   0.759
 8652SOL     OW26854   1.539   4.460   3.040
 8652SOL    HW126855   1.470   4.531   3.027
 8652SOL    HW226856   1.625   4.489   2.998
 8653SOL     OW26857   6.306   2.605   6.213
 8653SOL    HW126858   6.224   2.661   6.224
 8653SOL    HW226859   6.385   2.665   6.198
 8654SOL     OW26860   0.834   6.261   1.929
 8654SOL    HW126861   0.861   6.293   2.020
 8654SOL    HW226862   0.891   6.184   1.902
 8655SOL     OW26863   5.977   0.667   3.657
 8655SOL    HW126864   5.920   0.622   3.588
 8655SOL    HW226865   6.041   0.601   3.695
 8656SOL     OW26866   6.232   1.619   1.393
 8656SOL    HW126867   6.234   1.527   1.432
 8656SOL    HW226868   6.162   1.623   1.322
 8657SOL     OW26869   4.842   5.359   6.730
 8657SOL    HW126870   4.746   5.352   6.757
 8657SOL    HW226871   4.875   5.269   6.701
 8658SOL     OW26872   4.683   5.721   0.395
 8658SOL    HW126873   4.780   5.743   0.386
 8658SOL    HW226874   4.673   5.630   0.437
 8659SOL     OW26875   4.738   1.379   3.113
 8659SOL    HW126876   4.818   1.402   3.058
 8659SOL    HW226877   4.658   1.429   3.078
 8660SOL     OW26878   4.953   3.787   0.758
 8660SOL    HW126879   4.953   3.883   0.788
 8660SOL    HW226880   4.972   3.728   0.836
 8661SOL     OW26881   5.728   3.890   1.825
 8661SOL    HW126882   5.753   3.800   1.860
 8661SOL    HW226883   5.687   3.944   1.899
 8662SOL     OW26884   5.034   6.399   1.869
 8662SOL    HW126885   4.971   6.396   1.946
 8662SOL    HW226886   5.128   6.398   1.903
 8663SOL     OW26887   2.533   5.670   0.648
 8663SOL    HW126888   2.460   5.602   0.637
 8663SOL    HW226889   2.500   5.745   0.705
 8664SOL     OW26890   3.630   5.072   0.800
 8664SOL    HW126891   3.556   5.012   0.769
 8664SOL    HW226892   3.610   5.167   0.776
 8665SOL     OW26893   5.347   5.060   5.055
 8665SOL    HW126894   5.397   4.974   5.068
 8665SOL    HW226895   5.412   5.132   5.030
 8666SOL     OW26896   5.365   2.613   5.041
 8666SOL    HW126897   5.375   2.657   4.951
 8666SOL    HW226898   5.453   2.580   5.072
 8667SOL     OW26899   4.821   2.268   2.969
 8667SOL    HW126900   4.901   2.275   3.029
 8667SOL    HW226901   4.847   2.294   2.876
 8668SOL     OW26902   5.123   2.723   3.886
 8668SOL    HW126903   5.071   2.667   3.822
 8668SOL    HW226904   5.218   2.692   3.887
 8669SOL     OW26905   3.109   0.133   6.935
 8669SOL    HW126906   3.129   0.126   6.838
 8669SOL    HW226907   3.011   0.148   6.949
 8670SOL     OW26908   3.294   4.845   5.198
 8670SOL    HW126909   3.215   4.789   5.223
 8670SOL    HW226910   3.376   4.807   5.240
 8671SOL     OW26911   5.815   1.099   3.680
 8671SOL    HW126912   5.823   1.199   3.688
 8671SOL    HW226913   5.729   1.070   3.719
 8672SOL     OW26914   2.512   6.034   4.324
 8672SOL    HW126915   2.549   5.967   4.260
 8672SOL    HW226916   2.501   5.992   4.414
 8673SOL     OW26917   0.288   1.175   6.911
 8673SOL    HW126918   0.319   1.100   6.969
 8673SOL    HW226919   0.192   1.195   6.930
 8674SOL     OW26920   6.487   6.133   1.352
 8674SOL    HW126921   6.536   6.076   1.418
 8674SOL    HW226922   6.552   6.171   1.287
 8675SOL     OW26923   3.578   2.115   4.020
 8675SOL    HW126924   3.678   2.115   4.032
 8675SOL    HW226925   3.534   2.118   4.110
 8676SOL     OW26926   3.519   6.928   3.123
 8676SOL    HW126927   3.539   6.982   3.205
 8676SOL    HW226928   3.499   6.989   3.047
 8677SOL     OW26929   1.931   5.148   5.821
 8677SOL    HW126930   1.948   5.132   5.918
 8677SOL    HW226931   1.833   5.135   5.802
 8678SOL     OW26932   6.945   0.102   0.388
 8678SOL    HW126933   6.893   0.178   0.428
 8678SOL    HW226934   7.003   0.061   0.457
 8679SOL     OW26935   6.286   2.920   4.968
 8679SOL    HW126936   6.316   2.877   5.054
 8679SOL    HW226937   6.287   2.852   4.895
 8680SOL     OW26938   0.580   3.707   0.988
 8680SOL    HW126939   0.542   3.800   0.987
 8680SOL    HW226940   0.512   3.643   0.953
 8681SOL     OW26941   4.555   4.523   0.163
 8681SOL    HW126942   4.604   4.447   0.120
 8681SOL    HW226943   4.547   4.598   0.098
 8682SOL     OW26944   3.866   6.693   2.701
 8682SOL    HW126945   3.832   6.723   2.612
 8682SOL    HW226946   3.828   6.751   2.773
 8683SOL     OW26947   1.351   2.344   2.017
 8683SOL    HW126948   1.287   2.388   2.080
 8683SOL    HW226949   1.309   2.261   1.979
 8684SOL     OW26950   0.693   3.387   5.004
 8684SOL    HW126951   0.711   3.422   5.096
 8684SOL    HW226952   0.694   3.287   5.005
 8685SOL     OW26953   1.332   2.296   5.615
 8685SOL    HW126954   1.275   2.364   5.661
 8685SOL    HW226955   1.416   2.282   5.668
 8686SOL     OW26956   6.705   1.650   1.965
 8686SOL    HW126957   6.623   1.649   1.908
 8686SOL    HW226958   6.750   1.739   1.959
 8687SOL     OW26959   3.426   6.249   2.943
 8687SOL    HW126960   3.341   6.287   2.908
 8687SOL    HW226961   3.435   6.272   3.040
 8688SOL     OW26962   2.597   6.273   0.075
 8688SOL    HW126963   2.524   6.312   0.019
 8688SOL    HW226964   2.588   6.306   0.169
 8689SOL     OW26965   3.406   5.114   0.032
 8689SOL    HW126966   3.417   5.044   0.103
 8689SOL    HW226967   3.311   5.145   0.029
 8690SOL     OW26968   1.783   2.585   3.643
 8690SOL    HW126969   1.774   2.658   3.711
 8690SOL    HW226970   1.815   2.501   3.687
 8691SOL     OW26971   4.388   2.549   5.994
 8691SOL    HW126972   4.315   2.483   6.009
 8691SOL    HW226973   4.402   2.602   6.078
 8692SOL     OW26974   3.437   2.004   2.647
 8692SOL    HW126975   3.339   2.018   2.630
 8692SOL    HW226976   3.485   1.993   2.561
 8693SOL     OW26977   5.567   2.156   1.057
 8693SOL    HW126978   5.664   2.133   1.057
 8693SOL    HW226979   5.515   2.083   1.013
 8694SOL     OW26980   4.201   0.900   6.586
 8694SOL    HW126981   4.163   0.883   6.495
 8694SOL    HW226982   4.127   0.912   6.652
 8695SOL     OW26983   4.269   2.701   5.800
 8695SOL    HW126984   4.323   2.659   5.872
 8695SOL    HW226985   4.190   2.748   5.840
 8696SOL     OW26986   3.155   6.039   1.105
 8696SOL    HW126987   3.122   6.074   1.193
 8696SOL    HW226988   3.105   6.083   1.031
 8697SOL     OW26989   6.605   3.810   0.788
 8697SOL    HW126990   6.637   3.718   0.768
 8697SOL    HW226991   6.665   3.877   0.743
 8698SOL     OW26992   5.906   6.334   3.812
 8698SOL    HW126993   6.003   6.313   3.799
 8698SOL    HW226994   5.875   6.300   3.900
 8699SOL     OW26995   1.485   2.378   5.377
 8699SOL    HW126996   1.581   2.355   5.393
 8699SOL    HW226997   1.430   2.345   5.454
 8700SOL     OW26998   2.365   1.133   4.535
 8700SOL    HW126999   2.368   1.035   4.515
 8700SOL    HW227000   2.270   1.165   4.532
 8701SOL     OW27001   1.515   0.776   0.115
 8701SOL    HW127002   1.477   0.698   0.067
 8701SOL    HW227003   1.450   0.853   0.112
 8702SOL     OW27004   5.464   4.675   6.969
 8702SOL    HW127005   5.559   4.683   7.001
 8702SOL    HW227006   5.440   4.578   6.960
 8703SOL     OW27007   2.529   5.356   1.067
 8703SOL    HW127008   2.520   5.454   1.052
 8703SOL    HW227009   2.625   5.332   1.079
 8704SOL     OW27010   6.167   3.424   2.516
 8704SOL    HW127011   6.116   3.419   2.430
 8704SOL    HW227012   6.230   3.501   2.513
 8705SOL     OW27013   4.854   1.024   0.790
 8705SOL    HW127014   4.812   0.938   0.821
 8705SOL    HW227015   4.807   1.055   0.707
 8706SOL     OW27016   4.603   2.270   5.836
 8706SOL    HW127017   4.635   2.186   5.792
 8706SOL    HW227018   4.504   2.277   5.827
 8707SOL     OW27019   5.043   2.440   6.970
 8707SOL    HW127020   4.981   2.517   6.953
 8707SOL    HW227021   4.992   2.364   7.008
 8708SOL     OW27022   4.297   2.374   2.169
 8708SOL    HW127023   4.311   2.471   2.191
 8708SOL    HW227024   4.238   2.333   2.238
 8709SOL     OW27025   6.740   6.004   6.668
 8709SOL    HW127026   6.738   6.057   6.753
 8709SOL    HW227027   6.800   6.049   6.602
 8710SOL     OW27028   1.838   3.427   2.878
 8710SOL    HW127029   1.898   3.378   2.942
 8710SOL    HW227030   1.863   3.404   2.784
 8711SOL     OW27031   6.906   6.133   2.438
 8711SOL    HW127032   6.936   6.142   2.344
 8711SOL    HW227033   6.887   6.037   2.458
 8712SOL     OW27034   4.097   2.089   4.113
 8712SOL    HW127035   4.173   2.149   4.140
 8712SOL    HW227036   4.098   2.007   4.170
 8713SOL     OW27037   0.376   4.017   3.672
 8713SOL    HW127038   0.325   4.082   3.728
 8713SOL    HW227039   0.474   4.028   3.690
 8714SOL     OW27040   0.381   0.845   5.672
 8714SOL    HW127041   0.400   0.892   5.758
 8714SOL    HW227042   0.284   0.823   5.666
 8715SOL     OW27043   4.943   0.366   1.208
 8715SOL    HW127044   4.873   0.436   1.191
 8715SOL    HW227045   4.963   0.361   1.306
 8716SOL     OW27046   0.765   0.530   1.864
 8716SOL    HW127047   0.804   0.620   1.884
 8716SOL    HW227048   0.756   0.518   1.765
 8717SOL     OW27049   4.096   3.333   2.943
 8717SOL    HW127050   4.080   3.258   3.006
 8717SOL    HW227051   4.016   3.344   2.883
 8718SOL     OW27052   1.234   2.919   5.579
 8718SOL    HW127053   1.327   2.956   5.579
 8718SOL    HW227054   1.168   2.992   5.598
 8719SOL     OW27055   2.025   6.937   6.141
 8719SOL    HW127056   2.004   0.011   6.120
 8719SOL    HW227057   1.943   6.881   6.129
 8720SOL     OW27058   6.522   5.098   5.426
 8720SOL    HW127059   6.584   5.056   5.493
 8720SOL    HW227060   6.428   5.090   5.459
 8721SOL     OW27061   5.450   2.188   4.001
 8721SOL    HW127062   5.524   2.217   3.941
 8721SOL    HW227063   5.374   2.153   3.946
 8722SOL     OW27064   3.677   0.454   0.816
 8722SOL    HW127065   3.636   0.375   0.862
 8722SOL    HW227066   3.642   0.538   0.857
 8723SOL     OW27067   5.588   6.026   1.700
 8723SOL    HW127068   5.557   5.931   1.712
 8723SOL    HW227069   5.613   6.064   1.789
 8724SOL     OW27070   6.140   6.805   4.807
 8724SOL    HW127071   6.042   6.821   4.818
 8724SOL    HW227072   6.157   6.707   4.801
 8725SOL     OW27073   2.829   0.081   7.021
 8725SOL    HW127074   2.746   0.094   0.055
 8725SOL    HW227075   2.808   0.022   6.943
 8726SOL     OW27076   6.589   1.036   1.425
 8726SOL    HW127077   6.539   0.985   1.496
 8726SOL    HW227078   6.622   1.122   1.463
 8727SOL     OW27079   6.562   6.506   2.002
 8727SOL    HW127080   6.492   6.571   2.032
 8727SOL    HW227081   6.620   6.481   2.079
 8728SOL     OW27082   4.108   6.868   4.278
 8728SOL    HW127083   4.051   6.885   4.198
 8728SOL    HW227084   4.119   6.769   4.291
 8729SOL     OW27085   4.608   6.093   3.125
 8729SOL    HW127086   4.694   6.132   3.093
 8729SOL    HW227087   4.533   6.153   3.098
 8730SOL     OW27088   6.526   5.018   2.732
 8730SOL    HW127089   6.522   5.062   2.822
 8730SOL    HW227090   6.524   4.919   2.742
 8731SOL     OW27091   2.194   1.806   2.698
 8731SOL    HW127092   2.132   1.728   2.698
 8731SOL    HW227093   2.271   1.788   2.637
 8732SOL     OW27094   4.890   4.711   1.820
 8732SOL    HW127095   4.912   4.624   1.775
 8732SOL    HW227096   4.944   4.719   1.904
 8733SOL     OW27097   1.225   5.776   3.065
 8733SOL    HW127098   1.296   5.708   3.080
 8733SOL    HW227099   1.257   5.845   3.000
 8734SOL     OW27100   0.985   4.501   2.150
 8734SOL    HW127101   0.982   4.573   2.219
 8734SOL    HW227102   0.943   4.534   2.066
 8735SOL     OW27103   0.845   1.607   6.895
 8735SOL    HW127104   0.915   1.549   6.937
 8735SOL    HW227105   0.879   1.642   6.808
 8736SOL     OW27106   0.849   6.744   0.017
 8736SOL    HW127107   0.908   6.668   0.042
 8736SOL    HW227108   0.892   6.831   0.042
 8737SOL     OW27109   2.953   6.895   6.015
 8737SOL    HW127110   2.901   6.841   5.948
 8737SOL    HW227111   2.938   6.992   5.998
 8738SOL     OW27112   2.193   4.587   3.740
 8738SOL    HW127113   2.283   4.546   3.725
 8738SOL    HW227114   2.156   4.553   3.826
 8739SOL     OW27115   6.153   5.298   5.627
 8739SOL    HW127116   6.111   5.313   5.537
 8739SOL    HW227117   6.231   5.235   5.616
 8740SOL     OW27118   4.335   1.426   5.227
 8740SOL    HW127119   4.412   1.363   5.241
 8740SOL    HW227120   4.346   1.474   5.140
 8741SOL     OW27121   2.000   0.791   2.231
 8741SOL    HW127122   1.961   0.877   2.263
 8741SOL    HW227123   2.099   0.801   2.221
 8742SOL     OW27124   5.494   5.750   1.575
 8742SOL    HW127125   5.537   5.795   1.497
 8742SOL    HW227126   5.455   5.663   1.545
 8743SOL     OW27127   2.182   6.759   2.783
 8743SOL    HW127128   2.192   6.686   2.715
 8743SOL    HW227129   2.261   6.759   2.844
 8744SOL     OW27130   3.664   2.296   6.424
 8744SOL    HW127131   3.605   2.215   6.426
 8744SOL    HW227132   3.757   2.270   6.453
 8745SOL     OW27133   6.719   2.402   6.286
 8745SOL    HW127134   6.688   2.338   6.215
 8745SOL    HW227135   6.641   2.432   6.340
 8746SOL     OW27136   4.355   4.261   5.287
 8746SOL    HW127137   4.448   4.231   5.264
 8746SOL    HW227138   4.338   4.351   5.247
 8747SOL     OW27139   0.675   2.555   3.304
 8747SOL    HW127140   0.721   2.468   3.289
 8747SOL    HW227141   0.685   2.582   3.400
 8748SOL     OW27142   0.335   1.473   6.479
 8748SOL    HW127143   0.325   1.373   6.472
 8748SOL    HW227144   0.431   1.495   6.497
 8749SOL     OW27145   2.622   6.868   5.003
 8749SOL    HW127146   2.685   6.799   5.039
 8749SOL    HW227147   2.554   6.891   5.072
 8750SOL     OW27148   2.845   3.206   5.198
 8750SOL    HW127149   2.767   3.171   5.146
 8750SOL    HW227150   2.848   3.160   5.287
 8751SOL     OW27151   6.389   6.707   2.086
 8751SOL    HW127152   6.314   6.716   2.151
 8751SOL    HW227153   6.356   6.727   1.994
 8752SOL     OW27154   2.976   4.217   6.839
 8752SOL    HW127155   3.011   4.180   6.925
 8752SOL    HW227156   2.899   4.278   6.858
 8753SOL     OW27157   5.089   1.482   4.528
 8753SOL    HW127158   5.016   1.530   4.577
 8753SOL    HW227159   5.070   1.484   4.430
 8754SOL     OW27160   0.910   1.627   5.781
 8754SOL    HW127161   0.871   1.706   5.829
 8754SOL    HW227162   1.002   1.609   5.818
 8755SOL     OW27163   2.779   1.060   6.597
 8755SOL    HW127164   2.724   1.013   6.528
 8755SOL    HW227165   2.736   1.052   6.686
 8756SOL     OW27166   2.159   3.507   3.313
 8756SOL    HW127167   2.126   3.413   3.317
 8756SOL    HW227168   2.087   3.569   3.345
 8757SOL     OW27169   5.455   6.678   5.898
 8757SOL    HW127170   5.451   6.581   5.874
 8757SOL    HW227171   5.490   6.688   5.992
 8758SOL     OW27172   5.179   6.105   2.225
 8758SOL    HW127173   5.126   6.137   2.304
 8758SOL    HW227174   5.268   6.150   2.224
 8759SOL     OW27175   4.060   1.856   6.356
 8759SOL    HW127176   4.115   1.840   6.438
 8759SOL    HW227177   3.976   1.802   6.361
 8760SOL     OW27178   2.136   1.950   4.922
 8760SOL    HW127179   2.055   1.956   4.979
 8760SOL    HW227180   2.182   1.863   4.938
 8761SOL     OW27181   4.312   0.287   0.867
 8761SOL    HW127182   4.383   0.262   0.801
 8761SOL    HW227183   4.352   0.292   0.958
 8762SOL     OW27184   1.323   3.554   2.738
 8762SOL    HW127185   1.383   3.625   2.701
 8762SOL    HW227186   1.227   3.580   2.722
 8763SOL     OW27187   6.097   5.983   4.634
 8763SOL    HW127188   6.078   5.886   4.615
 8763SOL    HW227189   6.190   6.005   4.607
 8764SOL     OW27190   4.779   0.988   4.221
 8764SOL    HW127191   4.685   1.013   4.246
 8764SOL    HW227192   4.841   1.014   4.296
 8765SOL     OW27193   6.096   6.501   4.780
 8765SOL    HW127194   5.998   6.486   4.773
 8765SOL    HW227195   6.130   6.461   4.866
 8766SOL     OW27196   3.835   4.866   3.039
 8766SOL    HW127197   3.862   4.807   2.963
 8766SOL    HW227198   3.908   4.865   3.108
 8767SOL     OW27199   4.329   0.427   3.291
 8767SOL    HW127200   4.404   0.370   3.260
 8767SOL    HW227201   4.353   0.470   3.378
 8768SOL     OW27202   1.915   3.034   0.130
 8768SOL    HW127203   1.903   3.055   0.227
 8768SOL    HW227204   1.899   2.936   0.115
 8769SOL     OW27205   0.956   0.258   4.837
 8769SOL    HW127206   0.903   0.204   4.772
 8769SOL    HW227207   1.054   0.251   4.815
 8770SOL     OW27208   4.950   4.317   1.889
 8770SOL    HW127209   4.955   4.283   1.795
 8770SOL    HW227210   5.019   4.271   1.945
 8771SOL     OW27211   2.098   0.353   5.903
 8771SOL    HW127212   2.196   0.364   5.886
 8771SOL    HW227213   2.047   0.404   5.833
 8772SOL     OW27214   5.820   6.977   0.298
 8772SOL    HW127215   5.828   0.019   0.375
 8772SOL    HW227216   5.836   0.005   0.212
 8773SOL     OW27217   4.750   2.010   3.378
 8773SOL    HW127218   4.787   1.949   3.448
 8773SOL    HW227219   4.786   1.984   3.289
 8774SOL     OW27220   1.863   1.296   0.608
 8774SOL    HW127221   1.801   1.217   0.612
 8774SOL    HW227222   1.955   1.267   0.635
 8775SOL     OW27223   6.001   0.176   4.231
 8775SOL    HW127224   5.980   0.145   4.323
 8775SOL    HW227225   6.026   0.273   4.234
 8776SOL     OW27226   3.094   3.028   5.010
 8776SOL    HW127227   3.144   2.968   5.073
 8776SOL    HW227228   3.037   3.091   5.062
 8777SOL     OW27229   6.806   4.160   1.050
 8777SOL    HW127230   6.846   4.081   1.004
 8777SOL    HW227231   6.762   4.131   1.134
 8778SOL     OW27232   0.354   2.643   4.312
 8778SOL    HW127233   0.419   2.664   4.384
 8778SOL    HW227234   0.387   2.564   4.259
 8779SOL     OW27235   2.187   5.440   1.996
 8779SOL    HW127236   2.098   5.403   1.968
 8779SOL    HW227237   2.255   5.367   1.992
 8780SOL     OW27238   1.362   5.921   3.279
 8780SOL    HW127239   1.304   5.906   3.199
 8780SOL    HW227240   1.418   5.840   3.297
 8781SOL     OW27241   6.913   1.890   4.279
 8781SOL    HW127242   6.852   1.914   4.355
 8781SOL    HW227243   6.867   1.911   4.192
 8782SOL     OW27244   5.827   1.059   1.355
 8782SOL    HW127245   5.840   1.078   1.258
 8782SOL    HW227246   5.733   1.031   1.372
 8783SOL     OW27247   5.761   3.694   3.849
 8783SOL    HW127248   5.836   3.750   3.816
 8783SOL    HW227249   5.776   3.599   3.822
 8784SOL     OW27250   4.971   4.444   5.015
 8784SOL    HW127251   4.876   4.474   5.017
 8784SOL    HW227252   4.993   4.396   5.100
 8785SOL     OW27253   5.723   3.532   6.988
 8785SOL    HW127254   5.699   3.555   0.061
 8785SOL    HW227255   5.811   3.484   6.987
 8786SOL     OW27256   2.420   6.375   6.914
 8786SOL    HW127257   2.445   6.319   6.835
 8786SOL    HW227258   2.439   6.471   6.895
 8787SOL     OW27259   1.354   2.507   2.289
 8787SOL    HW127260   1.358   2.573   2.364
 8787SOL    HW227261   1.445   2.495   2.250
 8788SOL     OW27262   6.617   1.996   5.506
 8788SOL    HW127263   6.668   1.967   5.426
 8788SOL    HW227264   6.536   1.938   5.517
 8789SOL     OW27265   6.017   0.346   5.494
 8789SOL    HW127266   6.104   0.367   5.539
 8789SOL    HW227267   5.983   0.258   5.527
 8790SOL     OW27268   6.641   1.298   0.630
 8790SOL    HW127269   6.655   1.235   0.554
 8790SOL    HW227270   6.634   1.392   0.595
 8791SOL     OW27271   4.946   6.845   5.604
 8791SOL    HW127272   4.972   6.931   5.649
 8791SOL    HW227273   4.905   6.866   5.515
 8792SOL     OW27274   3.980   6.629   3.086
 8792SOL    HW127275   4.017   6.613   2.995
 8792SOL    HW227276   3.975   6.727   3.104
 8793SOL     OW27277   1.906   5.835   4.149
 8793SOL    HW127278   1.982   5.783   4.110
 8793SOL    HW227279   1.872   5.900   4.080
 8794SOL     OW27280   3.542   6.412   2.221
 8794SOL    HW127281   3.538   6.391   2.319
 8794SOL    HW227282   3.502   6.336   2.169
 8795SOL     OW27283   1.363   6.835   5.069
 8795SOL    HW127284   1.417   6.919   5.060
 8795SOL    HW227285   1.359   6.788   4.981
 8796SOL     OW27286   4.023   1.341   5.184
 8796SOL    HW127287   4.122   1.334   5.200
 8796SOL    HW227288   4.007   1.402   5.106
 8797SOL     OW27289   1.193   6.874   5.705
 8797SOL    HW127290   1.190   6.937   5.627
 8797SOL    HW227291   1.204   6.781   5.672
 8798SOL     OW27292   5.691   4.631   5.225
 8798SOL    HW127293   5.786   4.649   5.251
 8798SOL    HW227294   5.689   4.569   5.147
 8799SOL     OW27295   1.857   5.146   3.115
 8799SOL    HW127296   1.926   5.074   3.121
 8799SOL    HW227297   1.897   5.228   3.073
 8800SOL     OW27298   5.307   3.763   5.177
 8800SOL    HW127299   5.241   3.745   5.250
 8800SOL    HW227300   5.258   3.776   5.091
 8801SOL     OW27301   2.462   0.862   4.391
 8801SOL    HW127302   2.562   0.858   4.383
 8801SOL    HW227303   2.421   0.854   4.300
 8802SOL     OW27304   1.337   0.321   0.886
 8802SOL    HW127305   1.364   0.417   0.880
 8802SOL    HW227306   1.243   0.315   0.921
 8803SOL     OW27307   1.457   4.746   5.856
 8803SOL    HW127308   1.550   4.750   5.892
 8803SOL    HW227309   1.439   4.654   5.820
 8804SOL     OW27310   3.811   0.876   1.866
 8804SOL    HW127311   3.713   0.895   1.866
 8804SOL    HW227312   3.858   0.943   1.924
 8805SOL     OW27313   2.402   0.253   3.757
 8805SOL    HW127314   2.495   0.215   3.758
 8805SOL    HW227315   2.388   0.309   3.838
 8806SOL     OW27316   2.120   5.389   1.543
 8806SOL    HW127317   2.123   5.305   1.596
 8806SOL    HW227318   2.208   5.404   1.499
 8807SOL     OW27319   6.479   6.156   6.500
 8807SOL    HW127320   6.562   6.203   6.468
 8807SOL    HW227321   6.489   6.058   6.486
 8808SOL     OW27322   5.661   1.856   0.748
 8808SOL    HW127323   5.732   1.812   0.803
 8808SOL    HW227324   5.607   1.918   0.806
 8809SOL     OW27325   5.372   4.274   2.190
 8809SOL    HW127326   5.276   4.270   2.217
 8809SOL    HW227327   5.382   4.239   2.097
 8810SOL     OW27328   5.664   1.148   5.217
 8810SOL    HW127329   5.695   1.090   5.292
 8810SOL    HW227330   5.742   1.195   5.177
 8811SOL     OW27331   2.130   1.748   4.261
 8811SOL    HW127332   2.172   1.736   4.171
 8811SOL    HW227333   2.113   1.845   4.276
 8812SOL     OW27334   0.995   0.923   0.905
 8812SOL    HW127335   0.925   0.941   0.974
 8812SOL    HW227336   0.968   0.963   0.818
 8813SOL     OW27337   1.041   4.737   1.590
 8813SOL    HW127338   1.068   4.730   1.686
 8813SOL    HW227339   1.054   4.648   1.546
 8814SOL     OW27340   6.279   1.218   0.531
 8814SOL    HW127341   6.303   1.307   0.569
 8814SOL    HW227342   6.264   1.153   0.606
 8815SOL     OW27343   6.639   6.002   0.849
 8815SOL    HW127344   6.721   6.054   0.870
 8815SOL    HW227345   6.559   6.063   0.847
 8816SOL     OW27346   1.440   0.563   0.903
 8816SOL    HW127347   1.385   0.629   0.852
 8816SOL    HW227348   1.526   0.606   0.930
 8817SOL     OW27349   0.498   5.768   5.660
 8817SOL    HW127350   0.435   5.829   5.709
 8817SOL    HW227351   0.592   5.795   5.679
 8818SOL     OW27352   6.858   3.621   3.363
 8818SOL    HW127353   6.811   3.657   3.282
 8818SOL    HW227354   6.919   3.547   3.336
 8819SOL     OW27355   4.581   6.229   4.008
 8819SOL    HW127356   4.585   6.179   3.921
 8819SOL    HW227357   4.520   6.182   4.071
 8820SOL     OW27358   2.450   2.106   4.176
 8820SOL    HW127359   2.506   2.083   4.256
 8820SOL    HW227360   2.448   2.029   4.113
 8821SOL     OW27361   1.612   6.437   6.737
 8821SOL    HW127362   1.658   6.502   6.798
 8821SOL    HW227363   1.672   6.415   6.661
 8822SOL     OW27364   0.692   0.072   3.351
 8822SOL    HW127365   0.716   7.010   3.402
 8822SOL    HW227366   0.607   0.110   3.387
 8823SOL     OW27367   2.023   0.525   1.147
 8823SOL    HW127368   2.025   0.543   1.245
 8823SOL    HW227369   1.932   0.546   1.111
 8824SOL     OW27370   2.187   3.583   0.621
 8824SOL    HW127371   2.225   3.654   0.562
 8824SOL    HW227372   2.088   3.577   0.607
 8825SOL     OW27373   1.924   0.551   3.477
 8825SOL    HW127374   1.977   0.476   3.516
 8825SOL    HW227375   1.893   0.527   3.385
 8826SOL     OW27376   6.267   2.409   0.331
 8826SOL    HW127377   6.268   2.499   0.373
 8826SOL    HW227378   6.206   2.348   0.382
 8827SOL     OW27379   3.148   1.563   3.283
 8827SOL    HW127380   3.081   1.609   3.342
 8827SOL    HW227381   3.193   1.630   3.225
 8828SOL     OW27382   4.036   5.516   3.952
 8828SOL    HW127383   3.994   5.564   4.029
 8828SOL    HW227384   4.133   5.538   3.948
 8829SOL     OW27385   0.525   2.780   0.065
 8829SOL    HW127386   0.605   2.736   0.023
 8829SOL    HW227387   0.511   2.870   0.023
 8830SOL     OW27388   0.283   1.785   0.659
 8830SOL    HW127389   0.238   1.866   0.621
 8830SOL    HW227390   0.249   1.703   0.613
 8831SOL     OW27391   5.538   1.036   3.378
 8831SOL    HW127392   5.487   1.113   3.338
 8831SOL    HW227393   5.473   0.972   3.419
 8832SOL     OW27394   6.469   6.566   2.682
 8832SOL    HW127395   6.389   6.598   2.631
 8832SOL    HW227396   6.446   6.562   2.779
 8833SOL     OW27397   2.093   6.751   5.698
 8833SOL    HW127398   2.105   6.664   5.747
 8833SOL    HW227399   2.155   6.754   5.619
 8834SOL     OW27400   5.660   3.632   4.525
 8834SOL    HW127401   5.652   3.582   4.439
 8834SOL    HW227402   5.582   3.609   4.584
 8835SOL     OW27403   6.223   0.263   5.718
 8835SOL    HW127404   6.310   0.274   5.669
 8835SOL    HW227405   6.187   0.352   5.742
 8836SOL     OW27406   4.363   0.977   7.017
 8836SOL    HW127407   4.425   0.930   0.058
 8836SOL    HW227408   4.281   0.922   7.003
 8837SOL     OW27409   0.665   7.021   2.410
 8837SOL    HW127410   0.704   0.080   2.454
 8837SOL    HW227411   0.610   6.970   2.476
 8838SOL     OW27412   2.809   5.388   3.031
 8838SOL    HW127413   2.770   5.296   3.021
 8838SOL    HW227414   2.737   5.456   3.021
 8839SOL     OW27415   5.369   5.715   2.539
 8839SOL    HW127416   5.365   5.758   2.449
 8839SOL    HW227417   5.285   5.733   2.589
 8840SOL     OW27418   6.838   1.946   2.125
 8840SOL    HW127419   6.810   2.028   2.076
 8840SOL    HW227420   6.930   1.920   2.098
 8841SOL     OW27421   1.366   0.738   5.403
 8841SOL    HW127422   1.329   0.674   5.335
 8841SOL    HW227423   1.363   0.831   5.367
 8842SOL     OW27424   3.462   2.683   0.423
 8842SOL    HW127425   3.416   2.594   0.428
 8842SOL    HW227426   3.523   2.684   0.344
 8843SOL     OW27427   1.614   2.668   5.569
 8843SOL    HW127428   1.545   2.722   5.519
 8843SOL    HW227429   1.699   2.667   5.517
 8844SOL     OW27430   5.358   1.260   6.720
 8844SOL    HW127431   5.291   1.323   6.758
 8844SOL    HW227432   5.445   1.270   6.768
 8845SOL     OW27433   4.043   3.801   0.236
 8845SOL    HW127434   4.122   3.751   0.200
 8845SOL    HW227435   3.991   3.742   0.297
 8846SOL     OW27436   2.297   6.170   4.235
 8846SOL    HW127437   2.385   6.129   4.258
 8846SOL    HW227438   2.308   6.227   4.154
 8847SOL     OW27439   3.176   1.160   2.805
 8847SOL    HW127440   3.169   1.206   2.893
 8847SOL    HW227441   3.269   1.168   2.770
 8848SOL     OW27442   2.521   0.777   1.300
 8848SOL    HW127443   2.433   0.823   1.305
 8848SOL    HW227444   2.508   0.678   1.305
 8849SOL     OW27445   2.773   6.409   3.147
 8849SOL    HW127446   2.748   6.327   3.094
 8849SOL    HW227447   2.842   6.385   3.215
 8850SOL     OW27448   1.491   1.633   0.186
 8850SOL    HW127449   1.470   1.728   0.163
 8850SOL    HW227450   1.589   1.617   0.174
 8851SOL     OW27451   2.047   4.567   2.671
 8851SOL    HW127452   1.948   4.558   2.659
 8851SOL    HW227453   2.081   4.491   2.726
 8852SOL     OW27454   0.987   1.845   5.560
 8852SOL    HW127455   0.916   1.792   5.606
 8852SOL    HW227456   1.075   1.827   5.604
 8853SOL     OW27457   3.174   0.953   1.843
 8853SOL    HW127458   3.112   0.910   1.778
 8853SOL    HW227459   3.149   1.049   1.854
 8854SOL     OW27460   2.176   3.060   4.854
 8854SOL    HW127461   2.171   3.113   4.769
 8854SOL    HW227462   2.256   3.089   4.906
 8855SOL     OW27463   6.479   4.958   1.631
 8855SOL    HW127464   6.444   4.920   1.716
 8855SOL    HW227465   6.507   5.053   1.646
 8856SOL     OW27466   6.301   5.730   6.690
 8856SOL    HW127467   6.204   5.733   6.716
 8856SOL    HW227468   6.346   5.815   6.718
 8857SOL     OW27469   6.723   1.870   5.290
 8857SOL    HW127470   6.791   1.862   5.217
 8857SOL    HW227471   6.656   1.796   5.281
 8858SOL     OW27472   0.184   4.782   4.881
 8858SOL    HW127473   0.276   4.822   4.884
 8858SOL    HW227474   0.127   4.824   4.952
 8859SOL     OW27475   1.329   0.880   3.824
 8859SOL    HW127476   1.329   0.980   3.820
 8859SOL    HW227477   1.423   0.847   3.832
 8860SOL     OW27478   0.267   3.006   1.204
 8860SOL    HW127479   0.261   3.099   1.168
 8860SOL    HW227480   0.227   3.003   1.295
 8861SOL     OW27481   3.908   1.223   0.279
 8861SOL    HW127482   3.866   1.148   0.331
 8861SOL    HW227483   4.006   1.223   0.295
 8862SOL     OW27484   4.676   5.930   4.169
 8862SOL    HW127485   4.579   5.936   4.194
 8862SOL    HW227486   4.714   6.022   4.160
 8863SOL     OW27487   1.650   5.019   3.276
 8863SOL    HW127488   1.711   5.081   3.227
 8863SOL    HW227489   1.681   4.925   3.263
 8864SOL     OW27490   4.827   3.820   6.505
 8864SOL    HW127491   4.848   3.724   6.490
 8864SOL    HW227492   4.736   3.840   6.470
 8865SOL     OW27493   2.910   0.820   6.090
 8865SOL    HW127494   2.868   0.860   6.009
 8865SOL    HW227495   3.005   0.848   6.096
 8866SOL     OW27496   5.226   6.681   2.591
 8866SOL    HW127497   5.211   6.719   2.499
 8866SOL    HW227498   5.315   6.711   2.625
 8867SOL     OW27499   6.101   3.643   3.590
 8867SOL    HW127500   6.030   3.708   3.618
 8867SOL    HW227501   6.098   3.564   3.651
 8868SOL     OW27502   6.865   3.083   2.241
 8868SOL    HW127503   6.778   3.036   2.249
 8868SOL    HW227504   6.867   3.161   2.304
 8869SOL     OW27505   4.284   5.417   4.397
 8869SOL    HW127506   4.317   5.377   4.483
 8869SOL    HW227507   4.256   5.343   4.336
 8870SOL     OW27508   2.104   6.923   1.296
 8870SOL    HW127509   2.192   6.891   1.261
 8870SOL    HW227510   2.030   6.882   1.242
 8871SOL     OW27511   1.664   1.081   3.149
 8871SOL    HW127512   1.645   1.041   3.060
 8871SOL    HW227513   1.578   1.097   3.197
 8872SOL     OW27514   1.336   4.684   6.384
 8872SOL    HW127515   1.363   4.646   6.295
 8872SOL    HW227516   1.305   4.611   6.444
 8873SOL     OW27517   1.930   0.474   1.731
 8873SOL    HW127518   1.860   0.541   1.755
 8873SOL    HW227519   1.936   0.466   1.632
 8874SOL     OW27520   1.192   5.342   1.599
 8874SOL    HW127521   1.153   5.271   1.541
 8874SOL    HW227522   1.292   5.331   1.603
 8875SOL     OW27523   6.888   3.257   4.365
 8875SOL    HW127524   6.879   3.280   4.268
 8875SOL    HW227525   6.807   3.208   4.395
 8876SOL     OW27526   2.903   0.435   6.758
 8876SOL    HW127527   2.985   0.461   6.708
 8876SOL    HW227528   2.890   0.336   6.751
 8877SOL     OW27529   1.108   3.576   2.167
 8877SOL    HW127530   1.154   3.488   2.165
 8877SOL    HW227531   1.109   3.616   2.075
 8878SOL     OW27532   3.659   4.274   0.751
 8878SOL    HW127533   3.680   4.211   0.676
 8878SOL    HW227534   3.723   4.258   0.826
 8879SOL     OW27535   6.688   5.112   2.533
 8879SOL    HW127536   6.785   5.103   2.556
 8879SOL    HW227537   6.633   5.060   2.598
 8880SOL     OW27538   4.052   6.301   4.005
 8880SOL    HW127539   4.131   6.318   4.064
 8880SOL    HW227540   3.982   6.252   4.058
 8881SOL     OW27541   5.446   5.149   4.049
 8881SOL    HW127542   5.368   5.089   4.029
 8881SOL    HW227543   5.491   5.117   4.132
 8882SOL     OW27544   3.761   0.696   0.555
 8882SOL    HW127545   3.774   0.718   0.652
 8882SOL    HW227546   3.839   0.644   0.522
 8883SOL     OW27547   0.387   6.515   5.641
 8883SOL    HW127548   0.472   6.484   5.599
 8883SOL    HW227549   0.405   6.546   5.735
 8884SOL     OW27550   5.743   4.404   5.054
 8884SOL    HW127551   5.680   4.329   5.073
 8884SOL    HW227552   5.730   4.436   4.960
 8885SOL     OW27553   5.439   4.888   0.112
 8885SOL    HW127554   5.417   4.837   0.029
 8885SOL    HW227555   5.481   4.975   0.088
 8886SOL     OW27556   3.770   5.560   6.347
 8886SOL    HW127557   3.718   5.574   6.432
 8886SOL    HW227558   3.710   5.573   6.269
 8887SOL     OW27559   4.236   0.991   0.851
 8887SOL    HW127560   4.329   0.965   0.822
 8887SOL    HW227561   4.241   1.035   0.941
 8888SOL     OW27562   1.840   1.798   3.690
 8888SOL    HW127563   1.750   1.805   3.647
 8888SOL    HW227564   1.891   1.723   3.649
 8889SOL     OW27565   6.612   6.745   6.688
 8889SOL    HW127566   6.692   6.688   6.705
 8889SOL    HW227567   6.537   6.689   6.654
 8890SOL     OW27568   0.518   6.200   0.074
 8890SOL    HW127569   0.503   6.113   0.121
 8890SOL    HW227570   0.465   6.202   7.010
 8891SOL     OW27571   4.733   4.487   6.960
 8891SOL    HW127572   4.812   4.506   7.018
 8891SOL    HW227573   4.745   4.400   6.914
 8892SOL     OW27574   3.888   4.854   3.874
 8892SOL    HW127575   3.790   4.852   3.895
 8892SOL    HW227576   3.902   4.835   3.777
 8893SOL     OW27577   1.055   5.416   5.124
 8893SOL    HW127578   1.070   5.381   5.217
 8893SOL    HW227579   1.141   5.455   5.090
 8894SOL     OW27580   4.601   2.066   0.427
 8894SOL    HW127581   4.530   2.048   0.495
 8894SOL    HW227582   4.686   2.088   0.474
 8895SOL     OW27583   0.553   2.985   0.493
 8895SOL    HW127584   0.457   2.965   0.513
 8895SOL    HW227585   0.603   2.900   0.477
 8896SOL     OW27586   1.677   2.833   4.687
 8896SOL    HW127587   1.605   2.871   4.630
 8896SOL    HW227588   1.653   2.843   4.783
 8897SOL     OW27589   1.860   3.877   3.579
 8897SOL    HW127590   1.809   3.963   3.584
 8897SOL    HW227591   1.951   3.890   3.619
 8898SOL     OW27592   5.532   3.876   2.486
 8898SOL    HW127593   5.560   3.821   2.408
 8898SOL    HW227594   5.484   3.958   2.454
 8899SOL     OW27595   6.717   5.156   6.392
 8899SOL    HW127596   6.647   5.141   6.463
 8899SOL    HW227597   6.731   5.071   6.341
 8900SOL     OW27598   5.589   2.658   3.477
 8900SOL    HW127599   5.500   2.681   3.437
 8900SOL    HW227600   5.651   2.628   3.404
 8901SOL     OW27601   0.988   2.080   3.443
 8901SOL    HW127602   1.081   2.101   3.472
 8901SOL    HW227603   0.989   2.001   3.383
 8902SOL     OW27604   1.758   5.258   0.554
 8902SOL    HW127605   1.845   5.260   0.505
 8902SOL    HW227606   1.735   5.163   0.577
 8903SOL     OW27607   1.471   1.283   5.282
 8903SOL    HW127608   1.396   1.237   5.330
 8903SOL    HW227609   1.485   1.239   5.193
 8904SOL     OW27610   1.121   1.368   3.195
 8904SOL    HW127611   1.161   1.368   3.103
 8904SOL    HW227612   1.047   1.435   3.200
 8905SOL     OW27613   1.637   2.767   2.828
 8905SOL    HW127614   1.666   2.814   2.745
 8905SOL    HW227615   1.696   2.793   2.904
 8906SOL     OW27616   0.494   6.402   0.847
 8906SOL    HW127617   0.507   6.358   0.758
 8906SOL    HW227618   0.527   6.341   0.919
 8907SOL     OW27619   3.316   2.611   5.284
 8907SOL    HW127620   3.254   2.533   5.276
 8907SOL    HW227621   3.320   2.660   5.197
 8908SOL     OW27622   1.201   4.484   0.463
 8908SOL    HW127623   1.135   4.418   0.499
 8908SOL    HW227624   1.245   4.532   0.538
 8909SOL     OW27625   2.679   0.981   6.329
 8909SOL    HW127626   2.633   0.996   6.242
 8909SOL    HW227627   2.770   1.023   6.327
 8910SOL     OW27628   0.713   2.484   5.282
 8910SOL    HW127629   0.689   2.464   5.187
 8910SOL    HW227630   0.798   2.536   5.284
 8911SOL     OW27631   5.083   2.091   4.535
 8911SOL    HW127632   5.143   2.085   4.456
 8911SOL    HW227633   5.098   2.011   4.594
 8912SOL     OW27634   3.694   2.656   5.634
 8912SOL    HW127635   3.780   2.698   5.662
 8912SOL    HW227636   3.617   2.710   5.670
 8913SOL     OW27637   5.202   5.267   0.384
 8913SOL    HW127638   5.212   5.173   0.416
 8913SOL    HW227639   5.272   5.287   0.315
 8914SOL     OW27640   4.925   6.899   4.848
 8914SOL    HW127641   4.945   6.814   4.800
 8914SOL    HW227642   4.953   6.976   4.792
 8915SOL     OW27643   1.193   1.570   4.400
 8915SOL    HW127644   1.246   1.623   4.465
 8915SOL    HW227645   1.250   1.549   4.320
 8916SOL     OW27646   5.673   1.943   6.545
 8916SOL    HW127647   5.610   1.953   6.468
 8916SOL    HW227648   5.671   2.026   6.601
 8917SOL     OW27649   5.788   2.026   0.562
 8917SOL    HW127650   5.726   2.099   0.534
 8917SOL    HW227651   5.737   1.958   0.616
 8918SOL     OW27652   1.462   5.290   0.953
 8918SOL    HW127653   1.529   5.230   0.909
 8918SOL    HW227654   1.407   5.238   1.019
 8919SOL     OW27655   4.989   4.853   6.462
 8919SOL    HW127656   4.969   4.930   6.401
 8919SOL    HW227657   5.070   4.874   6.516
 8920SOL     OW27658   0.570   1.619   7.020
 8920SOL    HW127659   0.510   1.611   6.941
 8920SOL    HW227660   0.663   1.590   6.994
 8921SOL     OW27661   1.022   2.688   0.936
 8921SOL    HW127662   1.093   2.733   0.883
 8921SOL    HW227663   0.952   2.754   0.961
 8922SOL     OW27664   3.953   6.502   1.904
 8922SOL    HW127665   4.019   6.457   1.844
 8922SOL    HW227666   3.869   6.449   1.907
 8923SOL     OW27667   1.321   2.044   5.821
 8923SOL    HW127668   1.332   2.037   5.920
 8923SOL    HW227669   1.380   1.977   5.776
 8924SOL     OW27670   5.214   5.829   4.817
 8924SOL    HW127671   5.276   5.845   4.894
 8924SOL    HW227672   5.129   5.789   4.850
 8925SOL     OW27673   6.746   0.534   2.150
 8925SOL    HW127674   6.806   0.462   2.184
 8925SOL    HW227675   6.654   0.520   2.187
 8926SOL     OW27676   6.720   3.685   5.200
 8926SOL    HW127677   6.679   3.749   5.135
 8926SOL    HW227678   6.655   3.668   5.275
 8927SOL     OW27679   6.923   1.528   5.412
 8927SOL    HW127680   7.003   1.587   5.426
 8927SOL    HW227681   6.947   1.454   5.348
 8928SOL     OW27682   1.795   6.805   6.084
 8928SOL    HW127683   1.750   6.893   6.067
 8928SOL    HW227684   1.792   6.749   6.001
 8929SOL     OW27685   6.292   2.206   4.999
 8929SOL    HW127686   6.365   2.160   4.949
 8929SOL    HW227687   6.214   2.222   4.939
 8930SOL     OW27688   1.318   3.368   2.937
 8930SOL    HW127689   1.411   3.344   2.967
 8930SOL    HW227690   1.324   3.443   2.870
 8931SOL     OW27691   3.032   3.166   1.622
 8931SOL    HW127692   3.125   3.168   1.585
 8931SOL    HW227693   2.970   3.209   1.557
 8932SOL     OW27694   0.332   2.272   3.109
 8932SOL    HW127695   0.260   2.240   3.170
 8932SOL    HW227696   0.421   2.246   3.147
 8933SOL     OW27697   3.064   2.508   6.509
 8933SOL    HW127698   2.988   2.444   6.516
 8933SOL    HW227699   3.094   2.536   6.600
 8934SOL     OW27700   3.325   5.049   4.735
 8934SOL    HW127701   3.424   5.044   4.747
 8934SOL    HW227702   3.280   5.031   4.823
 8935SOL     OW27703   0.482   4.445   0.583
 8935SOL    HW127704   0.581   4.460   0.575
 8935SOL    HW227705   0.434   4.500   0.515
 8936SOL     OW27706   1.603   3.611   0.358
 8936SOL    HW127707   1.668   3.686   0.344
 8936SOL    HW227708   1.611   3.578   0.452
 8937SOL     OW27709   0.678   6.967   5.216
 8937SOL    HW127710   0.736   6.903   5.265
 8937SOL    HW227711   0.734   0.012   5.167
 8938SOL     OW27712   0.250   5.418   0.719
 8938SOL    HW127713   0.161   5.455   0.748
 8938SOL    HW227714   0.297   5.379   0.799
 8939SOL     OW27715   5.016   2.468   4.474
 8939SOL    HW127716   4.987   2.372   4.479
 8939SOL    HW227717   5.010   2.500   4.380
 8940SOL     OW27718   0.252   0.930   4.015
 8940SOL    HW127719   0.236   0.935   4.114
 8940SOL    HW227720   0.292   1.016   3.983
 8941SOL     OW27721   5.614   2.143   5.786
 8941SOL    HW127722   5.681   2.154   5.712
 8941SOL    HW227723   5.549   2.071   5.761
 8942SOL     OW27724   0.690   3.316   5.903
 8942SOL    HW127725   0.603   3.334   5.950
 8942SOL    HW227726   0.681   3.341   5.807
 8943SOL     OW27727   4.465   4.025   0.465
 8943SOL    HW127728   4.550   4.036   0.517
 8943SOL    HW227729   4.414   4.111   0.467
 8944SOL     OW27730   4.949   5.033   5.303
 8944SOL    HW127731   4.921   4.967   5.372
 8944SOL    HW227732   4.896   5.117   5.313
 8945SOL     OW27733   2.327   0.750   4.165
 8945SOL    HW127734   2.284   0.783   4.081
 8945SOL    HW227735   2.258   0.744   4.237
 8946SOL     OW27736   2.960   1.604   5.257
 8946SOL    HW127737   2.999   1.645   5.174
 8946SOL    HW227738   2.925   1.676   5.316
 8947SOL     OW27739   1.363   3.685   5.295
 8947SOL    HW127740   1.396   3.745   5.223
 8947SOL    HW227741   1.294   3.622   5.258
 8948SOL     OW27742   5.930   5.700   3.891
 8948SOL    HW127743   6.022   5.723   3.861
 8948SOL    HW227744   5.906   5.756   3.971
 8949SOL     OW27745   1.686   0.088   0.692
 8949SOL    HW127746   1.614   0.157   0.686
 8949SOL    HW227747   1.653   0.010   0.744
 8950SOL     OW27748   4.733   3.032   5.471
 8950SOL    HW127749   4.833   3.032   5.464
 8950SOL    HW227750   4.706   3.030   5.567
 8951SOL     OW27751   1.654   2.074   4.967
 8951SOL    HW127752   1.647   2.008   5.042
 8951SOL    HW227753   1.710   2.151   4.996
 8952SOL     OW27754   1.148   0.602   2.222
 8952SOL    HW127755   1.102   0.686   2.252
 8952SOL    HW227756   1.153   0.601   2.122
 8953SOL     OW27757   1.076   3.760   7.005
 8953SOL    HW127758   1.149   3.724   6.947
 8953SOL    HW227759   1.067   3.702   0.065
 8954SOL     OW27760   0.231   6.039   5.746
 8954SOL    HW127761   0.285   6.058   5.664
 8954SOL    HW227762   0.220   6.124   5.799
 8955SOL     OW27763   0.262   4.177   2.573
 8955SOL    HW127764   0.260   4.228   2.487
 8955SOL    HW227765   0.351   4.135   2.585
 8956SOL     OW27766   6.784   1.388   6.807
 8956SOL    HW127767   6.715   1.442   6.856
 8956SOL    HW227768   6.748   1.296   6.789
 8957SOL     OW27769   2.966   4.049   1.485
 8957SOL    HW127770   2.970   4.146   1.464
 8957SOL    HW227771   2.936   4.037   1.580
 8958SOL     OW27772   1.114   0.806   4.058
 8958SOL    HW127773   1.063   0.720   4.050
 8958SOL    HW227774   1.207   0.793   4.024
 8959SOL     OW27775   1.483   4.561   0.889
 8959SOL    HW127776   1.566   4.505   0.887
 8959SOL    HW227777   1.491   4.629   0.962
 8960SOL     OW27778   5.125   5.409   2.478
 8960SOL    HW127779   5.099   5.475   2.549
 8960SOL    HW227780   5.078   5.322   2.495
 8961SOL     OW27781   1.735   2.069   4.316
 8961SOL    HW127782   1.779   2.048   4.403
 8961SOL    HW227783   1.801   2.060   4.242
 8962SOL     OW27784   6.262   6.759   1.849
 8962SOL    HW127785   6.223   6.836   1.899
 8962SOL    HW227786   6.193   6.689   1.834
 8963SOL     OW27787   5.320   6.718   4.224
 8963SOL    HW127788   5.243   6.688   4.168
 8963SOL    HW227789   5.393   6.650   4.218
 8964SOL     OW27790   5.811   3.786   2.898
 8964SOL    HW127791   5.862   3.739   2.971
 8964SOL    HW227792   5.838   3.749   2.809
 8965SOL     OW27793   1.930   4.725   1.104
 8965SOL    HW127794   2.028   4.708   1.116
 8965SOL    HW227795   1.893   4.764   1.188
 8966SOL     OW27796   1.738   3.810   5.503
 8966SOL    HW127797   1.690   3.732   5.463
 8966SOL    HW227798   1.741   3.801   5.602
 8967SOL     OW27799   3.399   5.745   1.519
 8967SOL    HW127800   3.485   5.708   1.484
 8967SOL    HW227801   3.418   5.820   1.583
 8968SOL     OW27802   4.639   5.491   2.601
 8968SOL    HW127803   4.643   5.396   2.631
 8968SOL    HW227804   4.643   5.551   2.680
 8969SOL     OW27805   6.382   0.483   3.746
 8969SOL    HW127806   6.291   0.453   3.772
 8969SOL    HW227807   6.409   0.562   3.801
 8970SOL     OW27808   2.801   2.269   0.338
 8970SOL    HW127809   2.781   2.331   0.414
 8970SOL    HW227810   2.864   2.198   0.368
 8971SOL     OW27811   3.577   5.707   2.296
 8971SOL    HW127812   3.674   5.681   2.296
 8971SOL    HW227813   3.554   5.749   2.209
 8972SOL     OW27814   4.773   5.922   6.298
 8972SOL    HW127815   4.675   5.929   6.318
 8972SOL    HW227816   4.786   5.861   6.219
 8973SOL     OW27817   0.826   3.150   2.068
 8973SOL    HW127818   0.865   3.152   2.160
 8973SOL    HW227819   0.772   3.067   2.056
 8974SOL     OW27820   1.499   4.210   5.504
 8974SOL    HW127821   1.550   4.179   5.583
 8974SOL    HW227822   1.403   4.224   5.529
 8975SOL     OW27823   2.548   0.538   6.905
 8975SOL    HW127824   2.487   0.608   6.867
 8975SOL    HW227825   2.531   0.528   7.003
 8976SOL     OW27826   0.609   4.910   5.209
 8976SOL    HW127827   0.648   4.856   5.283
 8976SOL    HW227828   0.511   4.924   5.226
 8977SOL     OW27829   5.624   1.806   6.879
 8977SOL    HW127830   5.720   1.796   6.854
 8977SOL    HW227831   5.571   1.732   6.839
 8978SOL     OW27832   6.285   6.451   6.204
 8978SOL    HW127833   6.192   6.459   6.168
 8978SOL    HW227834   6.349   6.498   6.143
 8979SOL     OW27835   1.248   3.501   3.918
 8979SOL    HW127836   1.202   3.510   4.006
 8979SOL    HW227837   1.344   3.530   3.927
 8980SOL     OW27838   2.197   2.841   5.401
 8980SOL    HW127839   2.110   2.848   5.448
 8980SOL    HW227840   2.205   2.915   5.334
 8981SOL     OW27841   3.642   1.694   5.217
 8981SOL    HW127842   3.662   1.791   5.202
 8981SOL    HW227843   3.724   1.648   5.251
 8982SOL     OW27844   1.500   2.581   0.365
 8982SOL    HW127845   1.453   2.514   0.308
 8982SOL    HW227846   1.474   2.568   0.461
 8983SOL     OW27847   2.738   6.280   6.327
 8983SOL    HW127848   2.776   6.363   6.287
 8983SOL    HW227849   2.805   6.206   6.319
 8984SOL     OW27850   1.037   6.787   3.789
 8984SOL    HW127851   1.125   6.767   3.832
 8984SOL    HW227852   0.979   6.706   3.794
 8985SOL     OW27853   3.691   2.076   0.929
 8985SOL    HW127854   3.715   2.048   0.836
 8985SOL    HW227855   3.650   2.000   0.978
 8986SOL     OW27856   4.598   5.635   2.373
 8986SOL    HW127857   4.610   5.581   2.456
 8986SOL    HW227858   4.504   5.627   2.341
 8987SOL     OW27859   4.100   6.315   2.161
 8987SOL    HW127860   4.097   6.305   2.062
 8987SOL    HW227861   4.111   6.412   2.185
 8988SOL     OW27862   1.604   4.695   4.443
 8988SOL    HW127863   1.630   4.606   4.405
 8988SOL    HW227864   1.519   4.687   4.494
 8989SOL     OW27865   4.868   3.544   6.526
 8989SOL    HW127866   4.837   3.449   6.536
 8989SOL    HW227867   4.924   3.569   6.605
 8990SOL     OW27868   1.190   5.270   4.835
 8990SOL    HW127869   1.229   5.253   4.744
 8990SOL    HW227870   1.247   5.338   4.883
 8991SOL     OW27871   1.739   3.254   4.775
 8991SOL    HW127872   1.785   3.197   4.707
 8991SOL    HW227873   1.773   3.230   4.867
 8992SOL     OW27874   4.595   1.737   0.786
 8992SOL    HW127875   4.497   1.729   0.772
 8992SOL    HW227876   4.642   1.733   0.697
 8993SOL     OW27877   3.983   2.148   0.184
 8993SOL    HW127878   3.941   2.103   0.106
 8993SOL    HW227879   3.997   2.245   0.164
 8994SOL     OW27880   1.566   4.162   5.246
 8994SOL    HW127881   1.564   4.209   5.334
 8994SOL    HW227882   1.629   4.084   5.251
 8995SOL     OW27883   0.298   1.782   0.095
 8995SOL    HW127884   0.389   1.778   0.054
 8995SOL    HW227885   0.303   1.753   0.190
 8996SOL     OW27886   5.585   4.378   6.674
 8996SOL    HW127887   5.598   4.279   6.668
 8996SOL    HW227888   5.671   4.422   6.701
 8997SOL     OW27889   5.014   1.553   6.227
 8997SOL    HW127890   5.094   1.596   6.184
 8997SOL    HW227891   4.939   1.619   6.232
 8998SOL     OW27892   6.030   3.827   4.237
 8998SOL    HW127893   6.078   3.910   4.208
 8998SOL    HW227894   5.931   3.840   4.224
 8999SOL     OW27895   4.428   6.464   6.703
 8999SOL    HW127896   4.464   6.524   6.774
 8999SOL    HW227897   4.396   6.379   6.744
 9000SOL     OW27898   1.775   3.439   1.904
 9000SOL    HW127899   1.718   3.394   1.835
 9000SOL    HW227900   1.722   3.510   1.951
 9001SOL     OW27901   1.399   4.729   2.015
 9001SOL    HW127902   1.398   4.636   1.979
 9001SOL    HW227903   1.444   4.730   2.105
 9002SOL     OW27904   1.686   5.165   5.002
 9002SOL    HW127905   1.764   5.218   4.967
 9002SOL    HW227906   1.705   5.068   4.991
 9003SOL     OW27907   5.571   4.421   1.331
 9003SOL    HW127908   5.543   4.327   1.310
 9003SOL    HW227909   5.648   4.419   1.394
 9004SOL     OW27910   4.085   5.242   0.708
 9004SOL    HW127911   4.111   5.300   0.631
 9004SOL    HW227912   4.127   5.278   0.792
 9005SOL     OW27913   6.666   1.595   5.410
 9005SOL    HW127914   6.619   1.553   5.487
 9005SOL    HW227915   6.760   1.617   5.437
 9006SOL     OW27916   2.186   5.879   1.161
 9006SOL    HW127917   2.171   5.798   1.103
 9006SOL    HW227918   2.245   5.944   1.113
 9007SOL     OW27919   3.216   0.774   3.376
 9007SOL    HW127920   3.230   0.677   3.353
 9007SOL    HW227921   3.222   0.829   3.293
 9008SOL     OW27922   0.669   5.517   2.678
 9008SOL    HW127923   0.651   5.589   2.745
 9008SOL    HW227924   0.613   5.533   2.596
 9009SOL     OW27925   3.284   5.168   0.889
 9009SOL    HW127926   3.304   5.261   0.922
 9009SOL    HW227927   3.278   5.106   0.966
 9010SOL     OW27928   1.847   6.297   3.984
 9010SOL    HW127929   1.880   6.262   3.896
 9010SOL    HW227930   1.856   6.397   3.985
 9011SOL     OW27931   4.488   0.968   1.264
 9011SOL    HW127932   4.446   0.878   1.269
 9011SOL    HW227933   4.539   0.987   1.348
 9012SOL     OW27934   2.038   4.911   6.799
 9012SOL    HW127935   2.058   5.009   6.811
 9012SOL    HW227936   1.959   4.901   6.739
 9013SOL     OW27937   0.657   0.427   6.231
 9013SOL    HW127938   0.754   0.419   6.252
 9013SOL    HW227939   0.628   0.350   6.174
 9014SOL     OW27940   0.027   2.029   0.917
 9014SOL    HW127941   0.106   2.044   0.857
 9014SOL    HW227942   6.989   1.959   0.877
 9015SOL     OW27943   4.851   2.377   1.595
 9015SOL    HW127944   4.777   2.311   1.610
 9015SOL    HW227945   4.813   2.469   1.586
 9016SOL     OW27946   6.423   5.941   6.783
 9016SOL    HW127947   6.503   5.935   6.843
 9016SOL    HW227948   6.374   6.026   6.800
 9017SOL     OW27949   4.631   1.795   4.149
 9017SOL    HW127950   4.545   1.748   4.131
 9017SOL    HW227951   4.704   1.752   4.095
 9018SOL     OW27952   2.620   3.206   5.743
 9018SOL    HW127953   2.718   3.188   5.737
 9018SOL    HW227954   2.572   3.152   5.673
 9019SOL     OW27955   1.442   5.401   2.742
 9019SOL    HW127956   1.389   5.316   2.745
 9019SOL    HW227957   1.525   5.390   2.797
 9020SOL     OW27958   6.994   3.992   0.955
 9020SOL    HW127959   0.005   4.025   1.044
 9020SOL    HW227960   0.048   3.953   0.904
 9021SOL     OW27961   0.085   1.327   3.406
 9021SOL    HW127962   0.089   1.383   3.324
 9021SOL    HW227963   7.020   1.277   3.408
 9022SOL     OW27964   2.802   1.136   0.109
 9022SOL    HW127965   2.839   1.229   0.116
 9022SOL    HW227966   2.708   1.135   0.144
 9023SOL     OW27967   3.568   3.638   1.815
 9023SOL    HW127968   3.497   3.568   1.808
 9023SOL    HW227969   3.656   3.594   1.835
 9024SOL     OW27970   1.404   3.646   5.948
 9024SOL    HW127971   1.466   3.718   5.915
 9024SOL    HW227972   1.411   3.567   5.888
 9025SOL     OW27973   0.441   5.047   0.578
 9025SOL    HW127974   0.432   5.047   0.677
 9025SOL    HW227975   0.441   5.141   0.544
 9026SOL     OW27976   3.286   2.301   0.899
 9026SOL    HW127977   3.356   2.368   0.874
 9026SOL    HW227978   3.240   2.330   0.984
 9027SOL     OW27979   0.513   3.419   3.012
 9027SOL    HW127980   0.585   3.375   3.065
 9027SOL    HW227981   0.549   3.499   2.966
 9028SOL     OW27982   3.270   3.020   5.448
 9028SOL    HW127983   3.328   2.956   5.497
 9028SOL    HW227984   3.321   3.060   5.372
 9029SOL     OW27985   3.760   6.780   4.958
 9029SOL    HW127986   3.822   6.820   5.027
 9029SOL    HW227987   3.761   6.837   4.876
 9030SOL     OW27988   2.164   1.886   3.505
 9030SOL    HW127989   2.071   1.910   3.475
 9030SOL    HW227990   2.226   1.889   3.427
 9031SOL     OW27991   4.301   6.217   3.771
 9031SOL    HW127992   4.336   6.220   3.865
 9031SOL    HW227993   4.202   6.229   3.772
 9032SOL     OW27994   4.732   4.318   0.986
 9032SOL    HW127995   4.772   4.256   1.052
 9032SOL    HW227996   4.707   4.267   0.903
 9033SOL     OW27997   0.611   4.681   2.878
 9033SOL    HW127998   0.581   4.587   2.858
 9033SOL    HW227999   0.566   4.745   2.816
 9034SOL     OW28000   2.804   5.825   4.912
 9034SOL    HW128001   2.840   5.804   4.821
 9034SOL    HW228002   2.871   5.798   4.981
 9035SOL     OW28003   1.984   4.663   0.276
 9035SOL    HW128004   1.955   4.743   0.223
 9035SOL    HW228005   1.942   4.581   0.237
 9036SOL     OW28006   2.210   3.230   5.806
 9036SOL    HW128007   2.117   3.239   5.770
 9036SOL    HW228008   2.267   3.182   5.740
 9037SOL     OW28009   1.134   4.208   3.907
 9037SOL    HW128010   1.234   4.212   3.901
 9037SOL    HW228011   1.102   4.120   3.873
 9038SOL     OW28012   4.595   2.566   6.712
 9038SOL    HW128013   4.628   2.652   6.750
 9038SOL    HW228014   4.545   2.584   6.627
 9039SOL     OW28015   2.226   5.040   6.513
 9039SOL    HW128016   2.167   5.054   6.433
 9039SOL    HW228017   2.208   4.950   6.552
 9040SOL     OW28018   2.544   2.492   2.783
 9040SOL    HW128019   2.513   2.577   2.825
 9040SOL    HW228020   2.527   2.416   2.845
 9041SOL     OW28021   1.200   2.210   0.899
 9041SOL    HW128022   1.167   2.139   0.837
 9041SOL    HW228023   1.152   2.295   0.881
 9042SOL     OW28024   4.137   0.047   4.018
 9042SOL    HW128025   4.059   7.008   4.038
 9042SOL    HW228026   4.172   0.085   4.103
 9043SOL     OW28027   2.422   0.746   6.764
 9043SOL    HW128028   2.517   0.778   6.764
 9043SOL    HW228029   2.360   0.825   6.755
 9044SOL     OW28030   6.598   0.812   0.358
 9044SOL    HW128031   6.549   0.795   0.444
 9044SOL    HW228032   6.532   0.837   0.287
 9045SOL     OW28033   3.875   1.190   2.556
 9045SOL    HW128034   3.966   1.157   2.582
 9045SOL    HW228035   3.841   1.135   2.479
 9046SOL     OW28036   3.586   4.162   2.801
 9046SOL    HW128037   3.652   4.091   2.775
 9046SOL    HW228038   3.634   4.235   2.849
 9047SOL     OW28039   1.852   3.612   4.837
 9047SOL    HW128040   1.808   3.702   4.847
 9047SOL    HW228041   1.801   3.544   4.890
 9048SOL     OW28042   6.652   2.979   6.116
 9048SOL    HW128043   6.641   2.900   6.176
 9048SOL    HW228044   6.604   2.963   6.030
 9049SOL     OW28045   4.065   6.807   5.549
 9049SOL    HW128046   4.058   6.890   5.604
 9049SOL    HW228047   3.993   6.744   5.575
 9050SOL     OW28048   0.607   3.869   1.286
 9050SOL    HW128049   0.514   3.894   1.259
 9050SOL    HW228050   0.662   3.855   1.205
 9051SOL     OW28051   2.464   0.526   1.380
 9051SOL    HW128052   2.490   0.445   1.327
 9051SOL    HW228053   2.478   0.508   1.478
 9052SOL     OW28054   2.473   2.575   4.183
 9052SOL    HW128055   2.498   2.495   4.236
 9052SOL    HW228056   2.445   2.547   4.091
 9053SOL     OW28057   2.186   1.071   2.209
 9053SOL    HW128058   2.197   1.111   2.300
 9053SOL    HW228059   2.275   1.059   2.166
 9054SOL     OW28060   2.735   5.407   4.613
 9054SOL    HW128061   2.812   5.393   4.551
 9054SOL    HW228062   2.763   5.389   4.707
 9055SOL     OW28063   5.903   2.163   3.816
 9055SOL    HW128064   5.892   2.257   3.782
 9055SOL    HW228065   5.967   2.162   3.892
 9056SOL     OW28066   0.027   1.843   1.424
 9056SOL    HW128067   0.124   1.835   1.448
 9056SOL    HW228068   0.013   1.814   1.330
 9057SOL     OW28069   4.472   2.672   5.396
 9057SOL    HW128070   4.505   2.755   5.349
 9057SOL    HW228071   4.372   2.672   5.398
 9058SOL     OW28072   1.362   0.992   2.026
 9058SOL    HW128073   1.379   1.089   2.039
 9058SOL    HW228074   1.412   0.939   2.095
 9059SOL     OW28075   1.480   2.084   3.079
 9059SOL    HW128076   1.430   2.134   3.150
 9059SOL    HW228077   1.415   2.048   3.012
 9060SOL     OW28078   5.930   2.824   4.459
 9060SOL    HW128079   5.846   2.782   4.494
 9060SOL    HW228080   5.941   2.915   4.499
 9061SOL     OW28081   2.906   5.434   2.168
 9061SOL    HW128082   2.850   5.516   2.165
 9061SOL    HW228083   2.848   5.353   2.158
 9062SOL     OW28084   1.288   6.018   1.824
 9062SOL    HW128085   1.259   5.933   1.779
 9062SOL    HW228086   1.299   6.090   1.756
 9063SOL     OW28087   3.027   0.151   4.054
 9063SOL    HW128088   3.030   0.250   4.040
 9063SOL    HW228089   3.007   0.132   4.150
 9064SOL     OW28090   6.129   3.333   6.281
 9064SOL    HW128091   6.181   3.418   6.280
 9064SOL    HW228092   6.036   3.350   6.251
 9065SOL     OW28093   3.789   0.345   0.439
 9065SOL    HW128094   3.888   0.349   0.457
 9065SOL    HW228095   3.768   0.401   0.359
 9066SOL     OW28096   5.036   6.929   0.327
 9066SOL    HW128097   5.070   7.020   0.303
 9066SOL    HW228098   5.093   6.859   0.283
 9067SOL     OW28099   1.102   0.621   3.774
 9067SOL    HW128100   1.117   0.609   3.676
 9067SOL    HW228101   1.004   0.629   3.792
 9068SOL     OW28102   1.492   6.537   4.599
 9068SOL    HW128103   1.565   6.591   4.557
 9068SOL    HW228104   1.516   6.440   4.594
 9069SOL     OW28105   1.440   2.951   0.647
 9069SOL    HW128106   1.374   3.017   0.683
 9069SOL    HW228107   1.488   2.908   0.723
 9070SOL     OW28108   1.933   3.355   5.083
 9070SOL    HW128109   1.867   3.430   5.087
 9070SOL    HW228110   1.885   3.268   5.072
 9071SOL     OW28111   6.710   6.457   0.880
 9071SOL    HW128112   6.725   6.473   0.978
 9071SOL    HW228113   6.715   6.544   0.831
 9072SOL     OW28114   6.905   2.801   1.141
 9072SOL    HW128115   6.875   2.735   1.071
 9072SOL    HW228116   7.000   2.827   1.124
 9073SOL     OW28117   2.059   0.097   1.946
 9073SOL    HW128118   2.005   0.173   1.983
 9073SOL    HW228119   2.003   0.014   1.942
 9074SOL     OW28120   1.028   0.481   2.791
 9074SOL    HW128121   1.097   0.412   2.767
 9074SOL    HW228122   0.946   0.467   2.737
 9075SOL     OW28123   6.971   1.257   2.394
 9075SOL    HW128124   6.879   1.219   2.404
 9075SOL    HW228125   0.006   1.231   2.472
 9076SOL     OW28126   0.559   1.306   6.534
 9076SOL    HW128127   0.566   1.330   6.631
 9076SOL    HW228128   0.646   1.323   6.489
 9077SOL     OW28129   4.216   6.449   1.475
 9077SOL    HW128130   4.199   6.458   1.376
 9077SOL    HW228131   4.221   6.540   1.516
 9078SOL     OW28132   3.621   2.882   4.779
 9078SOL    HW128133   3.535   2.869   4.830
 9078SOL    HW228134   3.606   2.860   4.683
 9079SOL     OW28135   2.935   0.566   4.475
 9079SOL    HW128136   3.002   0.610   4.415
 9079SOL    HW228137   2.952   0.593   4.570
 9080SOL     OW28138   5.468   2.975   6.409
 9080SOL    HW128139   5.420   2.965   6.322
 9080SOL    HW228140   5.541   3.043   6.400
 9081SOL     OW28141   5.071   6.241   2.432
 9081SOL    HW128142   5.141   6.307   2.460
 9081SOL    HW228143   5.001   6.235   2.503
 9082SOL     OW28144   1.858   0.142   4.295
 9082SOL    HW128145   1.835   0.185   4.382
 9082SOL    HW228146   1.956   0.147   4.279
 9083SOL     OW28147   4.879   4.860   5.833
 9083SOL    HW128148   4.961   4.804   5.825
 9083SOL    HW228149   4.884   4.914   5.918
 9084SOL     OW28150   4.010   3.823   3.431
 9084SOL    HW128151   3.983   3.896   3.367
 9084SOL    HW228152   4.024   3.863   3.522
 9085SOL     OW28153   2.435   0.742   0.935
 9085SOL    HW128154   2.344   0.729   0.976
 9085SOL    HW228155   2.424   0.761   0.837
 9086SOL     OW28156   0.832   4.240   0.760
 9086SOL    HW128157   0.908   4.183   0.793
 9086SOL    HW228158   0.810   4.308   0.829
 9087SOL     OW28159   5.144   3.122   1.851
 9087SOL    HW128160   5.174   3.027   1.844
 9087SOL    HW228161   5.220   3.183   1.830
 9088SOL     OW28162   6.148   0.601   0.792
 9088SOL    HW128163   6.229   0.577   0.739
 9088SOL    HW228164   6.072   0.621   0.730
 9089SOL     OW28165   5.247   6.528   5.694
 9089SOL    HW128166   5.172   6.463   5.694
 9089SOL    HW228167   5.223   6.607   5.638
 9090SOL     OW28168   6.147   1.025   5.283
 9090SOL    HW128169   6.139   1.024   5.383
 9090SOL    HW228170   6.129   1.117   5.249
 9091SOL     OW28171   2.945   3.505   6.850
 9091SOL    HW128172   2.962   3.581   6.788
 9091SOL    HW228173   2.975   3.529   6.942
 9092SOL     OW28174   6.679   1.183   0.374
 9092SOL    HW128175   6.747   1.139   0.317
 9092SOL    HW228176   6.634   1.256   0.322
 9093SOL     OW28177   1.661   6.055   5.526
 9093SOL    HW128178   1.621   6.093   5.443
 9093SOL    HW228179   1.721   5.978   5.502
 9094SOL     OW28180   0.118   3.831   3.266
 9094SOL    HW128181   0.097   3.926   3.241
 9094SOL    HW228182   0.034   3.777   3.263
 9095SOL     OW28183   4.882   5.051   6.076
 9095SOL    HW128184   4.922   5.103   6.152
 9095SOL    HW228185   4.818   4.983   6.111
 9096SOL     OW28186   6.841   4.851   3.478
 9096SOL    HW128187   6.827   4.775   3.414
 9096SOL    HW228188   6.776   4.924   3.459
 9097SOL     OW28189   1.848   2.421   6.642
 9097SOL    HW128190   1.866   2.519   6.642
 9097SOL    HW228191   1.766   2.402   6.696
 9098SOL     OW28192   2.372   2.143   5.033
 9098SOL    HW128193   2.272   2.145   5.031
 9098SOL    HW228194   2.408   2.225   4.988
 9099SOL     OW28195   2.472   2.864   6.463
 9099SOL    HW128196   2.547   2.797   6.459
 9099SOL    HW228197   2.441   2.885   6.371
 9100SOL     OW28198   0.927   3.910   2.093
 9100SOL    HW128199   0.942   3.927   2.191
 9100SOL    HW228200   0.853   3.845   2.081
 9101SOL     OW28201   2.977   1.720   2.682
 9101SOL    HW128202   3.022   1.693   2.597
 9101SOL    HW228203   2.884   1.683   2.683
 9102SOL     OW28204   3.750   6.726   2.029
 9102SOL    HW128205   3.831   6.679   1.994
 9102SOL    HW228206   3.715   6.678   2.109
 9103SOL     OW28207   6.193   1.468   6.714
 9103SOL    HW128208   6.293   1.470   6.720
 9103SOL    HW228209   6.163   1.376   6.688
 9104SOL     OW28210   6.688   0.575   1.854
 9104SOL    HW128211   6.701   0.535   1.944
 9104SOL    HW228212   6.644   0.509   1.794
 9105SOL     OW28213   1.000   6.873   5.218
 9105SOL    HW128214   1.035   6.899   5.128
 9105SOL    HW228215   0.961   6.781   5.213
 9106SOL     OW28216   0.412   3.999   0.294
 9106SOL    HW128217   0.346   3.992   0.369
 9106SOL    HW228218   0.437   3.908   0.262
 9107SOL     OW28219   2.326   0.319   6.432
 9107SOL    HW128220   2.398   0.269   6.480
 9107SOL    HW228221   2.237   0.280   6.456
 9108SOL     OW28222   5.244   4.642   5.180
 9108SOL    HW128223   5.243   4.615   5.277
 9108SOL    HW228224   5.164   4.699   5.161
 9109SOL     OW28225   4.858   3.087   2.470
 9109SOL    HW128226   4.829   3.058   2.561
 9109SOL    HW228227   4.824   3.022   2.402
 9110SOL     OW28228   0.894   5.697   4.351
 9110SOL    HW128229   0.919   5.614   4.401
 9110SOL    HW228230   0.816   5.740   4.395
 9111SOL     OW28231   4.972   2.818   6.077
 9111SOL    HW128232   4.962   2.912   6.109
 9111SOL    HW228233   4.974   2.756   6.156
 9112SOL     OW28234   1.816   5.113   2.789
 9112SOL    HW128235   1.793   5.038   2.851
 9112SOL    HW228236   1.753   5.112   2.711
 9113SOL     OW28237   5.696   2.749   3.722
 9113SOL    HW128238   5.719   2.846   3.717
 9113SOL    HW228239   5.657   2.720   3.634
 9114SOL     OW28240   1.641   6.092   3.965
 9114SOL    HW128241   1.727   6.141   3.978
 9114SOL    HW228242   1.598   6.078   4.054
 9115SOL     OW28243   6.198   4.820   3.245
 9115SOL    HW128244   6.125   4.821   3.314
 9115SOL    HW228245   6.208   4.912   3.206
 9116SOL     OW28246   0.218   6.682   3.209
 9116SOL    HW128247   0.151   6.734   3.263
 9116SOL    HW228248   0.186   6.588   3.198
 9117SOL     OW28249   4.255   1.320   6.750
 9117SOL    HW128250   4.193   1.275   6.687
 9117SOL    HW228251   4.251   1.276   6.840
 9118SOL     OW28252   5.897   3.874   0.373
 9118SOL    HW128253   5.876   3.877   0.471
 9118SOL    HW228254   5.942   3.788   0.351
 9119SOL     OW28255   3.561   6.605   1.152
 9119SOL    HW128256   3.552   6.547   1.071
 9119SOL    HW228257   3.625   6.679   1.133
 9120SOL     OW28258   6.999   2.465   6.315
 9120SOL    HW128259   0.042   2.443   6.387
 9120SOL    HW228260   6.908   2.430   6.339
 9121SOL     OW28261   3.851   0.382   5.354
 9121SOL    HW128262   3.925   0.418   5.296
 9121SOL    HW228263   3.890   0.324   5.425
 9122SOL     OW28264   2.135   3.962   2.076
 9122SOL    HW128265   2.062   3.995   2.017
 9122SOL    HW228266   2.195   4.038   2.101
 9123SOL     OW28267   1.485   0.182   3.446
 9123SOL    HW128268   1.450   0.251   3.382
 9123SOL    HW228269   1.550   0.226   3.509
 9124SOL     OW28270   3.557   4.856   1.631
 9124SOL    HW128271   3.634   4.890   1.577
 9124SOL    HW228272   3.592   4.814   1.715
 9125SOL     OW28273   3.544   5.747   0.031
 9125SOL    HW128274   3.545   5.676   6.982
 9125SOL    HW228275   3.629   5.743   0.084
 9126SOL     OW28276   4.405   4.449   0.926
 9126SOL    HW128277   4.446   4.362   0.955
 9126SOL    HW228278   4.468   4.523   0.945
 9127SOL     OW28279   7.012   3.258   5.032
 9127SOL    HW128280   0.047   3.275   5.113
 9127SOL    HW228281   7.014   3.338   4.972
 9128SOL     OW28282   6.206   3.130   4.829
 9128SOL    HW128283   6.282   3.191   4.805
 9128SOL    HW228284   6.236   3.067   4.901
 9129SOL     OW28285   2.120   1.992   1.208
 9129SOL    HW128286   2.199   1.949   1.253
 9129SOL    HW228287   2.037   1.967   1.257
 9130SOL     OW28288   2.859   4.138   5.669
 9130SOL    HW128289   2.841   4.235   5.651
 9130SOL    HW228290   2.781   4.083   5.640
 9131SOL     OW28291   6.218   2.878   1.027
 9131SOL    HW128292   6.229   2.955   0.964
 9131SOL    HW228293   6.121   2.863   1.047
 9132SOL     OW28294   0.986   4.796   3.568
 9132SOL    HW128295   1.001   4.697   3.568
 9132SOL    HW228296   0.898   4.816   3.525
 9133SOL     OW28297   4.029   0.784   0.877
 9133SOL    HW128298   4.016   0.753   0.971
 9133SOL    HW228299   4.113   0.838   0.871
 9134SOL     OW28300   4.237   5.316   0.907
 9134SOL    HW128301   4.331   5.350   0.908
 9134SOL    HW228302   4.225   5.250   0.982
 9135SOL     OW28303   1.208   5.753   1.699
 9135SOL    HW128304   1.269   5.747   1.620
 9135SOL    HW228305   1.142   5.678   1.696
 9136SOL     OW28306   5.346   4.985   6.336
 9136SOL    HW128307   5.314   5.065   6.286
 9136SOL    HW228308   5.440   4.964   6.310
 9137SOL     OW28309   4.970   6.092   6.305
 9137SOL    HW128310   4.897   6.032   6.273
 9137SOL    HW228311   5.038   6.039   6.355
 9138SOL     OW28312   2.446   2.998   0.222
 9138SOL    HW128313   2.401   2.934   0.160
 9138SOL    HW228314   2.377   3.042   0.280
 9139SOL     OW28315   0.083   0.130   1.472
 9139SOL    HW128316   0.059   0.083   1.557
 9139SOL    HW228317   0.161   0.190   1.488
 9140SOL     OW28318   0.493   4.304   2.350
 9140SOL    HW128319   0.533   4.230   2.296
 9140SOL    HW228320   0.514   4.289   2.447
 9141SOL     OW28321   6.796   5.617   6.004
 9141SOL    HW128322   6.748   5.647   6.087
 9141SOL    HW228323   6.745   5.648   5.923
 9142SOL     OW28324   1.055   3.561   2.735
 9142SOL    HW128325   1.044   3.462   2.744
 9142SOL    HW228326   0.983   3.607   2.788
 9143SOL     OW28327   0.278   3.799   2.775
 9143SOL    HW128328   0.239   3.827   2.688
 9143SOL    HW228329   0.290   3.879   2.833
 9144SOL     OW28330   2.753   4.987   4.796
 9144SOL    HW128331   2.677   5.014   4.855
 9144SOL    HW228332   2.737   5.023   4.704
 9145SOL     OW28333   0.869   6.888   6.533
 9145SOL    HW128334   0.851   6.821   6.461
 9145SOL    HW228335   0.787   6.943   6.549
 9146SOL     OW28336   5.912   3.352   3.413
 9146SOL    HW128337   5.972   3.272   3.413
 9146SOL    HW228338   5.959   3.429   3.369
 9147SOL     OW28339   5.552   0.042   3.750
 9147SOL    HW128340   5.604   6.996   3.803
 9147SOL    HW228341   5.613   0.089   3.686
 9148SOL     OW28342   6.442   0.176   1.661
 9148SOL    HW128343   6.475   0.092   1.618
 9148SOL    HW228344   6.357   0.205   1.616
 9149SOL     OW28345   6.060   3.527   0.940
 9149SOL    HW128346   6.055   3.562   0.846
 9149SOL    HW228347   6.126   3.580   0.992
 9150SOL     OW28348   2.571   3.992   6.820
 9150SOL    HW128349   2.552   4.087   6.845
 9150SOL    HW228350   2.658   3.988   6.769
 9151SOL     OW28351   1.831   3.748   3.893
 9151SOL    HW128352   1.914   3.796   3.868
 9151SOL    HW228353   1.788   3.710   3.811
 9152SOL     OW28354   1.893   4.219   4.049
 9152SOL    HW128355   1.837   4.302   4.054
 9152SOL    HW228356   1.889   4.171   4.137
 9153SOL     OW28357   0.135   2.170   6.598
 9153SOL    HW128358   0.038   2.169   6.573
 9153SOL    HW228359   0.172   2.077   6.594
 9154SOL     OW28360   6.387   5.338   3.295
 9154SOL    HW128361   6.336   5.413   3.338
 9154SOL    HW228362   6.482   5.364   3.281
 9155SOL     OW28363   1.104   5.922   2.650
 9155SOL    HW128364   1.112   5.929   2.551
 9155SOL    HW228365   1.095   6.014   2.689
 9156SOL     OW28366   6.709   3.775   0.235
 9156SOL    HW128367   6.749   3.838   0.168
 9156SOL    HW228368   6.683   3.825   0.317
 9157SOL     OW28369   3.426   4.313   6.589
 9157SOL    HW128370   3.329   4.318   6.614
 9157SOL    HW228371   3.445   4.380   6.518
 9158SOL     OW28372   6.751   3.864   4.176
 9158SOL    HW128373   6.733   3.814   4.092
 9158SOL    HW228374   6.848   3.886   4.182
 9159SOL     OW28375   3.519   6.686   2.955
 9159SOL    HW128376   3.542   6.599   2.999
 9159SOL    HW228377   3.505   6.757   3.024
 9160SOL     OW28378   0.668   4.815   6.471
 9160SOL    HW128379   0.720   4.757   6.409
 9160SOL    HW228380   0.725   4.840   6.549
 9161SOL     OW28381   6.123   3.951   1.515
 9161SOL    HW128382   6.101   3.884   1.586
 9161SOL    HW228383   6.039   3.990   1.477
 9162SOL     OW28384   4.586   1.885   2.542
 9162SOL    HW128385   4.646   1.856   2.467
 9162SOL    HW228386   4.535   1.967   2.514
 9163SOL     OW28387   1.549   1.933   3.310
 9163SOL    HW128388   1.536   1.979   3.222
 9163SOL    HW228389   1.561   1.835   3.295
 9164SOL     OW28390   2.434   0.217   6.678
 9164SOL    HW128391   2.504   0.145   6.679
 9164SOL    HW228392   2.478   0.305   6.659
 9165SOL     OW28393   4.878   2.446   5.233
 9165SOL    HW128394   4.805   2.433   5.166
 9165SOL    HW228395   4.853   2.521   5.294
 9166SOL     OW28396   4.900   5.754   1.572
 9166SOL    HW128397   4.840   5.812   1.516
 9166SOL    HW228398   4.905   5.791   1.664
 9167SOL     OW28399   1.235   0.881   5.946
 9167SOL    HW128400   1.191   0.834   5.869
 9167SOL    HW228401   1.306   0.822   5.984
 9168SOL     OW28402   6.444   5.251   4.188
 9168SOL    HW128403   6.345   5.253   4.179
 9168SOL    HW228404   6.471   5.175   4.248
 9169SOL     OW28405   6.080   6.228   0.113
 9169SOL    HW128406   6.063   6.216   0.211
 9169SOL    HW228407   6.005   6.188   0.061
 9170SOL     OW28408   1.461   1.305   6.283
 9170SOL    HW128409   1.409   1.279   6.202
 9170SOL    HW228410   1.398   1.320   6.359
 9171SOL     OW28411   3.258   4.978   0.684
 9171SOL    HW128412   3.245   5.022   0.773
 9171SOL    HW228413   3.333   5.024   0.635
 9172SOL     OW28414   5.312   1.386   4.688
 9172SOL    HW128415   5.304   1.288   4.703
 9172SOL    HW228416   5.232   1.419   4.638
 9173SOL     OW28417   6.063   2.172   4.041
 9173SOL    HW128418   6.075   2.111   4.120
 9173SOL    HW228419   6.106   2.260   4.061
 9174SOL     OW28420   0.700   5.839   7.021
 9174SOL    HW128421   0.707   5.930   6.979
 9174SOL    HW228422   0.787   5.791   7.011
 9175SOL     OW28423   1.743   6.598   6.905
 9175SOL    HW128424   1.767   6.686   6.863
 9175SOL    HW228425   1.776   6.597   7.000
 9176SOL     OW28426   1.872   1.324   2.732
 9176SOL    HW128427   1.854   1.288   2.824
 9176SOL    HW228428   1.888   1.247   2.670
 9177SOL     OW28429   0.195   4.804   4.085
 9177SOL    HW128430   0.257   4.870   4.127
 9177SOL    HW228431   0.209   4.714   4.126
 9178SOL     OW28432   2.011   6.334   6.995
 9178SOL    HW128433   1.919   6.309   6.967
 9178SOL    HW228434   2.024   6.433   6.986
 9179SOL     OW28435   4.543   6.207   5.199
 9179SOL    HW128436   4.534   6.134   5.267
 9179SOL    HW228437   4.467   6.271   5.208
 9180SOL     OW28438   0.191   1.974   4.243
 9180SOL    HW128439   0.103   1.927   4.230
 9180SOL    HW228440   0.180   2.071   4.221
 9181SOL     OW28441   4.054   1.923   3.611
 9181SOL    HW128442   4.039   1.998   3.675
 9181SOL    HW228443   4.114   1.953   3.537
 9182SOL     OW28444   2.215   1.270   2.975
 9182SOL    HW128445   2.160   1.298   3.054
 9182SOL    HW228446   2.239   1.351   2.921
 9183SOL     OW28447   5.119   2.033   6.004
 9183SOL    HW128448   5.119   2.107   6.072
 9183SOL    HW228449   5.190   1.967   6.026
 9184SOL     OW28450   3.185   3.063   1.022
 9184SOL    HW128451   3.131   2.997   1.074
 9184SOL    HW228452   3.273   3.022   0.997
 9185SOL     OW28453   0.395   0.402   0.108
 9185SOL    HW128454   0.461   0.413   0.034
 9185SOL    HW228455   0.371   0.491   0.146
 9186SOL     OW28456   5.137   0.529   5.989
 9186SOL    HW128457   5.164   0.613   5.943
 9186SOL    HW228458   5.215   0.465   5.990
 9187SOL     OW28459   5.313   1.815   0.370
 9187SOL    HW128460   5.293   1.877   0.294
 9187SOL    HW228461   5.410   1.791   0.369
 9188SOL     OW28462   1.251   0.083   2.060
 9188SOL    HW128463   1.203   0.017   2.117
 9188SOL    HW228464   1.281   0.038   1.976
 9189SOL     OW28465   2.702   1.515   3.607
 9189SOL    HW128466   2.615   1.472   3.581
 9189SOL    HW228467   2.759   1.447   3.655
 9190SOL     OW28468   5.733   3.980   5.387
 9190SOL    HW128469   5.717   3.905   5.451
 9190SOL    HW228470   5.814   3.960   5.332
 9191SOL     OW28471   5.205   6.246   6.295
 9191SOL    HW128472   5.116   6.200   6.298
 9191SOL    HW228473   5.197   6.329   6.238
 9192SOL     OW28474   6.930   3.884   5.994
 9192SOL    HW128475   6.960   3.916   5.904
 9192SOL    HW228476   6.958   3.951   6.064
 9193SOL     OW28477   4.000   3.173   3.352
 9193SOL    HW128478   4.035   3.239   3.419
 9193SOL    HW228479   3.963   3.093   3.400
 9194SOL     OW28480   2.811   5.709   2.826
 9194SOL    HW128481   2.888   5.707   2.889
 9194SOL    HW228482   2.841   5.676   2.736
 9195SOL     OW28483   0.547   3.147   3.713
 9195SOL    HW128484   0.466   3.109   3.758
 9195SOL    HW228485   0.594   3.074   3.663
 9196SOL     OW28486   4.210   0.612   3.144
 9196SOL    HW128487   4.273   0.538   3.168
 9196SOL    HW228488   4.193   0.610   3.045
 9197SOL     OW28489   2.883   2.973   6.611
 9197SOL    HW128490   2.872   2.892   6.552
 9197SOL    HW228491   2.860   3.055   6.559
 9198SOL     OW28492   5.685   3.588   5.711
 9198SOL    HW128493   5.673   3.684   5.687
 9198SOL    HW228494   5.605   3.557   5.763
 9199SOL     OW28495   1.782   4.116   6.602
 9199SOL    HW128496   1.733   4.032   6.624
 9199SOL    HW228497   1.719   4.181   6.560
 9200SOL     OW28498   6.249   0.353   0.537
 9200SOL    HW128499   6.321   0.299   0.493
 9200SOL    HW228500   6.199   0.404   0.468
 9201SOL     OW28501   6.987   4.637   1.650
 9201SOL    HW128502   6.910   4.654   1.588
 9201SOL    HW228503   0.001   4.545   1.635
 9202SOL     OW28504   2.741   5.103   4.137
 9202SOL    HW128505   2.698   5.052   4.212
 9202SOL    HW228506   2.805   5.043   4.089
 9203SOL     OW28507   5.396   0.967   5.451
 9203SOL    HW128508   5.441   0.878   5.461
 9203SOL    HW228509   5.363   0.998   5.540
 9204SOL     OW28510   5.519   4.141   2.977
 9204SOL    HW128511   5.535   4.043   2.990
 9204SOL    HW228512   5.484   4.157   2.885
 9205SOL     OW28513   5.989   2.969   2.631
 9205SOL    HW128514   6.061   2.919   2.679
 9205SOL    HW228515   5.908   2.911   2.622
 9206SOL     OW28516   1.615   6.322   3.172
 9206SOL    HW128517   1.711   6.336   3.149
 9206SOL    HW228518   1.595   6.368   3.259
 9207SOL     OW28519   4.142   5.891   6.769
 9207SOL    HW128520   4.195   5.944   6.835
 9207SOL    HW228521   4.048   5.883   6.801
 9208SOL     OW28522   4.931   3.630   2.295
 9208SOL    HW128523   4.967   3.705   2.238
 9208SOL    HW228524   4.945   3.543   2.248
 9209SOL     OW28525   3.684   1.388   2.586
 9209SOL    HW128526   3.745   1.309   2.572
 9209SOL    HW228527   3.590   1.362   2.565
 9210SOL     OW28528   2.163   0.003   1.014
 9210SOL    HW128529   2.177   0.022   1.111
 9210SOL    HW228530   2.114   0.079   0.972
 9211SOL     OW28531   4.809   1.758   6.710
 9211SOL    HW128532   4.719   1.718   6.724
 9211SOL    HW228533   4.848   1.724   6.625
 9212SOL     OW28534   5.527   4.321   4.590
 9212SOL    HW128535   5.536   4.308   4.688
 9212SOL    HW228536   5.550   4.236   4.542
 9213SOL     OW28537   5.874   6.866   3.582
 9213SOL    HW128538   5.803   6.833   3.520
 9213SOL    HW228539   5.836   6.882   3.673
 9214SOL     OW28540   2.371   2.601   4.527
 9214SOL    HW128541   2.468   2.578   4.533
 9214SOL    HW228542   2.361   2.694   4.492
 9215SOL     OW28543   0.507   4.064   2.568
 9215SOL    HW128544   0.542   4.028   2.654
 9215SOL    HW228545   0.495   3.990   2.502
 9216SOL     OW28546   2.832   6.069   5.335
 9216SOL    HW128547   2.929   6.075   5.315
 9216SOL    HW228548   2.797   5.979   5.308
 9217SOL     OW28549   4.944   1.381   5.922
 9217SOL    HW128550   5.029   1.412   5.879
 9217SOL    HW228551   4.965   1.326   6.002
 9218SOL     OW28552   6.008   6.553   6.125
 9218SOL    HW128553   5.958   6.557   6.039
 9218SOL    HW228554   6.012   6.645   6.165
 9219SOL     OW28555   3.602   3.055   5.607
 9219SOL    HW128556   3.576   3.117   5.532
 9219SOL    HW228557   3.666   2.987   5.572
 9220SOL     OW28558   1.487   6.516   2.903
 9220SOL    HW128559   1.522   6.559   2.987
 9220SOL    HW228560   1.451   6.425   2.924
 9221SOL     OW28561   2.257   0.665   6.381
 9221SOL    HW128562   2.205   0.615   6.312
 9221SOL    HW228563   2.345   0.619   6.395
 9222SOL     OW28564   1.385   4.647   3.518
 9222SOL    HW128565   1.484   4.655   3.513
 9222SOL    HW228566   1.343   4.726   3.471
 9223SOL     OW28567   1.750   3.856   4.801
 9223SOL    HW128568   1.702   3.938   4.831
 9223SOL    HW228569   1.777   3.866   4.706
 9224SOL     OW28570   1.557   4.416   3.759
 9224SOL    HW128571   1.494   4.367   3.699
 9224SOL    HW228572   1.647   4.420   3.715
 9225SOL     OW28573   4.695   6.933   6.429
 9225SOL    HW128574   4.660   6.848   6.391
 9225SOL    HW228575   4.747   6.982   6.359
 9226SOL     OW28576   1.109   6.960   0.939
 9226SOL    HW128577   1.014   6.929   0.928
 9226SOL    HW228578   1.109   0.035   0.963
 9227SOL     OW28579   2.613   5.296   0.794
 9227SOL    HW128580   2.686   5.364   0.794
 9227SOL    HW228581   2.553   5.311   0.873
 9228SOL     OW28582   2.446   2.448   5.801
 9228SOL    HW128583   2.396   2.431   5.716
 9228SOL    HW228584   2.544   2.444   5.784
 9229SOL     OW28585   0.146   4.656   6.762
 9229SOL    HW128586   0.057   4.699   6.779
 9229SOL    HW228587   0.195   4.707   6.690
 9230SOL     OW28588   4.900   2.278   4.030
 9230SOL    HW128589   4.893   2.262   3.932
 9230SOL    HW228590   4.931   2.195   4.076
 9231SOL     OW28591   0.693   5.179   5.283
 9231SOL    HW128592   0.680   5.114   5.208
 9231SOL    HW228593   0.640   5.262   5.265
 9232SOL     OW28594   1.755   5.951   1.669
 9232SOL    HW128595   1.758   6.029   1.731
 9232SOL    HW228596   1.666   5.906   1.677
 9233SOL     OW28597   0.348   0.623   0.241
 9233SOL    HW128598   0.253   0.643   0.218
 9233SOL    HW228599   0.381   0.690   0.307
 9234SOL     OW28600   2.582   4.766   0.648
 9234SOL    HW128601   2.594   4.750   0.550
 9234SOL    HW228602   2.631   4.695   0.699
 9235SOL     OW28603   2.404   2.519   3.921
 9235SOL    HW128604   2.387   2.599   3.863
 9235SOL    HW228605   2.493   2.480   3.898
 9236SOL     OW28606   1.903   3.132   6.477
 9236SOL    HW128607   1.905   3.232   6.485
 9236SOL    HW228608   1.938   3.091   6.561
 9237SOL     OW28609   5.457   5.499   3.424
 9237SOL    HW128610   5.470   5.593   3.394
 9237SOL    HW228611   5.402   5.450   3.357
 9238SOL     OW28612   1.470   3.363   5.155
 9238SOL    HW128613   1.391   3.378   5.096
 9238SOL    HW228614   1.443   3.307   5.233
 9239SOL     OW28615   0.535   4.497   0.255
 9239SOL    HW128616   0.464   4.553   0.298
 9239SOL    HW228617   0.531   4.404   0.292
 9240SOL     OW28618   4.812   2.970   2.721
 9240SOL    HW128619   4.845   3.055   2.760
 9240SOL    HW228620   4.889   2.908   2.707
 9241SOL     OW28621   6.207   6.551   0.470
 9241SOL    HW128622   6.240   6.624   0.411
 9241SOL    HW228623   6.118   6.520   0.437
 9242SOL     OW28624   1.621   2.160   1.967
 9242SOL    HW128625   1.567   2.226   2.019
 9242SOL    HW228626   1.585   2.154   1.874
 9243SOL     OW28627   0.614   0.156   1.551
 9243SOL    HW128628   0.562   0.207   1.482
 9243SOL    HW228629   0.626   0.061   1.520
 9244SOL     OW28630   4.094   6.500   4.958
 9244SOL    HW128631   4.127   6.408   4.979
 9244SOL    HW228632   4.087   6.553   5.042
 9245SOL     OW28633   1.235   4.516   3.212
 9245SOL    HW128634   1.250   4.610   3.181
 9245SOL    HW228635   1.185   4.518   3.299
 9246SOL     OW28636   6.234   0.617   4.338
 9246SOL    HW128637   6.188   0.559   4.405
 9246SOL    HW228638   6.333   0.607   4.348
 9247SOL     OW28639   3.632   5.423   3.206
 9247SOL    HW128640   3.532   5.417   3.217
 9247SOL    HW228641   3.653   5.451   3.113
 9248SOL     OW28642   2.559   1.723   5.284
 9248SOL    HW128643   2.605   1.639   5.256
 9248SOL    HW228644   2.540   1.779   5.204
 9249SOL     OW28645   3.902   4.843   1.857
 9249SOL    HW128646   3.841   4.764   1.863
 9249SOL    HW228647   3.956   4.850   1.941
 9250SOL     OW28648   0.165   3.598   4.349
 9250SOL    HW128649   0.203   3.508   4.369
 9250SOL    HW228650   0.227   3.648   4.289
 9251SOL     OW28651   3.749   2.493   0.780
 9251SOL    HW128652   3.816   2.429   0.740
 9251SOL    HW228653   3.726   2.463   0.873
 9252SOL     OW28654   4.279   0.496   5.207
 9252SOL    HW128655   4.181   0.484   5.188
 9252SOL    HW228656   4.297   0.591   5.232
 9253SOL     OW28657   0.936   4.914   5.796
 9253SOL    HW128658   0.860   4.916   5.732
 9253SOL    HW228659   1.003   4.985   5.772
 9254SOL     OW28660   6.236   4.398   2.408
 9254SOL    HW128661   6.208   4.391   2.503
 9254SOL    HW228662   6.336   4.397   2.402
 9255SOL     OW28663   6.232   4.698   0.474
 9255SOL    HW128664   6.176   4.781   0.472
 9255SOL    HW228665   6.214   4.647   0.558
 9256SOL     OW28666   2.117   6.893   1.577
 9256SOL    HW128667   2.202   6.932   1.613
 9256SOL    HW228668   2.108   6.917   1.480
 9257SOL     OW28669   0.171   5.554   3.948
 9257SOL    HW128670   0.207   5.584   4.036
 9257SOL    HW228671   0.074   5.532   3.957
 9258SOL     OW28672   3.731   3.559   0.925
 9258SOL    HW128673   3.709   3.641   0.873
 9258SOL    HW228674   3.794   3.581   0.999
 9259SOL     OW28675   2.014   1.510   6.616
 9259SOL    HW128676   2.016   1.411   6.631
 9259SOL    HW228677   1.967   1.530   6.529
 9260SOL     OW28678   5.819   2.717   5.762
 9260SOL    HW128679   5.793   2.695   5.857
 9260SOL    HW228680   5.766   2.661   5.699
 9261SOL     OW28681   4.089   1.937   0.819
 9261SOL    HW128682   4.066   2.035   0.820
 9261SOL    HW228683   4.005   1.884   0.830
 9262SOL     OW28684   6.550   6.497   3.967
 9262SOL    HW128685   6.647   6.476   3.973
 9262SOL    HW228686   6.516   6.524   4.058
 9263SOL     OW28687   2.762   4.655   2.996
 9263SOL    HW128688   2.731   4.672   2.902
 9263SOL    HW228689   2.695   4.599   3.044
 9264SOL     OW28690   5.446   4.116   6.718
 9264SOL    HW128691   5.356   4.139   6.754
 9264SOL    HW228692   5.437   4.075   6.627
 9265SOL     OW28693   4.483   2.032   6.925
 9265SOL    HW128694   4.456   2.088   7.004
 9265SOL    HW228695   4.514   2.092   6.851
 9266SOL     OW28696   0.580   4.248   1.275
 9266SOL    HW128697   0.557   4.343   1.296
 9266SOL    HW228698   0.541   4.223   1.187
 9267SOL     OW28699   0.603   0.903   3.737
 9267SOL    HW128700   0.560   0.880   3.825
 9267SOL    HW228701   0.538   0.886   3.663
 9268SOL     OW28702   0.589   6.664   1.606
 9268SOL    HW128703   0.560   6.578   1.648
 9268SOL    HW228704   0.629   6.646   1.516
 9269SOL     OW28705   4.624   7.018   0.370
 9269SOL    HW128706   4.681   6.942   0.339
 9269SOL    HW228707   4.529   6.988   0.373
 9270SOL     OW28708   3.278   0.864   6.623
 9270SOL    HW128709   3.344   0.817   6.565
 9270SOL    HW228710   3.186   0.831   6.603
 9271SOL     OW28711   1.007   0.366   6.856
 9271SOL    HW128712   0.958   0.384   6.941
 9271SOL    HW228713   1.105   0.382   6.869
 9272SOL     OW28714   6.488   6.597   6.085
 9272SOL    HW128715   6.524   6.690   6.084
 9272SOL    HW228716   6.561   6.533   6.108
 9273SOL     OW28717   5.060   5.634   3.868
 9273SOL    HW128718   5.021   5.676   3.786
 9273SOL    HW228719   5.066   5.535   3.854
 9274SOL     OW28720   0.761   3.129   0.364
 9274SOL    HW128721   0.702   3.099   0.439
 9274SOL    HW228722   0.709   3.128   0.278
 9275SOL     OW28723   0.734   6.688   1.377
 9275SOL    HW128724   0.698   6.601   1.342
 9275SOL    HW228725   0.832   6.693   1.357
 9276SOL     OW28726   3.305   4.063   0.190
 9276SOL    HW128727   3.372   4.015   0.133
 9276SOL    HW228728   3.256   4.129   0.134
 9277SOL     OW28729   4.389   4.608   2.328
 9277SOL    HW128730   4.450   4.533   2.302
 9277SOL    HW228731   4.443   4.689   2.350
 9278SOL     OW28732   0.391   0.805   4.396
 9278SOL    HW128733   0.454   0.838   4.326
 9278SOL    HW228734   0.437   0.804   4.485
 9279SOL     OW28735   3.801   4.950   1.442
 9279SOL    HW128736   3.803   5.047   1.467
 9279SOL    HW228737   3.795   4.941   1.343
 9280SOL     OW28738   1.504   1.235   2.876
 9280SOL    HW128739   1.452   1.293   2.939
 9280SOL    HW228740   1.443   1.202   2.804
 9281SOL     OW28741   3.377   3.900   6.662
 9281SOL    HW128742   3.353   3.973   6.726
 9281SOL    HW228743   3.303   3.833   6.659
 9282SOL     OW28744   3.420   6.857   4.529
 9282SOL    HW128745   3.398   6.929   4.463
 9282SOL    HW228746   3.343   6.794   4.535
 9283SOL     OW28747   4.826   6.312   6.354
 9283SOL    HW128748   4.900   6.365   6.394
 9283SOL    HW228749   4.863   6.230   6.310
 9284SOL     OW28750   3.014   4.101   5.187
 9284SOL    HW128751   3.032   4.192   5.224
 9284SOL    HW228752   3.100   4.052   5.175
 9285SOL     OW28753   6.329   3.205   2.518
 9285SOL    HW128754   6.272   3.286   2.532
 9285SOL    HW228755   6.387   3.191   2.598
 9286SOL     OW28756   4.472   6.153   0.599
 9286SOL    HW128757   4.536   6.144   0.675
 9286SOL    HW228758   4.465   6.249   0.572
 9287SOL     OW28759   2.956   4.602   5.760
 9287SOL    HW128760   2.943   4.673   5.828
 9287SOL    HW228761   3.042   4.553   5.779
 9288SOL     OW28762   4.412   2.355   3.803
 9288SOL    HW128763   4.405   2.413   3.722
 9288SOL    HW228764   4.413   2.259   3.775
 9289SOL     OW28765   4.252   6.265   6.779
 9289SOL    HW128766   4.161   6.226   6.766
 9289SOL    HW228767   4.321   6.199   6.749
 9290SOL     OW28768   5.743   0.593   4.957
 9290SOL    HW128769   5.790   0.642   5.030
 9290SOL    HW228770   5.755   0.641   4.870
 9291SOL     OW28771   1.064   5.527   5.512
 9291SOL    HW128772   1.131   5.510   5.583
 9291SOL    HW228773   1.090   5.479   5.429
 9292SOL     OW28774   1.260   1.295   6.076
 9292SOL    HW128775   1.218   1.234   6.009
 9292SOL    HW228776   1.319   1.361   6.029
 9293SOL     OW28777   4.713   2.843   5.666
 9293SOL    HW128778   4.645   2.770   5.672
 9293SOL    HW228779   4.767   2.832   5.583
 9294SOL     OW28780   4.564   0.855   0.128
 9294SOL    HW128781   4.568   0.757   0.147
 9294SOL    HW228782   4.621   0.876   0.049
 9295SOL     OW28783   0.642   0.504   4.716
 9295SOL    HW128784   0.609   0.584   4.665
 9295SOL    HW228785   0.735   0.482   4.686
 9296SOL     OW28786   2.995   4.397   0.843
 9296SOL    HW128787   3.013   4.314   0.895
 9296SOL    HW228788   3.020   4.384   0.747
 9297SOL     OW28789   6.724   6.518   3.104
 9297SOL    HW128790   6.672   6.443   3.062
 9297SOL    HW228791   6.668   6.560   3.175
 9298SOL     OW28792   1.322   6.318   5.522
 9298SOL    HW128793   1.370   6.303   5.435
 9298SOL    HW228794   1.382   6.291   5.598
 9299SOL     OW28795   1.985   2.297   4.678
 9299SOL    HW128796   1.887   2.278   4.672
 9299SOL    HW228797   2.015   2.284   4.772
 9300SOL     OW28798   1.457   5.770   5.486
 9300SOL    HW128799   1.379   5.829   5.509
 9300SOL    HW228800   1.451   5.746   5.389
 9301SOL     OW28801   0.540   4.182   4.561
 9301SOL    HW128802   0.570   4.109   4.623
 9301SOL    HW228803   0.442   4.173   4.545
 9302SOL     OW28804   2.176   3.057   5.222
 9302SOL    HW128805   2.266   3.037   5.184
 9302SOL    HW228806   2.106   3.037   5.154
 9303SOL     OW28807   3.073   4.007   0.325
 9303SOL    HW128808   3.034   3.924   0.287
 9303SOL    HW228809   3.156   4.031   0.275
 9304SOL     OW28810   5.193   4.870   0.833
 9304SOL    HW128811   5.230   4.948   0.783
 9304SOL    HW228812   5.165   4.799   0.768
 9305SOL     OW28813   2.506   1.378   0.747
 9305SOL    HW128814   2.450   1.443   0.695
 9305SOL    HW228815   2.597   1.373   0.706
 9306SOL     OW28816   0.343   4.213   5.285
 9306SOL    HW128817   0.440   4.197   5.267
 9306SOL    HW228818   0.289   4.164   5.217
 9307SOL     OW28819   2.384   2.998   0.952
 9307SOL    HW128820   2.370   2.917   1.009
 9307SOL    HW228821   2.306   3.009   0.891
 9308SOL     OW28822   1.701   3.971   1.466
 9308SOL    HW128823   1.614   3.923   1.456
 9308SOL    HW228824   1.715   4.032   1.389
 9309SOL     OW28825   4.485   6.024   5.407
 9309SOL    HW128826   4.561   6.058   5.462
 9309SOL    HW228827   4.442   5.947   5.454
 9310SOL     OW28828   4.326   6.270   6.061
 9310SOL    HW128829   4.411   6.218   6.054
 9310SOL    HW228830   4.337   6.344   6.127
 9311SOL     OW28831   4.418   3.541   1.676
 9311SOL    HW128832   4.477   3.467   1.710
 9311SOL    HW228833   4.325   3.525   1.708
 9312SOL     OW28834   0.734   2.167   1.007
 9312SOL    HW128835   0.762   2.247   1.061
 9312SOL    HW228836   0.640   2.142   1.031
 9313SOL     OW28837   1.224   6.607   1.778
 9313SOL    HW128838   1.277   6.528   1.810
 9313SOL    HW228839   1.234   6.683   1.843
 9314SOL     OW28840   5.030   2.625   0.587
 9314SOL    HW128841   5.072   2.616   0.497
 9314SOL    HW228842   4.967   2.548   0.603
 9315SOL     OW28843   5.627   1.362   6.605
 9315SOL    HW128844   5.562   1.296   6.568
 9315SOL    HW228845   5.720   1.338   6.575
 9316SOL     OW28846   4.654   0.925   5.446
 9316SOL    HW128847   4.738   0.974   5.471
 9316SOL    HW228848   4.627   0.866   5.522
 9317SOL     OW28849   2.902   5.623   4.248
 9317SOL    HW128850   2.839   5.692   4.282
 9317SOL    HW228851   2.896   5.540   4.304
 9318SOL     OW28852   4.543   6.476   0.316
 9318SOL    HW128853   4.514   6.572   0.313
 9318SOL    HW228854   4.522   6.437   0.405
 9319SOL     OW28855   2.466   4.126   0.527
 9319SOL    HW128856   2.538   4.057   0.532
 9319SOL    HW228857   2.394   4.095   0.466
 9320SOL     OW28858   6.306   0.461   6.026
 9320SOL    HW128859   6.338   0.372   6.056
 9320SOL    HW228860   6.338   0.532   6.089
 9321SOL     OW28861   0.394   3.095   5.629
 9321SOL    HW128862   0.422   3.103   5.533
 9321SOL    HW228863   0.328   3.168   5.650
 9322SOL     OW28864   6.175   4.049   5.684
 9322SOL    HW128865   6.090   4.021   5.641
 9322SOL    HW228866   6.234   4.093   5.617
 9323SOL     OW28867   1.393   3.482   3.200
 9323SOL    HW128868   1.472   3.478   3.138
 9323SOL    HW228869   1.312   3.509   3.148
 9324SOL     OW28870   1.264   4.262   1.277
 9324SOL    HW128871   1.313   4.190   1.227
 9324SOL    HW228872   1.188   4.221   1.327
 9325SOL     OW28873   1.627   5.402   2.457
 9325SOL    HW128874   1.682   5.377   2.377
 9325SOL    HW228875   1.654   5.493   2.488
 9326SOL     OW28876   4.118   4.252   0.363
 9326SOL    HW128877   4.187   4.220   0.429
 9326SOL    HW228878   4.124   4.198   0.280
 9327SOL     OW28879   4.695   0.857   3.120
 9327SOL    HW128880   4.663   0.779   3.066
 9327SOL    HW228881   4.695   0.833   3.217
 9328SOL     OW28882   2.837   6.451   4.391
 9328SOL    HW128883   2.812   6.355   4.385
 9328SOL    HW228884   2.936   6.460   4.392
 9329SOL     OW28885   0.117   6.120   6.432
 9329SOL    HW128886   0.109   6.118   6.531
 9329SOL    HW228887   0.170   6.042   6.401
 9330SOL     OW28888   6.069   6.999   6.684
 9330SOL    HW128889   6.052   0.076   6.691
 9330SOL    HW228890   6.040   6.954   6.769
 9331SOL     OW28891   1.809   3.112   5.003
 9331SOL    HW128892   1.836   3.032   4.950
 9331SOL    HW228893   1.717   3.098   5.039
 9332SOL     OW28894   4.241   5.766   0.757
 9332SOL    HW128895   4.244   5.864   0.737
 9332SOL    HW228896   4.217   5.752   0.853
 9333SOL     OW28897   3.398   5.406   0.643
 9333SOL    HW128898   3.463   5.433   0.572
 9333SOL    HW228899   3.311   5.454   0.630
 9334SOL     OW28900   4.842   6.878   5.341
 9334SOL    HW128901   4.918   6.942   5.330
 9334SOL    HW228902   4.829   6.827   5.256
 9335SOL     OW28903   2.471   1.910   1.756
 9335SOL    HW128904   2.384   1.906   1.805
 9335SOL    HW228905   2.507   2.003   1.760
 9336SOL     OW28906   6.633   1.100   5.016
 9336SOL    HW128907   6.647   1.005   4.987
 9336SOL    HW228908   6.543   1.108   5.058
 9337SOL     OW28909   4.548   0.781   5.647
 9337SOL    HW128910   4.610   0.750   5.719
 9337SOL    HW228911   4.520   0.875   5.665
 9338SOL     OW28912   6.535   6.171   0.479
 9338SOL    HW128913   6.533   6.072   0.496
 9338SOL    HW228914   6.448   6.200   0.440
 9339SOL     OW28915   6.140   4.853   6.174
 9339SOL    HW128916   6.187   4.938   6.195
 9339SOL    HW228917   6.065   4.871   6.110
 9340SOL     OW28918   3.478   5.871   2.529
 9340SOL    HW128919   3.530   5.949   2.493
 9340SOL    HW228920   3.449   5.813   2.454
 9341SOL     OW28921   5.806   4.120   6.408
 9341SOL    HW128922   5.877   4.129   6.338
 9341SOL    HW228923   5.789   4.209   6.450
 9342SOL     OW28924   2.705   0.323   4.560
 9342SOL    HW128925   2.728   0.238   4.608
 9342SOL    HW228926   2.751   0.324   4.471
 9343SOL     OW28927   4.732   4.470   1.932
 9343SOL    HW128928   4.667   4.402   1.967
 9343SOL    HW228929   4.818   4.425   1.909
 9344SOL     OW28930   5.915   5.423   5.787
 9344SOL    HW128931   5.843   5.359   5.761
 9344SOL    HW228932   6.002   5.391   5.750
 9345SOL     OW28933   6.960   6.074   0.310
 9345SOL    HW128934   0.033   6.088   0.340
 9345SOL    HW228935   6.938   5.977   0.313
 9346SOL     OW28936   5.665   6.816   1.946
 9346SOL    HW128937   5.583   6.842   1.895
 9346SOL    HW228938   5.746   6.825   1.887
 9347SOL     OW28939   3.669   5.693   1.470
 9347SOL    HW128940   3.706   5.641   1.392
 9347SOL    HW228941   3.678   5.791   1.451
 9348SOL     OW28942   2.579   6.255   2.806
 9348SOL    HW128943   2.532   6.342   2.815
 9348SOL    HW228944   2.619   6.248   2.714
 9349SOL     OW28945   6.480   5.692   2.307
 9349SOL    HW128946   6.491   5.663   2.402
 9349SOL    HW228947   6.509   5.787   2.297
 9350SOL     OW28948   0.181   1.731   4.956
 9350SOL    HW128949   0.099   1.709   4.902
 9350SOL    HW228950   0.246   1.655   4.951
 9351SOL     OW28951   2.487   0.856   5.517
 9351SOL    HW128952   2.477   0.757   5.517
 9351SOL    HW228953   2.524   0.886   5.429
 9352SOL     OW28954   2.321   2.132   5.902
 9352SOL    HW128955   2.232   2.119   5.858
 9352SOL    HW228956   2.312   2.197   5.977
 9353SOL     OW28957   1.053   4.106   1.397
 9353SOL    HW128958   0.991   4.096   1.475
 9353SOL    HW228959   1.011   4.065   1.316
 9354SOL     OW28960   6.314   2.317   1.360
 9354SOL    HW128961   6.246   2.255   1.322
 9354SOL    HW228962   6.351   2.375   1.288
 9355SOL     OW28963   6.773   0.315   4.387
 9355SOL    HW128964   6.871   0.296   4.386
 9355SOL    HW228965   6.751   0.372   4.466
 9356SOL     OW28966   4.471   5.249   2.011
 9356SOL    HW128967   4.485   5.348   2.011
 9356SOL    HW228968   4.374   5.229   2.022
 9357SOL     OW28969   3.008   3.268   0.378
 9357SOL    HW128970   2.916   3.234   0.358
 9357SOL    HW228971   3.057   3.281   0.292
 9358SOL     OW28972   5.775   4.479   1.540
 9358SOL    HW128973   5.762   4.578   1.553
 9358SOL    HW228974   5.758   4.432   1.627
 9359SOL     OW28975   0.001   4.153   6.684
 9359SOL    HW128976   6.968   4.149   6.769
 9359SOL    HW228977   0.072   4.223   6.693
 9360SOL     OW28978   2.052   0.032   5.356
 9360SOL    HW128979   1.960   0.052   5.320
 9360SOL    HW228980   2.119   0.087   5.306
 9361SOL     OW28981   2.968   6.279   2.570
 9361SOL    HW128982   2.987   6.256   2.474
 9361SOL    HW228983   3.014   6.214   2.629
 9362SOL     OW28984   2.379   1.139   2.425
 9362SOL    HW128985   2.442   1.217   2.423
 9362SOL    HW228986   2.421   1.064   2.476
 9363SOL     OW28987   3.467   5.494   2.480
 9363SOL    HW128988   3.510   5.582   2.458
 9363SOL    HW228989   3.394   5.509   2.547
 9364SOL     OW28990   4.549   2.675   6.188
 9364SOL    HW128991   4.593   2.755   6.230
 9364SOL    HW228992   4.618   2.621   6.139
 9365SOL     OW28993   2.498   2.357   4.960
 9365SOL    HW128994   2.495   2.446   4.915
 9365SOL    HW228995   2.561   2.360   5.037
 9366SOL     OW28996   3.162   1.684   0.763
 9366SOL    HW128997   3.228   1.614   0.791
 9366SOL    HW228998   3.083   1.682   0.824
 9367SOL     OW28999   6.944   5.460   3.965
 9367SOL    HW129000   6.982   5.406   3.889
 9367SOL    HW229001   6.881   5.403   4.018
 9368SOL     OW29002   3.828   1.767   2.063
 9368SOL    HW129003   3.770   1.727   2.134
 9368SOL    HW229004   3.919   1.785   2.100
 9369SOL     OW29005   6.573   1.394   5.951
 9369SOL    HW129006   6.480   1.414   5.922
 9369SOL    HW229007   6.634   1.398   5.871
 9370SOL     OW29008   5.895   1.202   2.983
 9370SOL    HW129009   5.930   1.168   2.895
 9370SOL    HW229010   5.921   1.138   3.056
 9371SOL     OW29011   1.103   5.402   0.479
 9371SOL    HW129012   1.074   5.324   0.423
 9371SOL    HW229013   1.134   5.476   0.420
 9372SOL     OW29014   5.182   6.194   3.036
 9372SOL    HW129015   5.175   6.158   3.129
 9372SOL    HW229016   5.267   6.246   3.026
 9373SOL     OW29017   4.502   1.659   3.207
 9373SOL    HW129018   4.504   1.599   3.127
 9373SOL    HW229019   4.415   1.649   3.254
 9374SOL     OW29020   5.957   3.010   0.213
 9374SOL    HW129021   5.895   2.933   0.229
 9374SOL    HW229022   6.038   3.000   0.271
 9375SOL     OW29023   0.059   1.792   3.442
 9375SOL    HW129024   0.103   1.705   3.466
 9375SOL    HW229025   7.013   1.776   3.369
 9376SOL     OW29026   3.551   3.794   1.272
 9376SOL    HW129027   3.584   3.703   1.297
 9376SOL    HW229028   3.532   3.797   1.174
 9377SOL     OW29029   6.408   5.338   3.624
 9377SOL    HW129030   6.496   5.384   3.615
 9377SOL    HW229031   6.341   5.383   3.566
 9378SOL     OW29032   2.583   6.918   5.862
 9378SOL    HW129033   2.495   6.894   5.822
 9378SOL    HW229034   2.585   7.016   5.882
 9379SOL     OW29035   4.745   4.590   4.475
 9379SOL    HW129036   4.760   4.611   4.571
 9379SOL    HW229037   4.809   4.519   4.446
 9380SOL     OW29038   6.262   6.345   5.516
 9380SOL    HW129039   6.348   6.302   5.544
 9380SOL    HW229040   6.226   6.299   5.435
 9381SOL     OW29041   3.016   2.934   5.316
 9381SOL    HW129042   3.089   2.965   5.377
 9381SOL    HW229043   2.940   2.999   5.319
 9382SOL     OW29044   4.109   0.901   3.188
 9382SOL    HW129045   4.090   0.873   3.093
 9382SOL    HW229046   4.077   0.830   3.250
 9383SOL     OW29047   3.672   6.243   4.716
 9383SOL    HW129048   3.586   6.277   4.754
 9383SOL    HW229049   3.739   6.233   4.790
 9384SOL     OW29050   3.894   5.846   2.245
 9384SOL    HW129051   3.887   5.760   2.296
 9384SOL    HW229052   3.971   5.899   2.280
 9385SOL     OW29053   4.319   1.819   2.695
 9385SOL    HW129054   4.400   1.815   2.637
 9385SOL    HW229055   4.239   1.844   2.640
 9386SOL     OW29056   3.462   5.929   4.441
 9386SOL    HW129057   3.546   5.938   4.495
 9386SOL    HW229058   3.466   5.991   4.363
 9387SOL     OW29059   4.225   7.009   1.192
 9387SOL    HW129060   4.128   6.987   1.199
 9387SOL    HW229061   4.267   6.953   1.120
 9388SOL     OW29062   1.504   6.310   2.337
 9388SOL    HW129063   1.421   6.275   2.293
 9388SOL    HW229064   1.583   6.256   2.306
 9389SOL     OW29065   2.408   0.243   5.199
 9389SOL    HW129066   2.355   0.324   5.226
 9389SOL    HW229067   2.482   0.228   5.265
 9390SOL     OW29068   3.859   5.936   3.244
 9390SOL    HW129069   3.784   5.884   3.203
 9390SOL    HW229070   3.939   5.931   3.185
 9391SOL     OW29071   2.019   0.944   5.617
 9391SOL    HW129072   2.061   0.877   5.680
 9391SOL    HW229073   1.944   0.990   5.664
 9392SOL     OW29074   0.461   6.734   4.717
 9392SOL    HW129075   0.419   6.772   4.634
 9392SOL    HW229076   0.400   6.752   4.795
 9393SOL     OW29077   3.838   1.708   4.153
 9393SOL    HW129078   3.762   1.718   4.218
 9393SOL    HW229079   3.826   1.772   4.077
 9394SOL     OW29080   6.252   2.651   3.335
 9394SOL    HW129081   6.272   2.699   3.249
 9394SOL    HW229082   6.259   2.553   3.320
 9395SOL     OW29083   2.691   2.172   0.619
 9395SOL    HW129084   2.634   2.175   0.537
 9395SOL    HW229085   2.655   2.235   0.687
 9396SOL     OW29086   0.067   6.332   4.800
 9396SOL    HW129087   0.064   6.242   4.757
 9396SOL    HW229088   0.107   6.398   4.736
 9397SOL     OW29089   2.634   0.250   0.340
 9397SOL    HW129090   2.601   0.313   0.410
 9397SOL    HW229091   2.616   0.289   0.249
 9398SOL     OW29092   1.843   0.500   6.998
 9398SOL    HW129093   1.765   0.440   7.017
 9398SOL    HW229094   1.926   0.461   0.016
 9399SOL     OW29095   6.775   1.966   0.418
 9399SOL    HW129096   6.706   1.896   0.403
 9399SOL    HW229097   6.866   1.925   0.414
 9400SOL     OW29098   5.196   3.729   1.665
 9400SOL    HW129099   5.231   3.823   1.663
 9400SOL    HW229100   5.153   3.711   1.753
 9401SOL     OW29101   2.605   6.685   3.690
 9401SOL    HW129102   2.677   6.749   3.666
 9401SOL    HW229103   2.645   6.597   3.717
 9402SOL     OW29104   1.963   4.752   5.800
 9402SOL    HW129105   1.921   4.724   5.713
 9402SOL    HW229106   1.939   4.685   5.871
 9403SOL     OW29107   5.214   2.132   2.730
 9403SOL    HW129108   5.151   2.110   2.804
 9403SOL    HW229109   5.296   2.176   2.767
 9404SOL     OW29110   1.126   4.905   6.700
 9404SOL    HW129111   1.191   4.974   6.667
 9404SOL    HW229112   1.169   4.851   6.773
 9405SOL     OW29113   6.570   6.649   1.713
 9405SOL    HW129114   6.536   6.623   1.803
 9405SOL    HW229115   6.665   6.677   1.719
 9406SOL     OW29116   0.451   1.414   5.825
 9406SOL    HW129117   0.492   1.341   5.878
 9406SOL    HW229118   0.470   1.401   5.728
 9407SOL     OW29119   2.793   7.009   2.530
 9407SOL    HW129120   2.713   7.011   2.469
 9407SOL    HW229121   2.859   6.941   2.497
 9408SOL     OW29122   3.303   1.265   5.796
 9408SOL    HW129123   3.304   1.165   5.805
 9408SOL    HW229124   3.217   1.293   5.754
 9409SOL     OW29125   4.647   4.243   4.604
 9409SOL    HW129126   4.610   4.327   4.645
 9409SOL    HW229127   4.667   4.177   4.676
 9410SOL     OW29128   3.779   5.560   1.685
 9410SOL    HW129129   3.746   5.624   1.616
 9410SOL    HW229130   3.711   5.552   1.758
 9411SOL     OW29131   3.706   4.505   1.095
 9411SOL    HW129132   3.766   4.538   1.022
 9411SOL    HW229133   3.722   4.558   1.178
 9412SOL     OW29134   0.657   3.489   1.652
 9412SOL    HW129135   0.747   3.523   1.679
 9412SOL    HW229136   0.588   3.560   1.670
 9413SOL     OW29137   4.221   5.660   5.234
 9413SOL    HW129138   4.315   5.655   5.201
 9413SOL    HW229139   4.216   5.725   5.310
 9414SOL     OW29140   3.338   1.745   3.183
 9414SOL    HW129141   3.314   1.789   3.269
 9414SOL    HW229142   3.402   1.803   3.132
 9415SOL     OW29143   2.298   6.362   2.467
 9415SOL    HW129144   2.343   6.378   2.379
 9415SOL    HW229145   2.306   6.265   2.490
 9416SOL     OW29146   0.460   1.391   1.636
 9416SOL    HW129147   0.408   1.461   1.586
 9416SOL    HW229148   0.452   1.408   1.734
 9417SOL     OW29149   2.857   0.280   5.582
 9417SOL    HW129150   2.941   0.260   5.533
 9417SOL    HW229151   2.814   0.195   5.613
 9418SOL     OW29152   2.328   6.221   0.708
 9418SOL    HW129153   2.353   6.277   0.629
 9418SOL    HW229154   2.366   6.262   0.791
 9419SOL     OW29155   3.369   6.112   5.253
 9419SOL    HW129156   3.422   6.028   5.244
 9419SOL    HW229157   3.390   6.174   5.177
 9420SOL     OW29158   0.802   1.623   5.329
 9420SOL    HW129159   0.899   1.649   5.330
 9420SOL    HW229160   0.752   1.681   5.265
 9421SOL     OW29161   2.448   6.001   5.424
 9421SOL    HW129162   2.377   6.063   5.390
 9421SOL    HW229163   2.455   5.922   5.364
 9422SOL     OW29164   5.225   0.124   2.117
 9422SOL    HW129165   5.138   0.113   2.165
 9422SOL    HW229166   5.276   0.038   2.120
 9423SOL     OW29167   4.278   0.738   2.820
 9423SOL    HW129168   4.276   0.756   2.722
 9423SOL    HW229169   4.235   0.649   2.838
 9424SOL     OW29170   4.976   0.429   5.517
 9424SOL    HW129171   4.935   0.341   5.492
 9424SOL    HW229172   4.933   0.502   5.464
 9425SOL     OW29173   6.840   3.508   6.179
 9425SOL    HW129174   6.795   3.430   6.134
 9425SOL    HW229175   6.817   3.592   6.131
 9426SOL     OW29176   2.564   1.472   0.163
 9426SOL    HW129177   2.485   1.509   0.212
 9426SOL    HW229178   2.570   1.373   0.181
 9427SOL     OW29179   2.207   4.666   5.251
 9427SOL    HW129180   2.238   4.633   5.162
 9427SOL    HW229181   2.209   4.591   5.317
 9428SOL     OW29182   5.325   0.264   1.866
 9428SOL    HW129183   5.411   0.237   1.822
 9428SOL    HW229184   5.312   0.210   1.949
 9429SOL     OW29185   1.322   4.388   1.588
 9429SOL    HW129186   1.250   4.420   1.526
 9429SOL    HW229187   1.407   4.378   1.536
 9430SOL     OW29188   6.535   6.299   1.820
 9430SOL    HW129189   6.487   6.226   1.869
 9430SOL    HW229190   6.568   6.367   1.886
 9431SOL     OW29191   5.466   4.192   0.502
 9431SOL    HW129192   5.485   4.262   0.571
 9431SOL    HW229193   5.547   4.135   0.490
 9432SOL     OW29194   6.745   0.058   3.491
 9432SOL    HW129195   6.833   0.021   3.522
 9432SOL    HW229196   6.757   0.101   3.401
 9433SOL     OW29197   3.191   4.876   4.016
 9433SOL    HW129198   3.183   4.777   4.008
 9433SOL    HW229199   3.276   4.898   4.065
 9434SOL     OW29200   5.400   4.789   3.635
 9434SOL    HW129201   5.427   4.741   3.551
 9434SOL    HW229202   5.475   4.785   3.701
 9435SOL     OW29203   1.203   1.297   4.261
 9435SOL    HW129204   1.209   1.235   4.339
 9435SOL    HW229205   1.292   1.340   4.246
 9436SOL     OW29206   1.177   3.790   1.982
 9436SOL    HW129207   1.100   3.843   2.019
 9436SOL    HW229208   1.220   3.842   1.907
 9437SOL     OW29209   1.325   6.326   3.631
 9437SOL    HW129210   1.255   6.262   3.663
 9437SOL    HW229211   1.414   6.297   3.665
 9438SOL     OW29212   1.099   6.277   1.048
 9438SOL    HW129213   1.194   6.257   1.022
 9438SOL    HW229214   1.065   6.354   0.994
 9439SOL     OW29215   0.429   3.242   2.227
 9439SOL    HW129216   0.362   3.200   2.166
 9439SOL    HW229217   0.399   3.334   2.251
 9440SOL     OW29218   4.988   5.297   4.446
 9440SOL    HW129219   4.923   5.224   4.426
 9440SOL    HW229220   5.079   5.272   4.412
 9441SOL     OW29221   1.622   5.516   4.816
 9441SOL    HW129222   1.562   5.457   4.762
 9441SOL    HW229223   1.715   5.513   4.777
 9442SOL     OW29224   6.242   1.955   0.137
 9442SOL    HW129225   6.287   2.023   0.195
 9442SOL    HW229226   6.292   1.945   0.051
 9443SOL     OW29227   2.253   4.387   1.220
 9443SOL    HW129228   2.222   4.293   1.234
 9443SOL    HW229229   2.345   4.397   1.259
 9444SOL     OW29230   0.830   3.528   6.849
 9444SOL    HW129231   0.770   3.466   6.798
 9444SOL    HW229232   0.919   3.532   6.805
 9445SOL     OW29233   5.445   3.562   2.181
 9445SOL    HW129234   5.407   3.552   2.089
 9445SOL    HW229235   5.371   3.568   2.248
 9446SOL     OW29236   6.650   0.043   2.971
 9446SOL    HW129237   6.730   0.032   3.030
 9446SOL    HW229238   6.678   0.033   2.875
 9447SOL     OW29239   5.405   3.213   3.304
 9447SOL    HW129240   5.371   3.296   3.260
 9447SOL    HW229241   5.360   3.133   3.265
 9448SOL     OW29242   5.387   6.112   6.118
 9448SOL    HW129243   5.312   6.144   6.176
 9448SOL    HW229244   5.462   6.177   6.121
 9449SOL     OW29245   0.020   5.662   6.157
 9449SOL    HW129246   6.946   5.688   6.140
 9449SOL    HW229247   0.042   5.674   6.254
 9450SOL     OW29248   2.989   5.484   4.806
 9450SOL    HW129249   3.035   5.399   4.780
 9450SOL    HW229250   3.056   5.548   4.843
 9451SOL     OW29251   4.369   5.743   6.024
 9451SOL    HW129252   4.423   5.778   5.948
 9451SOL    HW229253   4.273   5.740   5.997
 9452SOL     OW29254   1.736   3.068   1.120
 9452SOL    HW129255   1.748   2.997   1.052
 9452SOL    HW229256   1.668   3.038   1.188
 9453SOL     OW29257   2.189   4.089   3.257
 9453SOL    HW129258   2.210   4.044   3.171
 9453SOL    HW229259   2.131   4.029   3.312
 9454SOL     OW29260   2.247   3.653   5.972
 9454SOL    HW129261   2.251   3.554   5.955
 9454SOL    HW229262   2.203   3.669   6.061
 9455SOL     OW29263   3.442   1.295   2.476
 9455SOL    HW129264   3.415   1.239   2.554
 9455SOL    HW229265   3.364   1.352   2.447
 9456SOL     OW29266   0.187   4.471   0.257
 9456SOL    HW129267   0.134   4.502   0.336
 9456SOL    HW229268   0.183   4.371   0.252
 9457SOL     OW29269   1.546   3.674   6.401
 9457SOL    HW129270   1.646   3.676   6.400
 9457SOL    HW229271   1.513   3.610   6.332
 9458SOL     OW29272   1.234   4.783   6.928
 9458SOL    HW129273   1.211   4.843   7.006
 9458SOL    HW229274   1.242   4.689   6.960
 9459SOL     OW29275   6.386   5.112   2.461
 9459SOL    HW129276   6.484   5.110   2.479
 9459SOL    HW229277   6.354   5.206   2.459
 9460SOL     OW29278   0.333   1.847   5.210
 9460SOL    HW129279   0.270   1.811   5.142
 9460SOL    HW229280   0.312   1.943   5.228
 9461SOL     OW29281   6.194   1.617   3.396
 9461SOL    HW129282   6.127   1.692   3.400
 9461SOL    HW229283   6.254   1.623   3.476
 9462SOL     OW29284   1.895   3.709   3.004
 9462SOL    HW129285   1.981   3.657   2.999
 9462SOL    HW229286   1.819   3.650   2.975
 9463SOL     OW29287   0.247   0.856   1.089
 9463SOL    HW129288   0.175   0.787   1.082
 9463SOL    HW229289   0.335   0.811   1.103
 9464SOL     OW29290   5.500   6.630   6.774
 9464SOL    HW129291   5.560   6.557   6.741
 9464SOL    HW229292   5.520   6.715   6.724
 9465SOL     OW29293   6.935   0.545   3.501
 9465SOL    HW129294   7.013   0.592   3.541
 9465SOL    HW229295   6.965   0.496   3.419
 9466SOL     OW29296   4.206   3.693   5.220
 9466SOL    HW129297   4.121   3.682   5.271
 9466SOL    HW229298   4.185   3.707   5.123
 9467SOL     OW29299   1.080   2.966   1.425
 9467SOL    HW129300   1.073   3.057   1.467
 9467SOL    HW229301   1.144   2.970   1.348
 9468SOL     OW29302   5.915   2.604   6.310
 9468SOL    HW129303   5.963   2.546   6.375
 9468SOL    HW229304   5.981   2.651   6.251
 9469SOL     OW29305   6.021   5.214   1.737
 9469SOL    HW129306   6.044   5.180   1.829
 9469SOL    HW229307   6.104   5.212   1.680
 9470SOL     OW29308   5.608   3.260   6.109
 9470SOL    HW129309   5.669   3.183   6.092
 9470SOL    HW229310   5.520   3.244   6.064
 9471SOL     OW29311   6.594   2.661   5.339
 9471SOL    HW129312   6.644   2.686   5.422
 9471SOL    HW229313   6.532   2.735   5.313
 9472SOL     OW29314   6.602   3.646   4.493
 9472SOL    HW129315   6.680   3.595   4.457
 9472SOL    HW229316   6.629   3.741   4.511
 9473SOL     OW29317   3.912   6.549   5.635
 9473SOL    HW129318   3.990   6.492   5.660
 9473SOL    HW229319   3.837   6.534   5.699
 9474SOL     OW29320   6.025   3.787   1.182
 9474SOL    HW129321   6.090   3.711   1.181
 9474SOL    HW229322   5.982   3.793   1.272
 9475SOL     OW29323   3.458   3.584   0.590
 9475SOL    HW129324   3.433   3.504   0.645
 9475SOL    HW229325   3.495   3.554   0.503
 9476SOL     OW29326   3.132   3.361   4.859
 9476SOL    HW129327   3.082   3.442   4.829
 9476SOL    HW229328   3.103   3.282   4.806
 9477SOL     OW29329   0.505   3.267   1.853
 9477SOL    HW129330   0.594   3.263   1.808
 9477SOL    HW229331   0.470   3.360   1.850
 9478SOL     OW29332   5.983   3.996   6.213
 9478SOL    HW129333   6.025   3.960   6.130
 9478SOL    HW229334   6.007   3.939   6.291
 9479SOL     OW29335   5.586   6.766   6.125
 9479SOL    HW129336   5.648   6.748   6.201
 9479SOL    HW229337   5.622   6.841   6.069
 9480SOL     OW29338   4.300   4.506   6.448
 9480SOL    HW129339   4.368   4.442   6.414
 9480SOL    HW229340   4.326   4.536   6.540
 9481SOL     OW29341   5.843   3.731   1.407
 9481SOL    HW129342   5.745   3.752   1.416
 9481SOL    HW229343   5.876   3.691   1.492
 9482SOL     OW29344   6.333   1.067   3.136
 9482SOL    HW129345   6.315   1.071   3.037
 9482SOL    HW229346   6.308   0.976   3.170
 9483SOL     OW29347   1.881   1.252   1.045
 9483SOL    HW129348   1.884   1.352   1.053
 9483SOL    HW229349   1.792   1.219   1.075
 9484SOL     OW29350   5.438   1.798   2.976
 9484SOL    HW129351   5.375   1.786   3.053
 9484SOL    HW229352   5.464   1.894   2.968
 9485SOL     OW29353   0.761   6.906   1.643
 9485SOL    HW129354   0.708   6.822   1.633
 9485SOL    HW229355   0.814   6.902   1.728
 9486SOL     OW29356   2.107   4.985   0.893
 9486SOL    HW129357   2.130   4.890   0.875
 9486SOL    HW229358   2.069   5.027   0.810
 9487SOL     OW29359   3.007   3.766   4.034
 9487SOL    HW129360   3.041   3.802   3.947
 9487SOL    HW229361   3.044   3.674   4.049
 9488SOL     OW29362   2.641   6.639   1.497
 9488SOL    HW129363   2.597   6.690   1.570
 9488SOL    HW229364   2.630   6.541   1.514
 9489SOL     OW29365   3.229   3.738   1.363
 9489SOL    HW129366   3.139   3.723   1.404
 9489SOL    HW229367   3.250   3.664   1.299
 9490SOL     OW29368   5.492   6.955   0.263
 9490SOL    HW129369   5.591   6.953   0.277
 9490SOL    HW229370   5.456   0.022   0.293
 9491SOL     OW29371   6.999   4.773   4.693
 9491SOL    HW129372   0.050   4.756   4.760
 9491SOL    HW229373   6.910   4.760   4.736
 9492SOL     OW29374   3.285   3.545   2.617
 9492SOL    HW129375   3.273   3.638   2.652
 9492SOL    HW229376   3.383   3.524   2.609
 9493SOL     OW29377   4.284   5.288   3.933
 9493SOL    HW129378   4.325   5.373   3.899
 9493SOL    HW229379   4.187   5.287   3.911
 9494SOL     OW29380   4.381   3.601   0.978
 9494SOL    HW129381   4.362   3.507   1.009
 9494SOL    HW229382   4.308   3.661   1.010
 9495SOL     OW29383   6.673   2.241   4.595
 9495SOL    HW129384   6.590   2.209   4.642
 9495SOL    HW229385   6.690   2.336   4.619
 9496SOL     OW29386   5.031   4.595   0.051
 9496SOL    HW129387   5.111   4.589   0.111
 9496SOL    HW229388   5.014   4.505   0.010
 9497SOL     OW29389   4.693   3.990   0.599
 9497SOL    HW129390   4.688   3.893   0.574
 9497SOL    HW229391   4.788   4.015   0.616
 9498SOL     OW29392   5.325   0.820   6.132
 9498SOL    HW129393   5.247   0.858   6.183
 9498SOL    HW229394   5.301   0.813   6.035
 9499SOL     OW29395   2.426   3.475   5.434
 9499SOL    HW129396   2.340   3.518   5.405
 9499SOL    HW229397   2.419   3.447   5.530
 9500SOL     OW29398   3.358   6.367   1.842
 9500SOL    HW129399   3.307   6.417   1.772
 9500SOL    HW229400   3.446   6.412   1.858
 9501SOL     OW29401   3.266   1.477   4.462
 9501SOL    HW129402   3.259   1.563   4.512
 9501SOL    HW229403   3.188   1.468   4.400
 9502SOL     OW29404   0.076   2.011   5.191
 9502SOL    HW129405   0.125   2.032   5.107
 9502SOL    HW229406   0.031   2.094   5.225
 9503SOL     OW29407   0.440   0.969   1.660
 9503SOL    HW129408   0.475   1.009   1.745
 9503SOL    HW229409   0.341   0.961   1.666
 9504SOL     OW29410   6.820   2.173   1.005
 9504SOL    HW129411   6.848   2.268   1.011
 9504SOL    HW229412   6.900   2.116   0.984
 9505SOL     OW29413   5.598   3.986   3.566
 9505SOL    HW129414   5.559   4.039   3.491
 9505SOL    HW229415   5.614   3.892   3.536
 9506SOL     OW29416   0.814   3.152   6.570
 9506SOL    HW129417   0.788   3.242   6.534
 9506SOL    HW229418   0.903   3.125   6.533
 9507SOL     OW29419   2.089   1.193   3.973
 9507SOL    HW129420   2.078   1.100   4.007
 9507SOL    HW229421   2.167   1.237   4.017
 9508SOL     OW29422   6.244   2.708   0.710
 9508SOL    HW129423   6.193   2.751   0.785
 9508SOL    HW229424   6.184   2.642   0.663
 9509SOL     OW29425   1.165   6.596   5.187
 9509SOL    HW129426   1.106   6.560   5.259
 9509SOL    HW229427   1.200   6.521   5.131
 9510SOL     OW29428   0.594   3.922   1.747
 9510SOL    HW129429   0.666   3.981   1.784
 9510SOL    HW229430   0.576   3.947   1.652
 9511SOL     OW29431   0.914   1.842   7.015
 9511SOL    HW129432   0.875   1.754   6.987
 9511SOL    HW229433   0.846   1.914   6.999
 9512SOL     OW29434   5.656   2.057   3.360
 9512SOL    HW129435   5.605   1.990   3.414
 9512SOL    HW229436   5.748   2.066   3.396
 9513SOL     OW29437   1.458   3.327   4.768
 9513SOL    HW129438   1.547   3.282   4.781
 9513SOL    HW229439   1.470   3.409   4.711
 9514SOL     OW29440   1.416   3.873   6.922
 9514SOL    HW129441   1.348   3.809   6.958
 9514SOL    HW229442   1.481   3.825   6.864
 9515SOL     OW29443   1.750   5.769   0.078
 9515SOL    HW129444   1.801   5.839   0.128
 9515SOL    HW229445   1.696   5.714   0.143
 9516SOL     OW29446   4.985   3.613   4.710
 9516SOL    HW129447   4.994   3.576   4.803
 9516SOL    HW229448   4.963   3.539   4.647
 9517SOL     OW29449   1.517   4.702   1.127
 9517SOL    HW129450   1.459   4.629   1.164
 9517SOL    HW229451   1.613   4.682   1.146
 9518SOL     OW29452   1.515   2.277   0.014
 9518SOL    HW129453   1.608   2.265   0.050
 9518SOL    HW229454   1.480   2.189   7.005
 9519SOL     OW29455   3.171   3.519   2.936
 9519SOL    HW129456   3.229   3.581   2.989
 9519SOL    HW229457   3.227   3.470   2.870
 9520SOL     OW29458   6.568   1.801   3.996
 9520SOL    HW129459   6.549   1.871   4.064
 9520SOL    HW229460   6.626   1.838   3.924
 9521SOL     OW29461   3.436   4.231   1.760
 9521SOL    HW129462   3.383   4.146   1.762
 9521SOL    HW229463   3.513   4.220   1.696
 9522SOL     OW29464   4.094   5.600   2.442
 9522SOL    HW129465   4.123   5.517   2.490
 9522SOL    HW229466   4.119   5.681   2.496
 9523SOL     OW29467   2.627   5.337   4.896
 9523SOL    HW129468   2.613   5.298   4.987
 9523SOL    HW229469   2.603   5.269   4.827
 9524SOL     OW29470   1.568   2.696   1.476
 9524SOL    HW129471   1.570   2.599   1.454
 9524SOL    HW229472   1.483   2.718   1.524
 9525SOL     OW29473   1.971   1.712   5.799
 9525SOL    HW129474   2.054   1.664   5.827
 9525SOL    HW229475   1.929   1.755   5.879
 9526SOL     OW29476   6.035   4.915   0.738
 9526SOL    HW129477   6.058   4.999   0.788
 9526SOL    HW229478   6.074   4.836   0.785
 9527SOL     OW29479   2.393   0.196   4.759
 9527SOL    HW129480   2.332   0.244   4.697
 9527SOL    HW229481   2.400   0.100   4.733
 9528SOL     OW29482   6.141   1.891   1.122
 9528SOL    HW129483   6.143   1.902   1.221
 9528SOL    HW229484   6.225   1.846   1.092
 9529SOL     OW29485   5.257   4.072   0.906
 9529SOL    HW129486   5.248   4.055   0.808
 9529SOL    HW229487   5.225   4.165   0.927
 9530SOL     OW29488   1.271   4.484   4.578
 9530SOL    HW129489   1.295   4.407   4.519
 9530SOL    HW229490   1.354   4.531   4.609
 9531SOL     OW29491   4.112   4.857   3.110
 9531SOL    HW129492   4.182   4.924   3.084
 9531SOL    HW229493   4.108   4.784   3.042
 9532SOL     OW29494   6.694   4.912   1.183
 9532SOL    HW129495   6.728   4.881   1.271
 9532SOL    HW229496   6.655   4.835   1.132
 9533SOL     OW29497   0.693   5.328   3.809
 9533SOL    HW129498   0.777   5.371   3.841
 9533SOL    HW229499   0.712   5.275   3.727
 9534SOL     OW29500   5.850   4.123   4.452
 9534SOL    HW129501   5.790   4.083   4.521
 9534SOL    HW229502   5.799   4.191   4.399
 9535SOL     OW29503   2.073   0.893   6.263
 9535SOL    HW129504   2.086   0.920   6.359
 9535SOL    HW229505   2.037   0.800   6.260
 9536SOL     OW29506   3.507   3.244   5.450
 9536SOL    HW129507   3.506   3.305   5.528
 9536SOL    HW229508   3.442   3.277   5.381
 9537SOL     OW29509   3.244   1.717   4.565
 9537SOL    HW129510   3.223   1.749   4.472
 9537SOL    HW229511   3.235   1.793   4.629
 9538SOL     OW29512   4.697   0.685   4.249
 9538SOL    HW129513   4.638   0.672   4.329
 9538SOL    HW229514   4.712   0.783   4.234
 9539SOL     OW29515   2.915   3.478   4.340
 9539SOL    HW129516   2.854   3.516   4.271
 9539SOL    HW229517   2.900   3.524   4.428
 9540SOL     OW29518   5.043   5.666   4.518
 9540SOL    HW129519   5.035   5.595   4.589
 9540SOL    HW229520   5.049   5.622   4.428
 9541SOL     OW29521   2.054   0.754   5.822
 9541SOL    HW129522   2.128   0.704   5.867
 9541SOL    HW229523   1.991   0.690   5.778
 9542SOL     OW29524   5.430   5.425   4.388
 9542SOL    HW129525   5.525   5.456   4.388
 9542SOL    HW229526   5.406   5.394   4.480
 9543SOL     OW29527   3.749   0.499   6.204
 9543SOL    HW129528   3.739   0.411   6.157
 9543SOL    HW229529   3.698   0.497   6.290
 9544SOL     OW29530   5.107   3.397   4.078
 9544SOL    HW129531   5.164   3.344   4.141
 9544SOL    HW229532   5.163   3.463   4.028
 9545SOL     OW29533   6.274   5.017   2.243
 9545SOL    HW129534   6.321   5.047   2.326
 9545SOL    HW229535   6.195   4.962   2.267
 9546SOL     OW29536   3.706   1.321   5.908
 9546SOL    HW129537   3.661   1.404   5.938
 9546SOL    HW229538   3.803   1.324   5.932
 9547SOL     OW29539   2.233   5.384   3.901
 9547SOL    HW129540   2.152   5.327   3.885
 9547SOL    HW229541   2.281   5.352   3.983
 9548SOL     OW29542   0.515   5.617   5.018
 9548SOL    HW129543   0.447   5.544   5.012
 9548SOL    HW229544   0.604   5.582   4.987
 9549SOL     OW29545   2.602   1.283   2.265
 9549SOL    HW129546   2.641   1.288   2.173
 9549SOL    HW229547   2.673   1.303   2.332
 9550SOL     OW29548   6.372   2.420   0.893
 9550SOL    HW129549   6.381   2.402   0.795
 9550SOL    HW229550   6.353   2.334   0.941
 9551SOL     OW29551   5.914   3.163   5.889
 9551SOL    HW129552   5.854   3.099   5.936
 9551SOL    HW229553   6.009   3.143   5.915
 9552SOL     OW29554   2.389   6.268   5.888
 9552SOL    HW129555   2.402   6.246   5.985
 9552SOL    HW229556   2.471   6.314   5.853
 9553SOL     OW29557   5.792   2.563   0.065
 9553SOL    HW129558   5.697   2.556   0.093
 9553SOL    HW229559   5.823   2.475   0.028
 9554SOL     OW29560   1.409   6.438   3.395
 9554SOL    HW129561   1.402   6.537   3.410
 9554SOL    HW229562   1.395   6.390   3.481
 9555SOL     OW29563   0.482   0.943   3.305
 9555SOL    HW129564   0.575   0.965   3.333
 9555SOL    HW229565   0.424   1.024   3.314
 9556SOL     OW29566   1.842   3.391   0.882
 9556SOL    HW129567   1.802   3.394   0.974
 9556SOL    HW229568   1.940   3.408   0.888
 9557SOL     OW29569   5.554   7.003   1.401
 9557SOL    HW129570   5.537   0.080   1.395
 9557SOL    HW229571   5.471   6.953   1.374
 9558SOL     OW29572   5.857   5.980   5.270
 9558SOL    HW129573   5.776   6.028   5.303
 9558SOL    HW229574   5.832   5.888   5.239
 9559SOL     OW29575   1.082   4.039   0.413
 9559SOL    HW129576   1.005   3.984   0.380
 9559SOL    HW229577   1.047   4.123   0.456
 9560SOL     OW29578   2.625   1.053   2.882
 9560SOL    HW129579   2.574   1.105   2.950
 9560SOL    HW229580   2.565   1.028   2.806
 9561SOL     OW29581   0.224   0.357   1.493
 9561SOL    HW129582   0.249   0.419   1.568
 9561SOL    HW229583   0.188   0.410   1.417
 9562SOL     OW29584   2.734   6.835   4.700
 9562SOL    HW129585   2.828   6.863   4.681
 9562SOL    HW229586   2.723   6.819   4.798
 9563SOL     OW29587   0.434   6.852   7.011
 9563SOL    HW129588   0.488   6.768   7.017
 9563SOL    HW229589   0.492   6.930   0.011
 9564SOL     OW29590   2.450   1.020   0.958
 9564SOL    HW129591   2.438   0.921   0.951
 9564SOL    HW229592   2.360   1.064   0.957
 9565SOL     OW29593   3.323   1.071   5.517
 9565SOL    HW129594   3.364   1.157   5.549
 9565SOL    HW229595   3.384   1.029   5.449
 9566SOL     OW29596   2.820   6.104   0.423
 9566SOL    HW129597   2.848   6.011   0.449
 9566SOL    HW229598   2.764   6.100   0.341
 9567SOL     OW29599   5.022   4.336   6.939
 9567SOL    HW129600   5.031   4.311   0.014
 9567SOL    HW229601   5.108   4.314   6.892
 9568SOL     OW29602   4.186   1.583   0.074
 9568SOL    HW129603   4.101   1.544   0.110
 9568SOL    HW229604   4.187   1.682   0.091
 9569SOL     OW29605   0.095   1.131   2.188
 9569SOL    HW129606   0.053   1.174   2.268
 9569SOL    HW229607   0.152   1.197   2.140
 9570SOL     OW29608   0.540   2.846   1.251
 9570SOL    HW129609   0.547   2.929   1.307
 9570SOL    HW229610   0.444   2.823   1.239
 9571SOL     OW29611   3.016   3.325   5.416
 9571SOL    HW129612   3.036   3.320   5.318
 9571SOL    HW229613   2.987   3.235   5.448
 9572SOL     OW29614   2.058   5.114   2.307
 9572SOL    HW129615   1.990   5.056   2.353
 9572SOL    HW229616   2.091   5.067   2.225
 9573SOL     OW29617   0.608   1.832   6.755
 9573SOL    HW129618   0.585   1.877   6.841
 9573SOL    HW229619   0.660   1.895   6.697
 9574SOL     OW29620   3.289   2.869   2.527
 9574SOL    HW129621   3.229   2.949   2.530
 9574SOL    HW229622   3.253   2.799   2.588
 9575SOL     OW29623   0.185   1.384   2.086
 9575SOL    HW129624   0.086   1.400   2.094
 9575SOL    HW229625   0.234   1.465   2.118
 9576SOL     OW29626   2.076   1.875   0.709
 9576SOL    HW129627   2.129   1.871   0.625
 9576SOL    HW229628   2.138   1.883   0.788
 9577SOL     OW29629   0.730   0.092   5.733
 9577SOL    HW129630   0.735   0.183   5.692
 9577SOL    HW229631   0.760   0.024   5.667
 9578SOL     OW29632   1.161   2.795   3.029
 9578SOL    HW129633   1.181   2.892   3.022
 9578SOL    HW229634   1.080   2.773   2.976
 9579SOL     OW29635   0.180   6.065   3.246
 9579SOL    HW129636   0.223   6.156   3.243
 9579SOL    HW229637   0.228   6.008   3.312
 9580SOL     OW29638   4.493   2.980   0.666
 9580SOL    HW129639   4.519   3.012   0.576
 9580SOL    HW229640   4.398   2.949   0.665
 9581SOL     OW29641   0.468   0.348   6.592
 9581SOL    HW129642   0.557   0.356   6.637
 9581SOL    HW229643   0.478   0.369   6.495
 9582SOL     OW29644   4.384   5.859   5.080
 9582SOL    HW129645   4.396   5.789   5.009
 9582SOL    HW229646   4.454   5.930   5.069
 9583SOL     OW29647   2.965   3.686   1.416
 9583SOL    HW129648   2.865   3.689   1.420
 9583SOL    HW229649   3.001   3.681   1.509
 9584SOL     OW29650   6.801   4.820   5.802
 9584SOL    HW129651   6.848   4.861   5.880
 9584SOL    HW229652   6.732   4.755   5.835
 9585SOL     OW29653   5.379   6.567   3.150
 9585SOL    HW129654   5.447   6.639   3.141
 9585SOL    HW229655   5.424   6.481   3.172
 9586SOL     OW29656   4.831   5.457   2.373
 9586SOL    HW129657   4.894   5.530   2.348
 9586SOL    HW229658   4.781   5.482   2.456
 9587SOL     OW29659   1.070   0.066   1.397
 9587SOL    HW129660   1.107   0.129   1.465
 9587SOL    HW229661   0.980   0.034   1.425
 9588SOL     OW29662   6.067   6.838   0.621
 9588SOL    HW129663   6.124   6.800   0.549
 9588SOL    HW229664   6.089   6.935   0.633
 9589SOL     OW29665   1.660   4.529   0.542
 9589SOL    HW129666   1.628   4.570   0.457
 9589SOL    HW229667   1.614   4.442   0.557
 9590SOL     OW29668   6.017   3.498   1.867
 9590SOL    HW129669   6.110   3.530   1.885
 9590SOL    HW229670   6.020   3.403   1.836
 9591SOL     OW29671   3.002   5.539   5.968
 9591SOL    HW129672   2.919   5.587   5.940
 9591SOL    HW229673   2.984   5.441   5.974
 9592SOL     OW29674   2.630   4.738   0.377
 9592SOL    HW129675   2.671   4.648   0.392
 9592SOL    HW229676   2.703   4.806   0.373
 9593SOL     OW29677   0.860   1.113   6.463
 9593SOL    HW129678   0.844   1.200   6.416
 9593SOL    HW229679   0.955   1.109   6.495
 9594SOL     OW29680   1.985   5.232   4.040
 9594SOL    HW129681   1.916   5.190   4.098
 9594SOL    HW229682   1.990   5.184   3.952
 9595SOL     OW29683   0.174   3.315   4.019
 9595SOL    HW129684   0.219   3.401   4.045
 9595SOL    HW229685   0.200   3.292   3.926
 9596SOL     OW29686   0.923   5.122   6.726
 9596SOL    HW129687   0.998   5.057   6.709
 9596SOL    HW229688   0.884   5.152   6.639
 9597SOL     OW29689   6.789   4.292   1.695
 9597SOL    HW129690   6.874   4.328   1.657
 9597SOL    HW229691   6.716   4.359   1.683
 9598SOL     OW29692   2.102   4.797   3.372
 9598SOL    HW129693   2.043   4.828   3.447
 9598SOL    HW229694   2.119   4.699   3.381
 9599SOL     OW29695   2.499   0.522   4.173
 9599SOL    HW129696   2.453   0.610   4.163
 9599SOL    HW229697   2.524   0.508   4.269
 9600SOL     OW29698   3.017   6.859   0.022
 9600SOL    HW129699   3.045   6.820   6.956
 9600SOL    HW229700   2.987   6.954   0.008
 9601SOL     OW29701   5.080   4.409   0.699
 9601SOL    HW129702   5.134   4.394   0.782
 9601SOL    HW229703   4.987   4.436   0.725
 9602SOL     OW29704   5.883   4.096   6.780
 9602SOL    HW129705   5.802   4.154   6.773
 9602SOL    HW229706   5.871   4.015   6.723
 9603SOL     OW29707   4.509   1.248   6.026
 9603SOL    HW129708   4.414   1.274   6.043
 9603SOL    HW229709   4.540   1.186   6.098
 9604SOL     OW29710   4.996   6.989   0.846
 9604SOL    HW129711   4.940   0.041   0.885
 9604SOL    HW229712   5.088   0.002   0.827
 9605SOL     OW29713   1.150   6.064   3.380
 9605SOL    HW129714   1.183   5.989   3.323
 9605SOL    HW229715   1.172   6.045   3.476
 9606SOL     OW29716   1.914   5.925   0.280
 9606SOL    HW129717   1.989   5.867   0.247
 9606SOL    HW229718   1.945   6.019   0.289
 9607SOL     OW29719   2.249   0.970   6.755
 9607SOL    HW129720   2.153   0.996   6.763
 9607SOL    HW229721   2.304   1.027   6.816
 9608SOL     OW29722   0.217   4.798   1.832
 9608SOL    HW129723   0.119   4.815   1.818
 9608SOL    HW229724   0.257   4.761   1.749
 9609SOL     OW29725   2.629   2.813   0.273
 9609SOL    HW129726   2.545   2.867   0.272
 9609SOL    HW229727   2.637   2.766   0.361
 9610SOL     OW29728   1.622   4.933   3.761
 9610SOL    HW129729   1.530   4.920   3.724
 9610SOL    HW229730   1.639   5.031   3.776
 9611SOL     OW29731   0.990   6.090   0.084
 9611SOL    HW129732   0.918   6.063   0.148
 9611SOL    HW229733   1.046   6.162   0.125
 9612SOL     OW29734   0.259   3.717   1.467
 9612SOL    HW129735   0.276   3.723   1.369
 9612SOL    HW229736   0.169   3.677   1.483
 9613SOL     OW29737   5.288   0.358   3.593
 9613SOL    HW129738   5.228   0.384   3.669
 9613SOL    HW229739   5.291   0.431   3.525
 9614SOL     OW29740   4.114   2.417   1.642
 9614SOL    HW129741   4.192   2.401   1.702
 9614SOL    HW229742   4.060   2.333   1.633
 9615SOL     OW29743   2.522   0.312   0.846
 9615SOL    HW129744   2.516   0.380   0.919
 9615SOL    HW229745   2.618   0.295   0.824
 9616SOL     OW29746   3.682   3.728   1.515
 9616SOL    HW129747   3.640   3.638   1.517
 9616SOL    HW229748   3.742   3.739   1.594
 9617SOL     OW29749   1.553   3.144   3.477
 9617SOL    HW129750   1.525   3.200   3.555
 9617SOL    HW229751   1.557   3.048   3.505
 9618SOL     OW29752   3.520   6.470   0.045
 9618SOL    HW129753   3.522   6.413   0.128
 9618SOL    HW229754   3.507   6.411   6.986
 9619SOL     OW29755   1.788   6.617   6.431
 9619SOL    HW129756   1.703   6.668   6.425
 9619SOL    HW229757   1.816   6.587   6.340
 9620SOL     OW29758   4.277   0.679   6.295
 9620SOL    HW129759   4.232   0.636   6.217
 9620SOL    HW229760   4.353   0.736   6.263
 9621SOL     OW29761   1.208   2.132   1.886
 9621SOL    HW129762   1.242   2.140   1.792
 9621SOL    HW229763   1.108   2.127   1.885
 9622SOL     OW29764   6.951   1.167   0.547
 9622SOL    HW129765   6.959   1.259   0.509
 9622SOL    HW229766   6.938   1.173   0.646
 9623SOL     OW29767   2.868   3.809   5.690
 9623SOL    HW129768   2.953   3.785   5.643
 9623SOL    HW229769   2.793   3.756   5.651
 9624SOL     OW29770   6.891   3.737   3.119
 9624SOL    HW129771   6.950   3.665   3.083
 9624SOL    HW229772   6.916   3.824   3.078
 9625SOL     OW29773   4.825   6.018   6.864
 9625SOL    HW129774   4.773   6.101   6.843
 9625SOL    HW229775   4.801   5.947   6.798
 9626SOL     OW29776   3.934   5.269   0.428
 9626SOL    HW129777   3.897   5.194   0.483
 9626SOL    HW229778   4.028   5.288   0.455
 9627SOL     OW29779   6.747   6.118   4.860
 9627SOL    HW129780   6.749   6.188   4.932
 9627SOL    HW229781   6.712   6.159   4.775
 9628SOL     OW29782   4.761   4.709   0.305
 9628SOL    HW129783   4.750   4.624   0.252
 9628SOL    HW229784   4.807   4.688   0.392
 9629SOL     OW29785   0.322   7.003   1.748
 9629SOL    HW129786   0.303   0.073   1.782
 9629SOL    HW229787   0.380   6.954   1.813
 9630SOL     OW29788   6.475   0.044   4.907
 9630SOL    HW129789   6.488   0.005   4.999
 9630SOL    HW229790   6.399   0.109   4.909
 9631SOL     OW29791   6.920   6.697   6.711
 9631SOL    HW129792   6.935   6.784   6.758
 9631SOL    HW229793   7.004   6.643   6.713
 9632SOL     OW29794   0.942   0.045   2.688
 9632SOL    HW129795   0.904   0.114   2.626
 9632SOL    HW229796   1.042   0.050   2.685
 9633SOL     OW29797   5.260   5.153   5.692
 9633SOL    HW129798   5.291   5.186   5.781
 9633SOL    HW229799   5.301   5.210   5.620
 9634SOL     OW29800   1.011   6.028   4.081
 9634SOL    HW129801   1.005   5.996   4.175
 9634SOL    HW229802   1.104   6.013   4.047
 9635SOL     OW29803   1.618   5.018   5.285
 9635SOL    HW129804   1.705   5.059   5.312
 9635SOL    HW229805   1.560   5.088   5.243
 9636SOL     OW29806   3.746   1.957   5.895
 9636SOL    HW129807   3.714   1.884   5.834
 9636SOL    HW229808   3.667   2.004   5.935
 9637SOL     OW29809   2.018   1.510   6.155
 9637SOL    HW129810   2.062   1.456   6.227
 9637SOL    HW229811   1.928   1.540   6.188
 9638SOL     OW29812   6.567   3.839   6.760
 9638SOL    HW129813   6.482   3.892   6.765
 9638SOL    HW229814   6.548   3.743   6.780
 9639SOL     OW29815   4.087   1.510   2.543
 9639SOL    HW129816   4.027   1.518   2.622
 9639SOL    HW229817   4.120   1.416   2.535
 9640SOL     OW29818   2.142   2.888   3.590
 9640SOL    HW129819   2.180   2.892   3.498
 9640SOL    HW229820   2.153   2.977   3.635
 9641SOL     OW29821   3.811   6.430   0.943
 9641SOL    HW129822   3.890   6.376   0.913
 9641SOL    HW229823   3.730   6.401   0.892
 9642SOL     OW29824   3.263   6.587   4.842
 9642SOL    HW129825   3.348   6.590   4.895
 9642SOL    HW229826   3.201   6.659   4.875
 9643SOL     OW29827   5.571   5.632   4.544
 9643SOL    HW129828   5.534   5.631   4.452
 9643SOL    HW229829   5.542   5.715   4.592
 9644SOL     OW29830   1.150   4.359   6.241
 9644SOL    HW129831   1.050   4.360   6.229
 9644SOL    HW229832   1.172   4.393   6.332
 9645SOL     OW29833   2.508   5.499   3.889
 9645SOL    HW129834   2.503   5.551   3.804
 9645SOL    HW229835   2.437   5.428   3.890
 9646SOL     OW29836   3.009   4.780   1.859
 9646SOL    HW129837   3.057   4.720   1.795
 9646SOL    HW229838   2.952   4.726   1.921
 9647SOL     OW29839   6.528   5.593   2.073
 9647SOL    HW129840   6.510   5.623   2.167
 9647SOL    HW229841   6.447   5.611   2.016
 9648SOL     OW29842   4.189   1.179   0.225
 9648SOL    HW129843   4.192   1.204   0.128
 9648SOL    HW229844   4.234   1.091   0.238
 9649SOL     OW29845   2.783   6.476   0.052
 9649SOL    HW129846   2.700   6.421   0.052
 9649SOL    HW229847   2.860   6.420   0.021
 9650SOL     OW29848   6.313   5.168   2.003
 9650SOL    HW129849   6.393   5.229   2.007
 9650SOL    HW229850   6.302   5.121   2.091
 9651SOL     OW29851   0.342   1.122   6.467
 9651SOL    HW129852   0.426   1.164   6.500
 9651SOL    HW229853   0.356   1.087   6.374
 9652SOL     OW29854   1.867   4.265   0.857
 9652SOL    HW129855   1.806   4.221   0.791
 9652SOL    HW229856   1.950   4.297   0.811
 9653SOL     OW29857   4.456   5.170   4.481
 9653SOL    HW129858   4.520   5.106   4.525
 9653SOL    HW229859   4.481   5.180   4.384
 9654SOL     OW29860   3.175   2.698   1.501
 9654SOL    HW129861   3.205   2.777   1.448
 9654SOL    HW229862   3.215   2.702   1.592
 9655SOL     OW29863   0.335   1.157   0.228
 9655SOL    HW129864   0.254   1.215   0.220
 9655SOL    HW229865   0.417   1.214   0.228
 9656SOL     OW29866   2.374   1.210   1.269
 9656SOL    HW129867   2.386   1.291   1.213
 9656SOL    HW229868   2.458   1.155   1.266
 9657SOL     OW29869   5.506   0.400   3.729
 9657SOL    HW129870   5.450   0.385   3.648
 9657SOL    HW229871   5.600   0.422   3.701
 9658SOL     OW29872   6.281   2.147   3.605
 9658SOL    HW129873   6.292   2.083   3.680
 9658SOL    HW229874   6.290   2.099   3.518
 9659SOL     OW29875   6.709   4.557   0.225
 9659SOL    HW129876   6.678   4.499   0.151
 9659SOL    HW229877   6.638   4.563   0.295
 9660SOL     OW29878   0.242   5.340   0.057
 9660SOL    HW129879   0.158   5.330   0.111
 9660SOL    HW229880   0.277   5.250   0.033
 9661SOL     OW29881   4.132   5.510   1.383
 9661SOL    HW129882   4.230   5.528   1.379
 9661SOL    HW229883   4.116   5.416   1.412
 9662SOL     OW29884   6.300   2.735   4.768
 9662SOL    HW129885   6.211   2.701   4.798
 9662SOL    HW229886   6.372   2.680   4.809
 9663SOL     OW29887   1.320   5.727   4.028
 9663SOL    HW129888   1.293   5.820   4.054
 9663SOL    HW229889   1.346   5.726   3.932
 9664SOL     OW29890   5.620   0.067   2.853
 9664SOL    HW129891   5.548   0.134   2.835
 9664SOL    HW229892   5.587   7.021   2.919
 9665SOL     OW29893   5.169   5.307   5.282
 9665SOL    HW129894   5.102   5.313   5.356
 9665SOL    HW229895   5.231   5.230   5.299
 9666SOL     OW29896   5.337   4.262   1.693
 9666SOL    HW129897   5.315   4.351   1.732
 9666SOL    HW229898   5.436   4.251   1.687
 9667SOL     OW29899   3.968   3.285   4.272
 9667SOL    HW129900   3.875   3.261   4.299
 9667SOL    HW229901   4.030   3.266   4.349
 9668SOL     OW29902   6.619   1.540   6.199
 9668SOL    HW129903   6.620   1.494   6.110
 9668SOL    HW229904   6.526   1.540   6.235
 9669SOL     OW29905   0.955   1.274   1.106
 9669SOL    HW129906   1.044   1.251   1.067
 9669SOL    HW229907   0.895   1.194   1.103
 9670SOL     OW29908   5.045   5.130   6.312
 9670SOL    HW129909   5.075   5.118   6.406
 9670SOL    HW229910   5.123   5.158   6.255
 9671SOL     OW29911   0.596   5.307   6.433
 9671SOL    HW129912   0.519   5.289   6.372
 9671SOL    HW229913   0.638   5.394   6.410
 9672SOL     OW29914   1.695   6.920   4.297
 9672SOL    HW129915   1.698   7.019   4.279
 9672SOL    HW229916   1.788   6.887   4.314
 9673SOL     OW29917   5.339   4.453   6.781
 9673SOL    HW129918   5.417   4.438   6.720
 9673SOL    HW229919   5.260   4.481   6.726
 9674SOL     OW29920   3.053   6.105   3.035
 9674SOL    HW129921   2.964   6.132   2.998
 9674SOL    HW229922   3.085   6.176   3.099
 9675SOL     OW29923   5.861   1.492   1.666
 9675SOL    HW129924   5.829   1.399   1.648
 9675SOL    HW229925   5.783   1.550   1.687
 9676SOL     OW29926   1.341   3.698   5.562
 9676SOL    HW129927   1.338   3.600   5.585
 9676SOL    HW229928   1.365   3.708   5.465
 9677SOL     OW29929   2.805   4.507   6.321
 9677SOL    HW129930   2.762   4.596   6.339
 9677SOL    HW229931   2.734   4.437   6.315
 9678SOL     OW29932   3.269   4.117   2.898
 9678SOL    HW129933   3.319   4.144   2.980
 9678SOL    HW229934   3.312   4.157   2.817
 9679SOL     OW29935   1.144   1.442   1.652
 9679SOL    HW129936   1.227   1.426   1.597
 9679SOL    HW229937   1.086   1.509   1.606
 9680SOL     OW29938   6.317   0.160   3.481
 9680SOL    HW129939   6.345   0.137   3.387
 9680SOL    HW229940   6.390   0.137   3.544
 9681SOL     OW29941   2.753   0.704   1.461
 9681SOL    HW129942   2.676   0.755   1.424
 9681SOL    HW229943   2.765   0.619   1.409
 9682SOL     OW29944   5.101   5.141   3.313
 9682SOL    HW129945   5.013   5.173   3.347
 9682SOL    HW229946   5.117   5.047   3.344
 9683SOL     OW29947   3.746   5.191   1.041
 9683SOL    HW129948   3.700   5.131   0.976
 9683SOL    HW229949   3.678   5.245   1.091
 9684SOL     OW29950   0.475   3.242   5.143
 9684SOL    HW129951   0.433   3.296   5.070
 9684SOL    HW229952   0.528   3.167   5.102
 9685SOL     OW29953   2.099   2.953   1.186
 9685SOL    HW129954   2.050   2.866   1.183
 9685SOL    HW229955   2.037   3.024   1.220
 9686SOL     OW29956   6.283   2.028   0.798
 9686SOL    HW129957   6.304   1.930   0.806
 9686SOL    HW229958   6.232   2.044   0.714
 9687SOL     OW29959   2.250   0.650   3.445
 9687SOL    HW129960   2.257   0.609   3.536
 9687SOL    HW229961   2.207   0.585   3.382
 9688SOL     OW29962   6.422   2.459   3.574
 9688SOL    HW129963   6.475   2.396   3.630
 9688SOL    HW229964   6.407   2.419   3.484
 9689SOL     OW29965   1.533   6.523   0.547
 9689SOL    HW129966   1.596   6.582   0.497
 9689SOL    HW229967   1.495   6.573   0.624
 9690SOL     OW29968   5.834   5.407   6.480
 9690SOL    HW129969   5.763   5.340   6.457
 9690SOL    HW229970   5.899   5.414   6.404
 9691SOL     OW29971   2.644   4.553   1.448
 9691SOL    HW129972   2.636   4.652   1.438
 9691SOL    HW229973   2.738   4.530   1.471
 9692SOL     OW29974   2.207   5.235   2.646
 9692SOL    HW129975   2.153   5.159   2.608
 9692SOL    HW229976   2.161   5.270   2.728
 9693SOL     OW29977   7.006   5.316   2.310
 9693SOL    HW129978   0.008   5.225   2.276
 9693SOL    HW229979   6.909   5.318   2.336
 9694SOL     OW29980   2.381   1.168   6.294
 9694SOL    HW129981   2.372   1.095   6.361
 9694SOL    HW229982   2.330   1.144   6.211
 9695SOL     OW29983   6.328   4.141   1.169
 9695SOL    HW129984   6.324   4.132   1.070
 9695SOL    HW229985   6.277   4.223   1.197
 9696SOL     OW29986   5.019   2.184   1.172
 9696SOL    HW129987   4.928   2.142   1.172
 9696SOL    HW229988   5.056   2.181   1.079
 9697SOL     OW29989   6.655   5.105   6.965
 9697SOL    HW129990   6.638   5.181   6.903
 9697SOL    HW229991   6.719   5.040   6.922
 9698SOL     OW29992   5.749   0.998   5.416
 9698SOL    HW129993   5.773   1.020   5.511
 9698SOL    HW229994   5.721   0.902   5.411
 9699SOL     OW29995   0.158   4.385   6.186
 9699SOL    HW129996   0.146   4.396   6.087
 9699SOL    HW229997   0.094   4.445   6.234
 9700SOL     OW29998   4.110   5.422   5.826
 9700SOL    HW129999   4.195   5.391   5.868
 9700SOL    HW230000   4.042   5.348   5.828
 9701SOL     OW30001   3.750   5.456   4.769
 9701SOL    HW130002   3.805   5.375   4.748
 9701SOL    HW230003   3.747   5.516   4.689
 9702SOL     OW30004   5.614   0.459   6.492
 9702SOL    HW130005   5.584   0.523   6.563
 9702SOL    HW230006   5.631   0.509   6.407
 9703SOL     OW30007   3.362   5.408   4.139
 9703SOL    HW130008   3.363   5.361   4.227
 9703SOL    HW230009   3.396   5.348   4.067
 9704SOL     OW30010   2.900   0.934   2.483
 9704SOL    HW130011   2.989   0.977   2.500
 9704SOL    HW230012   2.876   0.876   2.560
 9705SOL     OW30013   5.305   5.084   0.706
 9705SOL    HW130014   5.268   5.176   0.693
 9705SOL    HW230015   5.360   5.081   0.789
 9706SOL     OW30016   0.202   2.037   1.143
 9706SOL    HW130017   0.119   2.047   1.089
 9706SOL    HW230018   0.197   2.097   1.224
 9707SOL     OW30019   6.410   4.367   2.056
 9707SOL    HW130020   6.313   4.378   2.080
 9707SOL    HW230021   6.433   4.270   2.054
 9708SOL     OW30022   2.011   2.609   3.215
 9708SOL    HW130023   1.951   2.530   3.227
 9708SOL    HW230024   2.018   2.660   3.300
 9709SOL     OW30025   6.872   5.673   3.613
 9709SOL    HW130026   6.933   5.611   3.662
 9709SOL    HW230027   6.900   5.678   3.517
 9710SOL     OW30028   0.524   1.567   2.832
 9710SOL    HW130029   0.564   1.637   2.773
 9710SOL    HW230030   0.458   1.513   2.780
 9711SOL     OW30031   1.695   3.321   6.178
 9711SOL    HW130032   1.671   3.271   6.095
 9711SOL    HW230033   1.667   3.417   6.168
 9712SOL     OW30034   5.412   3.620   4.656
 9712SOL    HW130035   5.332   3.674   4.629
 9712SOL    HW230036   5.397   3.581   4.746
 9713SOL     OW30037   0.313   5.331   2.922
 9713SOL    HW130038   0.277   5.315   3.014
 9713SOL    HW230039   0.273   5.415   2.885
 9714SOL     OW30040   1.835   0.927   1.819
 9714SOL    HW130041   1.817   0.960   1.912
 9714SOL    HW230042   1.933   0.937   1.799
 9715SOL     OW30043   6.661   5.555   4.798
 9715SOL    HW130044   6.616   5.531   4.884
 9715SOL    HW230045   6.751   5.512   4.794
 9716SOL     OW30046   4.206   2.459   6.892
 9716SOL    HW130047   4.190   2.372   6.844
 9716SOL    HW230048   4.135   2.525   6.866
 9717SOL     OW30049   5.667   6.114   5.417
 9717SOL    HW130050   5.568   6.126   5.405
 9717SOL    HW230051   5.685   6.057   5.497
 9718SOL     OW30052   4.613   3.342   1.731
 9718SOL    HW130053   4.588   3.254   1.772
 9718SOL    HW230054   4.661   3.326   1.645
 9719SOL     OW30055   0.611   2.225   0.111
 9719SOL    HW130056   0.541   2.296   0.102
 9719SOL    HW230057   0.645   2.223   0.205
 9720SOL     OW30058   0.631   5.683   1.634
 9720SOL    HW130059   0.621   5.625   1.553
 9720SOL    HW230060   0.583   5.641   1.711
 9721SOL     OW30061   0.954   2.297   1.864
 9721SOL    HW130062   0.955   2.300   1.964
 9721SOL    HW230063   0.882   2.234   1.834
 9722SOL     OW30064   0.575   6.715   3.581
 9722SOL    HW130065   0.634   6.635   3.568
 9722SOL    HW230066   0.626   6.798   3.560
 9723SOL     OW30067   1.676   6.121   2.685
 9723SOL    HW130068   1.612   6.197   2.677
 9723SOL    HW230069   1.736   6.118   2.605
 9724SOL     OW30070   3.243   2.898   1.313
 9724SOL    HW130071   3.172   2.884   1.244
 9724SOL    HW230072   3.332   2.903   1.267
 9725SOL     OW30073   4.289   3.683   6.024
 9725SOL    HW130074   4.315   3.662   6.118
 9725SOL    HW230075   4.347   3.757   5.990
 9726SOL     OW30076   4.292   0.214   4.481
 9726SOL    HW130077   4.315   0.118   4.467
 9726SOL    HW230078   4.366   0.260   4.530
 9727SOL     OW30079   1.140   3.431   5.431
 9727SOL    HW130080   1.225   3.409   5.479
 9727SOL    HW230081   1.083   3.489   5.489
 9728SOL     OW30082   0.656   6.557   6.423
 9728SOL    HW130083   0.577   6.534   6.366
 9728SOL    HW230084   0.678   6.480   6.483
 9729SOL     OW30085   1.187   4.558   2.777
 9729SOL    HW130086   1.254   4.613   2.727
 9729SOL    HW230087   1.114   4.530   2.715
 9730SOL     OW30088   0.233   3.551   2.302
 9730SOL    HW130089   0.272   3.586   2.216
 9730SOL    HW230090   0.307   3.529   2.365
 9731SOL     OW30091   4.406   4.816   0.583
 9731SOL    HW130092   4.459   4.891   0.543
 9731SOL    HW230093   4.401   4.740   0.517
 9732SOL     OW30094   5.529   5.898   2.907
 9732SOL    HW130095   5.564   5.911   2.999
 9732SOL    HW230096   5.430   5.906   2.907
 9733SOL     OW30097   5.779   5.169   4.784
 9733SOL    HW130098   5.716   5.102   4.824
 9733SOL    HW230099   5.730   5.254   4.767
 9734SOL     OW30100   5.188   2.068   3.909
 9734SOL    HW130101   5.103   2.053   3.959
 9734SOL    HW230102   5.180   2.153   3.856
 9735SOL     OW30103   1.750   4.526   2.590
 9735SOL    HW130104   1.749   4.452   2.657
 9735SOL    HW230105   1.720   4.490   2.501
 9736SOL     OW30106   5.437   1.255   5.446
 9736SOL    HW130107   5.450   1.160   5.417
 9736SOL    HW230108   5.494   1.273   5.526
 9737SOL     OW30109   4.625   2.815   4.909
 9737SOL    HW130110   4.596   2.742   4.847
 9737SOL    HW230111   4.553   2.885   4.914
 9738SOL     OW30112   1.574   6.881   3.394
 9738SOL    HW130113   1.659   6.885   3.447
 9738SOL    HW230114   1.519   6.962   3.412
 9739SOL     OW30115   0.430   4.768   2.011
 9739SOL    HW130116   0.396   4.753   2.103
 9739SOL    HW230117   0.353   4.783   1.949
 9740SOL     OW30118   6.053   3.119   3.394
 9740SOL    HW130119   6.142   3.073   3.396
 9740SOL    HW230120   5.981   3.051   3.381
 9741SOL     OW30121   4.660   1.364   2.372
 9741SOL    HW130122   4.656   1.348   2.471
 9741SOL    HW230123   4.744   1.413   2.350
 9742SOL     OW30124   4.764   0.170   3.319
 9742SOL    HW130125   4.784   0.138   3.227
 9742SOL    HW230126   4.791   0.100   3.385
 9743SOL     OW30127   2.214   1.856   5.315
 9743SOL    HW130128   2.267   1.940   5.302
 9743SOL    HW230129   2.185   1.822   5.225
 9744SOL     OW30130   0.524   0.100   2.853
 9744SOL    HW130131   0.518   0.197   2.832
 9744SOL    HW230132   0.515   0.086   2.952
 9745SOL     OW30133   0.462   2.175   5.931
 9745SOL    HW130134   0.398   2.247   5.901
 9745SOL    HW230135   0.464   2.102   5.863
 9746SOL     OW30136   5.853   1.675   5.099
 9746SOL    HW130137   5.798   1.744   5.052
 9746SOL    HW230138   5.851   1.692   5.198
 9747SOL     OW30139   1.318   0.984   1.729
 9747SOL    HW130140   1.246   1.038   1.686
 9747SOL    HW230141   1.337   1.020   1.820
 9748SOL     OW30142   1.225   0.137   4.815
 9748SOL    HW130143   1.246   0.062   4.752
 9748SOL    HW230144   1.277   0.219   4.788
 9749SOL     OW30145   2.266   2.122   5.559
 9749SOL    HW130146   2.342   2.119   5.493
 9749SOL    HW230147   2.282   2.056   5.631
 9750SOL     OW30148   5.713   4.901   4.138
 9750SOL    HW130149   5.633   4.931   4.190
 9750SOL    HW230150   5.778   4.976   4.131
 9751SOL     OW30151   2.381   2.548   1.230
 9751SOL    HW130152   2.427   2.562   1.318
 9751SOL    HW230153   2.385   2.451   1.207
 9752SOL     OW30154   4.719   0.621   6.431
 9752SOL    HW130155   4.741   0.596   6.337
 9752SOL    HW230156   4.704   0.538   6.485
 9753SOL     OW30157   6.529   6.257   4.688
 9753SOL    HW130158   6.476   6.174   4.667
 9753SOL    HW230159   6.493   6.333   4.634
 9754SOL     OW30160   1.305   1.552   6.908
 9754SOL    HW130161   1.331   1.565   7.004
 9754SOL    HW230162   1.263   1.637   6.874
 9755SOL     OW30163   4.188   3.388   5.285
 9755SOL    HW130164   4.285   3.400   5.305
 9755SOL    HW230165   4.166   3.435   5.200
 9756SOL     OW30166   6.396   2.976   0.156
 9756SOL    HW130167   6.493   2.963   0.138
 9756SOL    HW230168   6.377   2.957   0.252
 9757SOL     OW30169   4.902   3.137   3.273
 9757SOL    HW130170   4.917   3.236   3.283
 9757SOL    HW230171   4.929   3.109   3.181
 9758SOL     OW30172   1.548   6.707   6.168
 9758SOL    HW130173   1.640   6.743   6.153
 9758SOL    HW230174   1.511   6.674   6.082
 9759SOL     OW30175   2.105   6.739   1.048
 9759SOL    HW130176   2.142   6.677   0.978
 9759SOL    HW230177   2.119   6.834   1.020
 9760SOL     OW30178   5.087   4.045   5.222
 9760SOL    HW130179   5.116   4.051   5.126
 9760SOL    HW230180   5.013   3.978   5.230
 9761SOL     OW30181   5.855   6.134   2.038
 9761SOL    HW130182   5.821   6.140   2.132
 9761SOL    HW230183   5.935   6.194   2.027
 9762SOL     OW30184   2.735   2.244   4.533
 9762SOL    HW130185   2.694   2.195   4.609
 9762SOL    HW230186   2.826   2.206   4.515
 9763SOL     OW30187   4.788   2.373   2.017
 9763SOL    HW130188   4.866   2.416   1.971
 9763SOL    HW230189   4.772   2.283   1.978
 9764SOL     OW30190   1.258   1.950   3.293
 9764SOL    HW130191   1.345   1.904   3.274
 9764SOL    HW230192   1.274   2.048   3.307
 9765SOL     OW30193   6.734   1.812   4.692
 9765SOL    HW130194   6.721   1.795   4.790
 9765SOL    HW230195   6.765   1.728   4.647
 9766SOL     OW30196   2.479   0.328   2.990
 9766SOL    HW130197   2.573   0.295   2.988
 9766SOL    HW230198   2.434   0.306   2.904
 9767SOL     OW30199   5.172   1.872   4.672
 9767SOL    HW130200   5.184   1.882   4.770
 9767SOL    HW230201   5.261   1.869   4.627
 9768SOL     OW30202   4.985   2.599   2.250
 9768SOL    HW130203   4.957   2.595   2.346
 9768SOL    HW230204   4.912   2.638   2.195
 9769SOL     OW30205   1.383   1.273   2.033
 9769SOL    HW130206   1.292   1.306   2.006
 9769SOL    HW230207   1.451   1.345   2.014
 9770SOL     OW30208   5.788   6.429   6.230
 9770SOL    HW130209   5.814   6.342   6.273
 9770SOL    HW230210   5.870   6.473   6.193
 9771SOL     OW30211   4.417   4.531   1.266
 9771SOL    HW130212   4.413   4.432   1.284
 9771SOL    HW230213   4.418   4.581   1.352
 9772SOL     OW30214   0.124   6.819   1.828
 9772SOL    HW130215   0.205   6.838   1.773
 9772SOL    HW230216   0.140   6.740   1.887
 9773SOL     OW30217   5.308   6.086   3.644
 9773SOL    HW130218   5.250   6.005   3.632
 9773SOL    HW230219   5.399   6.068   3.606
 9774SOL     OW30220   5.944   5.508   2.851
 9774SOL    HW130221   5.954   5.415   2.814
 9774SOL    HW230222   5.847   5.528   2.864
 9775SOL     OW30223   2.181   2.033   4.247
 9775SOL    HW130224   2.280   2.024   4.234
 9775SOL    HW230225   2.162   2.056   4.342
 9776SOL     OW30226   6.779   5.887   5.010
 9776SOL    HW130227   6.794   5.971   4.958
 9776SOL    HW230228   6.688   5.890   5.053
 9777SOL     OW30229   5.593   5.180   6.663
 9777SOL    HW130230   5.571   5.131   6.747
 9777SOL    HW230231   5.654   5.125   6.607
 9778SOL     OW30232   5.695   0.270   3.910
 9778SOL    HW130233   5.655   0.266   3.818
 9778SOL    HW230234   5.664   0.353   3.956
 9779SOL     OW30235   2.742   1.452   4.615
 9779SOL    HW130236   2.712   1.374   4.670
 9779SOL    HW230237   2.826   1.490   4.654
 9780SOL     OW30238   2.549   2.135   0.915
 9780SOL    HW130239   2.456   2.155   0.883
 9780SOL    HW230240   2.548   2.049   0.966
 9781SOL     OW30241   1.805   4.490   4.007
 9781SOL    HW130242   1.750   4.549   3.948
 9781SOL    HW230243   1.788   4.513   4.103
 9782SOL     OW30244   6.531   0.233   0.954
 9782SOL    HW130245   6.526   0.330   0.932
 9782SOL    HW230246   6.581   0.221   1.040
 9783SOL     OW30247   6.177   1.230   1.776
 9783SOL    HW130248   6.103   1.211   1.840
 9783SOL    HW230249   6.254   1.271   1.824
 9784SOL     OW30250   4.610   1.459   3.416
 9784SOL    HW130251   4.586   1.529   3.349
 9784SOL    HW230252   4.694   1.487   3.463
 9785SOL     OW30253   0.045   3.084   3.763
 9785SOL    HW130254   6.985   3.034   3.732
 9785SOL    HW230255   0.022   3.180   3.778
 9786SOL     OW30256   1.353   4.986   5.458
 9786SOL    HW130257   1.437   4.999   5.405
 9786SOL    HW230258   1.323   4.891   5.449
 9787SOL     OW30259   5.122   4.082   1.934
 9787SOL    HW130260   5.147   4.017   2.007
 9787SOL    HW230261   5.036   4.053   1.892
 9788SOL     OW30262   0.638   0.342   3.878
 9788SOL    HW130263   0.546   0.378   3.891
 9788SOL    HW230264   0.640   0.245   3.900
 9789SOL     OW30265   2.268   5.580   6.079
 9789SOL    HW130266   2.310   5.524   6.007
 9789SOL    HW230267   2.194   5.528   6.122
 9790SOL     OW30268   5.688   2.698   4.879
 9790SOL    HW130269   5.697   2.646   4.964
 9790SOL    HW230270   5.609   2.760   4.887
 9791SOL     OW30271   0.769   0.555   2.194
 9791SOL    HW130272   0.840   0.625   2.181
 9791SOL    HW230273   0.781   0.483   2.126
 9792SOL     OW30274   4.821   5.130   1.994
 9792SOL    HW130275   4.860   5.221   1.984
 9792SOL    HW230276   4.892   5.066   2.022
 9793SOL     OW30277   5.104   5.675   2.732
 9793SOL    HW130278   5.054   5.712   2.654
 9793SOL    HW230279   5.065   5.711   2.817
 9794SOL     OW30280   5.533   3.615   6.705
 9794SOL    HW130281   5.604   3.680   6.732
 9794SOL    HW230282   5.525   3.544   6.776
 9795SOL     OW30283   1.383   2.797   3.877
 9795SOL    HW130284   1.288   2.802   3.910
 9795SOL    HW230285   1.430   2.882   3.901
 9796SOL     OW30286   3.290   4.103   0.880
 9796SOL    HW130287   3.238   4.063   0.804
 9796SOL    HW230288   3.296   4.202   0.867
 9797SOL     OW30289   4.378   3.721   0.273
 9797SOL    HW130290   4.296   3.680   0.233
 9797SOL    HW230291   4.376   3.711   0.372
 9798SOL     OW30292   2.772   0.728   1.164
 9798SOL    HW130293   2.676   0.746   1.186
 9798SOL    HW230294   2.786   0.630   1.155
 9799SOL     OW30295   3.548   3.452   2.673
 9799SOL    HW130296   3.543   3.520   2.747
 9799SOL    HW230297   3.643   3.428   2.656
 9800SOL     OW30298   3.905   6.208   6.134
 9800SOL    HW130299   3.970   6.162   6.074
 9800SOL    HW230300   3.921   6.181   6.228
 9801SOL     OW30301   4.049   5.266   0.172
 9801SOL    HW130302   4.016   5.347   0.124
 9801SOL    HW230303   4.053   5.284   0.270
 9802SOL     OW30304   0.061   3.380   2.114
 9802SOL    HW130305   0.120   3.402   2.192
 9802SOL    HW230306   0.091   3.293   2.074
 9803SOL     OW30307   6.165   0.415   6.562
 9803SOL    HW130308   6.106   0.371   6.494
 9803SOL    HW230309   6.221   0.485   6.517
 9804SOL     OW30310   0.381   4.893   3.610
 9804SOL    HW130311   0.376   4.979   3.661
 9804SOL    HW230312   0.316   4.828   3.648
 9805SOL     OW30313   1.241   5.470   6.853
 9805SOL    HW130314   1.272   5.472   6.758
 9805SOL    HW230315   1.308   5.515   6.911
 9806SOL     OW30316   0.610   2.229   1.721
 9806SOL    HW130317   0.539   2.291   1.691
 9806SOL    HW230318   0.693   2.244   1.666
 9807SOL     OW30319   3.101   1.870   6.916
 9807SOL    HW130320   3.130   1.966   6.920
 9807SOL    HW230321   3.161   1.820   6.854
 9808SOL     OW30322   6.131   0.496   5.843
 9808SOL    HW130323   6.043   0.474   5.885
 9808SOL    HW230324   6.204   0.486   5.911
 9809SOL     OW30325   1.093   1.304   5.742
 9809SOL    HW130326   0.999   1.310   5.710
 9809SOL    HW230327   1.102   1.230   5.808
 9810SOL     OW30328   2.617   1.976   3.197
 9810SOL    HW130329   2.639   1.918   3.276
 9810SOL    HW230330   2.687   2.046   3.188
 9811SOL     OW30331   6.122   5.945   3.578
 9811SOL    HW130332   6.055   5.871   3.578
 9811SOL    HW230333   6.096   6.013   3.647
 9812SOL     OW30334   3.729   1.962   6.496
 9812SOL    HW130335   3.638   1.987   6.461
 9812SOL    HW230336   3.745   1.865   6.478
 9813SOL     OW30337   6.307   5.423   0.127
 9813SOL    HW130338   6.229   5.440   0.067
 9813SOL    HW230339   6.295   5.474   0.212
 9814SOL     OW30340   6.657   0.498   6.337
 9814SOL    HW130341   6.683   0.424   6.275
 9814SOL    HW230342   6.736   0.556   6.357
 9815SOL     OW30343   6.783   2.707   0.906
 9815SOL    HW130344   6.795   2.801   0.875
 9815SOL    HW230345   6.687   2.681   0.900
 9816SOL     OW30346   6.228   1.010   6.341
 9816SOL    HW130347   6.280   0.983   6.422
 9816SOL    HW230348   6.291   1.049   6.273
 9817SOL     OW30349   3.278   5.380   1.739
 9817SOL    HW130350   3.194   5.326   1.752
 9817SOL    HW230351   3.257   5.462   1.686
 9818SOL     OW30352   2.030   1.676   3.163
 9818SOL    HW130353   1.947   1.676   3.220
 9818SOL    HW230354   2.023   1.748   3.094
 9819SOL     OW30355   5.700   3.958   4.635
 9819SOL    HW130356   5.650   3.932   4.552
 9819SOL    HW230357   5.651   3.924   4.715
 9820SOL     OW30358   2.902   2.139   6.588
 9820SOL    HW130359   2.888   2.222   6.534
 9820SOL    HW230360   2.988   2.147   6.639
 9821SOL     OW30361   4.478   2.168   1.367
 9821SOL    HW130362   4.489   2.072   1.393
 9821SOL    HW230363   4.521   2.226   1.436
 9822SOL     OW30364   4.424   5.905   4.342
 9822SOL    HW130365   4.459   5.831   4.399
 9822SOL    HW230366   4.364   5.964   4.397
 9823SOL     OW30367   1.517   0.692   2.404
 9823SOL    HW130368   1.496   0.596   2.388
 9823SOL    HW230369   1.486   0.718   2.495
 9824SOL     OW30370   2.428   5.979   5.716
 9824SOL    HW130371   2.426   5.987   5.616
 9824SOL    HW230372   2.456   6.066   5.757
 9825SOL     OW30373   5.380   6.099   5.380
 9825SOL    HW130374   5.382   6.196   5.403
 9825SOL    HW230375   5.293   6.076   5.337
 9826SOL     OW30376   3.738   7.001   5.778
 9826SOL    HW130377   3.688   0.016   5.700
 9826SOL    HW230378   3.771   6.909   5.756
 9827SOL     OW30379   2.078   5.592   2.588
 9827SOL    HW130380   2.013   5.517   2.582
 9827SOL    HW230381   2.030   5.679   2.581
 9828SOL     OW30382   3.522   2.111   4.840
 9828SOL    HW130383   3.451   2.095   4.908
 9828SOL    HW230384   3.612   2.111   4.884
 9829SOL     OW30385   4.910   6.109   5.934
 9829SOL    HW130386   4.857   6.193   5.932
 9829SOL    HW230387   5.006   6.131   5.952
 9830SOL     OW30388   6.001   1.218   2.706
 9830SOL    HW130389   6.056   1.170   2.638
 9830SOL    HW230390   5.974   1.308   2.671
 9831SOL     OW30391   0.103   4.189   2.119
 9831SOL    HW130392   0.198   4.204   2.093
 9831SOL    HW230393   0.087   4.092   2.135
 9832SOL     OW30394   5.273   4.785   4.330
 9832SOL    HW130395   5.247   4.743   4.243
 9832SOL    HW230396   5.305   4.714   4.393
 9833SOL     OW30397   3.556   3.983   3.632
 9833SOL    HW130398   3.482   4.051   3.640
 9833SOL    HW230399   3.545   3.913   3.703
 9834SOL     OW30400   2.443   5.608   5.578
 9834SOL    HW130401   2.479   5.665   5.652
 9834SOL    HW230402   2.518   5.574   5.522
 9835SOL     OW30403   3.644   3.921   4.729
 9835SOL    HW130404   3.704   3.878   4.796
 9835SOL    HW230405   3.650   3.872   4.642
 9836SOL     OW30406   1.137   3.948   6.635
 9836SOL    HW130407   1.062   3.897   6.676
 9836SOL    HW230408   1.130   3.944   6.535
 9837SOL     OW30409   5.725   2.093   1.498
 9837SOL    HW130410   5.726   2.160   1.572
 9837SOL    HW230411   5.654   2.116   1.432
 9838SOL     OW30412   1.166   5.849   1.336
 9838SOL    HW130413   1.113   5.767   1.315
 9838SOL    HW230414   1.109   5.930   1.326
 9839SOL     OW30415   4.353   1.103   3.451
 9839SOL    HW130416   4.297   1.072   3.528
 9839SOL    HW230417   4.413   1.028   3.421
 9840SOL     OW30418   5.206   1.796   6.674
 9840SOL    HW130419   5.266   1.875   6.667
 9840SOL    HW230420   5.169   1.789   6.767
 9841SOL     OW30421   0.024   5.461   3.615
 9841SOL    HW130422   0.108   5.515   3.607
 9841SOL    HW230423   0.042   5.381   3.672
 9842SOL     OW30424   3.939   2.817   0.020
 9842SOL    HW130425   3.951   2.910   7.007
 9842SOL    HW230426   3.854   2.779   7.005
 9843SOL     OW30427   6.745   6.748   1.085
 9843SOL    HW130428   6.754   6.848   1.091
 9843SOL    HW230429   6.834   6.708   1.064
 9844SOL     OW30430   5.583   0.661   4.459
 9844SOL    HW130431   5.522   0.677   4.382
 9844SOL    HW230432   5.551   0.581   4.511
 9845SOL     OW30433   0.865   1.943   2.322
 9845SOL    HW130434   0.772   1.975   2.339
 9845SOL    HW230435   0.929   2.002   2.372
 9846SOL     OW30436   5.456   1.568   1.228
 9846SOL    HW130437   5.470   1.636   1.300
 9846SOL    HW230438   5.488   1.478   1.259
 9847SOL     OW30439   3.762   2.898   1.551
 9847SOL    HW130440   3.859   2.893   1.528
 9847SOL    HW230441   3.710   2.842   1.487
 9848SOL     OW30442   3.200   3.892   5.617
 9848SOL    HW130443   3.199   3.984   5.577
 9848SOL    HW230444   3.255   3.831   5.559
 9849SOL     OW30445   1.266   0.783   6.460
 9849SOL    HW130446   1.341   0.841   6.490
 9849SOL    HW230447   1.299   0.717   6.393
 9850SOL     OW30448   6.987   0.790   4.435
 9850SOL    HW130449   0.018   0.728   4.494
 9850SOL    HW230450   7.011   0.774   4.339
 9851SOL     OW30451   3.924   5.229   4.392
 9851SOL    HW130452   3.836   5.239   4.347
 9851SOL    HW230453   3.970   5.147   4.358
 9852SOL     OW30454   1.361   1.524   6.554
 9852SOL    HW130455   1.338   1.427   6.549
 9852SOL    HW230456   1.460   1.533   6.568
 9853SOL     OW30457   0.365   4.039   4.377
 9853SOL    HW130458   0.305   3.967   4.412
 9853SOL    HW230459   0.309   4.113   4.338
 9854SOL     OW30460   0.570   6.042   5.973
 9854SOL    HW130461   0.632   5.965   5.986
 9854SOL    HW230462   0.587   6.083   5.883
 9855SOL     OW30463   0.805   3.269   0.710
 9855SOL    HW130464   0.880   3.247   0.648
 9855SOL    HW230465   0.721   3.284   0.658
 9856SOL     OW30466   6.258   5.112   3.572
 9856SOL    HW130467   6.313   5.180   3.621
 9856SOL    HW230468   6.162   5.123   3.597
 9857SOL     OW30469   5.184   2.636   3.197
 9857SOL    HW130470   5.133   2.578   3.134
 9857SOL    HW230471   5.124   2.706   3.235
 9858SOL     OW30472   1.059   6.674   2.526
 9858SOL    HW130473   1.132   6.632   2.579
 9858SOL    HW230474   0.994   6.604   2.497
 9859SOL     OW30475   0.062   4.896   5.317
 9859SOL    HW130476   0.036   4.923   5.225
 9859SOL    HW230477   0.075   4.797   5.321
 9860SOL     OW30478   2.141   2.182   5.252
 9860SOL    HW130479   2.072   2.129   5.301
 9860SOL    HW230480   2.225   2.185   5.305
 9861SOL     OW30481   2.619   1.664   3.816
 9861SOL    HW130482   2.675   1.735   3.860
 9861SOL    HW230483   2.673   1.618   3.746
 9862SOL     OW30484   2.415   4.803   1.146
 9862SOL    HW130485   2.498   4.749   1.132
 9862SOL    HW230486   2.440   4.898   1.165
 9863SOL     OW30487   3.030   5.695   0.834
 9863SOL    HW130488   3.096   5.721   0.904
 9863SOL    HW230489   2.939   5.685   0.876
 9864SOL     OW30490   2.868   6.561   5.480
 9864SOL    HW130491   2.915   6.510   5.409
 9864SOL    HW230492   2.787   6.511   5.510
 9865SOL     OW30493   0.462   6.829   5.175
 9865SOL    HW130494   0.468   6.760   5.103
 9865SOL    HW230495   0.540   6.892   5.167
 9866SOL     OW30496   6.382   4.652   4.417
 9866SOL    HW130497   6.372   4.577   4.352
 9866SOL    HW230498   6.316   4.724   4.396
 9867SOL     OW30499   5.048   1.943   2.058
 9867SOL    HW130500   4.960   1.899   2.078
 9867SOL    HW230501   5.086   1.980   2.143
 9868SOL     OW30502   1.299   4.533   3.761
 9868SOL    HW130503   1.378   4.555   3.818
 9868SOL    HW230504   1.309   4.575   3.671
 9869SOL     OW30505   0.242   2.721   0.847
 9869SOL    HW130506   0.203   2.630   0.857
 9869SOL    HW230507   0.340   2.719   0.870
 9870SOL     OW30508   3.461   1.379   1.635
 9870SOL    HW130509   3.376   1.365   1.584
 9870SOL    HW230510   3.511   1.456   1.596
 9871SOL     OW30511   0.131   3.292   5.328
 9871SOL    HW130512   0.073   3.322   5.403
 9871SOL    HW230513   0.198   3.226   5.362
 9872SOL     OW30514   2.414   5.526   5.148
 9872SOL    HW130515   2.487   5.570   5.095
 9872SOL    HW230516   2.340   5.499   5.086
 9873SOL     OW30517   1.872   1.820   6.003
 9873SOL    HW130518   1.784   1.856   6.033
 9873SOL    HW230519   1.926   1.794   6.083
 9874SOL     OW30520   1.045   2.610   5.003
 9874SOL    HW130521   1.129   2.566   4.971
 9874SOL    HW230522   1.031   2.695   4.953
 9875SOL     OW30523   6.858   6.190   0.865
 9875SOL    HW130524   6.921   6.172   0.790
 9875SOL    HW230525   6.811   6.277   0.851
 9876SOL     OW30526   3.316   0.151   3.442
 9876SOL    HW130527   3.224   0.176   3.410
 9876SOL    HW230528   3.332   0.192   3.531
 9877SOL     OW30529   0.384   4.520   4.687
 9877SOL    HW130530   0.308   4.584   4.685
 9877SOL    HW230531   0.470   4.569   4.674
 9878SOL     OW30532   1.942   3.215   6.935
 9878SOL    HW130533   1.884   3.292   6.961
 9878SOL    HW230534   1.938   3.145   7.007
 9879SOL     OW30535   1.581   4.470   6.162
 9879SOL    HW130536   1.605   4.383   6.119
 9879SOL    HW230537   1.482   4.483   6.158
 9880SOL     OW30538   2.374   0.743   0.393
 9880SOL    HW130539   2.347   0.706   0.482
 9880SOL    HW230540   2.317   0.822   0.371
 9881SOL     OW30541   5.132   0.710   4.504
 9881SOL    HW130542   5.043   0.748   4.527
 9881SOL    HW230543   5.140   0.617   4.541
 9882SOL     OW30544   3.821   3.055   4.773
 9882SOL    HW130545   3.759   2.977   4.777
 9882SOL    HW230546   3.854   3.067   4.680
 9883SOL     OW30547   1.687   6.233   1.060
 9883SOL    HW130548   1.732   6.144   1.051
 9883SOL    HW230549   1.700   6.285   0.975
 9884SOL     OW30550   1.572   2.899   6.948
 9884SOL    HW130551   1.602   2.834   6.877
 9884SOL    HW230552   1.563   2.990   6.908
 9885SOL     OW30553   6.633   3.224   3.774
 9885SOL    HW130554   6.694   3.174   3.835
 9885SOL    HW230555   6.687   3.278   3.709
 9886SOL     OW30556   5.324   6.398   1.343
 9886SOL    HW130557   5.391   6.449   1.289
 9886SOL    HW230558   5.368   6.316   1.380
 9887SOL     OW30559   3.647   6.687   0.473
 9887SOL    HW130560   3.706   6.689   0.392
 9887SOL    HW230561   3.646   6.778   0.515
 9888SOL     OW30562   5.448   6.090   2.465
 9888SOL    HW130563   5.501   6.023   2.517
 9888SOL    HW230564   5.510   6.157   2.424
 9889SOL     OW30565   0.248   4.962   3.070
 9889SOL    HW130566   0.344   4.938   3.058
 9889SOL    HW230567   0.218   4.935   3.161
 9890SOL     OW30568   6.444   3.315   0.728
 9890SOL    HW130569   6.508   3.247   0.762
 9890SOL    HW230570   6.488   3.371   0.658
 9891SOL     OW30571   4.676   5.259   0.728
 9891SOL    HW130572   4.669   5.332   0.660
 9891SOL    HW230573   4.698   5.299   0.817
 9892SOL     OW30574   2.122   5.608   3.749
 9892SOL    HW130575   2.025   5.590   3.766
 9892SOL    HW230576   2.175   5.526   3.770
 9893SOL     OW30577   5.885   5.228   2.790
 9893SOL    HW130578   5.944   5.177   2.853
 9893SOL    HW230579   5.794   5.187   2.787
 9894SOL     OW30580   3.466   2.095   5.868
 9894SOL    HW130581   3.408   2.057   5.796
 9894SOL    HW230582   3.420   2.173   5.910
 9895SOL     OW30583   5.332   2.440   6.535
 9895SOL    HW130584   5.300   2.431   6.630
 9895SOL    HW230585   5.306   2.530   6.500
 9896SOL     OW30586   3.509   3.431   0.850
 9896SOL    HW130587   3.600   3.470   0.864
 9896SOL    HW230588   3.489   3.366   0.924
 9897SOL     OW30589   4.875   1.662   2.656
 9897SOL    HW130590   4.906   1.578   2.611
 9897SOL    HW230591   4.955   1.718   2.678
 9898SOL     OW30592   0.895   5.177   5.462
 9898SOL    HW130593   0.848   5.190   5.550
 9898SOL    HW230594   0.828   5.181   5.388
 9899SOL     OW30595   5.347   4.911   2.217
 9899SOL    HW130596   5.377   4.933   2.124
 9899SOL    HW230597   5.310   4.994   2.260
 9900SOL     OW30598   1.416   2.077   4.012
 9900SOL    HW130599   1.513   2.087   3.993
 9900SOL    HW230600   1.403   2.025   4.096
 9901SOL     OW30601   2.199   2.136   6.467
 9901SOL    HW130602   2.226   2.111   6.560
 9901SOL    HW230603   2.180   2.054   6.414
 9902SOL     OW30604   3.471   3.789   1.027
 9902SOL    HW130605   3.517   3.859   0.972
 9902SOL    HW230606   3.409   3.737   0.969
 9903SOL     OW30607   4.304   2.288   2.650
 9903SOL    HW130608   4.360   2.220   2.602
 9903SOL    HW230609   4.344   2.379   2.637
 9904SOL     OW30610   6.778   2.548   0.230
 9904SOL    HW130611   6.748   2.457   0.202
 9904SOL    HW230612   6.842   2.585   0.163
 9905SOL     OW30613   1.229   6.069   6.147
 9905SOL    HW130614   1.213   6.034   6.055
 9905SOL    HW230615   1.300   6.015   6.192
 9906SOL     OW30616   1.916   3.081   6.182
 9906SOL    HW130617   1.928   3.116   6.275
 9906SOL    HW230618   1.942   2.984   6.180
 9907SOL     OW30619   2.416   6.175   3.026
 9907SOL    HW130620   2.329   6.134   2.999
 9907SOL    HW230621   2.476   6.180   2.946
 9908SOL     OW30622   0.608   3.426   6.719
 9908SOL    HW130623   0.649   3.419   6.627
 9908SOL    HW230624   0.605   3.522   6.746
 9909SOL     OW30625   3.186   1.632   2.830
 9909SOL    HW130626   3.152   1.576   2.905
 9909SOL    HW230627   3.109   1.675   2.783
 9910SOL     OW30628   6.763   4.579   0.992
 9910SOL    HW130629   6.771   4.570   1.092
 9910SOL    HW230630   6.765   4.489   0.950
 9911SOL     OW30631   4.394   4.885   3.280
 9911SOL    HW130632   4.388   4.847   3.187
 9911SOL    HW230633   4.365   4.815   3.346
 9912SOL     OW30634   4.842   0.694   2.288
 9912SOL    HW130635   4.747   0.723   2.273
 9912SOL    HW230636   4.859   0.608   2.239
 9913SOL     OW30637   5.474   3.076   2.567
 9913SOL    HW130638   5.573   3.086   2.555
 9913SOL    HW230639   5.456   3.015   2.644
 9914SOL     OW30640   1.610   0.020   5.160
 9914SOL    HW130641   1.696   0.055   5.122
 9914SOL    HW230642   1.548   0.097   5.177
 9915SOL     OW30643   4.862   3.527   4.086
 9915SOL    HW130644   4.809   3.484   4.013
 9915SOL    HW230645   4.956   3.495   4.082
 9916SOL     OW30646   1.937   2.972   2.382
 9916SOL    HW130647   1.868   3.031   2.340
 9916SOL    HW230648   1.935   2.882   2.338
 9917SOL     OW30649   3.357   3.796   5.359
 9917SOL    HW130650   3.367   3.705   5.318
 9917SOL    HW230651   3.440   3.818   5.410
 9918SOL     OW30652   2.001   1.317   5.940
 9918SOL    HW130653   2.094   1.300   5.907
 9918SOL    HW230654   1.999   1.403   5.992
 9919SOL     OW30655   1.349   5.964   2.218
 9919SOL    HW130656   1.449   5.973   2.214
 9919SOL    HW230657   1.321   5.886   2.162
 9920SOL     OW30658   3.954   6.726   1.415
 9920SOL    HW130659   3.921   6.767   1.330
 9920SOL    HW230660   3.921   6.778   1.493
 9921SOL     OW30661   5.875   6.738   2.833
 9921SOL    HW130662   5.922   6.809   2.782
 9921SOL    HW230663   5.844   6.775   2.921
 9922SOL     OW30664   4.235   4.674   0.853
 9922SOL    HW130665   4.186   4.643   0.772
 9922SOL    HW230666   4.292   4.600   0.887
 9923SOL     OW30667   6.679   2.216   6.087
 9923SOL    HW130668   6.672   2.202   5.988
 9923SOL    HW230669   6.771   2.192   6.118
 9924SOL     OW30670   6.686   1.378   2.968
 9924SOL    HW130671   6.634   1.414   2.890
 9924SOL    HW230672   6.650   1.417   3.053
 9925SOL     OW30673   2.450   3.430   5.698
 9925SOL    HW130674   2.366   3.404   5.746
 9925SOL    HW230675   2.523   3.366   5.721
 9926SOL     OW30676   1.378   1.490   0.747
 9926SOL    HW130677   1.293   1.478   0.799
 9926SOL    HW230678   1.456   1.467   0.804
 9927SOL     OW30679   0.581   2.152   2.410
 9927SOL    HW130680   0.596   2.112   2.500
 9927SOL    HW230681   0.495   2.203   2.410
 9928SOL     OW30682   0.573   4.439   1.914
 9928SOL    HW130683   0.651   4.389   1.877
 9928SOL    HW230684   0.597   4.479   2.003
 9929SOL     OW30685   3.252   4.204   5.894
 9929SOL    HW130686   3.163   4.162   5.878
 9929SOL    HW230687   3.305   4.149   5.959
 9930SOL     OW30688   6.992   0.370   6.694
 9930SOL    HW130689   0.030   0.290   6.695
 9930SOL    HW230690   6.900   0.343   6.664
 9931SOL     OW30691   1.359   6.443   5.038
 9931SOL    HW130692   1.298   6.459   4.961
 9931SOL    HW230693   1.445   6.492   5.024
 9932SOL     OW30694   1.874   1.700   0.628
 9932SOL    HW130695   1.778   1.712   0.652
 9932SOL    HW230696   1.931   1.759   0.685
 9933SOL     OW30697   2.969   1.052   3.102
 9933SOL    HW130698   2.890   1.005   3.141
 9933SOL    HW230699   3.027   1.087   3.176
 9934SOL     OW30700   5.756   1.613   6.257
 9934SOL    HW130701   5.695   1.685   6.225
 9934SOL    HW230702   5.790   1.635   6.348
 9935SOL     OW30703   2.756   2.268   0.070
 9935SOL    HW130704   2.769   2.254   0.168
 9935SOL    HW230705   2.735   2.181   0.026
 9936SOL     OW30706   5.005   5.394   5.495
 9936SOL    HW130707   4.975   5.331   5.567
 9936SOL    HW230708   4.952   5.479   5.502
 9937SOL     OW30709   0.251   0.255   2.919
 9937SOL    HW130710   0.171   0.286   2.970
 9937SOL    HW230711   0.290   0.175   2.965
 9938SOL     OW30712   6.809   1.167   4.620
 9938SOL    HW130713   6.778   1.103   4.549
 9938SOL    HW230714   6.905   1.190   4.604
 9939SOL     OW30715   2.037   3.826   0.817
 9939SOL    HW130716   1.993   3.760   0.756
 9939SOL    HW230717   2.131   3.843   0.786
 9940SOL     OW30718   0.568   6.822   3.090
 9940SOL    HW130719   0.646   6.788   3.143
 9940SOL    HW230720   0.534   6.907   3.131
 9941SOL     OW30721   4.027   5.223   5.573
 9941SOL    HW130722   3.997   5.150   5.635
 9941SOL    HW230723   4.119   5.201   5.539
 9942SOL     OW30724   4.709   4.671   3.465
 9942SOL    HW130725   4.651   4.714   3.535
 9942SOL    HW230726   4.652   4.641   3.389
 9943SOL     OW30727   1.809   3.814   0.295
 9943SOL    HW130728   1.842   3.866   0.374
 9943SOL    HW230729   1.866   3.836   0.216
 9944SOL     OW30730   1.616   5.030   0.364
 9944SOL    HW130731   1.692   5.084   0.328
 9944SOL    HW230732   1.587   4.963   0.295
 9945SOL     OW30733   6.058   4.093   0.317
 9945SOL    HW130734   6.150   4.053   0.307
 9945SOL    HW230735   5.991   4.020   0.321
 9946SOL     OW30736   5.519   0.998   2.807
 9946SOL    HW130737   5.494   1.082   2.857
 9946SOL    HW230738   5.619   0.993   2.799
 9947SOL     OW30739   1.129   2.350   4.310
 9947SOL    HW130740   1.049   2.291   4.321
 9947SOL    HW230741   1.188   2.314   4.238
 9948SOL     OW30742   6.623   0.212   3.864
 9948SOL    HW130743   6.708   0.166   3.888
 9948SOL    HW230744   6.576   0.161   3.792
 9949SOL     OW30745   6.525   4.374   4.630
 9949SOL    HW130746   6.566   4.319   4.556
 9949SOL    HW230747   6.541   4.471   4.611
 9950SOL     OW30748   6.292   5.108   5.981
 9950SOL    HW130749   6.213   5.071   5.932
 9950SOL    HW230750   6.376   5.085   5.931
 9951SOL     OW30751   0.819   3.013   3.057
 9951SOL    HW130752   0.802   2.928   3.108
 9951SOL    HW230753   0.863   2.991   2.970
 9952SOL     OW30754   0.791   4.149   1.831
 9952SOL    HW130755   0.791   4.245   1.802
 9952SOL    HW230756   0.814   4.144   1.928
 9953SOL     OW30757   6.298   2.636   3.756
 9953SOL    HW130758   6.261   2.580   3.830
 9953SOL    HW230759   6.340   2.578   3.686
 9954SOL     OW30760   2.978   1.109   5.995
 9954SOL    HW130761   2.997   1.199   6.033
 9954SOL    HW230762   3.036   1.041   6.040
 9955SOL     OW30763   4.366   3.338   1.053
 9955SOL    HW130764   4.431   3.324   1.128
 9955SOL    HW230765   4.394   3.282   0.975
 9956SOL     OW30766   1.378   4.648   2.965
 9956SOL    HW130767   1.377   4.746   2.942
 9956SOL    HW230768   1.313   4.599   2.908
 9957SOL     OW30769   5.202   6.793   1.738
 9957SOL    HW130770   5.240   6.701   1.737
 9957SOL    HW230771   5.180   6.818   1.833
 9958SOL     OW30772   4.206   4.947   5.857
 9958SOL    HW130773   4.114   4.910   5.857
 9958SOL    HW230774   4.210   5.027   5.917
 9959SOL     OW30775   4.384   4.194   1.109
 9959SOL    HW130776   4.457   4.210   1.175
 9959SOL    HW230777   4.308   4.147   1.153
 9960SOL     OW30778   6.474   6.743   0.553
 9960SOL    HW130779   6.440   6.692   0.632
 9960SOL    HW230780   6.442   6.700   0.469
 9961SOL     OW30781   2.019   4.166   1.829
 9961SOL    HW130782   2.115   4.185   1.808
 9961SOL    HW230783   1.977   4.118   1.752
 9962SOL     OW30784   3.122   5.650   2.585
 9962SOL    HW130785   3.160   5.560   2.609
 9962SOL    HW230786   3.168   5.684   2.503
 9963SOL     OW30787   2.232   1.348   0.418
 9963SOL    HW130788   2.189   1.405   0.488
 9963SOL    HW230789   2.285   1.276   0.461
 9964SOL     OW30790   4.564   4.635   5.315
 9964SOL    HW130791   4.553   4.554   5.373
 9964SOL    HW230792   4.657   4.670   5.324
 9965SOL     OW30793   2.950   6.500   5.221
 9965SOL    HW130794   2.862   6.452   5.220
 9965SOL    HW230795   3.021   6.439   5.187
 9966SOL     OW30796   2.822   4.716   2.234
 9966SOL    HW130797   2.903   4.774   2.231
 9966SOL    HW230798   2.805   4.678   2.143
 9967SOL     OW30799   6.533   6.868   2.551
 9967SOL    HW130800   6.553   6.777   2.587
 9967SOL    HW230801   6.486   6.859   2.463
 9968SOL     OW30802   4.166   6.006   7.003
 9968SOL    HW130803   4.144   5.922   0.030
 9968SOL    HW230804   4.086   6.067   7.004
 9969SOL     OW30805   0.954   4.340   4.583
 9969SOL    HW130806   1.047   4.377   4.590
 9969SOL    HW230807   0.909   4.346   4.672
 9970SOL     OW30808   5.469   5.281   2.037
 9970SOL    HW130809   5.533   5.327   2.098
 9970SOL    HW230810   5.482   5.314   1.943
 9971SOL     OW30811   1.168   3.047   1.804
 9971SOL    HW130812   1.195   2.955   1.777
 9971SOL    HW230813   1.199   3.066   1.897
 9972SOL     OW30814   3.602   3.952   0.835
 9972SOL    HW130815   3.701   3.962   0.848
 9972SOL    HW230816   3.554   4.025   0.883
 9973SOL     OW30817   4.004   1.626   4.436
 9973SOL    HW130818   4.026   1.563   4.361
 9973SOL    HW230819   4.087   1.673   4.465
 9974SOL     OW30820   6.657   2.348   3.776
 9974SOL    HW130821   6.662   2.393   3.865
 9974SOL    HW230822   6.709   2.401   3.709
 9975SOL     OW30823   1.023   5.390   6.615
 9975SOL    HW130824   0.966   5.314   6.584
 9975SOL    HW230825   1.117   5.376   6.584
 9976SOL     OW30826   1.751   4.934   5.654
 9976SOL    HW130827   1.815   4.940   5.731
 9976SOL    HW230828   1.764   4.847   5.607
 9977SOL     OW30829   5.339   4.919   4.776
 9977SOL    HW130830   5.291   4.979   4.712
 9977SOL    HW230831   5.273   4.876   4.838
 9978SOL     OW30832   0.328   1.885   6.083
 9978SOL    HW130833   0.415   1.895   6.035
 9978SOL    HW230834   0.339   1.821   6.159
 9979SOL     OW30835   4.938   3.411   5.813
 9979SOL    HW130836   4.874   3.480   5.778
 9979SOL    HW230837   4.888   3.344   5.868
 9980SOL     OW30838   1.318   0.955   0.041
 9980SOL    HW130839   1.264   0.981   6.983
 9980SOL    HW230840   1.258   0.942   0.120
 9981SOL     OW30841   1.033   2.413   0.883
 9981SOL    HW130842   0.972   2.397   0.805
 9981SOL    HW230843   1.033   2.511   0.906
 9982SOL     OW30844   2.821   1.227   5.125
 9982SOL    HW130845   2.805   1.155   5.193
 9982SOL    HW230846   2.775   1.311   5.153
 9983SOL     OW30847   6.384   2.963   2.413
 9983SOL    HW130848   6.351   3.054   2.439
 9983SOL    HW230849   6.357   2.943   2.319
 9984SOL     OW30850   0.366   6.310   1.228
 9984SOL    HW130851   0.321   6.316   1.139
 9984SOL    HW230852   0.327   6.379   1.289
 9985SOL     OW30853   3.014   5.187   0.482
 9985SOL    HW130854   3.064   5.103   0.462
 9985SOL    HW230855   2.954   5.172   0.561
 9986SOL     OW30856   4.953   4.803   0.941
 9986SOL    HW130857   4.882   4.776   0.876
 9986SOL    HW230858   5.030   4.844   0.892
 9987SOL     OW30859   5.655   3.466   1.625
 9987SOL    HW130860   5.634   3.447   1.721
 9987SOL    HW230861   5.570   3.468   1.572
 9988SOL     OW30862   6.357   6.036   4.120
 9988SOL    HW130863   6.373   5.937   4.129
 9988SOL    HW230864   6.266   6.051   4.081
 9989SOL     OW30865   6.460   3.743   1.262
 9989SOL    HW130866   6.559   3.733   1.268
 9989SOL    HW230867   6.433   3.831   1.301
 9990SOL     OW30868   0.148   6.334   3.396
 9990SOL    HW130869   0.120   6.282   3.477
 9990SOL    HW230870   0.235   6.298   3.361
 9991SOL     OW30871   1.357   4.067   3.334
 9991SOL    HW130872   1.342   4.143   3.271
 9991SOL    HW230873   1.433   4.011   3.302
 9992SOL     OW30874   3.264   3.957   1.150
 9992SOL    HW130875   3.267   3.867   1.108
 9992SOL    HW230876   3.291   4.026   1.083
 9993SOL     OW30877   3.411   5.884   3.810
 9993SOL    HW130878   3.365   5.824   3.745
 9993SOL    HW230879   3.364   5.880   3.898
 9994SOL     OW30880   0.410   3.932   4.008
 9994SOL    HW130881   0.456   4.001   4.063
 9994SOL    HW230882   0.476   3.887   3.948
 9995SOL     OW30883   3.151   0.671   4.289
 9995SOL    HW130884   3.200   0.609   4.351
 9995SOL    HW230885   3.207   0.753   4.273
 9996SOL     OW30886   2.714   4.237   0.450
 9996SOL    HW130887   2.629   4.191   0.474
 9996SOL    HW230888   2.749   4.199   0.364
 9997SOL     OW30889   5.287   1.832   3.860
 9997SOL    HW130890   5.280   1.932   3.867
 9997SOL    HW230891   5.196   1.792   3.853
 9998SOL     OW30892   4.761   4.183   2.594
 9998SOL    HW130893   4.851   4.226   2.590
 9998SOL    HW230894   4.742   4.138   2.507
 9999SOL     OW30895   0.941   0.305   3.868
 9999SOL    HW130896   0.929   0.404   3.880
 9999SOL    HW230897   0.859   0.257   3.901
10000SOL     OW30898   5.233   1.531   1.443
10000SOL    HW130899   5.141   1.509   1.473
10000SOL    HW230900   5.269   1.606   1.500
10001SOL     OW30901   3.297   6.371   2.474
10001SOL    HW130902   3.252   6.460   2.476
10001SOL    HW230903   3.248   6.309   2.412
10002SOL     OW30904   2.102   1.211   0.713
10002SOL    HW130905   2.197   1.191   0.689
10002SOL    HW230906   2.098   1.300   0.758
10003SOL     OW30907   2.952   1.666   2.394
10003SOL    HW130908   2.888   1.743   2.395
10003SOL    HW230909   2.913   1.592   2.339
10004SOL     OW30910   5.486   4.843   4.518
10004SOL    HW130911   5.476   4.873   4.613
10004SOL    HW230912   5.484   4.743   4.515
10005SOL     OW30913   2.814   5.768   3.574
10005SOL    HW130914   2.771   5.678   3.582
10005SOL    HW230915   2.822   5.809   3.665
10006SOL     OW30916   5.684   0.074   5.440
10006SOL    HW130917   5.719   0.096   5.531
10006SOL    HW230918   5.706   7.001   5.418
10007SOL     OW30919   0.701   3.717   4.925
10007SOL    HW130920   0.666   3.626   4.901
10007SOL    HW230921   0.798   3.723   4.901
10008SOL     OW30922   4.068   1.839   4.207
10008SOL    HW130923   3.984   1.791   4.185
10008SOL    HW230924   4.091   1.823   4.303
10009SOL     OW30925   1.969   3.712   1.604
10009SOL    HW130926   1.949   3.619   1.574
10009SOL    HW230927   1.978   3.714   1.704
10010SOL     OW30928   3.047   4.937   6.361
10010SOL    HW130929   3.002   4.954   6.274
10010SOL    HW230930   3.017   4.849   6.398
10011SOL     OW30931   6.978   4.381   7.010
10011SOL    HW130932   0.026   4.396   0.059
10011SOL    HW230933   6.990   4.448   6.937
10012SOL     OW30934   4.936   0.608   1.978
10012SOL    HW130935   4.940   0.567   2.070
10012SOL    HW230936   4.877   0.552   1.920
10013SOL     OW30937   1.310   4.821   5.164
10013SOL    HW130938   1.365   4.780   5.237
10013SOL    HW230939   1.346   4.912   5.143
10014SOL     OW30940   1.241   6.665   2.216
10014SOL    HW130941   1.235   6.642   2.313
10014SOL    HW230942   1.228   6.582   2.162
10015SOL     OW30943   3.689   5.088   6.995
10015SOL    HW130944   3.702   4.990   7.008
10015SOL    HW230945   3.592   5.107   6.982
10016SOL     OW30946   2.289   1.678   4.776
10016SOL    HW130947   2.203   1.630   4.790
10016SOL    HW230948   2.345   1.630   4.709
10017SOL     OW30949   2.320   1.715   2.419
10017SOL    HW130950   2.322   1.615   2.419
10017SOL    HW230951   2.228   1.746   2.399
10018SOL     OW30952   6.760   3.779   5.650
10018SOL    HW130953   6.841   3.836   5.635
10018SOL    HW230954   6.788   3.694   5.694
10019SOL     OW30955   0.554   1.360   3.200
10019SOL    HW130956   0.509   1.308   3.272
10019SOL    HW230957   0.546   1.312   3.113
10020SOL     OW30958   0.160   0.842   1.890
10020SOL    HW130959   0.195   0.922   1.939
10020SOL    HW230960   0.095   0.793   1.948
10021SOL     OW30961   1.042   2.623   1.907
10021SOL    HW130962   1.024   2.722   1.909
10021SOL    HW230963   1.041   2.591   1.813
10022SOL     OW30964   2.082   5.830   0.011
10022SOL    HW130965   2.032   5.900   6.982
10022SOL    HW230966   2.129   5.872   0.089
10023SOL     OW30967   2.671   6.293   5.729
10023SOL    HW130968   2.715   6.251   5.808
10023SOL    HW230969   2.682   6.234   5.649
10024SOL     OW30970   1.423   5.233   3.034
10024SOL    HW130971   1.506   5.289   3.032
10024SOL    HW230972   1.376   5.240   2.945
10025SOL     OW30973   1.830   3.105   2.027
10025SOL    HW130974   1.806   3.106   2.124
10025SOL    HW230975   1.885   3.186   2.006
10026SOL     OW30976   5.043   1.089   3.186
10026SOL    HW130977   4.958   1.122   3.146
10026SOL    HW230978   5.120   1.135   3.144
10027SOL     OW30979   0.968   2.577   5.269
10027SOL    HW130980   1.005   2.578   5.177
10027SOL    HW230981   0.968   2.483   5.304
10028SOL     OW30982   3.085   1.085   0.965
10028SOL    HW130983   3.143   1.057   1.041
10028SOL    HW230984   3.013   1.016   0.952
10029SOL     OW30985   0.484   3.253   4.296
10029SOL    HW130986   0.387   3.250   4.273
10029SOL    HW230987   0.539   3.246   4.213
10030SOL     OW30988   3.220   6.789   5.167
10030SOL    HW130989   3.182   6.832   5.249
10030SOL    HW230990   3.252   6.860   5.104
10031SOL     OW30991   4.601   4.979   4.618
10031SOL    HW130992   4.662   4.952   4.693
10031SOL    HW230993   4.523   4.916   4.615
10032SOL     OW30994   3.590   0.473   6.482
10032SOL    HW130995   3.565   0.388   6.436
10032SOL    HW230996   3.615   0.454   6.577
10033SOL     OW30997   3.919   1.667   4.742
10033SOL    HW130998   3.907   1.644   4.645
10033SOL    HW230999   3.984   1.743   4.750
10034SOL     OW31000   2.683   1.027   3.895
10034SOL    HW131001   2.610   0.994   3.954
10034SOL    HW231002   2.663   1.003   3.800
10035SOL     OW31003   5.674   3.799   1.046
10035SOL    HW131004   5.615   3.878   1.063
10035SOL    HW231005   5.762   3.830   1.009
10036SOL     OW31006   6.520   1.032   0.752
10036SOL    HW131007   6.422   1.052   0.762
10036SOL    HW231008   6.558   1.089   0.678
10037SOL     OW31009   6.478   0.212   6.564
10037SOL    HW131010   6.536   0.174   6.492
10037SOL    HW231011   6.384   0.182   6.551
10038SOL     OW31012   4.367   6.793   6.337
10038SOL    HW131013   4.464   6.769   6.334
10038SOL    HW231014   4.312   6.715   6.306
10039SOL     OW31015   5.104   6.320   4.976
10039SOL    HW131016   5.083   6.417   4.984
10039SOL    HW231017   5.041   6.278   4.910
10040SOL     OW31018   4.693   6.224   6.735
10040SOL    HW131019   4.653   6.291   6.797
10040SOL    HW231020   4.619   6.179   6.684
10041SOL     OW31021   5.953   5.344   5.399
10041SOL    HW131022   5.936   5.442   5.392
10041SOL    HW231023   5.867   5.296   5.413
10042SOL     OW31024   0.712   0.700   5.150
10042SOL    HW131025   0.665   0.613   5.139
10042SOL    HW231026   0.725   0.719   5.248
10043SOL     OW31027   0.494   0.070   3.120
10043SOL    HW131028   0.457   0.031   3.204
10043SOL    HW231029   0.574   0.125   3.141
10044SOL     OW31030   2.827   1.821   3.990
10044SOL    HW131031   2.910   1.876   3.982
10044SOL    HW231032   2.809   1.802   4.086
10045SOL     OW31033   5.202   0.336   4.178
10045SOL    HW131034   5.177   0.423   4.135
10045SOL    HW231035   5.264   0.354   4.254
10046SOL     OW31036   0.667   1.700   1.912
10046SOL    HW131037   0.635   1.780   1.961
10046SOL    HW231038   0.755   1.670   1.950
10047SOL     OW31039   6.112   3.062   5.166
10047SOL    HW131040   6.167   3.113   5.231
10047SOL    HW231041   6.167   2.991   5.123
10048SOL     OW31042   3.593   1.646   2.205
10048SOL    HW131043   3.535   1.663   2.124
10048SOL    HW231044   3.537   1.655   2.288
10049SOL     OW31045   0.703   0.878   6.420
10049SOL    HW131046   0.761   0.797   6.429
10049SOL    HW231047   0.755   0.960   6.446
10050SOL     OW31048   6.312   2.490   5.046
10050SOL    HW131049   6.337   2.394   5.038
10050SOL    HW231050   6.239   2.500   5.114
10051SOL     OW31051   6.511   2.622   4.889
10051SOL    HW131052   6.450   2.582   4.958
10051SOL    HW231053   6.603   2.585   4.901
10052SOL     OW31054   1.948   2.437   2.422
10052SOL    HW131055   1.879   2.443   2.495
10052SOL    HW231056   1.920   2.367   2.356
10053SOL     OW31057   3.827   5.087   1.728
10053SOL    HW131058   3.727   5.082   1.718
10053SOL    HW231059   3.861   5.001   1.766
10054SOL     OW31060   4.276   6.618   6.071
10054SOL    HW131061   4.183   6.587   6.052
10054SOL    HW231062   4.320   6.555   6.135
10055SOL     OW31063   6.313   2.198   5.561
10055SOL    HW131064   6.374   2.247   5.624
10055SOL    HW231065   6.343   2.212   5.467
10056SOL     OW31066   6.349   5.350   0.938
10056SOL    HW131067   6.345   5.370   1.036
10056SOL    HW231068   6.441   5.368   0.904
10057SOL     OW31069   3.615   0.759   4.266
10057SOL    HW131070   3.625   0.734   4.170
10057SOL    HW231071   3.565   0.846   4.273
10058SOL     OW31072   0.374   3.760   4.234
10058SOL    HW131073   0.354   3.837   4.175
10058SOL    HW231074   0.464   3.772   4.276
10059SOL     OW31075   4.909   6.849   0.628
10059SOL    HW131076   4.812   6.867   0.613
10059SOL    HW231077   4.943   6.908   0.702
10060SOL     OW31078   2.655   1.371   2.016
10060SOL    HW131079   2.576   1.412   1.970
10060SOL    HW231080   2.715   1.329   1.948
10061SOL     OW31081   4.809   1.342   4.066
10061SOL    HW131082   4.741   1.368   4.134
10061SOL    HW231083   4.891   1.309   4.112
10062SOL     OW31084   6.350   6.734   4.958
10062SOL    HW131085   6.413   6.680   4.902
10062SOL    HW231086   6.292   6.790   4.899
10063SOL     OW31087   1.708   1.560   2.949
10063SOL    HW131088   1.725   1.607   2.862
10063SOL    HW231089   1.770   1.482   2.957
10064SOL     OW31090   5.768   5.528   6.028
10064SOL    HW131091   5.815   5.585   6.096
10064SOL    HW231092   5.828   5.515   5.949
10065SOL     OW31093   2.577   0.641   1.889
10065SOL    HW131094   2.669   0.644   1.848
10065SOL    HW231095   2.519   0.709   1.845
10066SOL     OW31096   1.789   1.544   4.584
10066SOL    HW131097   1.746   1.576   4.499
10066SOL    HW231098   1.836   1.620   4.628
10067SOL     OW31099   5.514   3.984   5.812
10067SOL    HW131100   5.603   3.963   5.853
10067SOL    HW231101   5.441   3.963   5.877
10068SOL     OW31102   5.312   2.994   3.907
10068SOL    HW131103   5.330   3.018   4.002
10068SOL    HW231104   5.372   2.918   3.880
10069SOL     OW31105   1.844   5.560   3.755
10069SOL    HW131106   1.771   5.498   3.785
10069SOL    HW231107   1.826   5.590   3.662
10070SOL     OW31108   7.018   0.404   4.671
10070SOL    HW131109   0.057   0.473   4.631
10070SOL    HW231110   6.924   0.425   4.646
10071SOL     OW31111   5.059   5.218   4.043
10071SOL    HW131112   5.109   5.268   4.114
10071SOL    HW231113   5.108   5.225   3.956
10072SOL     OW31114   0.994   5.967   4.357
10072SOL    HW131115   1.092   5.980   4.372
10072SOL    HW231116   0.972   5.870   4.364
10073SOL     OW31117   6.370   4.166   4.282
10073SOL    HW131118   6.288   4.172   4.340
10073SOL    HW231119   6.375   4.074   4.242
10074SOL     OW31120   0.739   0.776   5.421
10074SOL    HW131121   0.768   0.774   5.516
10074SOL    HW231122   0.651   0.822   5.413
10075SOL     OW31123   1.654   2.258   2.512
10075SOL    HW131124   1.629   2.171   2.470
10075SOL    HW231125   1.708   2.242   2.594
10076SOL     OW31126   5.495   0.505   3.314
10076SOL    HW131127   5.513   0.556   3.230
10076SOL    HW231128   5.412   0.540   3.357
10077SOL     OW31129   3.527   2.326   6.984
10077SOL    HW131130   3.626   2.322   6.971
10077SOL    HW231131   3.506   2.308   0.058
10078SOL     OW31132   6.917   6.395   4.303
10078SOL    HW131133   6.974   6.317   4.330
10078SOL    HW231134   6.825   6.383   4.340
10079SOL     OW31135   0.722   3.401   2.114
10079SOL    HW131136   0.633   3.376   2.076
10079SOL    HW231137   0.785   3.325   2.104
10080SOL     OW31138   3.150   1.579   6.208
10080SOL    HW131139   3.114   1.488   6.189
10080SOL    HW231140   3.189   1.618   6.125
10081SOL     OW31141   6.949   0.601   6.942
10081SOL    HW131142   6.998   0.528   6.895
10081SOL    HW231143   7.014   0.671   6.971
10082SOL     OW31144   7.009   3.683   2.326
10082SOL    HW131145   0.072   3.629   2.325
10082SOL    HW231146   7.007   3.739   2.409
10083SOL     OW31147   5.339   0.833   2.945
10083SOL    HW131148   5.297   0.745   2.923
10083SOL    HW231149   5.424   0.845   2.893
10084SOL     OW31150   3.513   0.857   5.838
10084SOL    HW131151   3.600   0.808   5.826
10084SOL    HW231152   3.437   0.794   5.822
10085SOL     OW31153   0.355   5.615   2.202
10085SOL    HW131154   0.419   5.692   2.197
10085SOL    HW231155   0.297   5.626   2.283
10086SOL     OW31156   6.326   4.932   1.843
10086SOL    HW131157   6.324   5.019   1.893
10086SOL    HW231158   6.236   4.890   1.843
10087SOL     OW31159   0.537   6.779   4.070
10087SOL    HW131160   0.550   6.839   4.148
10087SOL    HW231161   0.441   6.752   4.064
10088SOL     OW31162   6.992   6.935   6.831
10088SOL    HW131163   0.062   6.952   6.792
10088SOL    HW231164   7.000   6.922   6.929
10089SOL     OW31165   2.465   2.589   3.197
10089SOL    HW131166   2.453   2.602   3.098
10089SOL    HW231167   2.391   2.531   3.231
10090SOL     OW31168   1.209   4.488   0.937
10090SOL    HW131169   1.171   4.526   1.022
10090SOL    HW231170   1.304   4.519   0.927
10091SOL     OW31171   1.279   3.250   4.990
10091SOL    HW131172   1.239   3.206   5.070
10091SOL    HW231173   1.320   3.181   4.931
10092SOL     OW31174   1.984   3.386   5.717
10092SOL    HW131175   1.928   3.424   5.644
10092SOL    HW231176   1.967   3.436   5.802
10093SOL     OW31177   1.049   4.446   4.890
10093SOL    HW131178   0.969   4.385   4.897
10093SOL    HW231179   1.033   4.514   4.818
10094SOL     OW31180   2.611   6.111   1.530
10094SOL    HW131181   2.581   6.022   1.563
10094SOL    HW231182   2.534   6.156   1.484
10095SOL     OW31183   5.973   2.054   5.906
10095SOL    HW131184   5.900   2.046   5.838
10095SOL    HW231185   5.998   2.150   5.918
10096SOL     OW31186   5.830   5.186   2.085
10096SOL    HW131187   5.871   5.276   2.103
10096SOL    HW231188   5.857   5.122   2.157
10097SOL     OW31189   1.140   1.116   6.854
10097SOL    HW131190   1.056   1.106   6.907
10097SOL    HW231191   1.154   1.213   6.833
10098SOL     OW31192   2.279   0.470   5.293
10098SOL    HW131193   2.219   0.541   5.255
10098SOL    HW231194   2.314   0.500   5.382
10099SOL     OW31195   6.935   5.076   6.891
10099SOL    HW131196   0.005   5.113   6.877
10099SOL    HW231197   6.910   5.082   6.987
10100SOL     OW31198   5.380   0.374   4.393
10100SOL    HW131199   5.416   0.286   4.362
10100SOL    HW231200   5.433   0.405   4.473
10101SOL     OW31201   5.586   4.199   1.646
10101SOL    HW131202   5.646   4.172   1.570
10101SOL    HW231203   5.642   4.218   1.727
10102SOL     OW31204   1.603   0.902   2.867
10102SOL    HW131205   1.609   0.826   2.931
10102SOL    HW231206   1.694   0.941   2.852
10103SOL     OW31207   2.657   1.284   5.392
10103SOL    HW131208   2.682   1.357   5.329
10103SOL    HW231209   2.580   1.232   5.354
10104SOL     OW31210   1.487   2.956   4.515
10104SOL    HW131211   1.572   3.004   4.492
10104SOL    HW231212   1.433   2.941   4.432
10105SOL     OW31213   1.139   1.178   0.321
10105SOL    HW131214   1.131   1.208   0.417
10105SOL    HW231215   1.184   1.250   0.268
10106SOL     OW31216   4.480   5.450   0.934
10106SOL    HW131217   4.515   5.367   0.977
10106SOL    HW231218   4.481   5.526   0.999
10107SOL     OW31219   0.126   1.580   0.331
10107SOL    HW131220   0.078   1.651   0.280
10107SOL    HW231221   0.224   1.586   0.313
10108SOL     OW31222   6.049   5.756   6.860
10108SOL    HW131223   6.048   5.837   6.801
10108SOL    HW231224   6.038   5.785   6.956
10109SOL     OW31225   3.627   6.406   1.942
10109SOL    HW131226   3.640   6.312   1.909
10109SOL    HW231227   3.652   6.412   2.038
10110SOL     OW31228   4.634   6.608   4.653
10110SOL    HW131229   4.626   6.703   4.683
10110SOL    HW231230   4.547   6.580   4.611
10111SOL     OW31231   6.341   2.762   4.206
10111SOL    HW131232   6.372   2.767   4.301
10111SOL    HW231233   6.251   2.806   4.197
10112SOL     OW31234   5.552   4.111   4.395
10112SOL    HW131235   5.568   4.185   4.330
10112SOL    HW231236   5.528   4.028   4.345
10113SOL     OW31237   4.483   1.062   5.750
10113SOL    HW131238   4.536   1.143   5.728
10113SOL    HW231239   4.496   1.039   5.847
10114SOL     OW31240   5.283   0.826   1.010
10114SOL    HW131241   5.277   0.727   1.020
10114SOL    HW231242   5.314   0.849   0.918
10115SOL     OW31243   3.250   2.184   3.621
10115SOL    HW131244   3.326   2.176   3.557
10115SOL    HW231245   3.163   2.185   3.571
10116SOL     OW31246   0.593   6.621   0.011
10116SOL    HW131247   0.661   6.691   0.037
10116SOL    HW231248   0.621   6.532   0.047
10117SOL     OW31249   6.870   0.053   5.295
10117SOL    HW131250   6.842   0.002   5.213
10117SOL    HW231251   6.807   0.128   5.311
10118SOL     OW31252   0.945   5.469   2.993
10118SOL    HW131253   1.042   5.482   2.971
10118SOL    HW231254   0.925   5.511   3.082
10119SOL     OW31255   0.890   6.536   4.832
10119SOL    HW131256   0.805   6.576   4.867
10119SOL    HW231257   0.882   6.522   4.733
10120SOL     OW31258   1.207   3.554   4.427
10120SOL    HW131259   1.295   3.589   4.457
10120SOL    HW231260   1.141   3.629   4.422
10121SOL     OW31261   6.490   4.964   5.847
10121SOL    HW131262   6.516   4.871   5.873
10121SOL    HW231263   6.503   4.976   5.749
10122SOL     OW31264   5.568   3.101   0.592
10122SOL    HW131265   5.593   3.058   0.679
10122SOL    HW231266   5.619   3.187   0.581
10123SOL     OW31267   6.450   6.495   0.183
10123SOL    HW131268   6.434   6.499   0.085
10123SOL    HW231269   6.452   6.588   0.221
10124SOL     OW31270   1.636   3.163   6.881
10124SOL    HW131271   1.671   3.235   6.821
10124SOL    HW231272   1.668   3.178   6.974
10125SOL     OW31273   1.378   0.694   2.660
10125SOL    HW131274   1.328   0.769   2.703
10125SOL    HW231275   1.433   0.647   2.729
10126SOL     OW31276   0.195   0.202   6.704
10126SOL    HW131277   0.257   0.235   6.632
10126SOL    HW231278   0.200   0.102   6.709
10127SOL     OW31279   2.800   4.942   5.488
10127SOL    HW131280   2.713   4.967   5.529
10127SOL    HW231281   2.785   4.906   5.396
10128SOL     OW31282   0.766   1.668   1.581
10128SOL    HW131283   0.726   1.658   1.672
10128SOL    HW231284   0.727   1.748   1.536
10129SOL     OW31285   5.102   2.887   4.109
10129SOL    HW131286   5.111   2.832   4.026
10129SOL    HW231287   5.192   2.919   4.138
10130SOL     OW31288   2.073   4.145   2.330
10130SOL    HW131289   2.154   4.152   2.272
10130SOL    HW231290   2.030   4.235   2.337
10131SOL     OW31291   0.274   0.770   3.133
10131SOL    HW131292   0.314   0.796   3.044
10131SOL    HW231293   0.345   0.776   3.203
10132SOL     OW31294   2.861   6.756   3.894
10132SOL    HW131295   2.849   6.751   3.795
10132SOL    HW231296   2.804   6.687   3.938
10133SOL     OW31297   5.019   6.249   1.397
10133SOL    HW131298   4.934   6.210   1.432
10133SOL    HW231299   5.020   6.348   1.415
10134SOL     OW31300   6.752   6.933   4.018
10134SOL    HW131301   6.832   6.921   3.958
10134SOL    HW231302   6.779   6.989   4.097
10135SOL     OW31303   5.286   3.001   3.119
10135SOL    HW131304   5.340   2.918   3.130
10135SOL    HW231305   5.312   3.046   3.033
10136SOL     OW31306   5.598   0.622   2.887
10136SOL    HW131307   5.619   0.592   2.794
10136SOL    HW231308   5.671   0.681   2.920
10137SOL     OW31309   6.013   4.603   4.077
10137SOL    HW131310   6.091   4.602   4.014
10137SOL    HW231311   5.955   4.524   4.059
10138SOL     OW31312   5.146   2.386   0.736
10138SOL    HW131313   5.107   2.399   0.645
10138SOL    HW231314   5.242   2.358   0.728
10139SOL     OW31315   3.632   3.962   3.275
10139SOL    HW131316   3.618   3.863   3.266
10139SOL    HW231317   3.570   3.997   3.345
10140SOL     OW31318   6.337   6.145   6.159
10140SOL    HW131319   6.277   6.222   6.140
10140SOL    HW231320   6.283   6.069   6.196
10141SOL     OW31321   3.296   1.512   4.033
10141SOL    HW131322   3.252   1.431   4.070
10141SOL    HW231323   3.228   1.585   4.022
10142SOL     OW31324   6.557   6.586   4.862
10142SOL    HW131325   6.579   6.548   4.952
10142SOL    HW231326   6.641   6.594   4.808
10143SOL     OW31327   4.512   0.787   0.412
10143SOL    HW131328   4.593   0.836   0.378
10143SOL    HW231329   4.507   0.697   0.368
10144SOL     OW31330   4.252   7.000   6.182
10144SOL    HW131331   4.324   6.953   6.233
10144SOL    HW231332   4.281   7.011   6.087
10145SOL     OW31333   3.324   5.707   5.664
10145SOL    HW131334   3.281   5.645   5.598
10145SOL    HW231335   3.387   5.768   5.616
10146SOL     OW31336   3.921   4.928   4.377
10146SOL    HW131337   3.937   4.940   4.475
10146SOL    HW231338   4.007   4.901   4.333
10147SOL     OW31339   5.276   4.150   4.697
10147SOL    HW131340   5.207   4.158   4.625
10147SOL    HW231341   5.338   4.229   4.694
10148SOL     OW31342   5.654   5.377   6.850
10148SOL    HW131343   5.577   5.436   6.873
10148SOL    HW231344   5.639   5.336   6.760
10149SOL     OW31345   5.863   1.951   1.289
10149SOL    HW131346   5.829   2.005   1.367
10149SOL    HW231347   5.928   1.883   1.322
10150SOL     OW31348   4.044   3.436   0.714
10150SOL    HW131349   3.957   3.406   0.674
10150SOL    HW231350   4.078   3.365   0.775
10151SOL     OW31351   1.195   6.805   0.075
10151SOL    HW131352   1.168   6.746   7.020
10151SOL    HW231353   1.168   6.899   0.056
10152SOL     OW31354   0.751   6.370   5.214
10152SOL    HW131355   0.814   6.366   5.137
10152SOL    HW231356   0.657   6.360   5.182
10153SOL     OW31357   4.922   6.009   3.850
10153SOL    HW131358   4.957   5.970   3.934
10153SOL    HW231359   4.995   6.061   3.804
10154SOL     OW31360   5.716   0.153   5.151
10154SOL    HW131361   5.712   0.252   5.169
10154SOL    HW231362   5.729   0.104   5.237
10155SOL     OW31363   3.337   1.991   5.655
10155SOL    HW131364   3.249   1.945   5.668
10155SOL    HW231365   3.349   2.015   5.559
10156SOL     OW31366   6.040   1.176   2.001
10156SOL    HW131367   6.086   1.109   2.060
10156SOL    HW231368   5.965   1.219   2.051
10157SOL     OW31369   6.014   2.816   6.501
10157SOL    HW131370   5.979   2.740   6.446
10157SOL    HW231371   5.948   2.891   6.497
10158SOL     OW31372   5.657   3.643   0.750
10158SOL    HW131373   5.720   3.589   0.805
10158SOL    HW231374   5.575   3.663   0.804
10159SOL     OW31375   2.704   2.866   6.228
10159SOL    HW131376   2.767   2.792   6.251
10159SOL    HW231377   2.687   2.866   6.129
10160SOL     OW31378   2.176   2.955   2.127
10160SOL    HW131379   2.173   3.054   2.142
10160SOL    HW231380   2.094   2.926   2.078
10161SOL     OW31381   3.319   3.374   6.460
10161SOL    HW131382   3.296   3.384   6.557
10161SOL    HW231383   3.246   3.322   6.414
10162SOL     OW31384   3.383   4.383   0.252
10162SOL    HW131385   3.312   4.424   0.309
10162SOL    HW231386   3.367   4.285   0.243
10163SOL     OW31387   5.385   5.293   5.509
10163SOL    HW131388   5.367   5.383   5.469
10163SOL    HW231389   5.417   5.231   5.437
10164SOL     OW31390   5.478   2.875   4.900
10164SOL    HW131391   5.550   2.934   4.937
10164SOL    HW231392   5.407   2.930   4.858
10165SOL     OW31393   0.860   1.717   3.546
10165SOL    HW131394   0.877   1.807   3.505
10165SOL    HW231395   0.885   1.646   3.481
10166SOL     OW31396   3.626   1.175   1.786
10166SOL    HW131397   3.561   1.236   1.741
10166SOL    HW231398   3.717   1.191   1.748
10167SOL     OW31399   2.951   2.637   6.944
10167SOL    HW131400   2.909   2.623   0.012
10167SOL    HW231401   2.881   2.649   6.874
10168SOL     OW31402   5.961   3.886   5.579
10168SOL    HW131403   5.978   3.907   5.483
10168SOL    HW231404   5.893   3.949   5.616
10169SOL     OW31405   6.281   3.917   3.320
10169SOL    HW131406   6.362   3.963   3.357
10169SOL    HW231407   6.289   3.819   3.334
10170SOL     OW31408   0.987   5.195   6.234
10170SOL    HW131409   0.894   5.198   6.197
10170SOL    HW231410   1.049   5.155   6.166
10171SOL     OW31411   6.755   3.272   5.756
10171SOL    HW131412   6.805   3.187   5.744
10171SOL    HW231413   6.735   3.287   5.852
10172SOL     OW31414   6.743   6.601   4.641
10172SOL    HW131415   6.753   6.666   4.566
10172SOL    HW231416   6.732   6.508   4.603
10173SOL     OW31417   0.776   2.393   1.247
10173SOL    HW131418   0.866   2.380   1.289
10173SOL    HW231419   0.769   2.486   1.211
10174SOL     OW31420   5.653   5.330   2.240
10174SOL    HW131421   5.694   5.264   2.178
10174SOL    HW231422   5.660   5.296   2.334
10175SOL     OW31423   5.826   2.289   4.286
10175SOL    HW131424   5.924   2.306   4.280
10175SOL    HW231425   5.801   2.214   4.225
10176SOL     OW31426   1.126   3.399   5.795
10176SOL    HW131427   1.218   3.437   5.791
10176SOL    HW231428   1.070   3.440   5.723
10177SOL     OW31429   2.301   0.348   0.428
10177SOL    HW131430   2.230   0.347   0.498
10177SOL    HW231431   2.391   0.350   0.472
10178SOL     OW31432   6.765   1.371   5.222
10178SOL    HW131433   6.672   1.365   5.184
10178SOL    HW231434   6.764   1.425   5.306
10179SOL     OW31435   0.568   1.801   6.274
10179SOL    HW131436   0.572   1.895   6.240
10179SOL    HW231437   0.474   1.780   6.301
10180SOL     OW31438   4.168   0.506   6.696
10180SOL    HW131439   4.097   0.459   6.748
10180SOL    HW231440   4.212   0.574   6.755
10181SOL     OW31441   5.546   2.680   2.122
10181SOL    HW131442   5.463   2.677   2.177
10181SOL    HW231443   5.607   2.751   2.158
10182SOL     OW31444   4.463   1.032   1.854
10182SOL    HW131445   4.405   0.962   1.813
10182SOL    HW231446   4.540   1.051   1.793
10183SOL     OW31447   0.026   2.177   6.120
10183SOL    HW131448   0.025   2.255   6.057
10183SOL    HW231449   0.112   2.178   6.171
10184SOL     OW31450   3.574   0.823   6.684
10184SOL    HW131451   3.594   0.746   6.743
10184SOL    HW231452   3.642   0.828   6.611
10185SOL     OW31453   5.808   5.873   1.988
10185SOL    HW131454   5.857   5.961   1.985
10185SOL    HW231455   5.874   5.798   1.989
10186SOL     OW31456   6.203   4.153   3.586
10186SOL    HW131457   6.211   4.078   3.520
10186SOL    HW231458   6.253   4.130   3.670
10187SOL     OW31459   0.439   3.198   1.028
10187SOL    HW131460   0.357   3.248   0.996
10187SOL    HW231461   0.500   3.261   1.076
10188SOL     OW31462   3.417   5.934   1.073
10188SOL    HW131463   3.461   5.970   0.991
10188SOL    HW231464   3.320   5.956   1.072
10189SOL     OW31465   0.871   0.666   6.397
10189SOL    HW131466   0.912   0.728   6.330
10189SOL    HW231467   0.880   0.572   6.365
10190SOL     OW31468   4.827   3.444   1.882
10190SOL    HW131469   4.746   3.433   1.825
10190SOL    HW231470   4.808   3.411   1.974
10191SOL     OW31471   5.220   5.023   5.308
10191SOL    HW131472   5.120   5.018   5.306
10191SOL    HW231473   5.255   5.039   5.215
10192SOL     OW31474   4.674   1.299   5.677
10192SOL    HW131475   4.673   1.357   5.758
10192SOL    HW231476   4.617   1.339   5.605
10193SOL     OW31477   4.053   3.470   2.047
10193SOL    HW131478   4.023   3.435   2.135
10193SOL    HW231479   4.143   3.432   2.024
10194SOL     OW31480   5.648   5.392   4.711
10194SOL    HW131481   5.661   5.488   4.686
10194SOL    HW231482   5.559   5.381   4.756
10195SOL     OW31483   6.392   5.409   1.222
10195SOL    HW131484   6.342   5.328   1.253
10195SOL    HW231485   6.476   5.418   1.275
10196SOL     OW31486   4.238   1.806   3.984
10196SOL    HW131487   4.292   1.726   4.009
10196SOL    HW231488   4.168   1.822   4.053
10197SOL     OW31489   6.173   1.940   5.500
10197SOL    HW131490   6.186   2.016   5.563
10197SOL    HW231491   6.225   1.957   5.416
10198SOL     OW31492   3.074   0.412   2.039
10198SOL    HW131493   3.025   0.441   2.122
10198SOL    HW231494   3.135   0.485   2.009
10199SOL     OW31495   2.564   2.360   6.933
10199SOL    HW131496   2.595   2.329   6.843
10199SOL    HW231497   2.630   2.332   7.003
10200SOL     OW31498   5.162   2.214   0.505
10200SOL    HW131499   5.253   2.256   0.508
10200SOL    HW231500   5.171   2.115   0.513
10201SOL     OW31501   1.567   4.215   0.976
10201SOL    HW131502   1.622   4.140   0.941
10201SOL    HW231503   1.497   4.240   0.908
10202SOL     OW31504   3.832   3.281   0.915
10202SOL    HW131505   3.930   3.283   0.894
10202SOL    HW231506   3.801   3.374   0.936
10203SOL     OW31507   6.123   3.076   3.884
10203SOL    HW131508   6.123   2.982   3.850
10203SOL    HW231509   6.196   3.128   3.840
10204SOL     OW31510   5.138   6.539   0.031
10204SOL    HW131511   5.157   6.632   0.062
10204SOL    HW231512   5.193   6.519   6.971
10205SOL     OW31513   2.086   0.985   1.512
10205SOL    HW131514   2.022   1.060   1.497
10205SOL    HW231515   2.038   0.908   1.555
10206SOL     OW31516   0.359   0.926   0.041
10206SOL    HW131517   0.442   0.873   0.024
10206SOL    HW231518   0.372   0.984   0.121
10207SOL     OW31519   1.090   1.945   6.642
10207SOL    HW131520   1.057   1.925   6.549
10207SOL    HW231521   1.114   2.042   6.649
10208SOL     OW31522   5.683   4.205   3.684
10208SOL    HW131523   5.654   4.111   3.665
10208SOL    HW231524   5.780   4.206   3.707
10209SOL     OW31525   0.218   0.189   6.999
10209SOL    HW131526   0.216   0.209   6.901
10209SOL    HW231527   0.231   0.274   0.029
10210SOL     OW31528   4.885   6.375   2.096
10210SOL    HW131529   4.805   6.315   2.100
10210SOL    HW231530   4.870   6.455   2.154
10211SOL     OW31531   4.282   6.331   4.277
10211SOL    HW131532   4.291   6.430   4.280
10211SOL    HW231533   4.198   6.304   4.324
10212SOL     OW31534   0.885   0.352   5.113
10212SOL    HW131535   0.919   0.267   5.154
10212SOL    HW231536   0.895   0.347   5.013
10213SOL     OW31537   5.170   3.046   0.810
10213SOL    HW131538   5.073   3.064   0.795
10213SOL    HW231539   5.214   3.029   0.722
10214SOL     OW31540   1.050   1.546   2.355
10214SOL    HW131541   1.130   1.599   2.381
10214SOL    HW231542   1.076   1.473   2.292
10215SOL     OW31543   4.036   3.404   3.563
10215SOL    HW131544   3.936   3.400   3.560
10215SOL    HW231545   4.070   3.462   3.490
10216SOL     OW31546   0.390   0.762   0.520
10216SOL    HW131547   0.343   0.721   0.598
10216SOL    HW231548   0.359   0.857   0.509
10217SOL     OW31549   3.054   1.907   3.557
10217SOL    HW131550   3.141   1.901   3.606
10217SOL    HW231551   3.039   1.824   3.504
10218SOL     OW31552   1.569   1.478   1.998
10218SOL    HW131553   1.514   1.561   1.983
10218SOL    HW231554   1.663   1.495   1.969
10219SOL     OW31555   6.972   2.866   3.228
10219SOL    HW131556   6.894   2.805   3.237
10219SOL    HW231557   0.022   2.837   3.292
10220SOL     OW31558   4.328   2.392   1.255
10220SOL    HW131559   4.409   2.352   1.296
10220SOL    HW231560   4.288   2.459   1.319
10221SOL     OW31561   0.626   5.363   3.272
10221SOL    HW131562   0.631   5.463   3.267
10221SOL    HW231563   0.669   5.324   3.190
10222SOL     OW31564   3.073   3.097   5.984
10222SOL    HW131565   3.066   3.095   6.084
10222SOL    HW231566   3.124   3.178   5.955
10223SOL     OW31567   0.591   4.535   1.349
10223SOL    HW131568   0.610   4.633   1.335
10223SOL    HW231569   0.591   4.515   1.446
10224SOL     OW31570   6.774   3.084   3.958
10224SOL    HW131571   6.819   3.154   4.015
10224SOL    HW231572   6.758   3.002   4.012
10225SOL     OW31573   1.859   4.698   5.546
10225SOL    HW131574   1.785   4.641   5.582
10225SOL    HW231575   1.916   4.645   5.485
10226SOL     OW31576   2.778   0.532   0.105
10226SOL    HW131577   2.763   0.518   0.008
10226SOL    HW231578   2.876   0.543   0.123
10227SOL     OW31579   5.166   4.701   0.593
10227SOL    HW131580   5.118   4.717   0.507
10227SOL    HW231581   5.185   4.603   0.602
10228SOL     OW31582   6.785   6.806   1.834
10228SOL    HW131583   6.752   6.882   1.890
10228SOL    HW231584   6.833   6.842   1.754
10229SOL     OW31585   1.202   3.103   5.192
10229SOL    HW131586   1.112   3.089   5.234
10229SOL    HW231587   1.245   3.014   5.176
10230SOL     OW31588   6.053   6.000   2.907
10230SOL    HW131589   6.003   5.985   2.821
10230SOL    HW231590   6.130   5.936   2.912
10231SOL     OW31591   0.544   5.867   5.091
10231SOL    HW131592   0.562   5.770   5.073
10231SOL    HW231593   0.449   5.878   5.118
10232SOL     OW31594   2.723   1.049   3.414
10232SOL    HW131595   2.746   0.997   3.332
10232SOL    HW231596   2.807   1.088   3.454
10233SOL     OW31597   3.747   3.974   5.152
10233SOL    HW131598   3.841   4.005   5.161
10233SOL    HW231599   3.686   4.053   5.153
10234SOL     OW31600   6.425   1.212   1.255
10234SOL    HW131601   6.523   1.198   1.241
10234SOL    HW231602   6.406   1.221   1.353
10235SOL     OW31603   1.971   2.415   1.938
10235SOL    HW131604   1.898   2.430   1.871
10235SOL    HW231605   2.043   2.484   1.923
10236SOL     OW31606   2.790   6.493   0.369
10236SOL    HW131607   2.870   6.452   0.413
10236SOL    HW231608   2.813   6.517   0.275
10237SOL     OW31609   6.768   2.831   6.858
10237SOL    HW131610   6.797   2.883   6.778
10237SOL    HW231611   6.747   2.737   6.832
10238SOL     OW31612   4.298   4.257   1.458
10238SOL    HW131613   4.319   4.198   1.536
10238SOL    HW231614   4.245   4.335   1.489
10239SOL     OW31615   1.319   2.410   4.558
10239SOL    HW131616   1.388   2.386   4.626
10239SOL    HW231617   1.365   2.447   4.477
10240SOL     OW31618   2.117   5.835   2.340
10240SOL    HW131619   2.132   5.912   2.278
10240SOL    HW231620   2.155   5.751   2.300
10241SOL     OW31621   5.558   0.797   2.317
10241SOL    HW131622   5.472   0.796   2.265
10241SOL    HW231623   5.543   0.840   2.406
10242SOL     OW31624   6.351   1.732   1.063
10242SOL    HW131625   6.450   1.728   1.052
10242SOL    HW231626   6.317   1.644   1.096
10243SOL     OW31627   2.368   3.995   1.675
10243SOL    HW131628   2.312   3.941   1.738
10243SOL    HW231629   2.348   4.092   1.687
10244SOL     OW31630   2.690   3.929   0.530
10244SOL    HW131631   2.746   3.857   0.490
10244SOL    HW231632   2.653   3.899   0.617
10245SOL     OW31633   3.768   3.925   1.347
10245SOL    HW131634   3.693   3.943   1.283
10245SOL    HW231635   3.744   3.847   1.405
10246SOL     OW31636   3.063   3.957   4.231
10246SOL    HW131637   3.024   3.909   4.152
10246SOL    HW231638   3.019   3.925   4.315
10247SOL     OW31639   0.158   3.804   6.141
10247SOL    HW131640   0.140   3.713   6.104
10247SOL    HW231641   0.102   3.872   6.094
10248SOL     OW31642   0.864   0.157   3.151
10248SOL    HW131643   0.827   0.140   3.242
10248SOL    HW231644   0.818   0.096   3.085
10249SOL     OW31645   3.044   5.828   6.524
10249SOL    HW131646   3.058   5.923   6.554
10249SOL    HW231647   3.042   5.825   6.424
10250SOL     OW31648   6.804   3.804   1.000
10250SOL    HW131649   6.719   3.831   0.954
10250SOL    HW231650   6.876   3.869   0.976
10251SOL     OW31651   2.101   1.468   4.331
10251SOL    HW131652   2.119   1.563   4.307
10251SOL    HW231653   2.002   1.452   4.332
10252SOL     OW31654   4.340   3.434   5.945
10252SOL    HW131655   4.312   3.509   6.005
10252SOL    HW231656   4.260   3.391   5.904
10253SOL     OW31657   2.784   6.259   0.660
10253SOL    HW131658   2.802   6.220   0.570
10253SOL    HW231659   2.843   6.337   0.675
10254SOL     OW31660   4.684   1.783   5.381
10254SOL    HW131661   4.589   1.760   5.359
10254SOL    HW231662   4.727   1.825   5.301
10255SOL     OW31663   2.806   6.983   0.787
10255SOL    HW131664   2.847   6.940   0.707
10255SOL    HW231665   2.708   6.963   0.788
10256SOL     OW31666   4.107   1.043   2.588
10256SOL    HW131667   4.151   0.962   2.550
10256SOL    HW231668   4.175   1.103   2.628
10257SOL     OW31669   1.175   5.576   4.220
10257SOL    HW131670   1.200   5.623   4.135
10257SOL    HW231671   1.190   5.638   4.297
10258SOL     OW31672   3.987   1.997   2.896
10258SOL    HW131673   4.078   1.965   2.871
10258SOL    HW231674   3.930   1.920   2.923
10259SOL     OW31675   0.796   4.370   3.443
10259SOL    HW131676   0.749   4.457   3.456
10259SOL    HW231677   0.793   4.318   3.528
10260SOL     OW31678   0.908   1.534   3.348
10260SOL    HW131679   0.843   1.460   3.365
10260SOL    HW231680   0.904   1.561   3.252
10261SOL     OW31681   6.983   4.833   0.482
10261SOL    HW131682   7.014   4.745   0.518
10261SOL    HW231683   6.903   4.819   0.424
10262SOL     OW31684   3.079   6.466   6.518
10262SOL    HW131685   3.071   6.440   6.422
10262SOL    HW231686   3.055   6.563   6.528
10263SOL     OW31687   5.591   0.409   0.366
10263SOL    HW131688   5.541   0.496   0.363
10263SOL    HW231689   5.618   0.391   0.460
10264SOL     OW31690   6.744   5.729   6.645
10264SOL    HW131691   6.660   5.705   6.693
10264SOL    HW231692   6.752   5.828   6.640
10265SOL     OW31693   3.784   2.406   6.933
10265SOL    HW131694   3.842   2.344   6.880
10265SOL    HW231695   3.831   2.432   7.017
10266SOL     OW31696   3.729   3.214   3.021
10266SOL    HW131697   3.824   3.187   3.034
10266SOL    HW231698   3.688   3.234   3.111
10267SOL     OW31699   5.097   1.278   0.793
10267SOL    HW131700   5.131   1.345   0.859
10267SOL    HW231701   5.001   1.295   0.774
10268SOL     OW31702   5.892   6.592   2.144
10268SOL    HW131703   5.881   6.510   2.199
10268SOL    HW231704   5.892   6.673   2.203
10269SOL     OW31705   1.252   2.496   5.779
10269SOL    HW131706   1.196   2.424   5.819
10269SOL    HW231707   1.303   2.542   5.851
10270SOL     OW31708   3.220   5.403   2.645
10270SOL    HW131709   3.253   5.338   2.576
10270SOL    HW231710   3.138   5.366   2.689
10271SOL     OW31711   3.421   2.311   0.200
10271SOL    HW131712   3.329   2.341   0.228
10271SOL    HW231713   3.428   2.212   0.211
10272SOL     OW31714   1.198   1.045   4.419
10272SOL    HW131715   1.119   1.043   4.358
10272SOL    HW231716   1.166   1.052   4.514
10273SOL     OW31717   3.111   5.421   3.590
10273SOL    HW131718   3.177   5.389   3.658
10273SOL    HW231719   3.159   5.468   3.516
10274SOL     OW31720   1.006   4.740   5.995
10274SOL    HW131721   1.000   4.641   5.980
10274SOL    HW231722   0.981   4.789   5.912
10275SOL     OW31723   0.266   0.431   2.146
10275SOL    HW131724   0.222   0.517   2.173
10275SOL    HW231725   0.334   0.405   2.215
10276SOL     OW31726   4.807   5.929   5.758
10276SOL    HW131727   4.848   5.987   5.828
10276SOL    HW231728   4.843   5.837   5.765
10277SOL     OW31729   1.867   6.175   4.998
10277SOL    HW131730   1.910   6.128   4.921
10277SOL    HW231731   1.804   6.113   5.044
10278SOL     OW31732   0.883   1.252   3.480
10278SOL    HW131733   0.904   1.213   3.569
10278SOL    HW231734   0.967   1.285   3.437
10279SOL     OW31735   1.836   5.074   4.208
10279SOL    HW131736   1.748   5.033   4.185
10279SOL    HW231737   1.877   5.025   4.286
10280SOL     OW31738   6.228   3.001   6.509
10280SOL    HW131739   6.196   3.071   6.571
10280SOL    HW231740   6.169   2.921   6.515
10281SOL     OW31741   6.332   2.075   3.971
10281SOL    HW131742   6.376   2.133   4.039
10281SOL    HW231743   6.240   2.109   3.952
10282SOL     OW31744   5.732   3.295   3.594
10282SOL    HW131745   5.800   3.334   3.532
10282SOL    HW231746   5.765   3.300   3.688
10283SOL     OW31747   1.378   3.061   1.159
10283SOL    HW131748   1.425   3.024   1.240
10283SOL    HW231749   1.297   3.006   1.139
10284SOL     OW31750   6.094   1.888   5.028
10284SOL    HW131751   6.040   1.905   4.945
10284SOL    HW231752   6.063   1.804   5.071
10285SOL     OW31753   4.568   6.497   2.630
10285SOL    HW131754   4.626   6.509   2.711
10285SOL    HW231755   4.620   6.448   2.559
10286SOL     OW31756   4.013   0.326   3.911
10286SOL    HW131757   4.027   0.234   3.948
10286SOL    HW231758   3.917   0.353   3.924
10287SOL     OW31759   2.647   5.599   1.965
10287SOL    HW131760   2.555   5.578   1.932
10287SOL    HW231761   2.714   5.576   1.894
10288SOL     OW31762   4.618   6.619   3.526
10288SOL    HW131763   4.585   6.677   3.451
10288SOL    HW231764   4.540   6.588   3.581
10289SOL     OW31765   3.005   6.382   0.502
10289SOL    HW131766   3.062   6.309   0.538
10289SOL    HW231767   3.058   6.466   0.495
10290SOL     OW31768   3.020   3.131   2.814
10290SOL    HW131769   3.014   3.092   2.907
10290SOL    HW231770   2.980   3.222   2.814
10291SOL     OW31771   3.824   2.174   3.072
10291SOL    HW131772   3.882   2.098   3.043
10291SOL    HW231773   3.757   2.194   3.000
10292SOL     OW31774   1.008   2.004   5.342
10292SOL    HW131775   1.087   2.057   5.374
10292SOL    HW231776   0.976   1.944   5.415
10293SOL     OW31777   1.023   3.210   3.312
10293SOL    HW131778   0.966   3.289   3.288
10293SOL    HW231779   1.119   3.239   3.319
10294SOL     OW31780   4.512   1.486   3.007
10294SOL    HW131781   4.571   1.515   2.932
10294SOL    HW231782   4.421   1.464   2.973
10295SOL     OW31783   1.063   3.144   5.630
10295SOL    HW131784   1.084   3.172   5.723
10295SOL    HW231785   1.006   3.214   5.586
10296SOL     OW31786   5.248   1.644   6.113
10296SOL    HW131787   5.282   1.717   6.053
10296SOL    HW231788   5.322   1.580   6.130
10297SOL     OW31789   2.016   1.092   6.789
10297SOL    HW131790   1.994   1.127   6.880
10297SOL    HW231791   1.948   1.125   6.724
10298SOL     OW31792   2.289   4.237   0.997
10298SOL    HW131793   2.198   4.209   0.965
10298SOL    HW231794   2.279   4.301   1.073
10299SOL     OW31795   3.709   5.272   2.772
10299SOL    HW131796   3.624   5.306   2.811
10299SOL    HW231797   3.756   5.215   2.839
10300SOL     OW31798   1.412   4.149   1.766
10300SOL    HW131799   1.508   4.174   1.777
10300SOL    HW231800   1.363   4.223   1.720
10301SOL     OW31801   4.393   1.968   5.506
10301SOL    HW131802   4.336   1.960   5.588
10301SOL    HW231803   4.393   1.882   5.457
10302SOL     OW31804   2.473   6.153   4.615
10302SOL    HW131805   2.383   6.122   4.586
10302SOL    HW231806   2.466   6.198   4.704
10303SOL     OW31807   1.414   5.906   3.812
10303SOL    HW131808   1.409   5.853   3.727
10303SOL    HW231809   1.510   5.923   3.835
10304SOL     OW31810   5.678   0.453   1.350
10304SOL    HW131811   5.775   0.433   1.356
10304SOL    HW231812   5.664   0.538   1.298
10305SOL     OW31813   1.512   4.135   5.768
10305SOL    HW131814   1.561   4.049   5.782
10305SOL    HW231815   1.424   4.131   5.816
10306SOL     OW31816   5.294   5.631   0.426
10306SOL    HW131817   5.215   5.577   0.454
10306SOL    HW231818   5.263   5.714   0.380
10307SOL     OW31819   3.020   1.732   5.017
10307SOL    HW131820   3.043   1.664   4.947
10307SOL    HW231821   3.104   1.780   5.045
10308SOL     OW31822   1.796   3.904   2.744
10308SOL    HW131823   1.886   3.865   2.724
10308SOL    HW231824   1.753   3.851   2.818
10309SOL     OW31825   0.008   1.780   0.197
10309SOL    HW131826   6.968   1.769   0.119
10309SOL    HW231827   0.062   1.864   0.186
10310SOL     OW31828   3.175   3.701   0.202
10310SOL    HW131829   3.244   3.701   0.129
10310SOL    HW231830   3.212   3.744   0.284
10311SOL     OW31831   6.573   5.525   0.446
10311SOL    HW131832   6.480   5.530   0.409
10311SOL    HW231833   6.635   5.490   0.376
10312SOL     OW31834   4.079   6.733   2.473
10312SOL    HW131835   4.017   6.708   2.548
10312SOL    HW231836   4.139   6.807   2.504
10313SOL     OW31837   3.641   5.847   1.901
10313SOL    HW131838   3.734   5.873   1.930
10313SOL    HW231839   3.637   5.748   1.889
10314SOL     OW31840   6.728   0.556   0.363
10314SOL    HW131841   6.694   0.646   0.389
10314SOL    HW231842   6.680   0.524   0.281
10315SOL     OW31843   5.970   6.189   4.475
10315SOL    HW131844   5.996   6.118   4.541
10315SOL    HW231845   5.922   6.263   4.523
10316SOL     OW31846   6.516   2.496   5.970
10316SOL    HW131847   6.565   2.416   5.935
10316SOL    HW231848   6.577   2.550   6.027
10317SOL     OW31849   4.025   6.144   6.708
10317SOL    HW131850   4.016   6.052   6.669
10317SOL    HW231851   3.963   6.206   6.661
10318SOL     OW31852   4.700   0.395   6.604
10318SOL    HW131853   4.773   0.417   6.670
10318SOL    HW231854   4.622   0.357   6.653
10319SOL     OW31855   0.676   3.390   5.642
10319SOL    HW131856   0.576   3.391   5.639
10319SOL    HW231857   0.710   3.476   5.603
10320SOL     OW31858   0.904   6.459   2.445
10320SOL    HW131859   0.935   6.363   2.444
10320SOL    HW231860   0.806   6.462   2.467
10321SOL     OW31861   5.635   2.339   1.657
10321SOL    HW131862   5.578   2.420   1.642
10321SOL    HW231863   5.731   2.366   1.660
10322SOL     OW31864   4.590   5.328   5.169
10322SOL    HW131865   4.513   5.370   5.217
10322SOL    HW231866   4.570   5.232   5.150
10323SOL     OW31867   5.983   4.738   5.218
10323SOL    HW131868   5.964   4.822   5.166
10323SOL    HW231869   5.981   4.660   5.156
10324SOL     OW31870   3.540   3.154   2.081
10324SOL    HW131871   3.451   3.119   2.111
10324SOL    HW231872   3.609   3.083   2.093
10325SOL     OW31873   6.146   4.334   2.161
10325SOL    HW131874   6.092   4.250   2.160
10325SOL    HW231875   6.166   4.360   2.256
10326SOL     OW31876   5.322   4.552   6.259
10326SOL    HW131877   5.411   4.590   6.235
10326SOL    HW231878   5.293   4.486   6.189
10327SOL     OW31879   2.476   2.568   0.774
10327SOL    HW131880   2.381   2.579   0.803
10327SOL    HW231881   2.480   2.570   0.674
10328SOL     OW31882   6.286   2.725   0.405
10328SOL    HW131883   6.254   2.739   0.499
10328SOL    HW231884   6.384   2.743   0.400
10329SOL     OW31885   2.636   0.954   3.640
10329SOL    HW131886   2.581   0.873   3.619
10329SOL    HW231887   2.681   0.986   3.557
10330SOL     OW31888   4.396   1.375   2.427
10330SOL    HW131889   4.328   1.326   2.373
10330SOL    HW231890   4.487   1.357   2.389
10331SOL     OW31891   6.661   6.798   6.161
10331SOL    HW131892   6.743   6.779   6.108
10331SOL    HW231893   6.686   6.815   6.256
10332SOL     OW31894   6.802   0.316   0.509
10332SOL    HW131895   6.780   0.399   0.458
10332SOL    HW231896   6.723   0.288   0.563
10333SOL     OW31897   0.822   4.407   5.351
10333SOL    HW131898   0.738   4.445   5.310
10333SOL    HW231899   0.872   4.480   5.398
10334SOL     OW31900   3.513   1.025   4.621
10334SOL    HW131901   3.473   1.115   4.641
10334SOL    HW231902   3.608   1.037   4.593
10335SOL     OW31903   2.787   4.110   0.217
10335SOL    HW131904   2.700   4.093   0.170
10335SOL    HW231905   2.849   4.034   0.201
10336SOL     OW31906   6.382   0.079   1.352
10336SOL    HW131907   6.450   0.150   1.334
10336SOL    HW231908   6.291   0.120   1.358
10337SOL     OW31909   0.128   6.168   6.716
10337SOL    HW131910   0.200   6.133   6.776
10337SOL    HW231911   0.087   6.249   6.758
10338SOL     OW31912   2.177   6.702   1.967
10338SOL    HW131913   2.211   6.792   1.943
10338SOL    HW231914   2.232   6.664   2.042
10339SOL     OW31915   4.947   3.743   6.071
10339SOL    HW131916   4.877   3.692   6.121
10339SOL    HW231917   5.003   3.796   6.134
10340SOL     OW31918   1.446   3.379   0.328
10340SOL    HW131919   1.513   3.452   0.326
10340SOL    HW231920   1.457   3.325   0.411
10341SOL     OW31921   1.994   3.304   2.008
10341SOL    HW131922   1.917   3.351   1.965
10341SOL    HW231923   2.054   3.372   2.050
10342SOL     OW31924   2.022   6.916   3.959
10342SOL    HW131925   2.058   6.828   3.928
10342SOL    HW231926   2.089   6.961   4.019
10343SOL     OW31927   3.287   5.038   6.223
10343SOL    HW131928   3.336   4.955   6.195
10343SOL    HW231929   3.211   5.013   6.282
10344SOL     OW31930   4.524   2.793   0.415
10344SOL    HW131931   4.502   2.754   0.504
10344SOL    HW231932   4.475   2.743   0.344
10345SOL     OW31933   1.812   1.463   6.420
10345SOL    HW131934   1.763   1.550   6.412
10345SOL    HW231935   1.754   1.389   6.385
10346SOL     OW31936   0.316   5.123   1.654
10346SOL    HW131937   0.226   5.098   1.687
10346SOL    HW231938   0.330   5.221   1.666
10347SOL     OW31939   3.729   1.589   3.163
10347SOL    HW131940   3.770   1.526   3.229
10347SOL    HW231941   3.658   1.543   3.112
10348SOL     OW31942   6.444   2.822   6.801
10348SOL    HW131943   6.433   2.810   6.702
10348SOL    HW231944   6.416   2.914   6.827
10349SOL     OW31945   1.246   0.652   0.123
10349SOL    HW131946   1.156   0.628   0.160
10349SOL    HW231947   1.234   0.713   0.044
10350SOL     OW31948   2.716   5.797   5.335
10350SOL    HW131949   2.783   5.782   5.263
10350SOL    HW231950   2.714   5.718   5.396
10351SOL     OW31951   4.189   4.872   6.359
10351SOL    HW131952   4.134   4.804   6.311
10351SOL    HW231953   4.141   4.960   6.358
10352SOL     OW31954   3.470   1.135   6.546
10352SOL    HW131955   3.509   1.151   6.455
10352SOL    HW231956   3.386   1.189   6.556
10353SOL     OW31957   6.793   3.304   5.353
10353SOL    HW131958   6.698   3.305   5.383
10353SOL    HW231959   6.798   3.334   5.258
10354SOL     OW31960   5.504   2.345   2.528
10354SOL    HW131961   5.578   2.361   2.462
10354SOL    HW231962   5.419   2.385   2.494
10355SOL     OW31963   2.487   6.711   1.744
10355SOL    HW131964   2.550   6.765   1.799
10355SOL    HW231965   2.464   6.627   1.793
10356SOL     OW31966   0.570   4.773   4.674
10356SOL    HW131967   0.501   4.831   4.630
10356SOL    HW231968   0.624   4.726   4.603
10357SOL     OW31969   1.446   2.897   6.343
10357SOL    HW131970   1.363   2.953   6.335
10357SOL    HW231971   1.525   2.957   6.355
10358SOL     OW31972   6.844   2.931   3.691
10358SOL    HW131973   6.801   2.933   3.601
10358SOL    HW231974   6.777   2.955   3.761
10359SOL     OW31975   0.685   1.900   1.441
10359SOL    HW131976   0.737   1.947   1.512
10359SOL    HW231977   0.742   1.890   1.359
10360SOL     OW31978   4.618   4.401   3.530
10360SOL    HW131979   4.679   4.480   3.533
10360SOL    HW231980   4.570   4.399   3.442
10361SOL     OW31981   2.535   6.275   3.263
10361SOL    HW131982   2.594   6.356   3.265
10361SOL    HW231983   2.515   6.251   3.168
10362SOL     OW31984   1.188   4.745   4.913
10362SOL    HW131985   1.205   4.842   4.898
10362SOL    HW231986   1.254   4.709   4.979
10363SOL     OW31987   4.573   1.119   2.261
10363SOL    HW131988   4.482   1.153   2.238
10363SOL    HW231989   4.619   1.185   2.321
10364SOL     OW31990   3.291   3.128   1.450
10364SOL    HW131991   3.378   3.098   1.489
10364SOL    HW231992   3.243   3.048   1.412
10365SOL     OW31993   4.020   5.091   6.355
10365SOL    HW131994   3.976   5.125   6.272
10365SOL    HW231995   3.950   5.064   6.421
10366SOL     OW31996   2.793   0.421   4.305
10366SOL    HW131997   2.842   0.434   4.219
10366SOL    HW231998   2.838   0.475   4.377
10367SOL     OW31999   6.160   2.436   2.553
10367SOL    HW132000   6.162   2.380   2.636
10367SOL    HW232001   6.065   2.446   2.522
10368SOL     OW32002   1.854   1.940   1.346
10368SOL    HW132003   1.894   1.968   1.433
10368SOL    HW232004   1.808   1.852   1.357
10369SOL     OW32005   4.533   0.931   5.995
10369SOL    HW132006   4.583   0.850   5.967
10369SOL    HW232007   4.582   0.977   6.069
10370SOL     OW32008   4.829   1.915   5.159
10370SOL    HW132009   4.764   1.924   5.085
10370SOL    HW232010   4.922   1.915   5.122
10371SOL     OW32011   3.708   5.834   4.993
10371SOL    HW132012   3.780   5.852   4.926
10371SOL    HW232013   3.619   5.839   4.948
10372SOL     OW32014   1.683   1.484   6.149
10372SOL    HW132015   1.698   1.445   6.058
10372SOL    HW232016   1.619   1.425   6.200
10373SOL     OW32017   2.513   6.307   4.882
10373SOL    HW132018   2.584   6.375   4.862
10373SOL    HW232019   2.537   6.258   4.966
10374SOL     OW32020   3.509   1.265   2.938
10374SOL    HW132021   3.602   1.230   2.923
10374SOL    HW232022   3.514   1.363   2.957
10375SOL     OW32023   3.856   1.679   0.015
10375SOL    HW132024   3.881   1.585   0.038
10375SOL    HW232025   3.939   1.736   0.012
10376SOL     OW32026   1.083   6.505   3.487
10376SOL    HW132027   1.065   6.563   3.566
10376SOL    HW232028   1.116   6.415   3.518
10377SOL     OW32029   6.663   0.980   3.732
10377SOL    HW132030   6.760   0.957   3.743
10377SOL    HW232031   6.622   0.920   3.664
10378SOL     OW32032   6.540   0.753   5.937
10378SOL    HW132033   6.482   0.807   5.876
10378SOL    HW232034   6.589   0.684   5.883
10379SOL     OW32035   4.298   0.436   4.941
10379SOL    HW132036   4.382   0.434   4.887
10379SOL    HW232037   4.320   0.457   5.036
10380SOL     OW32038   6.241   1.445   3.199
10380SOL    HW132039   6.254   1.365   3.259
10380SOL    HW232040   6.233   1.527   3.255
10381SOL     OW32041   4.946   5.643   6.092
10381SOL    HW132042   4.881   5.618   6.164
10381SOL    HW232043   4.898   5.648   6.004
10382SOL     OW32044   2.465   4.847   6.106
10382SOL    HW132045   2.413   4.771   6.145
10382SOL    HW232046   2.438   4.932   6.152
10383SOL     OW32047   1.053   3.077   0.315
10383SOL    HW132048   1.126   3.125   0.266
10383SOL    HW232049   0.966   3.124   0.300
10384SOL     OW32050   0.522   6.915   0.637
10384SOL    HW132051   0.557   6.834   0.684
10384SOL    HW232052   0.533   6.995   0.696
10385SOL     OW32053   4.850   0.020   6.201
10385SOL    HW132054   4.920   6.971   6.217
10385SOL    HW232055   4.882   0.084   6.132
10386SOL     OW32056   6.967   3.712   5.380
10386SOL    HW132057   6.964   3.763   5.466
10386SOL    HW232058   6.884   3.729   5.327
10387SOL     OW32059   3.445   1.706   2.758
10387SOL    HW132060   3.352   1.669   2.764
10387SOL    HW232061   3.457   1.776   2.828
10388SOL     OW32062   0.975   5.698   3.785
10388SOL    HW132063   1.023   5.683   3.699
10388SOL    HW232064   0.960   5.796   3.798
10389SOL     OW32065   0.637   5.666   2.367
10389SOL    HW132066   0.567   5.602   2.396
10389SOL    HW232067   0.594   5.744   2.321
10390SOL     OW32068   1.511   3.607   2.309
10390SOL    HW132069   1.559   3.654   2.384
10390SOL    HW232070   1.478   3.675   2.243
10391SOL     OW32071   1.462   5.610   6.245
10391SOL    HW132072   1.425   5.520   6.225
10391SOL    HW232073   1.458   5.667   6.162
10392SOL     OW32074   6.323   3.984   0.264
10392SOL    HW132075   6.337   3.885   0.260
10392SOL    HW232076   6.357   4.026   0.180
10393SOL     OW32077   0.473   1.831   3.075
10393SOL    HW132078   0.524   1.766   3.133
10393SOL    HW232079   0.508   1.826   2.981
10394SOL     OW32080   2.803   6.842   6.239
10394SOL    HW132081   2.860   6.856   6.158
10394SOL    HW232082   2.707   6.845   6.212
10395SOL     OW32083   6.665   0.964   4.177
10395SOL    HW132084   6.630   1.046   4.222
10395SOL    HW232085   6.592   0.923   4.121
10396SOL     OW32086   1.058   0.633   3.501
10396SOL    HW132087   0.984   0.671   3.556
10396SOL    HW232088   1.030   0.630   3.405
10397SOL     OW32089   3.653   1.201   3.605
10397SOL    HW132090   3.749   1.220   3.584
10397SOL    HW232091   3.596   1.279   3.577
10398SOL     OW32092   6.435   2.470   0.106
10398SOL    HW132093   6.382   2.546   0.069
10398SOL    HW232094   6.402   2.446   0.197
10399SOL     OW32095   4.339   1.567   5.714
10399SOL    HW132096   4.410   1.545   5.782
10399SOL    HW232097   4.261   1.507   5.728
10400SOL     OW32098   3.124   6.115   2.747
10400SOL    HW132099   3.111   6.071   2.836
10400SOL    HW232100   3.160   6.208   2.760
10401SOL     OW32101   6.124   6.269   2.273
10401SOL    HW132102   6.126   6.259   2.173
10401SOL    HW232103   6.212   6.305   2.304
10402SOL     OW32104   0.266   2.924   5.823
10402SOL    HW132105   0.320   2.980   5.760
10402SOL    HW232106   0.282   2.954   5.917
10403SOL     OW32107   5.049   1.474   2.546
10403SOL    HW132108   5.142   1.490   2.512
10403SOL    HW232109   5.025   1.378   2.532
10404SOL     OW32110   0.904   6.525   4.111
10404SOL    HW132111   0.978   6.588   4.136
10404SOL    HW232112   0.838   6.572   4.053
10405SOL     OW32113   1.692   5.338   5.233
10405SOL    HW132114   1.710   5.247   5.195
10405SOL    HW232115   1.766   5.364   5.295
10406SOL     OW32116   1.888   4.537   5.085
10406SOL    HW132117   1.952   4.492   5.147
10406SOL    HW232118   1.830   4.600   5.136
10407SOL     OW32119   1.420   0.720   6.067
10407SOL    HW132120   1.470   0.660   6.005
10407SOL    HW232121   1.482   0.787   6.107
10408SOL     OW32122   4.624   5.615   2.874
10408SOL    HW132123   4.554   5.580   2.936
10408SOL    HW232124   4.631   5.714   2.884
10409SOL     OW32125   0.249   4.284   1.470
10409SOL    HW132126   0.310   4.207   1.489
10409SOL    HW232127   0.296   4.350   1.412
10410SOL     OW32128   4.947   1.447   1.486
10410SOL    HW132129   4.887   1.461   1.407
10410SOL    HW232130   4.961   1.349   1.500
10411SOL     OW32131   2.116   4.848   3.790
10411SOL    HW132132   2.065   4.877   3.710
10411SOL    HW232133   2.163   4.762   3.771
10412SOL     OW32134   0.977   1.707   6.691
10412SOL    HW132135   0.956   1.670   6.601
10412SOL    HW232136   1.011   1.801   6.681
10413SOL     OW32137   1.057   1.785   0.813
10413SOL    HW132138   1.013   1.874   0.800
10413SOL    HW232139   1.141   1.781   0.760
10414SOL     OW32140   5.472   6.202   6.437
10414SOL    HW132141   5.489   6.220   6.341
10414SOL    HW232142   5.458   6.104   6.451
10415SOL     OW32143   1.225   5.562   3.794
10415SOL    HW132144   1.265   5.476   3.826
10415SOL    HW232145   1.167   5.600   3.866
10416SOL     OW32146   6.438   1.772   5.553
10416SOL    HW132147   6.351   1.810   5.585
10416SOL    HW232148   6.447   1.678   5.586
10417SOL     OW32149   4.309   5.012   3.052
10417SOL    HW132150   4.396   5.021   3.101
10417SOL    HW232151   4.326   4.998   2.955
10418SOL     OW32152   6.718   3.715   6.002
10418SOL    HW132153   6.789   3.785   6.007
10418SOL    HW232154   6.686   3.707   5.907
10419SOL     OW32155   3.445   0.840   5.367
10419SOL    HW132156   3.512   0.914   5.361
10419SOL    HW232157   3.492   0.752   5.370
10420SOL     OW32158   6.582   2.881   2.609
10420SOL    HW132159   6.579   2.782   2.626
10420SOL    HW232160   6.522   2.903   2.532
10421SOL     OW32161   1.132   4.597   3.971
10421SOL    HW132162   1.145   4.539   4.051
10421SOL    HW232163   1.188   4.564   3.895
10422SOL     OW32164   6.340   4.076   5.161
10422SOL    HW132165   6.358   4.017   5.240
10422SOL    HW232166   6.414   4.143   5.151
10423SOL     OW32167   3.652   4.920   4.299
10423SOL    HW132168   3.605   4.938   4.385
10423SOL    HW232169   3.748   4.899   4.317
10424SOL     OW32170   3.942   1.124   0.003
10424SOL    HW132171   4.021   1.112   0.063
10424SOL    HW232172   3.858   1.107   0.054
10425SOL     OW32173   1.355   0.087   1.226
10425SOL    HW132174   1.390   0.179   1.209
10425SOL    HW232175   1.263   0.092   1.265
10426SOL     OW32176   5.259   2.824   5.615
10426SOL    HW132177   5.191   2.845   5.684
10426SOL    HW232178   5.251   2.890   5.539
10427SOL     OW32179   4.992   5.896   5.055
10427SOL    HW132180   5.034   5.812   5.090
10427SOL    HW232181   4.898   5.876   5.025
10428SOL     OW32182   1.822   1.669   3.335
10428SOL    HW132183   1.851   1.642   3.426
10428SOL    HW232184   1.728   1.638   3.319
10429SOL     OW32185   1.128   3.211   2.478
10429SOL    HW132186   1.207   3.201   2.539
10429SOL    HW232187   1.068   3.132   2.489
10430SOL     OW32188   3.787   5.991   4.054
10430SOL    HW132189   3.877   6.000   4.011
10430SOL    HW232190   3.740   5.910   4.017
10431SOL     OW32191   2.679   1.790   4.227
10431SOL    HW132192   2.652   1.700   4.263
10431SOL    HW232193   2.645   1.862   4.288
10432SOL     OW32194   0.088   0.029   5.416
10432SOL    HW132195   0.007   0.060   5.365
10432SOL    HW232196   0.066   6.964   5.463
10433SOL     OW32197   2.082   0.240   1.413
10433SOL    HW132198   2.005   0.177   1.398
10433SOL    HW232199   2.158   0.214   1.354
10434SOL     OW32200   4.757   0.745   5.832
10434SOL    HW132201   4.823   0.806   5.876
10434SOL    HW232202   4.796   0.653   5.826
10435SOL     OW32203   1.072   2.251   6.401
10435SOL    HW132204   1.035   2.341   6.378
10435SOL    HW232205   1.092   2.246   6.499
10436SOL     OW32206   0.299   4.050   5.496
10436SOL    HW132207   0.306   4.138   5.450
10436SOL    HW232208   0.250   3.985   5.438
10437SOL     OW32209   5.055   5.637   5.121
10437SOL    HW132210   5.002   5.554   5.105
10437SOL    HW232211   5.150   5.614   5.140
10438SOL     OW32212   7.008   6.351   6.853
10438SOL    HW132213   0.046   6.430   6.836
10438SOL    HW232214   7.003   6.334   6.952
10439SOL     OW32215   6.498   0.572   4.415
10439SOL    HW132216   6.498   0.480   4.454
10439SOL    HW232217   6.558   0.574   4.334
10440SOL     OW32218   0.034   1.270   6.995
10440SOL    HW132219   0.044   1.362   6.959
10440SOL    HW232220   7.021   1.274   0.068
10441SOL     OW32221   3.215   1.346   1.163
10441SOL    HW132222   3.276   1.287   1.217
10441SOL    HW232223   3.120   1.332   1.192
10442SOL     OW32224   3.017   0.826   5.370
10442SOL    HW132225   3.045   0.815   5.275
10442SOL    HW232226   3.027   0.739   5.418
10443SOL     OW32227   0.466   1.905   3.493
10443SOL    HW132228   0.535   1.975   3.474
10443SOL    HW232229   0.412   1.888   3.410
10444SOL     OW32230   3.477   5.125   3.686
10444SOL    HW132231   3.428   5.070   3.619
10444SOL    HW232232   3.532   5.195   3.639
10445SOL     OW32233   0.834   3.824   2.452
10445SOL    HW132234   0.883   3.743   2.421
10445SOL    HW232235   0.746   3.829   2.404
10446SOL     OW32236   1.784   4.073   5.602
10446SOL    HW132237   1.863   4.114   5.556
10446SOL    HW232238   1.737   4.010   5.540
10447SOL     OW32239   6.284   2.339   3.295
10447SOL    HW132240   6.294   2.244   3.325
10447SOL    HW232241   6.320   2.348   3.202
10448SOL     OW32242   2.889   0.464   3.523
10448SOL    HW132243   2.819   0.519   3.478
10448SOL    HW232244   2.847   0.411   3.597
10449SOL     OW32245   3.502   5.588   6.843
10449SOL    HW132246   3.485   5.489   6.842
10449SOL    HW232247   3.424   5.635   6.801
10450SOL     OW32248   6.333   0.234   6.217
10450SOL    HW132249   6.376   0.155   6.172
10450SOL    HW232250   6.275   0.203   6.292
10451SOL     OW32251   1.587   0.853   4.395
10451SOL    HW132252   1.530   0.825   4.472
10451SOL    HW232253   1.593   0.952   4.392
10452SOL     OW32254   6.511   3.234   3.115
10452SOL    HW132255   6.530   3.253   3.211
10452SOL    HW232256   6.547   3.143   3.091
10453SOL     OW32257   4.398   6.278   3.092
10453SOL    HW132258   4.432   6.311   3.004
10453SOL    HW232259   4.299   6.269   3.088
10454SOL     OW32260   6.842   1.395   6.551
10454SOL    HW132261   6.848   1.391   6.651
10454SOL    HW232262   6.792   1.478   6.524
10455SOL     OW32263   5.941   6.616   4.461
10455SOL    HW132264   6.036   6.585   4.465
10455SOL    HW232265   5.938   6.716   4.467
10456SOL     OW32266   6.559   5.513   0.135
10456SOL    HW132267   6.465   5.492   0.107
10456SOL    HW232268   6.558   5.587   0.203
10457SOL     OW32269   4.053   3.166   6.880
10457SOL    HW132270   4.118   3.101   6.840
10457SOL    HW232271   3.971   3.170   6.822
10458SOL     OW32272   7.001   6.921   6.314
10458SOL    HW132273   6.958   6.900   6.226
10458SOL    HW232274   6.934   6.911   6.387
10459SOL     OW32275   6.876   4.930   0.747
10459SOL    HW132276   6.834   5.017   0.771
10459SOL    HW232277   6.852   4.906   0.653
10460SOL     OW32278   6.896   4.254   1.371
10460SOL    HW132279   6.935   4.323   1.310
10460SOL    HW232280   6.811   4.219   1.333
10461SOL     OW32281   6.677   5.141   5.201
10461SOL    HW132282   6.752   5.196   5.239
10461SOL    HW232283   6.613   5.117   5.273
10462SOL     OW32284   4.868   1.779   1.598
10462SOL    HW132285   4.886   1.754   1.693
10462SOL    HW232286   4.952   1.770   1.544
10463SOL     OW32287   4.536   2.294   6.117
10463SOL    HW132288   4.438   2.312   6.131
10463SOL    HW232289   4.559   2.307   6.021
10464SOL     OW32290   5.313   5.154   2.768
10464SOL    HW132291   5.257   5.238   2.764
10464SOL    HW232292   5.355   5.138   2.679
10465SOL     OW32293   5.165   4.128   2.566
10465SOL    HW132294   5.251   4.083   2.542
10465SOL    HW232295   5.159   4.138   2.665
10466SOL     OW32296   5.687   4.278   5.899
10466SOL    HW132297   5.708   4.375   5.913
10466SOL    HW232298   5.605   4.254   5.951
10467SOL     OW32299   1.822   2.517   6.987
10467SOL    HW132300   1.802   2.425   7.020
10467SOL    HW232301   1.916   2.521   6.953
10468SOL     OW32302   2.817   4.739   3.599
10468SOL    HW132303   2.862   4.652   3.576
10468SOL    HW232304   2.856   4.812   3.543
10469SOL     OW32305   5.421   2.341   5.792
10469SOL    HW132306   5.498   2.280   5.811
10469SOL    HW232307   5.359   2.343   5.870
10470SOL     OW32308   2.261   1.733   4.015
10470SOL    HW132309   2.350   1.775   4.031
10470SOL    HW232310   2.218   1.774   3.935
10471SOL     OW32311   2.492   0.576   0.180
10471SOL    HW132312   2.587   0.565   0.209
10471SOL    HW232313   2.453   0.656   0.225
10472SOL     OW32314   3.533   4.762   0.859
10472SOL    HW132315   3.442   4.722   0.852
10472SOL    HW232316   3.546   4.801   0.950
10473SOL     OW32317   5.599   5.940   6.418
10473SOL    HW132318   5.673   5.947   6.485
10473SOL    HW232319   5.555   5.850   6.427
10474SOL     OW32320   5.176   1.286   3.857
10474SOL    HW132321   5.266   1.264   3.821
10474SOL    HW232322   5.185   1.335   3.943
10475SOL     OW32323   2.535   6.482   1.867
10475SOL    HW132324   2.634   6.467   1.872
10475SOL    HW232325   2.487   6.403   1.904
10476SOL     OW32326   3.923   6.102   6.392
10476SOL    HW132327   3.896   6.007   6.376
10476SOL    HW232328   3.846   6.151   6.433
10477SOL     OW32329   0.279   5.927   4.099
10477SOL    HW132330   0.257   5.946   4.004
10477SOL    HW232331   0.288   6.014   4.149
10478SOL     OW32332   6.105   6.968   0.106
10478SOL    HW132333   6.135   7.006   0.194
10478SOL    HW232334   6.098   6.868   0.113
10479SOL     OW32335   6.595   2.973   2.255
10479SOL    HW132336   6.602   3.055   2.199
10479SOL    HW232337   6.513   2.980   2.312
10480SOL     OW32338   1.738   0.345   2.392
10480SOL    HW132339   1.716   0.385   2.304
10480SOL    HW232340   1.763   0.417   2.457
10481SOL     OW32341   0.863   6.583   2.935
10481SOL    HW132342   0.769   6.591   2.967
10481SOL    HW232343   0.888   6.665   2.883
10482SOL     OW32344   6.149   4.525   4.534
10482SOL    HW132345   6.240   4.566   4.525
10482SOL    HW232346   6.156   4.439   4.584
10483SOL     OW32347   5.537   5.150   0.057
10483SOL    HW132348   5.467   5.215   0.088
10483SOL    HW232349   5.594   5.194   7.008
10484SOL     OW32350   5.264   1.380   1.141
10484SOL    HW132351   5.323   1.317   1.090
10484SOL    HW232352   5.321   1.452   1.182
10485SOL     OW32353   4.159   4.623   6.178
10485SOL    HW132354   4.234   4.632   6.113
10485SOL    HW232355   4.172   4.541   6.233
10486SOL     OW32356   6.561   2.515   0.603
10486SOL    HW132357   6.502   2.435   0.593
10486SOL    HW232358   6.506   2.598   0.597
10487SOL     OW32359   5.636   6.852   2.208
10487SOL    HW132360   5.650   6.836   2.110
10487SOL    HW232361   5.698   6.923   2.240
10488SOL     OW32362   2.671   3.480   6.783
10488SOL    HW132363   2.627   3.569   6.784
10488SOL    HW232364   2.763   3.488   6.820
10489SOL     OW32365   0.444   6.781   6.071
10489SOL    HW132366   0.386   6.772   6.152
10489SOL    HW232367   0.396   6.743   5.991
10490SOL     OW32368   6.338   1.434   2.941
10490SOL    HW132369   6.291   1.427   3.029
10490SOL    HW232370   6.308   1.360   2.881
10491SOL     OW32371   1.647   3.368   6.683
10491SOL    HW132372   1.564   3.330   6.641
10491SOL    HW232373   1.720   3.372   6.614
10492SOL     OW32374   4.911   4.032   5.607
10492SOL    HW132375   4.985   3.983   5.562
10492SOL    HW232376   4.867   3.973   5.675
10493SOL     OW32377   3.524   0.432   1.619
10493SOL    HW132378   3.453   0.367   1.646
10493SOL    HW232379   3.493   0.526   1.638
10494SOL     OW32380   5.617   2.291   5.124
10494SOL    HW132381   5.582   2.256   5.211
10494SOL    HW232382   5.673   2.220   5.080
10495SOL     OW32383   1.525   6.965   1.083
10495SOL    HW132384   1.460   7.014   1.142
10495SOL    HW232385   1.609   6.947   1.135
10496SOL     OW32386   0.214   6.737   0.409
10496SOL    HW132387   0.271   6.819   0.403
10496SOL    HW232388   0.267   6.657   0.383
10497SOL     OW32389   1.805   0.187   0.947
10497SOL    HW132390   1.894   0.232   0.953
10497SOL    HW232391   1.789   0.158   0.852
10498SOL     OW32392   2.686   6.606   0.601
10498SOL    HW132393   2.700   6.574   0.507
10498SOL    HW232394   2.767   6.655   0.632
10499SOL     OW32395   2.710   6.565   2.598
10499SOL    HW132396   2.801   6.607   2.603
10499SOL    HW232397   2.640   6.635   2.607
10500SOL     OW32398   0.521   0.909   5.398
10500SOL    HW132399   0.501   0.927   5.494
10500SOL    HW232400   0.505   0.992   5.344
10501SOL     OW32401   1.840   5.283   3.379
10501SOL    HW132402   1.858   5.222   3.301
10501SOL    HW232403   1.923   5.333   3.402
10502SOL     OW32404   3.152   6.542   1.201
10502SOL    HW132405   3.119   6.457   1.158
10502SOL    HW232406   3.178   6.607   1.130
10503SOL     OW32407   4.443   2.652   0.614
10503SOL    HW132408   4.491   2.567   0.636
10503SOL    HW232409   4.392   2.684   0.693
10504SOL     OW32410   1.919   2.504   0.646
10504SOL    HW132411   2.011   2.524   0.614
10504SOL    HW232412   1.898   2.408   0.629
10505SOL     OW32413   5.822   6.153   0.606
10505SOL    HW132414   5.773   6.235   0.578
10505SOL    HW232415   5.843   6.097   0.525
10506SOL     OW32416   0.613   5.050   6.317
10506SOL    HW132417   0.516   5.064   6.293
10506SOL    HW232418   0.624   4.959   6.357
10507SOL     OW32419   1.951   6.492   0.325
10507SOL    HW132420   1.905   6.536   0.402
10507SOL    HW232421   1.945   6.550   0.244
10508SOL     OW32422   5.840   5.868   4.140
10508SOL    HW132423   5.752   5.841   4.101
10508SOL    HW232424   5.826   5.945   4.203
10509SOL     OW32425   0.982   6.733   6.020
10509SOL    HW132426   0.940   6.817   5.986
10509SOL    HW232427   0.928   6.697   6.096
10510SOL     OW32428   5.712   5.027   5.845
10510SOL    HW132429   5.659   4.949   5.811
10510SOL    HW232430   5.679   5.111   5.802
10511SOL     OW32431   4.341   2.659   0.890
10511SOL    HW132432   4.322   2.563   0.908
10511SOL    HW232433   4.299   2.715   0.962
10512SOL     OW32434   3.757   0.749   6.485
10512SOL    HW132435   3.848   0.710   6.476
10512SOL    HW232436   3.733   0.799   6.402
10513SOL     OW32437   6.826   2.389   5.774
10513SOL    HW132438   6.920   2.378   5.806
10513SOL    HW232439   6.788   2.473   5.812
10514SOL     OW32440   6.670   3.583   0.076
10514SOL    HW132441   6.572   3.578   0.055
10514SOL    HW232442   6.686   3.658   0.141
10515SOL     OW32443   6.048   2.859   3.007
10515SOL    HW132444   6.096   2.941   3.038
10515SOL    HW232445   5.949   2.875   3.010
10516SOL     OW32446   4.917   0.958   6.619
10516SOL    HW132447   4.861   1.016   6.678
10516SOL    HW232448   5.007   1.000   6.607
10517SOL     OW32449   0.838   2.204   2.463
10517SOL    HW132450   0.835   2.286   2.521
10517SOL    HW232451   0.747   2.187   2.425
10518SOL     OW32452   0.840   5.001   0.093
10518SOL    HW132453   0.837   4.947   0.009
10518SOL    HW232454   0.823   4.941   0.172
10519SOL     OW32455   3.308   2.374   5.755
10519SOL    HW132456   3.321   2.456   5.811
10519SOL    HW232457   3.364   2.382   5.672
10520SOL     OW32458   2.477   2.676   6.728
10520SOL    HW132459   2.465   2.712   6.820
10520SOL    HW232460   2.413   2.720   6.666
10521SOL     OW32461   6.557   5.974   1.561
10521SOL    HW132462   6.562   5.917   1.643
10521SOL    HW232463   6.485   5.939   1.500
10522SOL     OW32464   6.027   0.422   0.383
10522SOL    HW132465   6.044   0.445   0.287
10522SOL    HW232466   5.946   0.364   0.390
10523SOL     OW32467   0.337   6.060   4.677
10523SOL    HW132468   0.396   6.099   4.606
10523SOL    HW232469   0.390   6.048   4.761
10524SOL     OW32470   1.732   0.906   5.001
10524SOL    HW132471   1.807   0.872   4.944
10524SOL    HW232472   1.648   0.856   4.979
10525SOL     OW32473   2.789   6.787   5.595
10525SOL    HW132474   2.819   6.704   5.547
10525SOL    HW232475   2.805   6.776   5.694
10526SOL     OW32476   0.532   0.363   2.789
10526SOL    HW132477   0.480   0.431   2.842
10526SOL    HW232478   0.612   0.407   2.748
10527SOL     OW32479   1.514   3.035   3.936
10527SOL    HW132480   1.437   3.062   3.994
10527SOL    HW232481   1.592   3.009   3.993
10528SOL     OW32482   1.304   4.084   5.244
10528SOL    HW132483   1.383   4.138   5.272
10528SOL    HW232484   1.230   4.097   5.311
10529SOL     OW32485   0.984   5.769   2.935
10529SOL    HW132486   1.068   5.718   2.921
10529SOL    HW232487   1.006   5.866   2.951
10530SOL     OW32488   1.904   1.134   6.171
10530SOL    HW132489   1.961   1.215   6.154
10530SOL    HW232490   1.962   1.053   6.175
10531SOL     OW32491   1.808   3.481   4.581
10531SOL    HW132492   1.781   3.388   4.607
10531SOL    HW232493   1.854   3.525   4.658
10532SOL     OW32494   2.418   2.954   0.544
10532SOL    HW132495   2.473   2.966   0.626
10532SOL    HW232496   2.395   3.043   0.505
10533SOL     OW32497   3.144   1.735   4.112
10533SOL    HW132498   3.063   1.677   4.112
10533SOL    HW232499   3.123   1.822   4.068
10534SOL     OW32500   0.356   5.828   0.854
10534SOL    HW132501   0.270   5.778   0.866
10534SOL    HW232502   0.430   5.763   0.836
10535SOL     OW32503   0.311   2.557   2.403
10535SOL    HW132504   0.243   2.601   2.462
10535SOL    HW232505   0.345   2.623   2.336
10536SOL     OW32506   3.950   0.413   3.059
10536SOL    HW132507   3.912   0.469   3.133
10536SOL    HW232508   3.877   0.386   2.996
10537SOL     OW32509   3.368   5.369   3.202
10537SOL    HW132510   3.273   5.338   3.197
10537SOL    HW232511   3.421   5.324   3.129
10538SOL     OW32512   4.660   2.909   6.585
10538SOL    HW132513   4.707   2.967   6.651
10538SOL    HW232514   4.722   2.887   6.510
10539SOL     OW32515   0.902   4.167   6.509
10539SOL    HW132516   0.886   4.239   6.441
10539SOL    HW232517   0.825   4.103   6.507
10540SOL     OW32518   1.714   0.849   5.843
10540SOL    HW132519   1.696   0.841   5.745
10540SOL    HW232520   1.747   0.941   5.864
10541SOL     OW32521   3.559   3.918   1.834
10541SOL    HW132522   3.657   3.931   1.820
10541SOL    HW232523   3.538   3.820   1.833
10542SOL     OW32524   6.990   1.428   0.501
10542SOL    HW132525   0.044   1.474   0.454
10542SOL    HW232526   6.985   1.461   0.595
10543SOL     OW32527   0.226   1.097   5.237
10543SOL    HW132528   0.220   1.097   5.137
10543SOL    HW232529   0.322   1.086   5.264
10544SOL     OW32530   2.200   1.295   2.626
10544SOL    HW132531   2.122   1.245   2.664
10544SOL    HW232532   2.283   1.269   2.676
10545SOL     OW32533   6.718   6.727   2.807
10545SOL    HW132534   6.728   6.682   2.896
10545SOL    HW232535   6.632   6.779   2.805
10546SOL     OW32536   1.045   0.579   5.530
10546SOL    HW132537   1.075   0.520   5.455
10546SOL    HW232538   0.948   0.562   5.549
10547SOL     OW32539   4.688   1.574   2.033
10547SOL    HW132540   4.594   1.548   2.014
10547SOL    HW232541   4.726   1.516   2.105
10548SOL     OW32542   5.165   3.789   4.932
10548SOL    HW132543   5.211   3.853   4.871
10548SOL    HW232544   5.069   3.818   4.944
10549SOL     OW32545   6.427   0.563   2.528
10549SOL    HW132546   6.360   0.489   2.529
10549SOL    HW232547   6.478   0.562   2.442
10550SOL     OW32548   4.330   6.748   3.976
10550SOL    HW132549   4.376   6.837   3.974
10550SOL    HW232550   4.392   6.677   3.944
10551SOL     OW32551   1.740   2.578   4.902
10551SOL    HW132552   1.718   2.596   4.806
10551SOL    HW232553   1.675   2.626   4.961
10552SOL     OW32554   3.609   1.949   5.446
10552SOL    HW132555   3.515   1.970   5.421
10552SOL    HW232556   3.669   1.957   5.366
10553SOL     OW32557   1.199   4.956   1.627
10553SOL    HW132558   1.166   5.015   1.554
10553SOL    HW232559   1.129   4.887   1.649
10554SOL     OW32560   5.365   4.973   6.725
10554SOL    HW132561   5.363   4.966   6.626
10554SOL    HW232562   5.314   4.897   6.765
10555SOL     OW32563   2.761   2.091   1.533
10555SOL    HW132564   2.812   2.006   1.522
10555SOL    HW232565   2.813   2.154   1.591
10556SOL     OW32566   1.909   2.862   5.453
10556SOL    HW132567   1.887   2.777   5.406
10556SOL    HW232568   1.893   2.940   5.392
10557SOL     OW32569   1.354   2.227   3.326
10557SOL    HW132570   1.307   2.227   3.414
10557SOL    HW232571   1.417   2.305   3.322
10558SOL     OW32572   4.152   6.977   5.052
10558SOL    HW132573   4.181   0.021   5.121
10558SOL    HW232574   4.193   7.000   4.964
10559SOL     OW32575   3.900   1.326   0.839
10559SOL    HW132576   3.918   1.298   0.745
10559SOL    HW232577   3.946   1.263   0.902
10560SOL     OW32578   2.148   5.432   4.546
10560SOL    HW132579   2.177   5.363   4.612
10560SOL    HW232580   2.137   5.389   4.456
10561SOL     OW32581   2.243   4.698   0.341
10561SOL    HW132582   2.297   4.754   0.278
10561SOL    HW232583   2.147   4.697   0.312
10562SOL     OW32584   4.928   0.096   0.502
10562SOL    HW132585   4.927   0.001   0.471
10562SOL    HW232586   5.016   0.116   0.543
10563SOL     OW32587   2.075   1.109   4.433
10563SOL    HW132588   1.999   1.171   4.453
10563SOL    HW232589   2.062   1.024   4.485
10564SOL     OW32590   6.155   0.172   1.994
10564SOL    HW132591   6.084   0.109   2.025
10564SOL    HW232592   6.243   0.125   1.993
10565SOL     OW32593   0.753   0.603   5.670
10565SOL    HW132594   0.774   0.694   5.706
10565SOL    HW232595   0.803   0.534   5.723
10566SOL     OW32596   4.196   3.423   6.954
10566SOL    HW132597   4.279   3.388   6.911
10566SOL    HW232598   4.126   3.351   6.955
10567SOL     OW32599   2.136   3.556   4.064
10567SOL    HW132600   2.066   3.544   3.995
10567SOL    HW232601   2.151   3.468   4.111
10568SOL     OW32602   5.564   1.158   1.682
10568SOL    HW132603   5.525   1.175   1.592
10568SOL    HW232604   5.548   1.063   1.708
10569SOL     OW32605   6.553   3.152   2.071
10569SOL    HW132606   6.469   3.120   2.027
10569SOL    HW232607   6.559   3.252   2.062
10570SOL     OW32608   1.639   5.133   2.571
10570SOL    HW132609   1.608   5.216   2.525
10570SOL    HW232610   1.631   5.055   2.509
10571SOL     OW32611   6.655   5.629   4.054
10571SOL    HW132612   6.654   5.538   4.094
10571SOL    HW232613   6.596   5.632   3.973
10572SOL     OW32614   5.962   3.726   3.088
10572SOL    HW132615   6.015   3.656   3.136
10572SOL    HW232616   6.024   3.791   3.044
10573SOL     OW32617   5.542   6.325   3.152
10573SOL    HW132618   5.597   6.313   3.070
10573SOL    HW232619   5.548   6.243   3.209
10574SOL     OW32620   1.630   1.604   3.825
10574SOL    HW132621   1.543   1.652   3.818
10574SOL    HW232622   1.699   1.665   3.865
10575SOL     OW32623   6.934   0.891   4.137
10575SOL    HW132624   6.969   0.968   4.083
10575SOL    HW232625   6.837   0.904   4.156
10576SOL     OW32626   0.857   6.633   5.121
10576SOL    HW132627   0.892   6.553   5.169
10576SOL    HW232628   0.884   6.630   5.025
10577SOL     OW32629   1.388   2.951   6.622
10577SOL    HW132630   1.484   2.958   6.648
10577SOL    HW232631   1.376   2.875   6.558
10578SOL     OW32632   6.330   0.415   4.080
10578SOL    HW132633   6.380   0.482   4.025
10578SOL    HW232634   6.249   0.385   4.032
10579SOL     OW32635   3.997   1.567   0.473
10579SOL    HW132636   3.914   1.525   0.437
10579SOL    HW232637   4.077   1.515   0.442
10580SOL     OW32638   6.548   6.782   0.188
10580SOL    HW132639   6.539   6.780   0.088
10580SOL    HW232640   6.613   6.853   0.214
10581SOL     OW32641   5.793   7.006   2.547
10581SOL    HW132642   5.708   6.959   2.568
10581SOL    HW232643   5.781   0.084   2.559
10582SOL     OW32644   3.665   4.746   6.065
10582SOL    HW132645   3.660   4.655   6.023
10582SOL    HW232646   3.745   4.750   6.124
10583SOL     OW32647   4.094   0.926   6.319
10583SOL    HW132648   4.032   0.853   6.292
10583SOL    HW232649   4.161   0.942   6.246
10584SOL     OW32650   5.387   6.581   0.975
10584SOL    HW132651   5.403   6.603   0.879
10584SOL    HW232652   5.294   6.605   1.000
10585SOL     OW32653   1.528   2.991   5.580
10585SOL    HW132654   1.512   3.032   5.670
10585SOL    HW232655   1.625   2.968   5.572
10586SOL     OW32656   1.398   5.681   5.763
10586SOL    HW132657   1.473   5.724   5.714
10586SOL    HW232658   1.312   5.725   5.736
10587SOL     OW32659   5.946   3.584   0.307
10587SOL    HW132660   5.985   3.578   0.215
10587SOL    HW232661   5.938   3.492   0.346
10588SOL     OW32662   1.408   3.782   2.139
10588SOL    HW132663   1.443   3.875   2.136
10588SOL    HW232664   1.314   3.781   2.104
10589SOL     OW32665   5.483   1.491   4.222
10589SOL    HW132666   5.480   1.396   4.254
10589SOL    HW232667   5.478   1.492   4.122
10590SOL     OW32668   1.452   0.232   2.127
10590SOL    HW132669   1.382   0.164   2.106
10590SOL    HW232670   1.480   0.279   2.043
10591SOL     OW32671   1.348   1.471   5.562
10591SOL    HW132672   1.261   1.485   5.515
10591SOL    HW232673   1.331   1.456   5.660
10592SOL     OW32674   5.115   2.662   0.257
10592SOL    HW132675   5.087   2.566   0.252
10592SOL    HW232676   5.186   2.673   0.326
10593SOL     OW32677   2.828   5.747   0.999
10593SOL    HW132678   2.767   5.825   0.988
10593SOL    HW232679   2.908   5.774   1.052
10594SOL     OW32680   5.710   1.959   3.778
10594SOL    HW132681   5.773   2.029   3.812
10594SOL    HW232682   5.749   1.915   3.698
10595SOL     OW32683   3.065   0.042   5.701
10595SOL    HW132684   3.097   6.973   5.730
10595SOL    HW232685   3.136   0.110   5.719
10596SOL     OW32686   4.213   6.947   1.696
10596SOL    HW132687   4.225   0.002   1.759
10596SOL    HW232688   4.138   6.889   1.727
10597SOL     OW32689   2.764   1.274   4.231
10597SOL    HW132690   2.677   1.232   4.254
10597SOL    HW232691   2.789   1.249   4.138
10598SOL     OW32692   2.673   2.207   6.737
10598SOL    HW132693   2.753   2.175   6.686
10598SOL    HW232694   2.656   2.145   6.814
10599SOL     OW32695   5.493   1.287   0.514
10599SOL    HW132696   5.396   1.289   0.538
10599SOL    HW232697   5.516   1.366   0.458
10600SOL     OW32698   2.219   3.001   6.939
10600SOL    HW132699   2.248   3.094   6.964
10600SOL    HW232700   2.296   2.938   6.952
10601SOL     OW32701   2.391   5.083   6.212
10601SOL    HW132702   2.461   5.134   6.163
10601SOL    HW232703   2.404   5.095   6.310
10602SOL     OW32704   5.150   1.688   2.237
10602SOL    HW132705   5.183   1.738   2.157
10602SOL    HW232706   5.214   1.702   2.313
10603SOL     OW32707   1.861   6.015   3.177
10603SOL    HW132708   1.857   6.087   3.107
10603SOL    HW232709   1.783   6.026   3.239
10604SOL     OW32710   5.737   4.356   4.287
10604SOL    HW132711   5.671   4.425   4.257
10604SOL    HW232712   5.825   4.400   4.306
10605SOL     OW32713   0.675   5.344   6.717
10605SOL    HW132714   0.674   5.259   6.770
10605SOL    HW232715   0.642   5.326   6.624
10606SOL     OW32716   6.179   0.621   1.852
10606SOL    HW132717   6.191   0.625   1.753
10606SOL    HW232718   6.090   0.660   1.877
10607SOL     OW32719   3.893   3.715   5.794
10607SOL    HW132720   3.976   3.702   5.739
10607SOL    HW232721   3.914   3.776   5.870
10608SOL     OW32722   5.723   1.887   4.958
10608SOL    HW132723   5.627   1.914   4.962
10608SOL    HW232724   5.749   1.869   4.863
10609SOL     OW32725   3.348   5.510   1.349
10609SOL    HW132726   3.360   5.541   1.443
10609SOL    HW232727   3.357   5.589   1.287
10610SOL     OW32728   0.911   4.208   0.104
10610SOL    HW132729   0.950   4.297   0.126
10610SOL    HW232730   0.974   4.157   0.046
10611SOL     OW32731   5.752   3.228   6.970
10611SOL    HW132732   5.815   3.288   6.920
10611SOL    HW232733   5.759   3.247   0.046
10612SOL     OW32734   2.563   6.509   6.021
10612SOL    HW132735   2.503   6.531   5.945
10612SOL    HW232736   2.566   6.587   6.085
10613SOL     OW32737   0.141   6.813   6.048
10613SOL    HW132738   0.127   6.714   6.043
10613SOL    HW232739   0.058   6.857   6.079
10614SOL     OW32740   0.180   1.578   4.069
10614SOL    HW132741   0.099   1.635   4.080
10614SOL    HW232742   0.260   1.635   4.048
10615SOL     OW32743   4.183   5.796   5.475
10615SOL    HW132744   4.167   5.714   5.530
10615SOL    HW232745   4.153   5.876   5.525
10616SOL     OW32746   3.129   6.578   0.138
10616SOL    HW132747   3.107   6.482   0.120
10616SOL    HW232748   3.067   6.637   0.087
10617SOL     OW32749   1.901   2.042   0.849
10617SOL    HW132750   1.958   1.997   0.780
10617SOL    HW232751   1.958   2.093   0.912
10618SOL     OW32752   6.352   2.706   0.007
10618SOL    HW132753   6.374   2.744   6.939
10618SOL    HW232754   6.260   2.735   0.034
10619SOL     OW32755   0.425   3.842   2.424
10619SOL    HW132756   0.490   3.782   2.377
10619SOL    HW232757   0.335   3.799   2.426
10620SOL     OW32758   0.830   5.499   5.624
10620SOL    HW132759   0.818   5.400   5.637
10620SOL    HW232760   0.915   5.516   5.575
10621SOL     OW32761   1.507   5.771   0.282
10621SOL    HW132762   1.562   5.773   0.365
10621SOL    HW232763   1.441   5.847   0.283
10622SOL     OW32764   4.208   0.931   2.124
10622SOL    HW132765   4.289   0.879   2.096
10622SOL    HW232766   4.151   0.873   2.183
10623SOL     OW32767   5.761   3.071   4.108
10623SOL    HW132768   5.727   2.981   4.136
10623SOL    HW232769   5.732   3.091   4.015
10624SOL     OW32770   0.784   1.250   4.952
10624SOL    HW132771   0.704   1.309   4.963
10624SOL    HW232772   0.760   1.156   4.977
10625SOL     OW32773   0.596   4.302   0.037
10625SOL    HW132774   0.660   4.248   0.092
10625SOL    HW232775   0.542   4.361   0.096
10626SOL     OW32776   1.034   2.435   1.634
10626SOL    HW132777   1.024   2.403   1.728
10626SOL    HW232778   0.969   2.386   1.576
10627SOL     OW32779   5.920   6.197   3.048
10627SOL    HW132780   5.982   6.271   3.072
10627SOL    HW232781   5.972   6.119   3.014
10628SOL     OW32782   5.464   5.118   5.332
10628SOL    HW132783   5.389   5.054   5.320
10628SOL    HW232784   5.528   5.110   5.255
10629SOL     OW32785   2.502   4.755   5.383
10629SOL    HW132786   2.416   4.706   5.367
10629SOL    HW232787   2.483   4.846   5.419
10630SOL     OW32788   6.248   0.683   3.493
10630SOL    HW132789   6.252   0.588   3.461
10630SOL    HW232790   6.158   0.701   3.534
10631SOL     OW32791   1.242   5.981   4.466
10631SOL    HW132792   1.236   5.993   4.565
10631SOL    HW232793   1.292   6.059   4.426
10632SOL     OW32794   6.060   2.471   4.295
10632SOL    HW132795   6.050   2.551   4.236
10632SOL    HW232796   6.112   2.496   4.376
10633SOL     OW32797   2.853   4.121   1.114
10633SOL    HW132798   2.831   4.074   1.200
10633SOL    HW232799   2.769   4.151   1.070
10634SOL     OW32800   2.966   5.420   0.070
10634SOL    HW132801   3.019   5.396   0.151
10634SOL    HW232802   2.870   5.397   0.085
10635SOL     OW32803   2.998   0.861   1.246
10635SOL    HW132804   3.051   0.816   1.174
10635SOL    HW232805   2.912   0.812   1.260
10636SOL     OW32806   0.895   1.979   1.890
10636SOL    HW132807   0.832   2.036   1.943
10636SOL    HW232808   0.963   1.939   1.951
10637SOL     OW32809   3.589   4.070   5.498
10637SOL    HW132810   3.573   4.119   5.584
10637SOL    HW232811   3.681   4.091   5.464
10638SOL     OW32812   0.488   6.537   3.318
10638SOL    HW132813   0.440   6.623   3.300
10638SOL    HW232814   0.517   6.497   3.232
10639SOL     OW32815   1.007   1.583   3.739
10639SOL    HW132816   1.092   1.537   3.713
10639SOL    HW232817   0.983   1.651   3.669
10640SOL     OW32818   4.303   7.006   6.984
10640SOL    HW132819   4.375   0.035   0.012
10640SOL    HW232820   4.290   6.916   0.005
10641SOL     OW32821   4.464   1.597   0.143
10641SOL    HW132822   4.500   1.686   0.117
10641SOL    HW232823   4.367   1.591   0.117
10642SOL     OW32824   0.386   2.349   1.599
10642SOL    HW132825   0.340   2.406   1.531
10642SOL    HW232826   0.369   2.253   1.579
10643SOL     OW32827   2.324   3.862   5.794
10643SOL    HW132828   2.295   3.787   5.854
10643SOL    HW232829   2.410   3.838   5.749
10644SOL     OW32830   4.447   1.996   4.077
10644SOL    HW132831   4.378   1.926   4.097
10644SOL    HW232832   4.534   1.952   4.057
10645SOL     OW32833   0.705   1.116   4.271
10645SOL    HW132834   0.743   1.162   4.351
10645SOL    HW232835   0.679   1.184   4.203
10646SOL     OW32836   0.644   2.063   6.150
10646SOL    HW132837   0.598   2.067   6.062
10646SOL    HW232838   0.719   1.997   6.146
10647SOL     OW32839   5.652   5.208   6.326
10647SOL    HW132840   5.696   5.266   6.258
10647SOL    HW232841   5.632   5.118   6.285
10648SOL     OW32842   5.283   3.659   6.376
10648SOL    HW132843   5.231   3.689   6.456
10648SOL    HW232844   5.380   3.657   6.399
10649SOL     OW32845   0.268   4.348   4.477
10649SOL    HW132846   0.288   4.336   4.380
10649SOL    HW232847   0.342   4.398   4.521
10650SOL     OW32848   1.383   6.454   3.938
10650SOL    HW132849   1.332   6.423   3.858
10650SOL    HW232850   1.470   6.495   3.909
10651SOL     OW32851   4.408   6.840   5.342
10651SOL    HW132852   4.456   6.885   5.418
10651SOL    HW232853   4.350   6.766   5.378
10652SOL     OW32854   3.474   0.229   6.334
10652SOL    HW132855   3.407   0.170   6.290
10652SOL    HW232856   3.543   0.173   6.381
10653SOL     OW32857   5.177   4.403   4.587
10653SOL    HW132858   5.129   4.372   4.505
10653SOL    HW232859   5.268   4.437   4.562
10654SOL     OW32860   3.287   6.854   1.514
10654SOL    HW132861   3.357   6.787   1.488
10654SOL    HW232862   3.248   6.828   1.602
10655SOL     OW32863   3.150   5.342   2.055
10655SOL    HW132864   3.067   5.380   2.096
10655SOL    HW232865   3.128   5.305   1.965
10656SOL     OW32866   6.611   2.604   6.721
10656SOL    HW132867   6.569   2.692   6.743
10656SOL    HW232868   6.571   2.533   6.779
10657SOL     OW32869   5.953   6.573   0.692
10657SOL    HW132870   6.010   6.535   0.765
10657SOL    HW232871   5.997   6.655   0.655
10658SOL     OW32872   0.635   4.410   4.955
10658SOL    HW132873   0.540   4.384   4.939
10658SOL    HW232874   0.642   4.510   4.960
10659SOL     OW32875   5.853   0.189   1.032
10659SOL    HW132876   5.872   0.094   1.057
10659SOL    HW232877   5.919   0.220   0.964
10660SOL     OW32878   4.874   4.118   5.999
10660SOL    HW132879   4.893   4.046   5.932
10660SOL    HW232880   4.795   4.091   6.055
10661SOL     OW32881   0.343   6.760   2.464
10661SOL    HW132882   0.334   6.665   2.433
10661SOL    HW232883   0.345   6.762   2.564
10662SOL     OW32884   6.724   1.002   0.921
10662SOL    HW132885   6.786   0.930   0.891
10662SOL    HW232886   6.640   0.999   0.866
10663SOL     OW32887   0.938   0.489   1.441
10663SOL    HW132888   0.922   0.419   1.511
10663SOL    HW232889   0.920   0.449   1.351
10664SOL     OW32890   1.992   4.285   6.428
10664SOL    HW132891   2.038   4.243   6.350
10664SOL    HW232892   1.927   4.220   6.467
10665SOL     OW32893   1.210   1.298   0.079
10665SOL    HW132894   1.139   1.351   0.031
10665SOL    HW232895   1.252   1.234   0.016
10666SOL     OW32896   3.683   4.803   0.024
10666SOL    HW132897   3.757   4.745   0.057
10666SOL    HW232898   3.597   4.776   0.067
10667SOL     OW32899   3.959   1.875   5.653
10667SOL    HW132900   3.924   1.797   5.706
10667SOL    HW232901   3.893   1.950   5.658
10668SOL     OW32902   1.630   2.119   5.939
10668SOL    HW132903   1.726   2.122   5.910
10668SOL    HW232904   1.584   2.203   5.912
10669SOL     OW32905   0.647   0.053   1.023
10669SOL    HW132906   0.592   0.081   0.944
10669SOL    HW232907   0.648   0.128   1.090
10670SOL     OW32908   5.703   4.552   5.861
10670SOL    HW132909   5.741   4.623   5.802
10670SOL    HW232910   5.626   4.589   5.913
10671SOL     OW32911   2.163   3.325   2.758
10671SOL    HW132912   2.186   3.242   2.708
10671SOL    HW232913   2.105   3.302   2.836
10672SOL     OW32914   0.132   3.125   0.544
10672SOL    HW132915   0.135   3.151   0.448
10672SOL    HW232916   0.041   3.092   0.568
10673SOL     OW32917   2.719   2.641   5.618
10673SOL    HW132918   2.693   2.550   5.583
10673SOL    HW232919   2.725   2.638   5.717
10674SOL     OW32920   3.866   3.568   1.196
10674SOL    HW132921   3.943   3.599   1.140
10674SOL    HW232922   3.894   3.489   1.250
10675SOL     OW32923   0.481   0.638   5.529
10675SOL    HW132924   0.572   0.604   5.552
10675SOL    HW232925   0.456   0.712   5.591
10676SOL     OW32926   5.778   0.751   6.446
10676SOL    HW132927   5.740   0.799   6.525
10676SOL    HW232928   5.847   0.808   6.403
10677SOL     OW32929   0.429   0.682   2.323
10677SOL    HW132930   0.346   0.710   2.275
10677SOL    HW232931   0.432   0.724   2.413
10678SOL     OW32932   2.852   5.975   2.603
10678SOL    HW132933   2.868   5.878   2.620
10678SOL    HW232934   2.829   6.020   2.690
10679SOL     OW32935   5.721   5.406   4.431
10679SOL    HW132936   5.769   5.472   4.373
10679SOL    HW232937   5.713   5.443   4.523
10680SOL     OW32938   1.786   3.137   2.787
10680SOL    HW132939   1.817   3.219   2.739
10680SOL    HW232940   1.838   3.058   2.754
10681SOL     OW32941   6.366   3.977   6.513
10681SOL    HW132942   6.419   3.954   6.432
10681SOL    HW232943   6.425   4.024   6.579
10682SOL     OW32944   1.725   1.348   3.442
10682SOL    HW132945   1.733   1.307   3.351
10682SOL    HW232946   1.772   1.290   3.509
10683SOL     OW32947   2.053   2.268   3.962
10683SOL    HW132948   2.147   2.272   3.995
10683SOL    HW232949   2.002   2.200   4.014
10684SOL     OW32950   5.501   4.055   0.996
10684SOL    HW132951   5.413   4.062   0.948
10684SOL    HW232952   5.574   4.088   0.936
10685SOL     OW32953   1.028   4.210   3.231
10685SOL    HW132954   1.058   4.158   3.311
10685SOL    HW232955   0.970   4.286   3.260
10686SOL     OW32956   3.661   5.977   6.773
10686SOL    HW132957   3.653   6.046   6.846
10686SOL    HW232958   3.720   5.903   6.804
10687SOL     OW32959   6.956   5.182   2.647
10687SOL    HW132960   0.012   5.245   2.636
10687SOL    HW232961   6.981   5.110   2.712
10688SOL     OW32962   6.530   4.359   2.435
10688SOL    HW132963   6.575   4.299   2.369
10688SOL    HW232964   6.547   4.326   2.528
10689SOL     OW32965   6.981   0.265   2.986
10689SOL    HW132966   6.892   0.291   2.950
10689SOL    HW232967   0.008   0.208   2.919
10690SOL     OW32968   4.243   5.380   2.739
10690SOL    HW132969   4.198   5.386   2.650
10690SOL    HW232970   4.174   5.377   2.811
10691SOL     OW32971   6.799   1.221   1.496
10691SOL    HW132972   6.838   1.264   1.577
10691SOL    HW232973   6.871   1.170   1.449
10692SOL     OW32974   3.108   5.780   3.880
10692SOL    HW132975   3.181   5.757   3.944
10692SOL    HW232976   3.134   5.751   3.788
10693SOL     OW32977   1.123   1.492   0.874
10693SOL    HW132978   1.054   1.424   0.894
10693SOL    HW232979   1.079   1.576   0.841
10694SOL     OW32980   3.498   6.438   0.915
10694SOL    HW132981   3.463   6.486   0.834
10694SOL    HW232982   3.531   6.348   0.889
10695SOL     OW32983   0.567   2.895   4.168
10695SOL    HW132984   0.469   2.910   4.157
10695SOL    HW232985   0.596   2.818   4.111
10696SOL     OW32986   6.863   6.106   1.550
10696SOL    HW132987   6.769   6.141   1.550
10696SOL    HW232988   6.921   6.166   1.494
10697SOL     OW32989   0.537   6.344   3.521
10697SOL    HW132990   0.499   6.422   3.471
10697SOL    HW232991   0.588   6.285   3.458
10698SOL     OW32992   2.863   0.071   3.164
10698SOL    HW132993   2.794   0.105   3.100
10698SOL    HW232994   2.851   6.994   3.176
10699SOL     OW32995   4.736   1.722   3.065
10699SOL    HW132996   4.657   1.705   3.124
10699SOL    HW232997   4.707   1.776   2.985
10700SOL     OW32998   0.332   6.614   0.822
10700SOL    HW132999   0.398   6.541   0.806
10700SOL    HW233000   0.248   6.595   0.773
10701SOL     OW33001   3.884   5.843   6.910
10701SOL    HW133002   3.891   5.769   6.843
10701SOL    HW233003   3.874   5.805   7.002
10702SOL     OW33004   6.031   2.527   0.261
10702SOL    HW133005   6.018   2.619   0.224
10702SOL    HW233006   6.128   2.502   0.254
10703SOL     OW33007   3.787   4.104   3.609
10703SOL    HW133008   3.800   4.172   3.537
10703SOL    HW233009   3.713   4.042   3.584
10704SOL     OW33010   4.954   6.886   2.205
10704SOL    HW133011   5.004   6.872   2.120
10704SOL    HW233012   4.862   6.847   2.197
10705SOL     OW33013   1.285   4.276   6.726
10705SOL    HW133014   1.274   4.285   6.825
10705SOL    HW233015   1.302   4.180   6.703
10706SOL     OW33016   4.154   0.736   1.908
10706SOL    HW133017   4.078   0.723   1.972
10706SOL    HW233018   4.240   0.717   1.954
10707SOL     OW33019   6.819   6.973   5.656
10707SOL    HW133020   6.733   6.979   5.605
10707SOL    HW233021   6.840   0.040   5.697
10708SOL     OW33022   4.805   1.138   1.275
10708SOL    HW133023   4.904   1.138   1.287
10708SOL    HW233024   4.784   1.136   1.177
10709SOL     OW33025   6.634   0.605   5.041
10709SOL    HW133026   6.651   0.545   5.119
10709SOL    HW233027   6.693   0.579   4.965
10710SOL     OW33028   6.331   5.503   4.033
10710SOL    HW133029   6.357   5.432   3.967
10710SOL    HW233030   6.318   5.462   4.123
10711SOL     OW33031   1.691   0.196   4.072
10711SOL    HW133032   1.761   0.155   4.130
10711SOL    HW233033   1.734   0.251   4.000
10712SOL     OW33034   4.027   1.680   5.019
10712SOL    HW133035   4.036   1.776   5.046
10712SOL    HW233036   3.942   1.667   4.968
10713SOL     OW33037   2.589   5.858   1.857
10713SOL    HW133038   2.678   5.862   1.810
10713SOL    HW233039   2.597   5.801   1.938
10714SOL     OW33040   0.628   4.601   5.182
10714SOL    HW133041   0.682   4.657   5.246
10714SOL    HW233042   0.622   4.647   5.094
10715SOL     OW33043   4.680   2.321   4.190
10715SOL    HW133044   4.755   2.315   4.124
10715SOL    HW233045   4.602   2.269   4.156
10716SOL     OW33046   6.574   1.304   4.513
10716SOL    HW133047   6.666   1.286   4.550
10716SOL    HW233048   6.566   1.265   4.422
10717SOL     OW33049   6.361   1.113   2.107
10717SOL    HW133050   6.362   1.017   2.079
10717SOL    HW233051   6.402   1.169   2.035
10718SOL     OW33052   6.274   5.154   6.757
10718SOL    HW133053   6.284   5.200   6.846
10718SOL    HW233054   6.221   5.212   6.695
10719SOL     OW33055   5.114   1.356   1.870
10719SOL    HW133056   5.040   1.394   1.815
10719SOL    HW233057   5.159   1.283   1.820
10720SOL     OW33058   0.059   3.435   6.323
10720SOL    HW133059   0.073   3.338   6.306
10720SOL    HW233060   7.010   3.470   6.261
10721SOL     OW33061   5.897   2.468   4.716
10721SOL    HW133062   5.851   2.523   4.787
10721SOL    HW233063   5.831   2.443   4.646
10722SOL     OW33064   6.378   3.715   0.283
10722SOL    HW133065   6.306   3.672   0.338
10722SOL    HW233066   6.392   3.661   0.200
10723SOL     OW33067   5.746   4.388   6.450
10723SOL    HW133068   5.666   4.409   6.505
10723SOL    HW233069   5.807   4.468   6.449
10724SOL     OW33070   4.329   6.443   6.274
10724SOL    HW133071   4.232   6.423   6.282
10724SOL    HW233072   4.377   6.409   6.354
10725SOL     OW33073   0.565   6.154   4.259
10725SOL    HW133074   0.574   6.110   4.348
10725SOL    HW233075   0.655   6.172   4.221
10726SOL     OW33076   5.968   0.502   4.821
10726SOL    HW133077   5.889   0.509   4.881
10726SOL    HW233078   5.942   0.456   4.736
10727SOL     OW33079   1.863   5.598   5.184
10727SOL    HW133080   1.957   5.586   5.214
10727SOL    HW233081   1.803   5.606   5.263
10728SOL     OW33082   4.726   6.862   3.203
10728SOL    HW133083   4.750   6.944   3.152
10728SOL    HW233084   4.669   6.887   3.282
10729SOL     OW33085   6.392   2.504   2.721
10729SOL    HW133086   6.463   2.565   2.686
10729SOL    HW233087   6.311   2.511   2.663
10730SOL     OW33088   2.293   6.558   2.152
10730SOL    HW133089   2.210   6.533   2.202
10730SOL    HW233090   2.361   6.485   2.160
10731SOL     OW33091   3.469   5.990   0.336
10731SOL    HW133092   3.558   5.953   0.309
10731SOL    HW233093   3.431   6.045   0.262
10732SOL     OW33094   5.590   5.904   2.623
10732SOL    HW133095   5.511   5.846   2.603
10732SOL    HW233096   5.591   5.926   2.721
10733SOL     OW33097   6.086   1.492   6.345
10733SOL    HW133098   6.056   1.443   6.263
10733SOL    HW233099   6.046   1.583   6.347
10734SOL     OW33100   1.660   0.428   6.483
10734SOL    HW133101   1.644   0.512   6.535
10734SOL    HW233102   1.650   0.349   6.544
10735SOL     OW33103   0.910   4.854   2.213
10735SOL    HW133104   0.993   4.897   2.250
10735SOL    HW233105   0.879   4.783   2.276
10736SOL     OW33106   0.234   0.955   3.652
10736SOL    HW133107   0.136   0.942   3.641
10736SOL    HW233108   0.260   1.047   3.622
10737SOL     OW33109   0.318   1.776   1.165
10737SOL    HW133110   0.415   1.798   1.174
10737SOL    HW233111   0.266   1.859   1.147
10738SOL     OW33112   2.876   0.968   2.842
10738SOL    HW133113   2.936   1.020   2.902
10738SOL    HW233114   2.783   1.006   2.847
10739SOL     OW33115   5.806   1.610   2.245
10739SOL    HW133116   5.827   1.667   2.165
10739SOL    HW233117   5.723   1.645   2.288
10740SOL     OW33118   1.400   6.547   5.939
10740SOL    HW133119   1.416   6.475   6.007
10740SOL    HW233120   1.339   6.616   5.978
10741SOL     OW33121   1.766   2.797   3.114
10741SOL    HW133122   1.684   2.824   3.166
10741SOL    HW233123   1.789   2.702   3.135
10742SOL     OW33124   6.244   5.533   2.286
10742SOL    HW133125   6.322   5.597   2.282
10742SOL    HW233126   6.161   5.582   2.260
10743SOL     OW33127   3.227   1.489   5.387
10743SOL    HW133128   3.131   1.511   5.369
10743SOL    HW233129   3.285   1.563   5.352
10744SOL     OW33130   2.788   0.463   1.378
10744SOL    HW133131   2.770   0.412   1.293
10744SOL    HW233132   2.784   0.400   1.456
10745SOL     OW33133   2.065   4.110   0.952
10745SOL    HW133134   1.981   4.161   0.932
10745SOL    HW233135   2.065   4.024   0.900
10746SOL     OW33136   2.448   6.044   6.928
10746SOL    HW133137   2.422   6.116   6.993
10746SOL    HW233138   2.482   5.964   6.978
10747SOL     OW33139   6.345   2.541   4.507
10747SOL    HW133140   6.354   2.470   4.577
10747SOL    HW233141   6.251   2.574   4.506
10748SOL     OW33142   4.198   5.137   1.117
10748SOL    HW133143   4.205   5.118   1.215
10748SOL    HW233144   4.211   5.052   1.065
10749SOL     OW33145   6.500   4.764   2.787
10749SOL    HW133146   6.403   4.748   2.770
10749SOL    HW233147   6.529   4.711   2.867
10750SOL     OW33148   4.885   3.246   3.974
10750SOL    HW133149   4.874   3.200   4.062
10750SOL    HW233150   4.970   3.299   3.975
10751SOL     OW33151   1.710   3.511   5.102
10751SOL    HW133152   1.654   3.437   5.138
10751SOL    HW233153   1.655   3.567   5.040
10752SOL     OW33154   6.038   5.516   0.193
10752SOL    HW133155   6.076   5.472   0.274
10752SOL    HW233156   6.053   5.614   0.198
10753SOL     OW33157   5.260   6.404   4.001
10753SOL    HW133158   5.192   6.468   4.037
10753SOL    HW233159   5.221   6.312   3.999
10754SOL     OW33160   0.858   2.839   1.556
10754SOL    HW133161   0.909   2.893   1.488
10754SOL    HW233162   0.842   2.894   1.637
10755SOL     OW33163   6.742   2.841   1.357
10755SOL    HW133164   6.811   2.847   1.285
10755SOL    HW233165   6.672   2.774   1.330
10756SOL     OW33166   6.379   2.291   0.631
10756SOL    HW133167   6.409   2.197   0.644
10756SOL    HW233168   6.280   2.297   0.646
10757SOL     OW33169   6.651   3.927   0.452
10757SOL    HW133170   6.678   4.023   0.438
10757SOL    HW233171   6.563   3.924   0.500
10758SOL     OW33172   0.672   6.432   6.779
10758SOL    HW133173   0.583   6.474   6.800
10758SOL    HW233174   0.657   6.348   6.727
10759SOL     OW33175   1.622   1.936   6.142
10759SOL    HW133176   1.626   2.016   6.081
10759SOL    HW233177   1.612   1.967   6.236
10760SOL     OW33178   0.827   6.373   0.380
10760SOL    HW133179   0.915   6.418   0.398
10760SOL    HW233180   0.839   6.274   0.384
10761SOL     OW33181   0.859   2.014   6.405
10761SOL    HW133182   0.767   2.051   6.395
10761SOL    HW233183   0.926   2.085   6.381
10762SOL     OW33184   4.168   0.829   5.582
10762SOL    HW133185   4.153   0.730   5.580
10762SOL    HW233186   4.098   0.874   5.527
10763SOL     OW33187   5.839   0.453   3.419
10763SOL    HW133188   5.829   0.550   3.397
10763SOL    HW233189   5.889   0.407   3.346
10764SOL     OW33190   4.502   1.287   4.923
10764SOL    HW133191   4.414   1.242   4.910
10764SOL    HW233192   4.529   1.282   5.019
10765SOL     OW33193   6.056   2.466   1.950
10765SOL    HW133194   5.993   2.542   1.937
10765SOL    HW233195   6.027   2.411   2.027
10766SOL     OW33196   1.006   4.716   0.498
10766SOL    HW133197   1.090   4.769   0.494
10766SOL    HW233198   1.017   4.642   0.564
10767SOL     OW33199   1.507   5.791   0.758
10767SOL    HW133200   1.563   5.744   0.826
10767SOL    HW233201   1.444   5.726   0.715
10768SOL     OW33202   5.639   5.723   0.473
10768SOL    HW133203   5.583   5.651   0.433
10768SOL    HW233204   5.689   5.688   0.552
10769SOL     OW33205   2.747   4.205   5.389
10769SOL    HW133206   2.767   4.110   5.363
10769SOL    HW233207   2.648   4.219   5.389
10770SOL     OW33208   5.494   6.978   4.643
10770SOL    HW133209   5.481   7.011   4.549
10770SOL    HW233210   5.487   6.878   4.643
10771SOL     OW33211   5.241   0.131   5.696
10771SOL    HW133212   5.307   0.197   5.730
10771SOL    HW233213   5.257   0.042   5.739
10772SOL     OW33214   5.439   6.060   3.327
10772SOL    HW133215   5.428   5.961   3.322
10772SOL    HW233216   5.510   6.083   3.394
10773SOL     OW33217   6.989   4.098   0.447
10773SOL    HW133218   6.990   4.186   0.494
10773SOL    HW233219   6.955   4.028   0.510
10774SOL     OW33220   1.491   2.299   0.669
10774SOL    HW133221   1.399   2.280   0.703
10774SOL    HW233222   1.558   2.276   0.740
10775SOL     OW33223   1.752   4.493   1.000
10775SOL    HW133224   1.771   4.405   0.958
10775SOL    HW233225   1.838   4.545   1.008
10776SOL     OW33226   0.060   0.869   2.733
10776SOL    HW133227   0.089   0.923   2.811
10776SOL    HW233228   6.984   0.848   2.741
10777SOL     OW33229   2.984   0.730   3.765
10777SOL    HW133230   2.893   0.695   3.789
10777SOL    HW233231   3.043   0.654   3.740
10778SOL     OW33232   6.474   6.566   4.236
10778SOL    HW133233   6.509   6.504   4.306
10778SOL    HW233234   6.473   6.659   4.271
10779SOL     OW33235   5.456   4.956   3.225
10779SOL    HW133236   5.398   5.015   3.168
10779SOL    HW233237   5.511   5.013   3.287
10780SOL     OW33238   0.680   5.806   4.502
10780SOL    HW133239   0.617   5.729   4.500
10780SOL    HW233240   0.756   5.786   4.564
10781SOL     OW33241   5.960   2.463   5.134
10781SOL    HW133242   6.006   2.472   5.046
10781SOL    HW233243   5.921   2.552   5.160
10782SOL     OW33244   0.852   2.815   5.369
10782SOL    HW133245   0.910   2.734   5.361
10782SOL    HW233246   0.835   2.835   5.466
10783SOL     OW33247   1.399   2.356   2.649
10783SOL    HW133248   1.479   2.412   2.670
10783SOL    HW233249   1.409   2.314   2.559
10784SOL     OW33250   2.694   6.296   2.569
10784SOL    HW133251   2.793   6.296   2.584
10784SOL    HW233252   2.661   6.390   2.561
10785SOL     OW33253   1.642   5.427   1.500
10785SOL    HW133254   1.713   5.462   1.561
10785SOL    HW233255   1.683   5.376   1.425
10786SOL     OW33256   4.682   2.072   2.138
10786SOL    HW133257   4.721   1.980   2.136
10786SOL    HW233258   4.582   2.066   2.130
10787SOL     OW33259   3.316   1.108   3.765
10787SOL    HW133260   3.348   1.098   3.671
10787SOL    HW233261   3.357   1.190   3.806
10788SOL     OW33262   0.181   4.191   0.241
10788SOL    HW133263   0.264   4.142   0.216
10788SOL    HW233264   0.122   4.132   0.296
10789SOL     OW33265   6.446   1.480   6.741
10789SOL    HW133266   6.496   1.461   6.657
10789SOL    HW233267   6.464   1.407   6.808
10790SOL     OW33268   0.726   2.445   5.014
10790SOL    HW133269   0.685   2.356   5.034
10790SOL    HW233270   0.716   2.465   4.917
10791SOL     OW33271   2.058   1.548   2.670
10791SOL    HW133272   1.985   1.483   2.692
10791SOL    HW233273   2.144   1.499   2.659
10792SOL     OW33274   3.686   2.273   1.366
10792SOL    HW133275   3.586   2.284   1.367
10792SOL    HW233276   3.729   2.363   1.375
10793SOL     OW33277   4.836   1.669   4.827
10793SOL    HW133278   4.788   1.581   4.826
10793SOL    HW233279   4.910   1.666   4.894
10794SOL     OW33280   4.371   3.006   1.712
10794SOL    HW133281   4.444   3.026   1.777
10794SOL    HW233282   4.290   3.061   1.733
10795SOL     OW33283   0.123   3.715   2.991
10795SOL    HW133284   0.156   3.726   2.897
10795SOL    HW233285   0.196   3.677   3.048
10796SOL     OW33286   6.397   6.535   6.943
10796SOL    HW133287   6.421   6.631   6.932
10796SOL    HW233288   6.434   6.482   6.866
10797SOL     OW33289   4.236   2.888   0.675
10797SOL    HW133290   4.179   2.909   0.755
10797SOL    HW233291   4.198   2.808   0.628
10798SOL     OW33292   2.986   6.720   6.462
10798SOL    HW133293   2.900   6.754   6.424
10798SOL    HW233294   3.061   6.778   6.431
10799SOL     OW33295   3.175   1.432   2.256
10799SOL    HW133296   3.166   1.478   2.344
10799SOL    HW233297   3.125   1.483   2.186
10800SOL     OW33298   1.390   6.978   6.545
10800SOL    HW133299   1.430   6.910   6.483
10800SOL    HW233300   1.291   6.967   6.547
10801SOL     OW33301   1.877   5.489   6.076
10801SOL    HW133302   1.854   5.554   6.148
10801SOL    HW233303   1.965   5.447   6.096
10802SOL     OW33304   1.268   3.858   3.781
10802SOL    HW133305   1.330   3.786   3.749
10802SOL    HW233306   1.229   3.832   3.869
10803SOL     OW33307   6.254   4.780   5.075
10803SOL    HW133308   6.311   4.859   5.053
10803SOL    HW233309   6.210   4.793   5.164
10804SOL     OW33310   5.940   4.338   1.744
10804SOL    HW133311   6.013   4.290   1.696
10804SOL    HW233312   5.954   4.436   1.737
10805SOL     OW33313   4.226   6.580   0.729
10805SOL    HW133314   4.180   6.501   0.770
10805SOL    HW233315   4.193   6.593   0.636
10806SOL     OW33316   5.483   3.865   0.562
10806SOL    HW133317   5.438   3.800   0.623
10806SOL    HW233318   5.563   3.904   0.608
10807SOL     OW33319   3.385   5.850   3.216
10807SOL    HW133320   3.391   5.922   3.284
10807SOL    HW233321   3.456   5.862   3.147
10808SOL     OW33322   0.637   2.366   6.040
10808SOL    HW133323   0.582   2.311   5.978
10808SOL    HW233324   0.716   2.313   6.071
10809SOL     OW33325   2.915   0.416   4.048
10809SOL    HW133326   2.823   0.380   4.037
10809SOL    HW233327   2.912   0.515   4.060
10810SOL     OW33328   0.406   1.532   5.294
10810SOL    HW133329   0.313   1.537   5.257
10810SOL    HW233330   0.469   1.503   5.223
10811SOL     OW33331   4.243   5.157   5.452
10811SOL    HW133332   4.342   5.152   5.454
10811SOL    HW233333   4.213   5.220   5.380
10812SOL     OW33334   6.629   2.617   2.686
10812SOL    HW133335   6.661   2.643   2.777
10812SOL    HW233336   6.703   2.571   2.636
10813SOL     OW33337   2.805   6.141   2.140
10813SOL    HW133338   2.731   6.182   2.194
10813SOL    HW233339   2.863   6.086   2.200
10814SOL     OW33340   1.907   0.096   5.089
10814SOL    HW133341   1.989   0.153   5.085
10814SOL    HW233342   1.931   0.001   5.075
10815SOL     OW33343   5.516   4.220   2.688
10815SOL    HW133344   5.456   4.196   2.612
10815SOL    HW233345   5.581   4.145   2.704
10816SOL     OW33346   1.552   0.796   2.141
10816SOL    HW133347   1.558   0.767   2.237
10816SOL    HW233348   1.541   0.716   2.082
10817SOL     OW33349   5.060   0.360   2.911
10817SOL    HW133350   5.147   0.386   2.954
10817SOL    HW233351   5.078   0.307   2.828
10818SOL     OW33352   5.246   2.972   6.569
10818SOL    HW133353   5.218   3.061   6.605
10818SOL    HW233354   5.303   2.985   6.488
10819SOL     OW33355   0.291   4.645   6.331
10819SOL    HW133356   0.300   4.589   6.249
10819SOL    HW233357   0.195   4.649   6.359
10820SOL     OW33358   6.903   6.568   3.781
10820SOL    HW133359   6.856   6.529   3.861
10820SOL    HW233360   6.836   6.584   3.709
10821SOL     OW33361   6.807   0.168   1.761
10821SOL    HW133362   6.743   0.151   1.836
10821SOL    HW233363   6.763   0.228   1.694
10822SOL     OW33364   1.135   3.853   2.290
10822SOL    HW133365   1.188   3.806   2.360
10822SOL    HW233366   1.110   3.787   2.218
10823SOL     OW33367   2.298   6.126   1.079
10823SOL    HW133368   2.391   6.155   1.100
10823SOL    HW233369   2.253   6.196   1.023
10824SOL     OW33370   4.911   1.049   2.796
10824SOL    HW133371   4.881   1.064   2.890
10824SOL    HW233372   5.006   1.019   2.796
10825SOL     OW33373   3.257   0.990   0.738
10825SOL    HW133374   3.340   1.041   0.713
10825SOL    HW233375   3.229   1.014   0.831
10826SOL     OW33376   0.354   3.663   2.087
10826SOL    HW133377   0.332   3.624   1.998
10826SOL    HW233378   0.430   3.727   2.078
10827SOL     OW33379   0.233   3.330   4.343
10827SOL    HW133380   0.155   3.351   4.283
10827SOL    HW233381   0.202   3.273   4.419
10828SOL     OW33382   1.313   6.013   0.331
10828SOL    HW133383   1.256   6.090   0.301
10828SOL    HW233384   1.343   6.029   0.425
10829SOL     OW33385   3.203   4.051   2.041
10829SOL    HW133386   3.167   4.144   2.034
10829SOL    HW233387   3.235   4.035   2.134
10830SOL     OW33388   5.261   3.019   4.800
10830SOL    HW133389   5.206   3.017   4.717
10830SOL    HW233390   5.201   3.030   4.879
10831SOL     OW33391   5.417   1.305   2.477
10831SOL    HW133392   5.516   1.309   2.481
10831SOL    HW233393   5.379   1.397   2.486
10832SOL     OW33394   0.906   1.867   0.519
10832SOL    HW133395   0.975   1.904   0.457
10832SOL    HW233396   0.820   1.917   0.506
10833SOL     OW33397   2.722   0.751   4.415
10833SOL    HW133398   2.745   0.841   4.453
10833SOL    HW233399   2.793   0.686   4.439
10834SOL     OW33400   0.546   1.741   5.722
10834SOL    HW133401   0.528   1.647   5.694
10834SOL    HW233402   0.619   1.780   5.666
10835SOL     OW33403   5.787   1.988   2.249
10835SOL    HW133404   5.746   1.902   2.218
10835SOL    HW233405   5.823   2.038   2.170
10836SOL     OW33406   1.282   2.061   6.331
10836SOL    HW133407   1.227   2.144   6.337
10836SOL    HW233408   1.226   1.982   6.357
10837SOL     OW33409   0.066   4.527   0.482
10837SOL    HW133410   0.126   4.566   0.552
10837SOL    HW233411   7.006   4.489   0.526
10838SOL     OW33412   5.414   0.024   6.626
10838SOL    HW133413   5.452   0.055   6.713
10838SOL    HW233414   5.439   6.950   6.611
10839SOL     OW33415   2.090   1.917   0.022
10839SOL    HW133416   2.096   1.876   6.952
10839SOL    HW233417   2.119   1.850   0.090
10840SOL     OW33418   3.477   5.196   1.664
10840SOL    HW133419   3.437   5.287   1.680
10840SOL    HW233420   3.457   5.137   1.742
10841SOL     OW33421   4.094   6.123   5.942
10841SOL    HW133422   4.178   6.161   5.980
10841SOL    HW233423   4.108   6.028   5.916
10842SOL     OW33424   6.187   3.263   0.830
10842SOL    HW133425   6.132   3.346   0.839
10842SOL    HW233426   6.279   3.287   0.798
10843SOL     OW33427   0.617   1.666   2.245
10843SOL    HW133428   0.676   1.611   2.186
10843SOL    HW233429   0.671   1.703   2.320
10844SOL     OW33430   5.478   6.701   2.790
10844SOL    HW133431   5.559   6.705   2.847
10844SOL    HW233432   5.405   6.755   2.832
10845SOL     OW33433   1.066   0.722   1.466
10845SOL    HW133434   1.037   0.631   1.435
10845SOL    HW233435   0.996   0.789   1.441
10846SOL     OW33436   4.150   2.111   1.195
10846SOL    HW133437   4.059   2.143   1.168
10846SOL    HW233438   4.202   2.187   1.233
10847SOL     OW33439   3.625   2.302   5.800
10847SOL    HW133440   3.612   2.371   5.871
10847SOL    HW233441   3.578   2.217   5.827
10848SOL     OW33442   1.550   0.650   0.509
10848SOL    HW133443   1.451   0.633   0.502
10848SOL    HW233444   1.568   0.748   0.497
10849SOL     OW33445   2.886   4.957   4.498
10849SOL    HW133446   2.794   4.994   4.513
10849SOL    HW233447   2.895   4.870   4.545
10850SOL     OW33448   5.515   0.046   6.886
10850SOL    HW133449   5.610   0.075   6.873
10850SOL    HW233450   5.513   6.970   6.908
10851SOL     OW33451   2.806   2.368   6.481
10851SOL    HW133452   2.792   2.344   6.385
10851SOL    HW233453   2.719   2.388   6.524
10852SOL     OW33454   0.295   0.988   6.711
10852SOL    HW133455   0.294   1.055   6.785
10852SOL    HW233456   0.297   1.036   6.623
10853SOL     OW33457   3.056   1.306   4.367
10853SOL    HW133458   3.063   1.254   4.452
10853SOL    HW233459   2.961   1.311   4.338
10854SOL     OW33460   6.471   6.796   6.914
10854SOL    HW133461   6.553   6.792   6.857
10854SOL    HW233462   6.440   6.891   6.920
10855SOL     OW33463   1.803   6.229   1.883
10855SOL    HW133464   1.762   6.259   1.796
10855SOL    HW233465   1.771   6.288   1.957
10856SOL     OW33466   5.943   6.898   6.940
10856SOL    HW133467   6.014   6.930   7.004
10856SOL    HW233468   5.946   6.798   6.935
10857SOL     OW33469   6.386   1.617   3.593
10857SOL    HW133470   6.358   1.654   3.682
10857SOL    HW233471   6.405   1.520   3.602
10858SOL     OW33472   1.534   3.025   0.163
10858SOL    HW133473   1.536   2.969   0.245
10858SOL    HW233474   1.563   2.971   0.084
10859SOL     OW33475   0.743   4.790   3.394
10859SOL    HW133476   0.817   4.830   3.339
10859SOL    HW233477   0.657   4.837   3.375
10860SOL     OW33478   6.653   1.543   6.969
10860SOL    HW133479   6.584   1.531   0.019
10860SOL    HW233480   6.624   1.616   6.907
10861SOL     OW33481   3.032   2.840   1.763
10861SOL    HW133482   3.098   2.769   1.787
10861SOL    HW233483   3.032   2.911   1.834
10862SOL     OW33484   3.311   2.258   6.031
10862SOL    HW133485   3.245   2.270   5.957
10862SOL    HW233486   3.285   2.179   6.086
10863SOL     OW33487   2.764   0.885   3.200
10863SOL    HW133488   2.821   0.829   3.138
10863SOL    HW233489   2.672   0.892   3.163
10864SOL     OW33490   2.269   4.228   1.752
10864SOL    HW133491   2.315   4.273   1.829
10864SOL    HW233492   2.219   4.296   1.699
10865SOL     OW33493   4.958   2.813   3.237
10865SOL    HW133494   4.973   2.851   3.329
10865SOL    HW233495   4.978   2.883   3.169
10866SOL     OW33496   6.710   3.901   2.207
10866SOL    HW133497   6.804   3.906   2.242
10866SOL    HW233498   6.679   3.993   2.183
10867SOL     OW33499   3.374   2.427   0.473
10867SOL    HW133500   3.297   2.392   0.420
10867SOL    HW233501   3.427   2.350   0.509
10868SOL     OW33502   1.225   2.183   3.561
10868SOL    HW133503   1.242   2.276   3.594
10868SOL    HW233504   1.275   2.118   3.617
10869NA      NA33505   0.152   1.773   5.918
10870NA      NA33506   4.391   4.677   5.146
10871NA      NA33507   1.384   5.475   2.514
10872NA      NA33508   5.202   4.225   3.377
10873NA      NA33509   4.316   2.365   5.223
10874NA      NA33510   2.514   5.083   0.727
10875NA      NA33511   1.017   5.435   6.915
10876NA      NA33512   3.365   3.945   1.379
10877NA      NA33513   4.327   4.919   0.782
10878NA      NA33514   3.400   1.010   6.751
10879NA      NA33515   5.607   5.803   2.082
10880NA      NA33516   1.341   6.727   5.276
10881NA      NA33517   4.601   5.080   1.919
10882NA      NA33518   3.103   2.988   6.719
   7.02137   7.02137   7.02137
